Generated by trjconv : CNT in water t= 298.00000
33518
    1C        C    1   2.841   2.766   4.748
    1C        C    2   2.898   2.716   4.867
    1C        C    3   2.840   2.766   4.984
    1C        C    4   2.850   2.776   4.261
    1C        C    5   2.901   2.724   4.382
    1C        C    6   2.847   2.770   4.504
    1C        C    7   3.010   2.638   4.624
    1C        C    8   2.893   2.716   4.626
    1C        C    9   3.076   2.601   4.744
    1C        C   10   3.009   2.629   4.864
    1C        C   11   3.183   2.495   4.979
    1C        C   12   3.063   2.566   4.978
    1C        C   13   2.848   2.773   3.770
    1C        C   14   2.903   2.726   3.892
    1C        C   15   2.851   2.774   4.015
    1C        C   16   3.018   2.646   4.136
    1C        C   17   2.903   2.728   4.139
    1C        C   18   3.081   2.613   4.258
    1C        C   19   3.019   2.647   4.380
    1C        C   20   3.208   2.558   4.504
    1C        C   21   3.075   2.606   4.503
    1C        C   22   3.277   2.535   4.625
    1C        C   23   3.206   2.543   4.747
    1C        C   24   3.413   2.481   4.868
    1C        C   25   3.271   2.501   4.867
    1C        C   26   3.490   2.481   4.985
    1C        C   27   2.852   2.773   3.281
    1C        C   28   2.905   2.727   3.404
    1C        C   29   2.852   2.774   3.526
    1C        C   30   3.019   2.645   3.648
    1C        C   31   2.904   2.727   3.649
    1C        C   32   3.078   2.607   3.771
    1C        C   33   3.019   2.645   3.893
    1C        C   34   3.207   2.549   4.014
    1C        C   35   3.078   2.606   4.015
    1C        C   36   3.277   2.529   4.136
    1C        C   37   3.210   2.555   4.258
    1C        C   38   3.414   2.507   4.380
    1C        C   39   3.275   2.535   4.382
    1C        C   40   3.483   2.505   4.503
    1C        C   41   3.414   2.503   4.626
    1C        C   42   3.628   2.487   4.745
    1C        C   43   3.486   2.481   4.746
    1C        C   44   3.704   2.487   4.864
    1C        C   45   3.629   2.477   4.982
    1C        C   46   2.839   2.752   2.794
    1C        C   47   2.894   2.709   2.917
    1C        C   48   2.841   2.761   3.036
    1C        C   49   3.017   2.642   3.161
    1C        C   50   2.902   2.724   3.158
    1C        C   51   3.078   2.602   3.282
    1C        C   52   3.019   2.643   3.404
    1C        C   53   3.209   2.548   3.528
    1C        C   54   3.081   2.608   3.526
    1C        C   55   3.276   2.528   3.650
    1C        C   56   3.207   2.550   3.772
    1C        C   57   3.416   2.506   3.893
    1C        C   58   3.277   2.530   3.893
    1C        C   59   3.488   2.498   4.014
    1C        C   60   3.416   2.504   4.136
    1C        C   61   3.626   2.501   4.261
    1C        C   62   3.485   2.498   4.259
    1C        C   63   3.698   2.510   4.382
    1C        C   64   3.625   2.508   4.503
    1C        C   65   3.832   2.551   4.622
    1C        C   66   3.698   2.506   4.624
    1C        C   67   3.900   2.570   4.744
    1C        C   68   3.838   2.534   4.865
    1C        C   69   4.050   2.587   4.975
    1C        C   70   3.924   2.527   4.975
    1C        C   71   2.821   2.734   2.309
    1C        C   72   2.881   2.690   2.429
    1C        C   73   2.832   2.745   2.550
    1C        C   74   3.009   2.628   2.672
    1C        C   75   2.889   2.702   2.671
    1C        C   76   3.075   2.600   2.794
    1C        C   77   3.015   2.635   2.916
    1C        C   78   3.207   2.547   3.038
    1C        C   79   3.079   2.607   3.039
    1C        C   80   3.273   2.526   3.161
    1C        C   81   3.208   2.547   3.284
    1C        C   82   3.416   2.504   3.403
    1C        C   83   3.276   2.524   3.406
    1C        C   84   3.485   2.503   3.527
    1C        C   85   3.415   2.505   3.650
    1C        C   86   3.629   2.504   3.770
    1C        C   87   3.488   2.497   3.771
    1C        C   88   3.699   2.515   3.893
    1C        C   89   3.629   2.504   4.015
    1C        C   90   3.830   2.555   4.136
    1C        C   91   3.697   2.509   4.139
    1C        C   92   3.899   2.579   4.257
    1C        C   93   3.833   2.551   4.379
    1C        C   94   4.026   2.639   4.499
    1C        C   95   3.902   2.571   4.501
    1C        C   96   4.089   2.672   4.621
    1C        C   97   4.030   2.627   4.742
    1C        C   98   4.198   2.763   4.861
    1C        C   99   4.097   2.662   4.862
    1C        C  100   4.219   2.840   4.977
    1C        C  101   2.816   2.728   2.072
    1C        C  102   2.987   2.592   2.186
    1C        C  103   2.870   2.675   2.190
    1C        C  104   3.060   2.570   2.306
    1C        C  105   3.001   2.616   2.425
    1C        C  106   3.196   2.534   2.550
    1C        C  107   3.067   2.592   2.548
    1C        C  108   3.269   2.517   2.670
    1C        C  109   3.205   2.546   2.793
    1C        C  110   3.411   2.499   2.915
    1C        C  111   3.271   2.519   2.915
    1C        C  112   3.482   2.494   3.037
    1C        C  113   3.412   2.498   3.159
    1C        C  114   3.626   2.498   3.279
    1C        C  115   3.485   2.495   3.280
    1C        C  116   3.695   2.511   3.401
    1C        C  117   3.626   2.505   3.524
    1C        C  118   3.834   2.544   3.644
    1C        C  119   3.696   2.513   3.647
    1C        C  120   3.899   2.577   3.766
    1C        C  121   3.835   2.555   3.890
    1C        C  122   4.024   2.641   4.015
    1C        C  123   3.896   2.581   4.014
    1C        C  124   4.090   2.675   4.135
    1C        C  125   4.025   2.643   4.256
    1C        C  126   4.195   2.770   4.378
    1C        C  127   4.086   2.679   4.378
    1C        C  128   4.245   2.820   4.500
    1C        C  129   4.191   2.769   4.621
    1C        C  130   4.330   2.934   4.740
    1C        C  131   4.251   2.816   4.740
    1C        C  132   4.365   3.000   4.859
    1C        C  133   4.295   2.957   4.973
    1C        C  134   3.173   2.469   2.081
    1C        C  135   3.039   2.509   2.082
    1C        C  136   3.259   2.478   2.191
    1C        C  137   3.194   2.522   2.309
    1C        C  138   3.403   2.478   2.427
    1C        C  139   3.265   2.506   2.430
    1C        C  140   3.478   2.481   2.547
    1C        C  141   3.409   2.501   2.669
    1C        C  142   3.621   2.496   2.790
    1C        C  143   3.480   2.495   2.791
    1C        C  144   3.692   2.505   2.912
    1C        C  145   3.623   2.496   3.035
    1C        C  146   3.831   2.541   3.155
    1C        C  147   3.695   2.503   3.156
    1C        C  148   3.897   2.564   3.278
    1C        C  149   3.833   2.543   3.402
    1C        C  150   4.028   2.631   3.522
    1C        C  151   3.903   2.565   3.523
    1C        C  152   4.086   2.673   3.644
    1C        C  153   4.020   2.650   3.766
    1C        C  154   4.188   2.771   3.889
    1C        C  155   4.079   2.682   3.891
    1C        C  156   4.245   2.816   4.010
    1C        C  157   4.201   2.762   4.133
    1C        C  158   4.345   2.917   4.253
    1C        C  159   4.251   2.812   4.255
    1C        C  160   4.382   2.982   4.374
    1C        C  161   4.334   2.929   4.496
    1C        C  162   4.441   3.113   4.615
    1C        C  163   4.372   2.990   4.617
    1C        C  164   4.470   3.183   4.735
    1C        C  165   4.438   3.121   4.857
    1C        C  166   4.522   3.314   4.970
    1C        C  167   4.489   3.179   4.974
    1C        C  168   3.473   2.439   2.072
    1C        C  169   3.398   2.456   2.190
    1C        C  170   3.618   2.463   2.305
    1C        C  171   3.476   2.465   2.307
    1C        C  172   3.690   2.486   2.424
    1C        C  173   3.618   2.493   2.545
    1C        C  174   3.827   2.536   2.664
    1C        C  175   3.690   2.500   2.667
    1C        C  176   3.897   2.556   2.785
    1C        C  177   3.831   2.533   2.908
    1C        C  178   4.020   2.627   3.032
    1C        C  179   3.897   2.559   3.031
    1C        C  180   4.087   2.660   3.152
    1C        C  181   4.023   2.628   3.274
    1C        C  182   4.194   2.752   3.399
    1C        C  183   4.083   2.665   3.396
    1C        C  184   4.244   2.806   3.520
    1C        C  185   4.197   2.761   3.645
    1C        C  186   4.343   2.913   3.766
    1C        C  187   4.250   2.807   3.767
    1C        C  188   4.384   2.976   3.886
    1C        C  189   4.340   2.921   4.009
    1C        C  190   4.447   3.103   4.131
    1C        C  191   4.384   2.977   4.131
    1C        C  192   4.471   3.174   4.251
    1C        C  193   4.442   3.110   4.374
    1C        C  194   4.510   3.315   4.494
    1C        C  195   4.465   3.181   4.493
    1C        C  196   4.524   3.387   4.615
    1C        C  197   4.518   3.317   4.737
    1C        C  198   4.559   3.534   4.850
    1C        C  199   4.541   3.392   4.855
    1C        C  200   4.576   3.617   4.965
    1C        C  201   3.612   2.422   2.072
    1C        C  202   3.826   2.514   2.185
    1C        C  203   3.692   2.462   2.183
    1C        C  204   3.900   2.540   2.303
    1C        C  205   3.827   2.521   2.423
    1C        C  206   4.022   2.617   2.542
    1C        C  207   3.894   2.556   2.542
    1C        C  208   4.085   2.651   2.663
    1C        C  209   4.025   2.616   2.786
    1C        C  210   4.192   2.747   2.910
    1C        C  211   4.081   2.660   2.908
    1C        C  212   4.251   2.793   3.030
    1C        C  213   4.200   2.744   3.153
    1C        C  214   4.333   2.908   3.274
    1C        C  215   4.246   2.797   3.276
    1C        C  216   4.372   2.970   3.395
    1C        C  217   4.340   2.910   3.520
    1C        C  218   4.438   3.098   3.640
    1C        C  219   4.379   2.969   3.642
    1C        C  220   4.464   3.167   3.761
    1C        C  221   4.448   3.102   3.885
    1C        C  222   4.504   3.305   4.002
    1C        C  223   4.474   3.167   4.008
    1C        C  224   4.520   3.379   4.122
    1C        C  225   4.506   3.311   4.245
    1C        C  226   4.518   3.520   4.366
    1C        C  227   4.517   3.379   4.368
    1C        C  228   4.509   3.596   4.484
    1C        C  229   4.524   3.529   4.608
    1C        C  230   4.497   3.739   4.727
    1C        C  231   4.537   3.603   4.727
    1C        C  232   4.495   3.819   4.843
    1C        C  233   4.544   3.753   4.956
    1C        C  234   4.015   2.611   2.061
    1C        C  235   3.895   2.541   2.066
    1C        C  236   4.084   2.645   2.178
    1C        C  237   4.026   2.605   2.300
    1C        C  238   4.199   2.735   2.420
    1C        C  239   4.085   2.651   2.420
    1C        C  240   4.247   2.789   2.541
    1C        C  241   4.192   2.744   2.663
    1C        C  242   4.332   2.902   2.786
    1C        C  243   4.244   2.792   2.786
    1C        C  244   4.378   2.959   2.907
    1C        C  245   4.339   2.903   3.031
    1C        C  246   4.442   3.091   3.152
    1C        C  247   4.374   2.967   3.152
    1C        C  248   4.459   3.161   3.273
    1C        C  249   4.432   3.098   3.396
    1C        C  250   4.496   3.301   3.514
    1C        C  251   4.462   3.164   3.518
    1C        C  252   4.509   3.373   3.635
    1C        C  253   4.498   3.304   3.757
    1C        C  254   4.516   3.515   3.875
    1C        C  255   4.512   3.374   3.879
    1C        C  256   4.515   3.587   3.996
    1C        C  257   4.526   3.520   4.120
    1C        C  258   4.489   3.728   4.239
    1C        C  259   4.519   3.589   4.242
    1C        C  260   4.463   3.799   4.358
    1C        C  261   4.483   3.735   4.482
    1C        C  262   4.420   3.936   4.604
    1C        C  263   4.471   3.805   4.604
    1C        C  264   4.392   4.008   4.723
    1C        C  265   4.431   3.945   4.843
    1C        C  266   4.312   4.127   4.959
    1C        C  267   4.392   4.013   4.959
    1C        C  268   4.261   2.776   2.063
    1C        C  269   4.201   2.725   2.179
    1C        C  270   4.348   2.885   2.298
    1C        C  271   4.258   2.776   2.298
    1C        C  272   4.382   2.951   2.419
    1C        C  273   4.340   2.896   2.542
    1C        C  274   4.447   3.079   2.663
    1C        C  275   4.382   2.953   2.664
    1C        C  276   4.472   3.147   2.785
    1C        C  277   4.445   3.083   2.908
    1C        C  278   4.507   3.289   3.023
    1C        C  279   4.473   3.151   3.028
    1C        C  280   4.511   3.362   3.144
    1C        C  281   4.493   3.298   3.269
    1C        C  282   4.508   3.511   3.387
    1C        C  283   4.501   3.369   3.390
    1C        C  284   4.513   3.583   3.508
    1C        C  285   4.517   3.514   3.631
    1C        C  286   4.496   3.726   3.754
    1C        C  287   4.515   3.586   3.753
    1C        C  288   4.476   3.794   3.876
    1C        C  289   4.488   3.726   3.999
    1C        C  290   4.427   3.933   4.117
    1C        C  291   4.474   3.800   4.119
    1C        C  292   4.395   3.999   4.238
    1C        C  293   4.413   3.931   4.361
    1C        C  294   4.327   4.127   4.477
    1C        C  295   4.389   4.000   4.482
    1C        C  296   4.288   4.192   4.596
    1C        C  297   4.324   4.133   4.719
    1C        C  298   4.195   4.309   4.837
    1C        C  299   4.281   4.194   4.840
    1C        C  300   4.168   4.399   4.944
    1C        C  301   4.346   2.886   2.063
    1C        C  302   4.469   3.069   2.179
    1C        C  303   4.397   2.945   2.179
    1C        C  304   4.484   3.142   2.300
    1C        C  305   4.451   3.074   2.419
    1C        C  306   4.505   3.280   2.537
    1C        C  307   4.478   3.141   2.540
    1C        C  308   4.511   3.354   2.657
    1C        C  309   4.502   3.285   2.780
    1C        C  310   4.525   3.498   2.898
    1C        C  311   4.522   3.357   2.900
    1C        C  312   4.519   3.569   3.020
    1C        C  313   4.515   3.503   3.145
    1C        C  314   4.480   3.718   3.263
    1C        C  315   4.501   3.579   3.263
    1C        C  316   4.476   3.790   3.385
    1C        C  317   4.494   3.723   3.508
    1C        C  318   4.421   3.922   3.628
    1C        C  319   4.479   3.793   3.630
    1C        C  320   4.388   3.985   3.750
    1C        C  321   4.423   3.925   3.873
    1C        C  322   4.319   4.112   3.990
    1C        C  323   4.395   3.993   3.993
    1C        C  324   4.281   4.173   4.112
    1C        C  325   4.325   4.122   4.236
    1C        C  326   4.185   4.285   4.353
    1C        C  327   4.285   4.185   4.356
    1C        C  328   4.138   4.343   4.474
    1C        C  329   4.195   4.298   4.595
    1C        C  330   4.025   4.436   4.714
    1C        C  331   4.141   4.354   4.713
    1C        C  332   3.971   4.496   4.829
    1C        C  333   4.051   4.476   4.943
    1C        C  334   4.554   3.265   2.062
    1C        C  335   4.532   3.126   2.064
    1C        C  336   4.539   3.348   2.173
    1C        C  337   4.520   3.280   2.295
    1C        C  338   4.522   3.493   2.413
    1C        C  339   4.519   3.352   2.417
    1C        C  340   4.521   3.566   2.534
    1C        C  341   4.522   3.495   2.656
    1C        C  342   4.487   3.707   2.777
    1C        C  343   4.515   3.569   2.776
    1C        C  344   4.471   3.778   2.898
    1C        C  345   4.490   3.707   3.019
    1C        C  346   4.426   3.916   3.134
    1C        C  347   4.470   3.782   3.137
    1C        C  348   4.393   3.981   3.255
    1C        C  349   4.425   3.922   3.379
    1C        C  350   4.323   4.104   3.501
    1C        C  351   4.396   3.982   3.503
    1C        C  352   4.281   4.165   3.621
    1C        C  353   4.319   4.109   3.745
    1C        C  354   4.182   4.271   3.865
    1C        C  355   4.276   4.166   3.867
    1C        C  356   4.126   4.319   3.985
    1C        C  357   4.180   4.272   4.107
    1C        C  358   4.012   4.400   4.231
    1C        C  359   4.130   4.323   4.229
    1C        C  360   3.952   4.446   4.350
    1C        C  361   4.019   4.418   4.472
    1C        C  362   3.825   4.508   4.593
    1C        C  363   3.957   4.458   4.592
    1C        C  364   3.760   4.547   4.713
    1C        C  365   3.838   4.546   4.830
    1C        C  366   3.627   4.586   4.947
    1C        C  367   3.766   4.581   4.945
    1C        C  368   4.511   3.561   2.054
    1C        C  369   4.529   3.489   2.173
    1C        C  370   4.506   3.706   2.287
    1C        C  371   4.523   3.565   2.291
    1C        C  372   4.485   3.775   2.407
    1C        C  373   4.497   3.706   2.530
    1C        C  374   4.423   3.904   2.648
    1C        C  375   4.473   3.772   2.652
    1C        C  376   4.392   3.971   2.768
    1C        C  377   4.424   3.911   2.892
    1C        C  378   4.325   4.102   3.012
    1C        C  379   4.398   3.981   3.012
    1C        C  380   4.278   4.158   3.133
    1C        C  381   4.322   4.103   3.256
    1C        C  382   4.179   4.258   3.375
    1C        C  383   4.277   4.157   3.379
    1C        C  384   4.122   4.302   3.497
    1C        C  385   4.179   4.262   3.620
    1C        C  386   4.008   4.390   3.743
    1C        C  387   4.124   4.309   3.741
    1C        C  388   3.948   4.433   3.863
    1C        C  389   4.009   4.398   3.986
    1C        C  390   3.817   4.484   4.106
    1C        C  391   3.948   4.432   4.109
    1C        C  392   3.749   4.505   4.228
    1C        C  393   3.821   4.499   4.350
    1C        C  394   3.615   4.549   4.472
    1C        C  395   3.754   4.523   4.472
    1C        C  396   3.544   4.558   4.594
    1C        C  397   3.620   4.563   4.713
    1C        C  398   3.407   4.552   4.841
    1C        C  399   3.547   4.568   4.834
    1C        C  400   3.339   4.510   4.956
    1C        C  401   4.504   3.700   2.053
    1C        C  402   4.457   3.915   2.165
    1C        C  403   4.499   3.780   2.167
    1C        C  404   4.415   3.977   2.285
    1C        C  405   4.441   3.910   2.406
    1C        C  406   4.319   4.087   2.522
    1C        C  407   4.401   3.972   2.526
    1C        C  408   4.277   4.143   2.645
    1C        C  409   4.317   4.090   2.769
    1C        C  410   4.176   4.250   2.889
    1C        C  411   4.281   4.156   2.889
    1C        C  412   4.124   4.300   3.011
    1C        C  413   4.178   4.258   3.135
    1C        C  414   4.000   4.379   3.252
    1C        C  415   4.121   4.304   3.255
    1C        C  416   3.943   4.414   3.376
    1C        C  417   4.004   4.380   3.499
    1C        C  418   3.815   4.477   3.618
    1C        C  419   3.944   4.418   3.621
    1C        C  420   3.748   4.505   3.739
    1C        C  421   3.815   4.482   3.861
    1C        C  422   3.611   4.530   3.985
    1C        C  423   3.750   4.505   3.984
    1C        C  424   3.541   4.535   4.108
    1C        C  425   3.611   4.534   4.231
    1C        C  426   3.400   4.542   4.354
    1C        C  427   3.541   4.552   4.352
    1C        C  428   3.331   4.545   4.477
    1C        C  429   3.403   4.553   4.598
    1C        C  430   3.193   4.518   4.719
    1C        C  431   3.333   4.545   4.720
    1C        C  432   3.124   4.494   4.841
    1C        C  433   3.200   4.501   4.959
    1C        C  434   4.389   4.121   2.052
    1C        C  435   4.453   3.996   2.051
    1C        C  436   4.300   4.157   2.158
    1C        C  437   4.334   4.094   2.281
    1C        C  438   4.180   4.246   2.400
    1C        C  439   4.280   4.147   2.400
    1C        C  440   4.124   4.291   2.522
    1C        C  441   4.179   4.245   2.644
    1C        C  442   4.007   4.374   2.765
    1C        C  443   4.123   4.292   2.765
    1C        C  444   3.945   4.411   2.886
    1C        C  445   4.005   4.376   3.009
    1C        C  446   3.810   4.469   3.131
    1C        C  447   3.939   4.412   3.129
    1C        C  448   3.746   4.500   3.253
    1C        C  449   3.813   4.469   3.374
    1C        C  450   3.609   4.525   3.496
    1C        C  451   3.747   4.494   3.496
    1C        C  452   3.540   4.539   3.619
    1C        C  453   3.610   4.537   3.742
    1C        C  454   3.398   4.544   3.865
    1C        C  455   3.539   4.541   3.864
    1C        C  456   3.329   4.531   3.987
    1C        C  457   3.400   4.531   4.109
    1C        C  458   3.192   4.500   4.236
    1C        C  459   3.330   4.528   4.232
    1C        C  460   3.124   4.484   4.359
    1C        C  461   3.193   4.514   4.478
    1C        C  462   2.997   4.430   4.603
    1C        C  463   3.124   4.490   4.599
    1C        C  464   2.931   4.400   4.725
    1C        C  465   2.989   4.446   4.846
    1C        C  466   2.807   4.332   4.962
    1C        C  467   2.911   4.426   4.964
    1C        C  468   4.118   4.279   2.042
    1C        C  469   4.183   4.239   2.160
    1C        C  470   4.006   4.368   2.280
    1C        C  471   4.128   4.295   2.278
    1C        C  472   3.941   4.400   2.401
    1C        C  473   4.006   4.369   2.522
    1C        C  474   3.812   4.457   2.643
    1C        C  475   3.942   4.403   2.643
    1C        C  476   3.744   4.485   2.764
    1C        C  477   3.816   4.467   2.885
    1C        C  478   3.608   4.517   3.008
    1C        C  479   3.747   4.490   3.006
    1C        C  480   3.537   4.529   3.130
    1C        C  481   3.607   4.524   3.252
    1C        C  482   3.395   4.530   3.373
    1C        C  483   3.537   4.530   3.375
    1C        C  484   3.329   4.522   3.497
    1C        C  485   3.399   4.532   3.619
    1C        C  486   3.193   4.498   3.743
    1C        C  487   3.329   4.534   3.742
    1C        C  488   3.130   4.468   3.866
    1C        C  489   3.192   4.494   3.990
    1C        C  490   2.999   4.416   4.115
    1C        C  491   3.125   4.480   4.113
    1C        C  492   2.939   4.384   4.239
    1C        C  493   2.995   4.426   4.362
    1C        C  494   2.826   4.298   4.484
    1C        C  495   2.935   4.387   4.484
    1C        C  496   2.774   4.255   4.607
    1C        C  497   2.816   4.317   4.727
    1C        C  498   2.661   4.168   4.847
    1C        C  499   2.750   4.278   4.846
    1C        C  500   2.592   4.117   4.958
    1C        C  501   3.998   4.348   2.040
    1C        C  502   3.816   4.463   2.156
    1C        C  503   3.943   4.401   2.158
    1C        C  504   3.744   4.482   2.275
    1C        C  505   3.810   4.455   2.397
    1C        C  506   3.606   4.502   2.520
    1C        C  507   3.745   4.478   2.520
    1C        C  508   3.536   4.511   2.642
    1C        C  509   3.605   4.507   2.765
    1C        C  510   3.394   4.527   2.883
    1C        C  511   3.535   4.519   2.887
    1C        C  512   3.324   4.522   3.006
    1C        C  513   3.396   4.528   3.127
    1C        C  514   3.189   4.491   3.255
    1C        C  515   3.326   4.525   3.250
    1C        C  516   3.123   4.467   3.377
    1C        C  517   3.190   4.493   3.499
    1C        C  518   2.998   4.410   3.626
    1C        C  519   3.123   4.475   3.622
    1C        C  520   2.942   4.368   3.749
    1C        C  521   3.004   4.405   3.871
    1C        C  522   2.834   4.282   3.995
    1C        C  523   2.942   4.373   3.994
    1C        C  524   2.782   4.238   4.119
    1C        C  525   2.830   4.293   4.239
    1C        C  526   2.689   4.137   4.365
    1C        C  527   2.774   4.249   4.361
    1C        C  528   2.646   4.081   4.487
    1C        C  529   2.681   4.148   4.607
    1C        C  530   2.581   3.965   4.730
    1C        C  531   2.629   4.099   4.728
    1C        C  532   2.543   3.902   4.852
    1C        C  533   2.529   3.992   4.961
    1C        C  534   3.617   4.552   2.038
    1C        C  535   3.751   4.512   2.042
    1C        C  536   3.537   4.531   2.155
    1C        C  537   3.604   4.509   2.278
    1C        C  538   3.391   4.519   2.399
    1C        C  539   3.532   4.512   2.400
    1C        C  540   3.320   4.515   2.521
    1C        C  541   3.394   4.518   2.641
    1C        C  542   3.184   4.487   2.763
    1C        C  543   3.322   4.516   2.762
    1C        C  544   3.122   4.461   2.888
    1C        C  545   3.187   4.487   3.010
    1C        C  546   2.994   4.405   3.134
    1C        C  547   3.121   4.468   3.133
    1C        C  548   2.939   4.364   3.258
    1C        C  549   3.000   4.399   3.380
    1C        C  550   2.831   4.278   3.504
    1C        C  551   2.939   4.370   3.504
    1C        C  552   2.782   4.229   3.627
    1C        C  553   2.833   4.279   3.749
    1C        C  554   2.701   4.117   3.875
    1C        C  555   2.783   4.232   3.873
    1C        C  556   2.660   4.062   3.998
    1C        C  557   2.694   4.127   4.119
    1C        C  558   2.592   3.947   4.244
    1C        C  559   2.654   4.074   4.243
    1C        C  560   2.572   3.882   4.368
    1C        C  561   2.594   3.950   4.490
    1C        C  562   2.529   3.751   4.617
    1C        C  563   2.569   3.886   4.613
    1C        C  564   2.517   3.681   4.739
    1C        C  565   2.527   3.759   4.858
    1C        C  566   2.534   3.549   4.977
    1C        C  567   2.525   3.687   4.978
    1C        C  568   3.322   4.481   2.043
    1C        C  569   3.395   4.516   2.157
    1C        C  570   3.183   4.478   2.282
    1C        C  571   3.320   4.515   2.278
    1C        C  572   3.110   4.460   2.402
    1C        C  573   3.181   4.486   2.521
    1C        C  574   2.986   4.406   2.648
    1C        C  575   3.113   4.469   2.643
    1C        C  576   2.928   4.366   2.771
    1C        C  577   2.993   4.403   2.891
    1C        C  578   2.826   4.273   3.017
    1C        C  579   2.935   4.362   3.013
    1C        C  580   2.774   4.224   3.139
    1C        C  581   2.829   4.274   3.259
    1C        C  582   2.695   4.113   3.384
    1C        C  583   2.780   4.226   3.383
    1C        C  584   2.659   4.057   3.508
    1C        C  585   2.696   4.117   3.630
    1C        C  586   2.593   3.934   3.756
    1C        C  587   2.657   4.060   3.753
    1C        C  588   2.571   3.869   3.880
    1C        C  589   2.595   3.937   4.001
    1C        C  590   2.526   3.741   4.129
    1C        C  591   2.562   3.877   4.125
    1C        C  592   2.519   3.675   4.254
    1C        C  593   2.533   3.746   4.375
    1C        C  594   2.518   3.535   4.498
    1C        C  595   2.523   3.676   4.497
    1C        C  596   2.527   3.466   4.621
    1C        C  597   2.520   3.539   4.742
    1C        C  598   2.538   3.326   4.863
    1C        C  599   2.532   3.467   4.863
    1C        C  600   2.537   3.249   4.980
    1C        C  601   3.189   4.445   2.044
    1C        C  602   2.979   4.397   2.163
    1C        C  603   3.115   4.442   2.163
    1C        C  604   2.921   4.357   2.286
    1C        C  605   2.982   4.401   2.406
    1C        C  606   2.814   4.275   2.530
    1C        C  607   2.922   4.366   2.529
    1C        C  608   2.767   4.225   2.653
    1C        C  609   2.820   4.275   2.774
    1C        C  610   2.686   4.111   2.895
    1C        C  611   2.773   4.222   2.897
    1C        C  612   2.649   4.053   3.018
    1C        C  613   2.687   4.113   3.140
    1C        C  614   2.590   3.926   3.267
    1C        C  615   2.658   4.050   3.263
    1C        C  616   2.567   3.864   3.392
    1C        C  617   2.596   3.930   3.513
    1C        C  618   2.528   3.730   3.638
    1C        C  619   2.569   3.865   3.636
    1C        C  620   2.516   3.664   3.762
    1C        C  621   2.526   3.735   3.884
    1C        C  622   2.519   3.527   4.010
    1C        C  623   2.518   3.668   4.008
    1C        C  624   2.523   3.460   4.135
    1C        C  625   2.512   3.534   4.255
    1C        C  626   2.547   3.325   4.381
    1C        C  627   2.519   3.463   4.377
    1C        C  628   2.560   3.253   4.502
    1C        C  629   2.545   3.326   4.622
    1C        C  630   2.604   3.120   4.745
    1C        C  631   2.561   3.256   4.743
    1C        C  632   2.619   3.046   4.866
    1C        C  633   2.567   3.112   4.982
    1C        C  634   2.781   4.302   2.052
    1C        C  635   2.888   4.392   2.052
    1C        C  636   2.747   4.229   2.167
    1C        C  637   2.804   4.275   2.288
    1C        C  638   2.674   4.110   2.410
    1C        C  639   2.759   4.222   2.411
    1C        C  640   2.642   4.049   2.534
    1C        C  641   2.685   4.111   2.654
    1C        C  642   2.587   3.919   2.775
    1C        C  643   2.649   4.046   2.774
    1C        C  644   2.559   3.858   2.899
    1C        C  645   2.588   3.925   3.020
    1C        C  646   2.527   3.726   3.150
    1C        C  647   2.565   3.862   3.144
    1C        C  648   2.516   3.656   3.272
    1C        C  649   2.533   3.727   3.393
    1C        C  650   2.504   3.518   3.521
    1C        C  651   2.517   3.659   3.516
    1C        C  652   2.511   3.450   3.645
    1C        C  653   2.508   3.523   3.766
    1C        C  654   2.538   3.315   3.887
    1C        C  655   2.515   3.454   3.889
    1C        C  656   2.558   3.251   4.012
    1C        C  657   2.545   3.320   4.134
    1C        C  658   2.605   3.121   4.259
    1C        C  659   2.562   3.256   4.258
    1C        C  660   2.633   3.054   4.380
    1C        C  661   2.601   3.118   4.502
    1C        C  662   2.714   2.938   4.623
    1C        C  663   2.632   3.053   4.624
    1C        C  664   2.750   2.875   4.745
    1C        C  665   2.702   2.930   4.867
    1C        C  666   2.744   2.867   4.985
    1C        C  667   2.682   4.024   2.051
    1C        C  668   2.681   4.104   2.166
    1C        C  669   2.590   3.913   2.291
    1C        C  670   2.644   4.045   2.289
    1C        C  671   2.556   3.849   2.412
    1C        C  672   2.582   3.921   2.530
    1C        C  673   2.519   3.719   2.657
    1C        C  674   2.555   3.856   2.653
    1C        C  675   2.516   3.651   2.781
    1C        C  676   2.531   3.719   2.903
    1C        C  677   2.506   3.514   3.032
    1C        C  678   2.517   3.654   3.028
    1C        C  679   2.504   3.443   3.154
    1C        C  680   2.501   3.515   3.275
    1C        C  681   2.522   3.307   3.404
    1C        C  682   2.503   3.447   3.399
    1C        C  683   2.538   3.239   3.526
    1C        C  684   2.525   3.309   3.648
    1C        C  685   2.583   3.102   3.769
    1C        C  686   2.547   3.238   3.768
    1C        C  687   2.630   3.049   3.891
    1C        C  688   2.608   3.118   4.012
    1C        C  689   2.714   2.939   4.138
    1C        C  690   2.639   3.059   4.137
    1C        C  691   2.755   2.881   4.260
    1C        C  692   2.709   2.935   4.382
    1C        C  693   2.754   2.876   4.503
    1C        C  694   2.629   3.894   2.057
    1C        C  695   2.535   3.701   2.175
    1C        C  696   2.580   3.835   2.174
    1C        C  697   2.511   3.635   2.298
    1C        C  698   2.521   3.712   2.416
    1C        C  699   2.491   3.503   2.544
    1C        C  700   2.504   3.644   2.539
    1C        C  701   2.497   3.436   2.668
    1C        C  702   2.505   3.510   2.788
    1C        C  703   2.533   3.301   2.913
    1C        C  704   2.512   3.440   2.911
    1C        C  705   2.548   3.234   3.036
    1C        C  706   2.535   3.305   3.158
    1C        C  707   2.599   3.109   3.279
    1C        C  708   2.546   3.239   3.282
    1C        C  709   2.633   3.048   3.403
    1C        C  710   2.594   3.109   3.524
    1C        C  711   2.705   2.930   3.651
    1C        C  712   2.617   3.041   3.646
    1C        C  713   2.754   2.878   3.773
    1C        C  714   2.714   2.935   3.896
    1C        C  715   2.759   2.881   4.018
    1C        C  716   2.441   3.502   2.061
    1C        C  717   2.489   3.633   2.062
    1C        C  718   2.464   3.423   2.179
    1C        C  719   2.478   3.497   2.299
    1C        C  720   2.510   3.291   2.423
    1C        C  721   2.486   3.430   2.424
    1C        C  722   2.538   3.226   2.546
    1C        C  723   2.528   3.298   2.667
    1C        C  724   2.595   3.099   2.792
    1C        C  725   2.549   3.232   2.790
    1C        C  726   2.628   3.036   2.914
    1C        C  727   2.598   3.101   3.035
    1C        C  728   2.704   2.920   3.161
    1C        C  729   2.628   3.040   3.159
    1C        C  730   2.752   2.872   3.285
    1C        C  731   2.710   2.930   3.407
    1C        C  732   2.754   2.876   3.530
    1C        C  733   2.489   3.196   2.072
    1C        C  734   2.481   3.281   2.183
    1C        C  735   2.580   3.087   2.306
    1C        C  736   2.520   3.216   2.304
    1C        C  737   2.619   3.027   2.428
    1C        C  738   2.589   3.095   2.549
    1C        C  739   2.698   2.913   2.671
    1C        C  740   2.618   3.030   2.671
    1C        C  741   2.745   2.857   2.791
    1C        C  742   2.700   2.914   2.913
    1C        C  743   2.745   2.866   3.037
    1C        C  744   2.552   3.072   2.069
    1C        C  745   2.685   2.900   2.187
    1C        C  746   2.605   3.017   2.186
    1C        C  747   2.734   2.846   2.308
    1C        C  748   2.694   2.908   2.429
    1C        C  749   2.739   2.852   2.550
    1C        C  750   2.732   2.839   2.070
    1C        C  751   3.655   2.310   1.985
    1C        O  752   3.716   2.210   2.031
    1C        O  753   3.690   2.336   1.852
    1C        C  754   4.591   3.052   1.951
    1C        O  755   4.543   3.068   1.836
    1C        O  756   4.728   3.021   1.957
    1C        C  757   4.455   4.226   1.971
    1C        O  758   4.545   4.293   2.028
    1C        O  759   4.480   4.205   1.834
    1C        C  760   3.614   4.687   1.976
    1C        O  761   3.664   4.783   2.039
    1C        O  762   3.578   4.703   1.842
    1C        C  763   2.883   4.488   1.939
    1C        O  764   2.917   4.451   1.824
    1C        O  765   2.860   4.625   1.956
    1C        C  766   2.325   3.465   1.977
    1C        O  767   2.344   3.415   1.864
    1C        O  768   2.201   3.531   1.981
    1C        C  769   4.664   3.570   5.074
    1C        O  770   4.613   3.557   5.189
    1C        O  771   4.803   3.587   5.081
    1C        C  772   4.271   4.444   5.040
    1C        O  773   4.246   4.430   5.163
    1C        O  774   4.359   4.548   5.008
    1C        C  775   4.146   2.509   5.056
    1C        O  776   4.207   2.412   5.004
    1C        O  777   4.153   2.512   5.196
    1C        C  778   2.894   4.519   5.078
    1C        O  779   2.803   4.606   5.072
    1C        O  780   2.942   4.499   5.208
    1C        C  781   2.477   3.029   5.066
    1C        O  782   2.379   2.976   5.006
    1C        O  783   2.467   3.001   5.201
    1C        C  784   2.406   3.979   5.043
    1C        O  785   2.299   4.041   5.016
    1C        O  786   2.438   3.993   5.178
    1C        C  787   2.950   2.396   2.045
    1C        O  788   2.921   2.379   1.924
    1C        O  789   2.863   2.323   2.126
    1C        C  790   3.168   2.366   5.051
    1C        O  791   3.132   2.260   4.993
    1C        O  792   3.172   2.360   5.191
    1C        H  793   4.263   3.032   5.042
    1C        H  794   4.150   2.835   5.058
    1C        H  795   4.467   3.134   5.069
    1C        H  796   4.512   3.366   5.063
    1C        H  797   4.595   3.816   5.027
    1C        H  798   4.411   3.963   5.052
    1C        H  799   4.245   4.145   5.040
    1C        H  800   4.042   4.544   5.025
    1C        H  801   3.811   4.546   5.035
    1C        H  802   3.578   4.634   5.029
    1C        H  803   3.396   4.482   5.042
    1C        H  804   3.155   4.539   5.048
    1C        H  805   3.888   2.484   5.067
    1C        H  806   3.683   2.462   5.072
    1C        H  807   3.009   2.580   5.069
    1C        H  808   3.443   2.496   5.080
    1C        H  809   2.845   2.705   5.072
    1C        H  810   2.720   2.908   5.081
    1C        H  811   2.516   3.292   5.075
    1C        H  812   2.528   3.509   5.076
    1C        H  813   2.552   3.744   5.064
    1C        H  814   2.610   4.160   5.055
    1C        H  815   2.756   4.310   5.054
    1C        H  816   2.684   2.871   1.979
    1C        H  817   2.831   2.679   1.978
    1C        H  818   3.217   2.438   1.988
    1C        H  819   3.420   2.424   1.980
    1C        H  820   3.842   2.525   1.974
    1C        H  821   4.027   2.668   1.971
    1C        H  822   4.246   2.720   1.973
    1C        H  823   4.341   2.947   1.975
    1C        H  824   4.559   3.308   1.964
    1C        H  825   4.464   3.515   1.969
    1C        H  826   4.549   3.741   1.964
    1C        H  827   3.811   4.539   1.957
    1C        H  828   3.975   4.399   1.950
    1C        H  829   4.175   4.282   1.951
    1C        H  830   4.491   3.963   1.956
    1C        H  831   2.601   3.849   1.964
    1C        H  832   2.731   4.057   1.962
    1C        H  833   2.708   4.310   1.974
    1C        H  834   3.373   4.419   1.971
    1C        H  835   3.139   4.420   1.953
    1C        H  836   2.518   3.006   1.992
    1C        H  837   2.467   3.233   1.974
    1C        H  838   2.464   3.685   1.971
    2V3OU   H29  839   2.809   3.546   3.202
    2V3OU   C27  840   2.794   3.502   3.304
    2V3OU   H27  841   2.734   3.574   3.367
    2V3OU   H28  842   2.740   3.405   3.293
    2V3OU   O11  843   2.912   3.477   3.380
    2V3OU   C15  844   2.927   3.394   3.489
    2V3OU   C13  845   3.055   3.370   3.542
    2V3OU   C14  846   3.080   3.269   3.636
    2V3OU   C16  847   2.979   3.193   3.693
    2V3OU    H6  848   2.994   3.103   3.755
    2V3OU   C12  849   3.214   3.226   3.682
    2V3OU    O2  850   3.232   3.129   3.758
    2V3OU   C10  851   3.330   3.307   3.641
    2V3OU    C8  852   3.460   3.265   3.667
    2V3OU   O10  853   3.491   3.158   3.746
    2V3OU   H26  854   3.405   3.118   3.763
    2V3OU    C6  855   3.564   3.347   3.615
    2V3OU    C5  856   3.537   3.466   3.548
    2V3OU    C4  857   3.703   3.295   3.605
    2V3OU    H4  858   3.728   3.228   3.692
    2V3OU    H5  859   3.704   3.230   3.512
    2V3OU    C2  860   3.817   3.397   3.601
    2V3OU    O6  861   3.798   3.474   3.720
    2V3OU   H21  862   3.765   3.563   3.699
    2V3OU    C3  863   3.780   3.493   3.487
    2V3OU    H2  864   3.858   3.573   3.477
    2V3OU    H3  865   3.777   3.440   3.388
    2V3OU   C25  866   3.952   3.327   3.581
    2V3OU    O7  867   3.995   3.291   3.472
    2V3OU   C26  868   4.026   3.285   3.707
    2V3OU   H22  869   4.064   3.379   3.753
    2V3OU   H23  870   4.115   3.222   3.679
    2V3OU    O8  871   3.957   3.209   3.803
    2V3OU   H24  872   3.939   3.260   3.885
    2V3OU    C1  873   3.644   3.559   3.498
    2V3OU    H1  874   3.620   3.613   3.402
    2V3OU    O3  875   3.666   3.652   3.604
    2V3OU   C19  876   3.619   3.787   3.592
    2V3OU    H9  877   3.526   3.802   3.529
    2V3OU    O4  878   3.716   3.846   3.510
    2V3OU   C20  879   3.848   3.876   3.558
    2V3OU   H10  880   3.900   3.778   3.578
    2V3OU   C24  881   3.607   3.853   3.730
    2V3OU   H16  882   3.542   3.791   3.797
    2V3OU   H17  883   3.569   3.958   3.721
    2V3OU   C23  884   3.747   3.874   3.788
    2V3OU   H15  885   3.790   3.769   3.805
    2V3OU    N1  886   3.739   3.953   3.909
    2V3OU   H19  887   3.811   3.920   3.970
    2V3OU   H20  888   3.652   3.934   3.953
    2V3OU   C21  889   3.849   3.946   3.694
    2V3OU   H11  890   3.956   3.930   3.728
    2V3OU    O5  891   3.829   4.086   3.700
    2V3OU   H18  892   3.779   4.101   3.782
    2V3OU   C22  893   3.920   3.949   3.445
    2V3OU   H12  894   3.861   4.042   3.425
    2V3OU   H13  895   3.913   3.888   3.351
    2V3OU   H14  896   4.027   3.960   3.473
    2V3OU   C11  897   3.162   3.470   3.530
    2V3OU    O1  898   3.134   3.588   3.498
    2V3OU    C9  899   3.297   3.424   3.568
    2V3OU    C7  900   3.401   3.503   3.522
    2V3OU    O9  901   3.380   3.613   3.441
    2V3OU   H25  902   3.285   3.632   3.446
    2V3OU   C17  903   2.830   3.317   3.557
    2V3OU    H7  904   2.731   3.353   3.527
    2V3OU   C18  905   2.848   3.222   3.656
    2V3OU    H8  906   2.784   3.172   3.730
    3SOL     OW  907   2.780   5.589   6.163
    3SOL    HW1  908   2.793   5.571   6.065
    3SOL    HW2  909   2.747   5.505   6.207
    4SOL     OW  910   6.703   0.430   1.272
    4SOL    HW1  911   6.635   0.376   1.221
    4SOL    HW2  912   6.666   0.452   1.363
    5SOL     OW  913   4.440   2.353   2.085
    5SOL    HW1  914   4.353   2.302   2.084
    5SOL    HW2  915   4.513   2.294   2.051
    6SOL     OW  916   4.196   1.681   1.960
    6SOL    HW1  917   4.172   1.587   1.984
    6SOL    HW2  918   4.112   1.732   1.937
    7SOL     OW  919   0.792   4.230   3.579
    7SOL    HW1  920   0.850   4.228   3.661
    7SOL    HW2  921   0.708   4.281   3.599
    8SOL     OW  922   2.577   2.271   5.422
    8SOL    HW1  923   2.660   2.288   5.474
    8SOL    HW2  924   2.497   2.288   5.480
    9SOL     OW  925   5.520   1.807   5.780
    9SOL    HW1  926   5.502   1.867   5.858
    9SOL    HW2  927   5.471   1.721   5.792
   10SOL     OW  928   2.852   5.268   5.236
   10SOL    HW1  929   2.772   5.224   5.277
   10SOL    HW2  930   2.842   5.271   5.137
   11SOL     OW  931   2.324   1.514   5.911
   11SOL    HW1  932   2.368   1.577   5.975
   11SOL    HW2  933   2.371   1.517   5.823
   12SOL     OW  934   3.003   4.921   3.508
   12SOL    HW1  935   2.980   4.878   3.595
   12SOL    HW2  936   2.958   5.010   3.503
   13SOL     OW  937   3.041   6.603   4.194
   13SOL    HW1  938   3.132   6.594   4.235
   13SOL    HW2  939   3.044   6.673   4.122
   14SOL     OW  940   3.902   5.269   6.326
   14SOL    HW1  941   3.905   5.283   6.227
   14SOL    HW2  942   3.957   5.189   6.351
   15SOL     OW  943   0.570   6.800   1.051
   15SOL    HW1  944   0.588   6.854   0.969
   15SOL    HW2  945   0.614   6.710   1.041
   16SOL     OW  946   5.283   2.963   6.325
   16SOL    HW1  947   5.195   2.972   6.278
   16SOL    HW2  948   5.268   2.967   6.424
   17SOL     OW  949   5.909   6.818   7.022
   17SOL    HW1  950   5.857   6.757   6.962
   17SOL    HW2  951   5.960   6.884   6.966
   18SOL     OW  952   3.167   1.026   5.580
   18SOL    HW1  953   3.210   1.109   5.616
   18SOL    HW2  954   3.224   0.947   5.601
   19SOL     OW  955   0.506   2.145   2.337
   19SOL    HW1  956   0.439   2.118   2.268
   19SOL    HW2  957   0.519   2.244   2.333
   20SOL     OW  958   4.814   1.602   5.636
   20SOL    HW1  959   4.793   1.552   5.552
   20SOL    HW2  960   4.769   1.692   5.633
   21SOL     OW  961   2.908   1.269   1.968
   21SOL    HW1  962   2.945   1.320   1.890
   21SOL    HW2  963   2.810   1.255   1.956
   22SOL     OW  964   0.972   6.202   0.374
   22SOL    HW1  965   0.884   6.161   0.350
   22SOL    HW2  966   0.957   6.282   0.433
   23SOL     OW  967   4.297   5.296   1.908
   23SOL    HW1  968   4.286   5.205   1.867
   23SOL    HW2  969   4.330   5.286   2.002
   24SOL     OW  970   3.382   0.630   2.366
   24SOL    HW1  971   3.349   0.724   2.369
   24SOL    HW2  972   3.406   0.606   2.271
   25SOL     OW  973   2.527   0.071   3.438
   25SOL    HW1  974   2.614   0.065   3.389
   25SOL    HW2  975   2.483   0.159   3.419
   26SOL     OW  976   6.276   1.813   0.301
   26SOL    HW1  977   6.284   1.718   0.332
   26SOL    HW2  978   6.314   1.874   0.371
   27SOL     OW  979   1.859   0.955   2.421
   27SOL    HW1  980   1.779   0.972   2.363
   27SOL    HW2  981   1.854   1.013   2.502
   28SOL     OW  982   1.445   0.149   5.181
   28SOL    HW1  983   1.454   0.231   5.238
   28SOL    HW2  984   1.437   0.175   5.085
   29SOL     OW  985   6.451   1.797   1.397
   29SOL    HW1  986   6.412   1.845   1.318
   29SOL    HW2  987   6.377   1.763   1.455
   30SOL     OW  988   4.365   0.692   3.685
   30SOL    HW1  989   4.342   0.660   3.777
   30SOL    HW2  990   4.463   0.681   3.669
   31SOL     OW  991   0.465   2.295   6.618
   31SOL    HW1  992   0.516   2.218   6.580
   31SOL    HW2  993   0.509   2.326   6.702
   32SOL     OW  994   0.599   2.022   2.563
   32SOL    HW1  995   0.699   2.019   2.551
   32SOL    HW2  996   0.556   2.050   2.477
   33SOL     OW  997   1.051   4.461   5.199
   33SOL    HW1  998   1.076   4.516   5.279
   33SOL    HW2  999   1.056   4.364   5.222
   34SOL     OW 1000   2.672   6.715   4.998
   34SOL    HW1 1001   2.653   6.812   5.012
   34SOL    HW2 1002   2.634   6.662   5.074
   35SOL     OW 1003   4.804   2.170   5.447
   35SOL    HW1 1004   4.775   2.142   5.538
   35SOL    HW2 1005   4.886   2.120   5.421
   36SOL     OW 1006   4.336   1.949   4.377
   36SOL    HW1 1007   4.358   1.890   4.455
   36SOL    HW2 1008   4.376   1.911   4.294
   37SOL     OW 1009   1.694   1.219   5.782
   37SOL    HW1 1010   1.773   1.278   5.764
   37SOL    HW2 1011   1.689   1.200   5.880
   38SOL     OW 1012   1.474   4.885   2.252
   38SOL    HW1 1013   1.458   4.868   2.155
   38SOL    HW2 1014   1.572   4.884   2.270
   39SOL     OW 1015   6.166   4.704   6.425
   39SOL    HW1 1016   6.076   4.697   6.383
   39SOL    HW2 1017   6.205   4.613   6.436
   40SOL     OW 1018   3.934   2.260   0.667
   40SOL    HW1 1019   3.851   2.243   0.721
   40SOL    HW2 1020   3.995   2.181   0.676
   41SOL     OW 1021   6.743   3.593   3.599
   41SOL    HW1 1022   6.730   3.649   3.681
   41SOL    HW2 1023   6.836   3.605   3.565
   42SOL     OW 1024   3.197   5.873   4.642
   42SOL    HW1 1025   3.125   5.909   4.583
   42SOL    HW2 1026   3.279   5.930   4.633
   43SOL     OW 1027   4.274   0.516   5.087
   43SOL    HW1 1028   4.340   0.476   5.151
   43SOL    HW2 1029   4.195   0.456   5.079
   44SOL     OW 1030   5.731   2.310   5.298
   44SOL    HW1 1031   5.669   2.381   5.331
   44SOL    HW2 1032   5.762   2.332   5.206
   45SOL     OW 1033   4.113   4.839   1.334
   45SOL    HW1 1034   4.107   4.756   1.390
   45SOL    HW2 1035   4.167   4.820   1.252
   46SOL     OW 1036   0.724   2.647   3.996
   46SOL    HW1 1037   0.648   2.691   4.044
   46SOL    HW2 1038   0.760   2.710   3.926
   47SOL     OW 1039   4.319   4.119   0.789
   47SOL    HW1 1040   4.387   4.115   0.862
   47SOL    HW2 1041   4.346   4.059   0.714
   48SOL     OW 1042   6.531   2.799   6.867
   48SOL    HW1 1043   6.442   2.808   6.911
   48SOL    HW2 1044   6.567   2.707   6.883
   49SOL     OW 1045   6.116   3.034   2.113
   49SOL    HW1 1046   6.199   3.046   2.057
   49SOL    HW2 1047   6.061   2.960   2.075
   50SOL     OW 1048   6.090   1.071   5.293
   50SOL    HW1 1049   6.162   1.111   5.350
   50SOL    HW2 1050   6.122   0.984   5.256
   51SOL     OW 1051   2.371   6.692   2.938
   51SOL    HW1 1052   2.283   6.719   2.900
   51SOL    HW2 1053   2.445   6.732   2.884
   52SOL     OW 1054   5.662   3.142   1.683
   52SOL    HW1 1055   5.609   3.183   1.757
   52SOL    HW2 1056   5.644   3.192   1.598
   53SOL     OW 1057   4.820   1.431   3.956
   53SOL    HW1 1058   4.868   1.380   3.884
   53SOL    HW2 1059   4.783   1.516   3.919
   54SOL     OW 1060   5.979   6.369   1.177
   54SOL    HW1 1061   5.901   6.431   1.182
   54SOL    HW2 1062   5.947   6.275   1.168
   55SOL     OW 1063   2.396   2.723   5.037
   55SOL    HW1 1064   2.398   2.823   5.040
   55SOL    HW2 1065   2.302   2.692   5.054
   56SOL     OW 1066   0.614   0.955   1.196
   56SOL    HW1 1067   0.543   1.000   1.250
   56SOL    HW2 1068   0.583   0.865   1.168
   57SOL     OW 1069   4.500   1.225   1.585
   57SOL    HW1 1070   4.506   1.143   1.643
   57SOL    HW2 1071   4.588   1.271   1.583
   58SOL     OW 1072   0.948   6.393   5.925
   58SOL    HW1 1073   0.998   6.370   5.841
   58SOL    HW2 1074   0.991   6.471   5.970
   59SOL     OW 1075   6.909   3.849   6.426
   59SOL    HW1 1076   6.834   3.914   6.440
   59SOL    HW2 1077   6.884   3.760   6.466
   60SOL     OW 1078   5.320   2.784   4.238
   60SOL    HW1 1079   5.297   2.792   4.141
   60SOL    HW2 1080   5.355   2.871   4.272
   61SOL     OW 1081   0.119   1.428   4.539
   61SOL    HW1 1082   0.060   1.423   4.619
   61SOL    HW2 1083   0.133   1.336   4.502
   62SOL     OW 1084   2.141   1.133   1.838
   62SOL    HW1 1085   2.143   1.188   1.922
   62SOL    HW2 1086   2.235   1.111   1.811
   63SOL     OW 1087   4.034   6.985   4.518
   63SOL    HW1 1088   3.956   6.982   4.580
   63SOL    HW2 1089   4.002   6.976   4.424
   64SOL     OW 1090   0.123   2.574   6.323
   64SOL    HW1 1091   0.158   2.570   6.230
   64SOL    HW2 1092   0.165   2.501   6.377
   65SOL     OW 1093   0.432   5.058   6.308
   65SOL    HW1 1094   0.510   4.999   6.286
   65SOL    HW2 1095   0.368   5.059   6.231
   66SOL     OW 1096   2.962   0.875   3.202
   66SOL    HW1 1097   3.052   0.893   3.161
   66SOL    HW2 1098   2.912   0.961   3.210
   67SOL     OW 1099   0.150   2.929   6.184
   67SOL    HW1 1100   0.069   2.946   6.128
   67SOL    HW2 1101   0.125   2.931   6.281
   68SOL     OW 1102   0.301   1.675   6.943
   68SOL    HW1 1103   0.267   1.581   6.942
   68SOL    HW2 1104   0.324   1.701   0.014
   69SOL     OW 1105   1.444   2.757   5.305
   69SOL    HW1 1106   1.531   2.730   5.347
   69SOL    HW2 1107   1.418   2.848   5.336
   70SOL     OW 1108   5.198   4.974   4.095
   70SOL    HW1 1109   5.201   4.880   4.129
   70SOL    HW2 1110   5.271   4.987   4.027
   71SOL     OW 1111   4.524   2.103   3.414
   71SOL    HW1 1112   4.604   2.118   3.472
   71SOL    HW2 1113   4.441   2.123   3.465
   72SOL     OW 1114   1.007   1.244   3.120
   72SOL    HW1 1115   0.936   1.302   3.079
   72SOL    HW2 1116   1.054   1.295   3.191
   73SOL     OW 1117   3.375   0.286   0.891
   73SOL    HW1 1118   3.286   0.270   0.934
   73SOL    HW2 1119   3.365   0.280   0.792
   74SOL     OW 1120   3.830   1.005   0.001
   74SOL    HW1 1121   3.798   1.083   6.970
   74SOL    HW2 1122   3.876   0.940   6.963
   75SOL     OW 1123   4.713   0.923   1.544
   75SOL    HW1 1124   4.643   0.955   1.608
   75SOL    HW2 1125   4.687   0.833   1.509
   76SOL     OW 1126   3.240   3.023   0.036
   76SOL    HW1 1127   3.277   2.934   0.009
   76SOL    HW2 1128   3.196   3.066   6.981
   77SOL     OW 1129   0.842   0.483   3.519
   77SOL    HW1 1130   0.906   0.406   3.520
   77SOL    HW2 1131   0.882   0.560   3.470
   78SOL     OW 1132   4.842   1.544   0.769
   78SOL    HW1 1133   4.797   1.585   0.690
   78SOL    HW2 1134   4.937   1.575   0.773
   79SOL     OW 1135   2.913   6.004   2.016
   79SOL    HW1 1136   2.997   5.951   2.025
   79SOL    HW2 1137   2.925   6.076   1.947
   80SOL     OW 1138   4.411   1.676   3.935
   80SOL    HW1 1139   4.420   1.776   3.937
   80SOL    HW2 1140   4.363   1.649   3.851
   81SOL     OW 1141   1.828   6.945   2.066
   81SOL    HW1 1142   1.751   6.951   2.130
   81SOL    HW2 1143   1.810   6.873   1.998
   82SOL     OW 1144   5.786   5.887   1.259
   82SOL    HW1 1145   5.731   5.858   1.337
   82SOL    HW2 1146   5.882   5.865   1.275
   83SOL     OW 1147   0.434   0.749   6.731
   83SOL    HW1 1148   0.477   0.681   6.789
   83SOL    HW2 1149   0.339   0.763   6.760
   84SOL     OW 1150   6.086   3.485   2.985
   84SOL    HW1 1151   6.083   3.431   2.901
   84SOL    HW2 1152   6.175   3.530   2.992
   85SOL     OW 1153   1.680   1.320   2.979
   85SOL    HW1 1154   1.594   1.318   3.029
   85SOL    HW2 1155   1.717   1.227   2.972
   86SOL     OW 1156   6.965   1.194   6.960
   86SOL    HW1 1157   6.886   1.156   6.911
   86SOL    HW2 1158   6.955   1.293   6.967
   87SOL     OW 1159   4.454   4.093   1.018
   87SOL    HW1 1160   4.424   4.039   1.098
   87SOL    HW2 1161   4.551   4.115   1.027
   88SOL     OW 1162   3.429   2.341   6.082
   88SOL    HW1 1163   3.364   2.276   6.041
   88SOL    HW2 1164   3.488   2.293   6.146
   89SOL     OW 1165   3.422   2.607   0.052
   89SOL    HW1 1166   3.463   2.686   0.097
   89SOL    HW2 1167   3.471   2.587   6.991
   90SOL     OW 1168   3.767   5.110   2.568
   90SOL    HW1 1169   3.733   5.198   2.600
   90SOL    HW2 1170   3.773   5.111   2.468
   91SOL     OW 1171   6.251   3.811   6.005
   91SOL    HW1 1172   6.265   3.721   6.046
   91SOL    HW2 1173   6.317   3.825   5.932
   92SOL     OW 1174   4.251   4.405   1.041
   92SOL    HW1 1175   4.264   4.440   1.133
   92SOL    HW2 1176   4.284   4.311   1.036
   93SOL     OW 1177   3.048   3.140   6.851
   93SOL    HW1 1178   2.973   3.177   6.906
   93SOL    HW2 1179   3.022   3.053   6.811
   94SOL     OW 1180   3.145   5.672   6.510
   94SOL    HW1 1181   3.056   5.678   6.465
   94SOL    HW2 1182   3.193   5.591   6.477
   95SOL     OW 1183   2.012   1.377   2.904
   95SOL    HW1 1184   1.926   1.427   2.896
   95SOL    HW2 1185   2.000   1.297   2.963
   96SOL     OW 1186   4.444   5.275   5.318
   96SOL    HW1 1187   4.390   5.358   5.324
   96SOL    HW2 1188   4.541   5.299   5.307
   97SOL     OW 1189   2.074   3.534   5.950
   97SOL    HW1 1190   2.159   3.516   5.901
   97SOL    HW2 1191   2.014   3.454   5.943
   98SOL     OW 1192   1.151   2.252   0.245
   98SOL    HW1 1193   1.222   2.184   0.229
   98SOL    HW2 1194   1.168   2.333   0.190
   99SOL     OW 1195   3.866   3.677   1.615
   99SOL    HW1 1196   3.865   3.654   1.518
   99SOL    HW2 1197   3.918   3.761   1.629
  100SOL     OW 1198   0.304   0.062   4.199
  100SOL    HW1 1199   0.317   6.988   4.219
  100SOL    HW2 1200   0.337   0.082   4.106
  101SOL     OW 1201   0.529   4.769   2.062
  101SOL    HW1 1202   0.582   4.688   2.088
  101SOL    HW2 1203   0.474   4.799   2.140
  102SOL     OW 1204   3.411   5.389   2.183
  102SOL    HW1 1205   3.364   5.452   2.244
  102SOL    HW2 1206   3.447   5.440   2.104
  103SOL     OW 1207   2.100   2.494   2.301
  103SOL    HW1 1208   2.171   2.436   2.261
  103SOL    HW2 1209   2.078   2.568   2.238
  104SOL     OW 1210   1.614   6.019   2.772
  104SOL    HW1 1211   1.652   5.934   2.736
  104SOL    HW2 1212   1.552   5.998   2.848
  105SOL     OW 1213   6.255   1.145   6.229
  105SOL    HW1 1214   6.197   1.222   6.254
  105SOL    HW2 1215   6.251   1.130   6.130
  106SOL     OW 1216   3.798   6.257   3.590
  106SOL    HW1 1217   3.729   6.185   3.587
  106SOL    HW2 1218   3.767   6.336   3.538
  107SOL     OW 1219   0.508   0.827   0.509
  107SOL    HW1 1220   0.485   0.787   0.420
  107SOL    HW2 1221   0.436   0.892   0.536
  108SOL     OW 1222   3.930   6.596   6.524
  108SOL    HW1 1223   3.857   6.663   6.507
  108SOL    HW2 1224   3.891   6.504   6.521
  109SOL     OW 1225   2.888   1.282   2.248
  109SOL    HW1 1226   2.908   1.284   2.150
  109SOL    HW2 1227   2.937   1.356   2.293
  110SOL     OW 1228   3.363   5.491   4.408
  110SOL    HW1 1229   3.274   5.469   4.448
  110SOL    HW2 1230   3.421   5.533   4.478
  111SOL     OW 1231   1.998   1.150   3.880
  111SOL    HW1 1232   1.946   1.201   3.811
  111SOL    HW2 1233   2.095   1.166   3.867
  112SOL     OW 1234   3.980   6.279   0.109
  112SOL    HW1 1235   4.038   6.241   0.037
  112SOL    HW2 1236   3.884   6.263   0.086
  113SOL     OW 1237   0.729   6.085   3.105
  113SOL    HW1 1238   0.821   6.125   3.112
  113SOL    HW2 1239   0.711   6.029   3.186
  114SOL     OW 1240   1.373   5.953   1.704
  114SOL    HW1 1241   1.331   5.865   1.723
  114SOL    HW2 1242   1.455   5.940   1.648
  115SOL     OW 1243   5.317   6.774   2.567
  115SOL    HW1 1244   5.235   6.741   2.616
  115SOL    HW2 1245   5.396   6.720   2.596
  116SOL     OW 1246   0.420   5.605   1.369
  116SOL    HW1 1247   0.431   5.704   1.373
  116SOL    HW2 1248   0.343   5.583   1.309
  117SOL     OW 1249   0.354   0.713   0.843
  117SOL    HW1 1250   0.285   0.642   0.857
  117SOL    HW2 1251   0.344   0.751   0.752
  118SOL     OW 1252   1.316   1.849   2.495
  118SOL    HW1 1253   1.388   1.918   2.496
  118SOL    HW2 1254   1.327   1.790   2.414
  119SOL     OW 1255   0.512   0.386   0.271
  119SOL    HW1 1256   0.578   0.331   0.219
  119SOL    HW2 1257   0.433   0.330   0.294
  120SOL     OW 1258   5.198   0.858   4.468
  120SOL    HW1 1259   5.283   0.908   4.454
  120SOL    HW2 1260   5.181   0.847   4.566
  121SOL     OW 1261   1.387   3.738   0.214
  121SOL    HW1 1262   1.484   3.726   0.237
  121SOL    HW2 1263   1.376   3.823   0.162
  122SOL     OW 1264   1.693   3.241   0.783
  122SOL    HW1 1265   1.653   3.320   0.830
  122SOL    HW2 1266   1.784   3.266   0.749
  123SOL     OW 1267   1.137   1.418   1.847
  123SOL    HW1 1268   1.180   1.501   1.813
  123SOL    HW2 1269   1.124   1.354   1.771
  124SOL     OW 1270   3.130   2.623   1.000
  124SOL    HW1 1271   3.185   2.663   0.927
  124SOL    HW2 1272   3.116   2.691   1.072
  125SOL     OW 1273   4.422   3.023   0.830
  125SOL    HW1 1274   4.446   2.950   0.766
  125SOL    HW2 1275   4.482   3.101   0.816
  126SOL     OW 1276   3.464   3.003   2.687
  126SOL    HW1 1277   3.443   3.033   2.781
  126SOL    HW2 1278   3.507   2.913   2.690
  127SOL     OW 1279   0.205   5.108   6.599
  127SOL    HW1 1280   0.289   5.098   6.652
  127SOL    HW2 1281   0.202   5.039   6.526
  128SOL     OW 1282   4.854   3.146   1.526
  128SOL    HW1 1283   4.875   3.227   1.470
  128SOL    HW2 1284   4.939   3.108   1.561
  129SOL     OW 1285   3.048   2.960   0.287
  129SOL    HW1 1286   3.072   3.031   0.222
  129SOL    HW2 1287   2.966   2.912   0.256
  130SOL     OW 1288   6.976   0.339   4.267
  130SOL    HW1 1289   6.901   0.312   4.208
  130SOL    HW2 1290   0.023   0.267   4.268
  131SOL     OW 1291   5.175   0.516   3.846
  131SOL    HW1 1292   5.197   0.574   3.924
  131SOL    HW2 1293   5.259   0.475   3.810
  132SOL     OW 1294   2.857   2.469   1.707
  132SOL    HW1 1295   2.854   2.378   1.665
  132SOL    HW2 1296   2.880   2.460   1.804
  133SOL     OW 1297   5.534   1.049   3.669
  133SOL    HW1 1298   5.459   1.008   3.618
  133SOL    HW2 1299   5.528   1.024   3.765
  134SOL     OW 1300   7.019   0.794   3.018
  134SOL    HW1 1301   7.011   0.862   3.091
  134SOL    HW2 1302   0.093   0.775   3.002
  135SOL     OW 1303   5.259   3.893   4.419
  135SOL    HW1 1304   5.270   3.821   4.487
  135SOL    HW2 1305   5.192   3.959   4.451
  136SOL     OW 1306   1.594   5.273   5.195
  136SOL    HW1 1307   1.682   5.310   5.164
  136SOL    HW2 1308   1.520   5.327   5.157
  137SOL     OW 1309   4.238   1.483   3.738
  137SOL    HW1 1310   4.222   1.466   3.641
  137SOL    HW2 1311   4.205   1.575   3.762
  138SOL     OW 1312   1.049   4.028   3.025
  138SOL    HW1 1313   1.003   4.111   3.056
  138SOL    HW2 1314   1.024   4.009   2.930
  139SOL     OW 1315   1.828   6.058   5.409
  139SOL    HW1 1316   1.795   6.146   5.443
  139SOL    HW2 1317   1.754   5.990   5.413
  140SOL     OW 1318   1.310   6.194   3.861
  140SOL    HW1 1319   1.345   6.287   3.860
  140SOL    HW2 1320   1.213   6.194   3.886
  141SOL     OW 1321   6.740   2.615   5.595
  141SOL    HW1 1322   6.700   2.631   5.685
  141SOL    HW2 1323   6.832   2.655   5.591
  142SOL     OW 1324   2.026   3.395   2.138
  142SOL    HW1 1325   2.095   3.442   2.084
  142SOL    HW2 1326   2.017   3.300   2.105
  143SOL     OW 1327   5.707   5.206   0.885
  143SOL    HW1 1328   5.721   5.115   0.925
  143SOL    HW2 1329   5.785   5.265   0.910
  144SOL     OW 1330   2.132   4.627   5.480
  144SOL    HW1 1331   2.213   4.685   5.469
  144SOL    HW2 1332   2.160   4.538   5.516
  145SOL     OW 1333   2.644   5.381   1.176
  145SOL    HW1 1334   2.577   5.332   1.120
  145SOL    HW2 1335   2.661   5.328   1.260
  146SOL     OW 1336   5.309   0.399   6.991
  146SOL    HW1 1337   5.381   0.466   7.008
  146SOL    HW2 1338   5.288   0.396   6.893
  147SOL     OW 1339   5.172   0.722   5.792
  147SOL    HW1 1340   5.091   0.706   5.735
  147SOL    HW2 1341   5.166   0.814   5.832
  148SOL     OW 1342   0.615   5.395   1.365
  148SOL    HW1 1343   0.639   5.348   1.450
  148SOL    HW2 1344   0.549   5.468   1.384
  149SOL     OW 1345   3.468   2.106   5.022
  149SOL    HW1 1346   3.513   2.018   5.004
  149SOL    HW2 1347   3.387   2.114   4.965
  150SOL     OW 1348   5.427   0.110   6.956
  150SOL    HW1 1349   5.424   0.204   6.991
  150SOL    HW2 1350   5.354   0.057   7.000
  151SOL     OW 1351   3.600   0.675   1.767
  151SOL    HW1 1352   3.576   0.695   1.862
  151SOL    HW2 1353   3.608   0.761   1.716
  152SOL     OW 1354   0.063   1.596   0.563
  152SOL    HW1 1355   0.002   1.521   0.589
  152SOL    HW2 1356   0.147   1.558   0.525
  153SOL     OW 1357   2.742   6.148   3.111
  153SOL    HW1 1358   2.744   6.127   3.208
  153SOL    HW2 1359   2.835   6.167   3.078
  154SOL     OW 1360   0.392   3.462   0.978
  154SOL    HW1 1361   0.321   3.438   1.044
  154SOL    HW2 1362   0.352   3.466   0.887
  155SOL     OW 1363   0.575   1.223   3.288
  155SOL    HW1 1364   0.667   1.212   3.325
  155SOL    HW2 1365   0.580   1.232   3.188
  156SOL     OW 1366   6.803   0.237   6.794
  156SOL    HW1 1367   6.791   0.253   6.696
  156SOL    HW2 1368   6.761   0.312   6.845
  157SOL     OW 1369   5.504   3.454   0.594
  157SOL    HW1 1370   5.568   3.451   0.671
  157SOL    HW2 1371   5.504   3.366   0.547
  158SOL     OW 1372   2.060   2.743   1.025
  158SOL    HW1 1373   2.029   2.653   1.055
  158SOL    HW2 1374   2.059   2.806   1.102
  159SOL     OW 1375   3.844   4.947   1.326
  159SOL    HW1 1376   3.832   5.046   1.337
  159SOL    HW2 1377   3.934   4.920   1.360
  160SOL     OW 1378   5.934   0.186   0.908
  160SOL    HW1 1379   5.857   0.167   0.847
  160SOL    HW2 1380   5.971   0.277   0.888
  161SOL     OW 1381   1.032   0.379   2.842
  161SOL    HW1 1382   1.023   0.298   2.785
  161SOL    HW2 1383   1.046   0.459   2.784
  162SOL     OW 1384   3.797   5.788   6.620
  162SOL    HW1 1385   3.889   5.749   6.620
  162SOL    HW2 1386   3.738   5.734   6.680
  163SOL     OW 1387   6.996   5.990   2.489
  163SOL    HW1 1388   6.947   6.012   2.405
  163SOL    HW2 1389   0.071   5.996   2.473
  164SOL     OW 1390   0.982   3.843   2.801
  164SOL    HW1 1391   0.928   3.783   2.742
  164SOL    HW2 1392   1.049   3.788   2.852
  165SOL     OW 1393   4.563   4.918   6.588
  165SOL    HW1 1394   4.645   4.950   6.542
  165SOL    HW2 1395   4.525   4.991   6.644
  166SOL     OW 1396   0.366   3.570   2.084
  166SOL    HW1 1397   0.291   3.531   2.030
  166SOL    HW2 1398   0.375   3.667   2.063
  167SOL     OW 1399   6.228   1.720   6.450
  167SOL    HW1 1400   6.278   1.730   6.536
  167SOL    HW2 1401   6.176   1.635   6.452
  168SOL     OW 1402   4.016   2.000   0.929
  168SOL    HW1 1403   4.081   1.938   0.973
  168SOL    HW2 1404   3.936   1.948   0.900
  169SOL     OW 1405   5.821   2.886   0.049
  169SOL    HW1 1406   5.840   2.918   6.979
  169SOL    HW2 1407   5.785   2.792   0.045
  170SOL     OW 1408   6.809   5.517   2.156
  170SOL    HW1 1409   6.727   5.539   2.208
  170SOL    HW2 1410   6.805   5.560   2.066
  171SOL     OW 1411   2.480   4.716   7.019
  171SOL    HW1 1412   2.428   4.801   0.005
  171SOL    HW2 1413   2.468   4.661   0.079
  172SOL     OW 1414   5.995   1.766   3.263
  172SOL    HW1 1415   6.058   1.839   3.239
  172SOL    HW2 1416   5.994   1.697   3.190
  173SOL     OW 1417   5.590   1.252   4.723
  173SOL    HW1 1418   5.543   1.334   4.758
  173SOL    HW2 1419   5.569   1.241   4.626
  174SOL     OW 1420   4.262   5.313   3.490
  174SOL    HW1 1421   4.215   5.295   3.576
  174SOL    HW2 1422   4.254   5.233   3.430
  175SOL     OW 1423   3.778   0.836   1.015
  175SOL    HW1 1424   3.684   0.813   0.989
  175SOL    HW2 1425   3.799   0.791   1.102
  176SOL     OW 1426   5.811   4.752   2.373
  176SOL    HW1 1427   5.870   4.737   2.452
  176SOL    HW2 1428   5.808   4.669   2.317
  177SOL     OW 1429   5.056   3.349   4.458
  177SOL    HW1 1430   5.131   3.395   4.507
  177SOL    HW2 1431   5.093   3.294   4.383
  178SOL     OW 1432   2.776   4.877   5.747
  178SOL    HW1 1433   2.796   4.968   5.782
  178SOL    HW2 1434   2.860   4.835   5.713
  179SOL     OW 1435   3.905   0.400   6.660
  179SOL    HW1 1436   3.862   0.455   6.732
  179SOL    HW2 1437   3.917   0.307   6.693
  180SOL     OW 1438   2.706   0.517   0.629
  180SOL    HW1 1439   2.620   0.471   0.651
  180SOL    HW2 1440   2.700   0.556   0.537
  181SOL     OW 1441   2.779   3.509   5.738
  181SOL    HW1 1442   2.721   3.552   5.807
  181SOL    HW2 1443   2.867   3.555   5.736
  182SOL     OW 1444   4.031   2.209   6.511
  182SOL    HW1 1445   3.999   2.293   6.553
  182SOL    HW2 1446   4.050   2.225   6.414
  183SOL     OW 1447   3.561   2.083   3.846
  183SOL    HW1 1448   3.573   2.060   3.943
  183SOL    HW2 1449   3.647   2.116   3.808
  184SOL     OW 1450   0.032   6.538   3.519
  184SOL    HW1 1451   6.986   6.477   3.558
  184SOL    HW2 1452   0.113   6.485   3.492
  185SOL     OW 1453   1.003   1.501   4.701
  185SOL    HW1 1454   1.045   1.411   4.710
  185SOL    HW2 1455   0.914   1.492   4.657
  186SOL     OW 1456   6.135   1.135   4.295
  186SOL    HW1 1457   6.081   1.051   4.309
  186SOL    HW2 1458   6.169   1.137   4.201
  187SOL     OW 1459   5.760   6.807   2.197
  187SOL    HW1 1460   5.666   6.776   2.184
  187SOL    HW2 1461   5.823   6.732   2.176
  188SOL     OW 1462   0.576   3.165   4.139
  188SOL    HW1 1463   0.570   3.124   4.230
  188SOL    HW2 1464   0.528   3.107   4.073
  189SOL     OW 1465   1.966   5.376   0.149
  189SOL    HW1 1466   2.028   5.445   0.111
  189SOL    HW2 1467   1.887   5.421   0.189
  190SOL     OW 1468   6.368   4.187   5.639
  190SOL    HW1 1469   6.289   4.125   5.636
  190SOL    HW2 1470   6.416   4.184   5.552
  191SOL     OW 1471   6.466   1.515   6.643
  191SOL    HW1 1472   6.473   1.554   6.551
  191SOL    HW2 1473   6.525   1.435   6.650
  192SOL     OW 1474   0.241   4.771   1.644
  192SOL    HW1 1475   0.179   4.849   1.653
  192SOL    HW2 1476   0.253   4.728   1.734
  193SOL     OW 1477   5.168   3.782   5.407
  193SOL    HW1 1478   5.160   3.796   5.506
  193SOL    HW2 1479   5.208   3.692   5.389
  194SOL     OW 1480   3.675   6.752   3.509
  194SOL    HW1 1481   3.601   6.810   3.544
  194SOL    HW2 1482   3.748   6.810   3.472
  195SOL     OW 1483   1.685   1.153   4.361
  195SOL    HW1 1484   1.590   1.168   4.388
  195SOL    HW2 1485   1.695   1.062   4.321
  196SOL     OW 1486   2.674   0.276   6.529
  196SOL    HW1 1487   2.765   0.249   6.562
  196SOL    HW2 1488   2.674   0.375   6.510
  197SOL     OW 1489   2.813   0.255   0.472
  197SOL    HW1 1490   2.887   0.316   0.501
  197SOL    HW2 1491   2.767   0.294   0.392
  198SOL     OW 1492   4.244   6.387   2.447
  198SOL    HW1 1493   4.212   6.293   2.453
  198SOL    HW2 1494   4.248   6.416   2.352
  199SOL     OW 1495   6.577   1.121   3.420
  199SOL    HW1 1496   6.656   1.109   3.360
  199SOL    HW2 1497   6.593   1.199   3.481
  200SOL     OW 1498   1.226   3.777   1.811
  200SOL    HW1 1499   1.201   3.799   1.905
  200SOL    HW2 1500   1.171   3.832   1.748
  201SOL     OW 1501   5.159   0.065   6.597
  201SOL    HW1 1502   5.113   0.127   6.660
  201SOL    HW2 1503   5.217   0.001   6.649
  202SOL     OW 1504   5.256   0.104   5.919
  202SOL    HW1 1505   5.312   0.158   5.982
  202SOL    HW2 1506   5.203   0.037   5.971
  203SOL     OW 1507   4.874   2.294   5.054
  203SOL    HW1 1508   4.783   2.257   5.074
  203SOL    HW2 1509   4.881   2.314   4.956
  204SOL     OW 1510   6.891   0.589   6.540
  204SOL    HW1 1511   6.954   0.585   6.617
  204SOL    HW2 1512   6.812   0.646   6.564
  205SOL     OW 1513   0.868   0.821   2.542
  205SOL    HW1 1514   0.918   0.886   2.486
  205SOL    HW2 1515   0.884   0.842   2.639
  206SOL     OW 1516   0.121   4.859   2.468
  206SOL    HW1 1517   0.193   4.893   2.406
  206SOL    HW2 1518   0.131   4.902   2.557
  207SOL     OW 1519   4.166   0.444   4.278
  207SOL    HW1 1520   4.107   0.517   4.313
  207SOL    HW2 1521   4.151   0.361   4.331
  208SOL     OW 1522   5.155   3.821   5.678
  208SOL    HW1 1523   5.072   3.766   5.684
  208SOL    HW2 1524   5.144   3.905   5.731
  209SOL     OW 1525   1.056   4.919   4.703
  209SOL    HW1 1526   1.036   4.822   4.721
  209SOL    HW2 1527   0.991   4.954   4.636
  210SOL     OW 1528   4.118   1.727   1.679
  210SOL    HW1 1529   4.045   1.754   1.742
  210SOL    HW2 1530   4.206   1.738   1.724
  211SOL     OW 1531   1.425   6.198   3.359
  211SOL    HW1 1532   1.446   6.124   3.424
  211SOL    HW2 1533   1.470   6.179   3.272
  212SOL     OW 1534   2.170   4.534   2.284
  212SOL    HW1 1535   2.265   4.540   2.315
  212SOL    HW2 1536   2.112   4.590   2.344
  213SOL     OW 1537   3.371   0.821   5.553
  213SOL    HW1 1538   3.438   0.877   5.602
  213SOL    HW2 1539   3.411   0.732   5.532
  214SOL     OW 1540   4.175   5.530   1.832
  214SOL    HW1 1541   4.210   5.438   1.852
  214SOL    HW2 1542   4.225   5.597   1.887
  215SOL     OW 1543   2.987   3.918   1.716
  215SOL    HW1 1544   3.007   3.987   1.786
  215SOL    HW2 1545   3.069   3.904   1.660
  216SOL     OW 1546   1.645   6.119   4.764
  216SOL    HW1 1547   1.700   6.040   4.737
  216SOL    HW2 1548   1.558   6.088   4.803
  217SOL     OW 1549   2.572   2.575   3.493
  217SOL    HW1 1550   2.632   2.497   3.474
  217SOL    HW2 1551   2.520   2.597   3.411
  218SOL     OW 1552   0.272   3.132   4.610
  218SOL    HW1 1553   0.275   3.127   4.510
  218SOL    HW2 1554   0.361   3.106   4.648
  219SOL     OW 1555   3.383   6.267   6.141
  219SOL    HW1 1556   3.455   6.304   6.200
  219SOL    HW2 1557   3.340   6.189   6.187
  220SOL     OW 1558   3.731   6.825   6.557
  220SOL    HW1 1559   3.681   6.738   6.554
  220SOL    HW2 1560   3.720   6.872   6.470
  221SOL     OW 1561   0.032   3.885   2.338
  221SOL    HW1 1562   0.011   3.957   2.404
  221SOL    HW2 1563   0.062   3.803   2.386
  222SOL     OW 1564   2.278   5.094   5.723
  222SOL    HW1 1565   2.184   5.086   5.692
  222SOL    HW2 1566   2.296   5.188   5.753
  223SOL     OW 1567   6.159   3.591   1.147
  223SOL    HW1 1568   6.111   3.505   1.167
  223SOL    HW2 1569   6.116   3.637   1.069
  224SOL     OW 1570   2.814   1.584   3.760
  224SOL    HW1 1571   2.838   1.494   3.724
  224SOL    HW2 1572   2.742   1.575   3.828
  225SOL     OW 1573   5.509   1.305   5.767
  225SOL    HW1 1574   5.597   1.281   5.807
  225SOL    HW2 1575   5.504   1.270   5.674
  226SOL     OW 1576   1.319   0.079   5.803
  226SOL    HW1 1577   1.224   0.067   5.832
  226SOL    HW2 1578   1.321   0.112   5.708
  227SOL     OW 1579   1.336   4.123   2.386
  227SOL    HW1 1580   1.383   4.210   2.400
  227SOL    HW2 1581   1.278   4.129   2.304
  228SOL     OW 1582   3.183   6.523   3.959
  228SOL    HW1 1583   3.211   6.434   3.924
  228SOL    HW2 1584   3.120   6.511   4.036
  229SOL     OW 1585   4.899   6.842   0.514
  229SOL    HW1 1586   4.804   6.825   0.488
  229SOL    HW2 1587   4.901   6.910   0.588
  230SOL     OW 1588   2.596   4.851   2.678
  230SOL    HW1 1589   2.678   4.824   2.627
  230SOL    HW2 1590   2.606   4.825   2.774
  231SOL     OW 1591   6.847   1.908   6.293
  231SOL    HW1 1592   6.914   1.839   6.321
  231SOL    HW2 1593   6.758   1.886   6.333
  232SOL     OW 1594   1.524   3.958   6.196
  232SOL    HW1 1595   1.492   3.985   6.105
  232SOL    HW2 1596   1.456   3.986   6.265
  233SOL     OW 1597   2.256   1.245   3.852
  233SOL    HW1 1598   2.299   1.321   3.804
  233SOL    HW2 1599   2.267   1.258   3.951
  234SOL     OW 1600   3.017   6.289   5.569
  234SOL    HW1 1601   3.101   6.340   5.552
  234SOL    HW2 1602   3.030   6.226   5.646
  235SOL     OW 1603   3.227   3.780   2.313
  235SOL    HW1 1604   3.147   3.723   2.333
  235SOL    HW2 1605   3.200   3.855   2.253
  236SOL     OW 1606   6.130   2.616   6.659
  236SOL    HW1 1607   6.035   2.591   6.678
  236SOL    HW2 1608   6.145   2.712   6.684
  237SOL     OW 1609   6.489   6.612   0.810
  237SOL    HW1 1610   6.541   6.629   0.727
  237SOL    HW2 1611   6.548   6.568   0.878
  238SOL     OW 1612   6.018   2.158   6.706
  238SOL    HW1 1613   6.036   2.129   6.800
  238SOL    HW2 1614   6.102   2.196   6.666
  239SOL     OW 1615   0.016   5.855   0.031
  239SOL    HW1 1616   7.009   5.845   6.958
  239SOL    HW2 1617   0.114   5.873   0.034
  240SOL     OW 1618   0.630   2.650   6.052
  240SOL    HW1 1619   0.648   2.684   5.960
  240SOL    HW2 1620   0.669   2.714   6.119
  241SOL     OW 1621   1.645   6.875   4.270
  241SOL    HW1 1622   1.740   6.904   4.259
  241SOL    HW2 1623   1.613   6.835   4.184
  242SOL     OW 1624   2.271   2.739   6.172
  242SOL    HW1 1625   2.215   2.762   6.251
  242SOL    HW2 1626   2.332   2.815   6.150
  243SOL     OW 1627   5.636   0.343   6.498
  243SOL    HW1 1628   5.709   0.279   6.475
  243SOL    HW2 1629   5.579   0.359   6.417
  244SOL     OW 1630   4.899   3.114   4.463
  244SOL    HW1 1631   4.948   3.201   4.473
  244SOL    HW2 1632   4.864   3.086   4.553
  245SOL     OW 1633   0.053   2.250   5.078
  245SOL    HW1 1634   0.102   2.190   5.140
  245SOL    HW2 1635   6.982   2.261   5.109
  246SOL     OW 1636   5.334   3.276   2.970
  246SOL    HW1 1637   5.253   3.323   2.936
  246SOL    HW2 1638   5.376   3.332   3.042
  247SOL     OW 1639   2.633   1.236   1.883
  247SOL    HW1 1640   2.648   1.137   1.883
  247SOL    HW2 1641   2.560   1.258   1.819
  248SOL     OW 1642   4.175   1.629   4.551
  248SOL    HW1 1643   4.257   1.685   4.543
  248SOL    HW2 1644   4.094   1.688   4.559
  249SOL     OW 1645   4.847   7.004   5.793
  249SOL    HW1 1646   4.756   0.004   5.827
  249SOL    HW2 1647   4.847   6.909   5.759
  250SOL     OW 1648   5.058   2.039   6.277
  250SOL    HW1 1649   5.033   2.021   6.372
  250SOL    HW2 1650   5.155   2.017   6.264
  251SOL     OW 1651   4.440   4.730   6.751
  251SOL    HW1 1652   4.461   4.791   6.675
  251SOL    HW2 1653   4.525   4.705   6.798
  252SOL     OW 1654   0.010   0.563   6.779
  252SOL    HW1 1655   7.013   0.576   6.877
  252SOL    HW2 1656   0.019   0.465   6.761
  253SOL     OW 1657   2.065   3.992   0.156
  253SOL    HW1 1658   2.055   3.895   0.130
  253SOL    HW2 1659   2.077   4.047   0.074
  254SOL     OW 1660   6.463   2.867   3.890
  254SOL    HW1 1661   6.503   2.897   3.804
  254SOL    HW2 1662   6.371   2.832   3.874
  255SOL     OW 1663   1.585   3.420   4.153
  255SOL    HW1 1664   1.509   3.427   4.218
  255SOL    HW2 1665   1.668   3.397   4.203
  256SOL     OW 1666   6.076   4.441   0.186
  256SOL    HW1 1667   6.155   4.500   0.202
  256SOL    HW2 1668   6.017   4.482   0.116
  257SOL     OW 1669   3.705   5.963   4.507
  257SOL    HW1 1670   3.701   5.931   4.602
  257SOL    HW2 1671   3.767   5.904   4.455
  258SOL     OW 1672   5.668   4.864   4.568
  258SOL    HW1 1673   5.613   4.812   4.633
  258SOL    HW2 1674   5.741   4.913   4.616
  259SOL     OW 1675   2.083   3.127   2.091
  259SOL    HW1 1676   2.014   3.055   2.083
  259SOL    HW2 1677   2.142   3.125   2.010
  260SOL     OW 1678   4.901   1.088   1.486
  260SOL    HW1 1679   4.829   1.021   1.502
  260SOL    HW2 1680   4.943   1.113   1.574
  261SOL     OW 1681   6.706   4.124   1.028
  261SOL    HW1 1682   6.629   4.181   1.056
  261SOL    HW2 1683   6.768   4.178   0.970
  262SOL     OW 1684   0.552   3.871   1.266
  262SOL    HW1 1685   0.622   3.943   1.276
  262SOL    HW2 1686   0.541   3.824   1.353
  263SOL     OW 1687   0.728   1.235   3.759
  263SOL    HW1 1688   0.689   1.157   3.711
  263SOL    HW2 1689   0.689   1.241   3.851
  264SOL     OW 1690   5.422   4.220   5.025
  264SOL    HW1 1691   5.520   4.200   5.018
  264SOL    HW2 1692   5.379   4.155   5.088
  265SOL     OW 1693   4.257   4.687   3.125
  265SOL    HW1 1694   4.324   4.622   3.159
  265SOL    HW2 1695   4.262   4.690   3.025
  266SOL     OW 1696   3.398   3.446   5.789
  266SOL    HW1 1697   3.401   3.365   5.848
  266SOL    HW2 1698   3.303   3.475   5.778
  267SOL     OW 1699   6.740   2.821   6.176
  267SOL    HW1 1700   6.646   2.821   6.208
  267SOL    HW2 1701   6.793   2.755   6.230
  268SOL     OW 1702   4.824   6.377   5.648
  268SOL    HW1 1703   4.904   6.421   5.689
  268SOL    HW2 1704   4.855   6.301   5.590
  269SOL     OW 1705   1.649   2.198   0.413
  269SOL    HW1 1706   1.685   2.140   0.340
  269SOL    HW2 1707   1.564   2.158   0.448
  270SOL     OW 1708   0.068   0.221   2.155
  270SOL    HW1 1709   0.075   0.304   2.099
  270SOL    HW2 1710   0.035   0.145   2.099
  271SOL     OW 1711   2.478   2.542   0.592
  271SOL    HW1 1712   2.563   2.502   0.557
  271SOL    HW2 1713   2.446   2.490   0.671
  272SOL     OW 1714   3.337   5.726   3.960
  272SOL    HW1 1715   3.304   5.673   4.038
  272SOL    HW2 1716   3.437   5.726   3.960
  273SOL     OW 1717   1.603   5.005   5.207
  273SOL    HW1 1718   1.577   5.099   5.184
  273SOL    HW2 1719   1.700   5.002   5.231
  274SOL     OW 1720   5.102   2.286   3.888
  274SOL    HW1 1721   5.061   2.222   3.953
  274SOL    HW2 1722   5.104   2.378   3.928
  275SOL     OW 1723   0.078   5.745   6.246
  275SOL    HW1 1724   0.143   5.715   6.176
  275SOL    HW2 1725   0.059   5.843   6.235
  276SOL     OW 1726   0.235   5.298   3.198
  276SOL    HW1 1727   0.251   5.223   3.134
  276SOL    HW2 1728   0.318   5.352   3.208
  277SOL     OW 1729   2.745   1.833   0.218
  277SOL    HW1 1730   2.657   1.875   0.241
  277SOL    HW2 1731   2.812   1.855   0.288
  278SOL     OW 1732   6.744   3.962   1.842
  278SOL    HW1 1733   6.705   3.874   1.814
  278SOL    HW2 1734   6.766   4.016   1.761
  279SOL     OW 1735   6.024   2.887   4.704
  279SOL    HW1 1736   6.066   2.813   4.651
  279SOL    HW2 1737   6.092   2.927   4.765
  280SOL     OW 1738   3.669   6.866   2.615
  280SOL    HW1 1739   3.739   6.936   2.630
  280SOL    HW2 1740   3.636   6.871   2.521
  281SOL     OW 1741   2.678   4.699   2.305
  281SOL    HW1 1742   2.688   4.683   2.403
  281SOL    HW2 1743   2.762   4.740   2.269
  282SOL     OW 1744   4.127   2.426   5.527
  282SOL    HW1 1745   4.133   2.482   5.609
  282SOL    HW2 1746   4.038   2.440   5.483
  283SOL     OW 1747   6.935   1.137   5.440
  283SOL    HW1 1748   7.001   1.183   5.500
  283SOL    HW2 1749   6.894   1.060   5.489
  284SOL     OW 1750   0.499   4.467   4.959
  284SOL    HW1 1751   0.405   4.445   4.930
  284SOL    HW2 1752   0.515   4.431   5.051
  285SOL     OW 1753   5.234   5.592   6.829
  285SOL    HW1 1754   5.262   5.511   6.777
  285SOL    HW2 1755   5.150   5.572   6.879
  286SOL     OW 1756   3.880   4.748   5.282
  286SOL    HW1 1757   3.782   4.754   5.301
  286SOL    HW2 1758   3.928   4.718   5.365
  287SOL     OW 1759   0.792   5.067   6.479
  287SOL    HW1 1760   0.880   5.115   6.471
  287SOL    HW2 1761   0.721   5.122   6.435
  288SOL     OW 1762   3.880   1.485   0.550
  288SOL    HW1 1763   3.794   1.484   0.498
  288SOL    HW2 1764   3.860   1.512   0.645
  289SOL     OW 1765   0.207   5.168   4.760
  289SOL    HW1 1766   0.175   5.156   4.667
  289SOL    HW2 1767   0.282   5.105   4.779
  290SOL     OW 1768   4.770   1.877   3.208
  290SOL    HW1 1769   4.780   1.977   3.206
  290SOL    HW2 1770   4.672   1.854   3.208
  291SOL     OW 1771   3.805   1.043   4.391
  291SOL    HW1 1772   3.852   1.121   4.352
  291SOL    HW2 1773   3.810   0.966   4.327
  292SOL     OW 1774   4.484   1.684   3.477
  292SOL    HW1 1775   4.484   1.729   3.388
  292SOL    HW2 1776   4.538   1.737   3.542
  293SOL     OW 1777   3.847   6.014   1.502
  293SOL    HW1 1778   3.919   6.017   1.572
  293SOL    HW2 1779   3.889   6.006   1.411
  294SOL     OW 1780   6.577   5.364   6.872
  294SOL    HW1 1781   6.525   5.435   6.920
  294SOL    HW2 1782   6.516   5.315   6.809
  295SOL     OW 1783   3.118   1.776   5.370
  295SOL    HW1 1784   3.155   1.827   5.293
  295SOL    HW2 1785   3.073   1.692   5.336
  296SOL     OW 1786   6.320   2.143   1.936
  296SOL    HW1 1787   6.376   2.217   1.972
  296SOL    HW2 1788   6.225   2.156   1.965
  297SOL     OW 1789   3.050   4.835   2.971
  297SOL    HW1 1790   3.063   4.821   3.069
  297SOL    HW2 1791   2.962   4.880   2.956
  298SOL     OW 1792   4.132   0.308   6.942
  298SOL    HW1 1793   4.112   0.294   6.845
  298SOL    HW2 1794   4.227   0.284   6.960
  299SOL     OW 1795   4.677   2.166   6.404
  299SOL    HW1 1796   4.703   2.076   6.440
  299SOL    HW2 1797   4.699   2.171   6.306
  300SOL     OW 1798   4.789   0.749   2.248
  300SOL    HW1 1799   4.705   0.781   2.290
  300SOL    HW2 1800   4.796   0.650   2.258
  301SOL     OW 1801   4.896   1.535   0.376
  301SOL    HW1 1802   4.932   1.460   0.431
  301SOL    HW2 1803   4.935   1.531   0.284
  302SOL     OW 1804   6.746   0.752   2.671
  302SOL    HW1 1805   6.651   0.779   2.658
  302SOL    HW2 1806   6.769   0.680   2.605
  303SOL     OW 1807   6.135   6.054   2.148
  303SOL    HW1 1808   6.127   5.959   2.118
  303SOL    HW2 1809   6.060   6.108   2.109
  304SOL     OW 1810   2.021   6.156   5.749
  304SOL    HW1 1811   2.101   6.176   5.806
  304SOL    HW2 1812   2.050   6.105   5.668
  305SOL     OW 1813   1.258   2.962   0.478
  305SOL    HW1 1814   1.341   2.998   0.436
  305SOL    HW2 1815   1.186   2.953   0.409
  306SOL     OW 1816   0.938   0.889   3.072
  306SOL    HW1 1817   1.023   0.878   3.123
  306SOL    HW2 1818   0.861   0.865   3.132
  307SOL     OW 1819   4.892   4.415   0.820
  307SOL    HW1 1820   4.867   4.415   0.917
  307SOL    HW2 1821   4.941   4.500   0.798
  308SOL     OW 1822   5.917   3.708   4.712
  308SOL    HW1 1823   6.005   3.752   4.694
  308SOL    HW2 1824   5.846   3.752   4.658
  309SOL     OW 1825   1.533   5.767   0.364
  309SOL    HW1 1826   1.506   5.677   0.398
  309SOL    HW2 1827   1.558   5.760   0.268
  310SOL     OW 1828   5.076   5.784   4.960
  310SOL    HW1 1829   5.138   5.728   4.904
  310SOL    HW2 1830   5.072   5.877   4.923
  311SOL     OW 1831   3.341   4.956   3.060
  311SOL    HW1 1832   3.292   5.040   3.038
  311SOL    HW2 1833   3.284   4.877   3.038
  312SOL     OW 1834   4.033   1.733   4.077
  312SOL    HW1 1835   4.079   1.785   4.149
  312SOL    HW2 1836   3.961   1.789   4.036
  313SOL     OW 1837   3.503   3.677   2.323
  313SOL    HW1 1838   3.547   3.766   2.311
  313SOL    HW2 1839   3.406   3.690   2.343
  314SOL     OW 1840   2.869   4.761   6.321
  314SOL    HW1 1841   2.838   4.669   6.296
  314SOL    HW2 1842   2.913   4.759   6.410
  315SOL     OW 1843   0.958   3.151   4.260
  315SOL    HW1 1844   1.003   3.094   4.191
  315SOL    HW2 1845   0.935   3.095   4.340
  316SOL     OW 1846   3.498   0.595   4.346
  316SOL    HW1 1847   3.418   0.654   4.353
  316SOL    HW2 1848   3.580   0.646   4.372
  317SOL     OW 1849   0.065   2.067   1.256
  317SOL    HW1 1850   0.078   2.013   1.172
  317SOL    HW2 1851   0.142   2.130   1.267
  318SOL     OW 1852   0.199   6.230   6.794
  318SOL    HW1 1853   0.193   6.222   6.893
  318SOL    HW2 1854   0.209   6.139   6.754
  319SOL     OW 1855   6.359   1.424   3.982
  319SOL    HW1 1856   6.449   1.382   3.991
  319SOL    HW2 1857   6.330   1.459   4.071
  320SOL     OW 1858   5.764   2.605   0.046
  320SOL    HW1 1859   5.683   2.569   7.021
  320SOL    HW2 1860   5.806   2.532   0.099
  321SOL     OW 1861   3.878   1.812   6.849
  321SOL    HW1 1862   3.815   1.735   6.838
  321SOL    HW2 1863   3.879   1.866   6.764
  322SOL     OW 1864   3.061   3.209   4.069
  322SOL    HW1 1865   3.152   3.249   4.076
  322SOL    HW2 1866   3.003   3.245   4.143
  323SOL     OW 1867   0.951   2.972   5.904
  323SOL    HW1 1868   1.018   2.926   5.846
  323SOL    HW2 1869   0.865   2.981   5.854
  324SOL     OW 1870   3.212   0.969   3.117
  324SOL    HW1 1871   3.195   0.946   3.021
  324SOL    HW2 1872   3.242   1.064   3.124
  325SOL     OW 1873   0.547   2.869   1.982
  325SOL    HW1 1874   0.458   2.851   1.940
  325SOL    HW2 1875   0.551   2.965   2.011
  326SOL     OW 1876   1.079   4.482   6.133
  326SOL    HW1 1877   1.153   4.550   6.141
  326SOL    HW2 1878   1.117   4.391   6.146
  327SOL     OW 1879   1.799   4.567   2.180
  327SOL    HW1 1880   1.880   4.561   2.122
  327SOL    HW2 1881   1.717   4.565   2.123
  328SOL     OW 1882   1.810   5.561   1.681
  328SOL    HW1 1883   1.880   5.624   1.715
  328SOL    HW2 1884   1.761   5.603   1.605
  329SOL     OW 1885   2.924   3.423   5.236
  329SOL    HW1 1886   2.903   3.415   5.138
  329SOL    HW2 1887   3.023   3.420   5.249
  330SOL     OW 1888   3.479   6.650   1.327
  330SOL    HW1 1889   3.434   6.737   1.348
  330SOL    HW2 1890   3.543   6.663   1.251
  331SOL     OW 1891   4.340   5.651   0.442
  331SOL    HW1 1892   4.303   5.740   0.419
  331SOL    HW2 1893   4.279   5.579   0.409
  332SOL     OW 1894   5.502   2.022   5.475
  332SOL    HW1 1895   5.578   2.067   5.522
  332SOL    HW2 1896   5.506   2.045   5.378
  333SOL     OW 1897   4.454   1.047   5.530
  333SOL    HW1 1898   4.449   1.146   5.525
  333SOL    HW2 1899   4.496   1.019   5.617
  334SOL     OW 1900   3.599   1.405   0.554
  334SOL    HW1 1901   3.592   1.393   0.653
  334SOL    HW2 1902   3.585   1.317   0.508
  335SOL     OW 1903   4.621   6.403   6.148
  335SOL    HW1 1904   4.549   6.472   6.144
  335SOL    HW2 1905   4.689   6.430   6.216
  336SOL     OW 1906   2.755   1.342   3.357
  336SOL    HW1 1907   2.736   1.440   3.359
  336SOL    HW2 1908   2.670   1.292   3.338
  337SOL     OW 1909   0.312   3.124   6.080
  337SOL    HW1 1910   0.238   3.059   6.063
  337SOL    HW2 1911   0.370   3.089   6.154
  338SOL     OW 1912   2.842   2.200   1.619
  338SOL    HW1 1913   2.745   2.196   1.646
  338SOL    HW2 1914   2.898   2.174   1.698
  339SOL     OW 1915   4.398   5.533   4.958
  339SOL    HW1 1916   4.309   5.551   5.000
  339SOL    HW2 1917   4.399   5.568   4.864
  340SOL     OW 1918   5.240   4.014   5.262
  340SOL    HW1 1919   5.219   3.923   5.299
  340SOL    HW2 1920   5.313   4.056   5.316
  341SOL     OW 1921   6.235   6.956   4.088
  341SOL    HW1 1922   6.156   6.926   4.142
  341SOL    HW2 1923   6.295   6.877   4.071
  342SOL     OW 1924   5.636   3.969   0.213
  342SOL    HW1 1925   5.654   4.037   0.142
  342SOL    HW2 1926   5.722   3.942   0.256
  343SOL     OW 1927   0.907   6.614   1.262
  343SOL    HW1 1928   0.844   6.691   1.268
  343SOL    HW2 1929   0.907   6.564   1.349
  344SOL     OW 1930   1.322   3.180   1.680
  344SOL    HW1 1931   1.395   3.235   1.641
  344SOL    HW2 1932   1.356   3.128   1.758
  345SOL     OW 1933   5.329   2.257   3.705
  345SOL    HW1 1934   5.247   2.264   3.762
  345SOL    HW2 1935   5.372   2.168   3.718
  346SOL     OW 1936   1.868   1.078   2.656
  346SOL    HW1 1937   1.957   1.064   2.699
  346SOL    HW2 1938   1.799   1.022   2.702
  347SOL     OW 1939   2.799   5.404   6.986
  347SOL    HW1 1940   2.723   5.340   6.996
  347SOL    HW2 1941   2.819   5.446   0.052
  348SOL     OW 1942   4.897   4.140   2.307
  348SOL    HW1 1943   4.847   4.216   2.265
  348SOL    HW2 1944   4.974   4.115   2.249
  349SOL     OW 1945   0.020   5.201   0.691
  349SOL    HW1 1946   0.072   5.264   0.748
  349SOL    HW2 1947   6.954   5.241   0.669
  350SOL     OW 1948   2.852   2.477   1.317
  350SOL    HW1 1949   2.853   2.465   1.218
  350SOL    HW2 1950   2.933   2.434   1.356
  351SOL     OW 1951   2.779   3.780   0.781
  351SOL    HW1 1952   2.762   3.750   0.687
  351SOL    HW2 1953   2.754   3.706   0.844
  352SOL     OW 1954   3.049   6.804   4.011
  352SOL    HW1 1955   3.073   6.880   4.070
  352SOL    HW2 1956   3.027   6.838   3.919
  353SOL     OW 1957   3.098   6.996   0.077
  353SOL    HW1 1958   3.175   6.932   0.072
  353SOL    HW2 1959   3.028   6.970   0.011
  354SOL     OW 1960   4.308   2.795   0.991
  354SOL    HW1 1961   4.350   2.873   0.944
  354SOL    HW2 1962   4.211   2.789   0.967
  355SOL     OW 1963   1.483   3.900   2.785
  355SOL    HW1 1964   1.424   3.956   2.726
  355SOL    HW2 1965   1.457   3.914   2.881
  356SOL     OW 1966   1.940   6.931   5.944
  356SOL    HW1 1967   1.968   6.859   5.881
  356SOL    HW2 1968   1.919   6.890   6.033
  357SOL     OW 1969   0.029   6.097   5.529
  357SOL    HW1 1970   0.071   6.159   5.463
  357SOL    HW2 1971   0.098   6.035   5.566
  358SOL     OW 1972   4.802   6.402   0.540
  358SOL    HW1 1973   4.746   6.384   0.459
  358SOL    HW2 1974   4.751   6.460   0.603
  359SOL     OW 1975   3.049   2.173   1.819
  359SOL    HW1 1976   3.086   2.103   1.880
  359SOL    HW2 1977   2.987   2.233   1.870
  360SOL     OW 1978   1.376   4.079   6.014
  360SOL    HW1 1979   1.308   4.011   5.985
  360SOL    HW2 1980   1.416   4.123   5.934
  361SOL     OW 1981   6.367   6.366   2.837
  361SOL    HW1 1982   6.465   6.373   2.816
  361SOL    HW2 1983   6.314   6.404   2.761
  362SOL     OW 1984   3.585   2.956   1.459
  362SOL    HW1 1985   3.487   2.973   1.450
  362SOL    HW2 1986   3.601   2.858   1.473
  363SOL     OW 1987   5.643   4.297   2.951
  363SOL    HW1 1988   5.692   4.211   2.969
  363SOL    HW2 1989   5.576   4.312   3.023
  364SOL     OW 1990   6.355   5.173   6.427
  364SOL    HW1 1991   6.321   5.086   6.393
  364SOL    HW2 1992   6.331   5.246   6.363
  365SOL     OW 1993   5.528   6.687   1.982
  365SOL    HW1 1994   5.508   6.760   2.047
  365SOL    HW2 1995   5.621   6.698   1.947
  366SOL     OW 1996   5.319   0.626   6.766
  366SOL    HW1 1997   5.403   0.666   6.731
  366SOL    HW2 1998   5.274   0.574   6.692
  367SOL     OW 1999   5.736   2.923   1.801
  367SOL    HW1 2000   5.724   3.005   1.746
  367SOL    HW2 2001   5.799   2.860   1.755
  368SOL     OW 2002   0.809   2.781   5.574
  368SOL    HW1 2003   0.878   2.714   5.547
  368SOL    HW2 2004   0.854   2.864   5.607
  369SOL     OW 2005   5.964   4.954   2.253
  369SOL    HW1 2006   6.012   5.005   2.325
  369SOL    HW2 2007   5.906   4.884   2.296
  370SOL     OW 2008   1.840   1.503   4.980
  370SOL    HW1 2009   1.815   1.573   4.913
  370SOL    HW2 2010   1.801   1.415   4.952
  371SOL     OW 2011   1.756   4.562   5.702
  371SOL    HW1 2012   1.794   4.496   5.637
  371SOL    HW2 2013   1.819   4.639   5.713
  372SOL     OW 2014   1.137   6.486   6.704
  372SOL    HW1 2015   1.143   6.483   6.605
  372SOL    HW2 2016   1.079   6.563   6.732
  373SOL     OW 2017   6.085   6.771   4.441
  373SOL    HW1 2018   6.030   6.830   4.382
  373SOL    HW2 2019   6.030   6.744   4.520
  374SOL     OW 2020   2.966   1.917   4.037
  374SOL    HW1 2021   2.932   2.010   4.025
  374SOL    HW2 2022   2.953   1.866   3.951
  375SOL     OW 2023   0.895   4.787   4.392
  375SOL    HW1 2024   0.914   4.882   4.367
  375SOL    HW2 2025   0.801   4.780   4.426
  376SOL     OW 2026   2.731   1.101   5.228
  376SOL    HW1 2027   2.721   1.079   5.325
  376SOL    HW2 2028   2.804   1.169   5.217
  377SOL     OW 2029   1.202   2.210   1.188
  377SOL    HW1 2030   1.249   2.130   1.151
  377SOL    HW2 2031   1.255   2.292   1.168
  378SOL     OW 2032   4.866   2.453   6.469
  378SOL    HW1 2033   4.917   2.395   6.533
  378SOL    HW2 2034   4.821   2.395   6.401
  379SOL     OW 2035   5.998   2.767   1.665
  379SOL    HW1 2036   5.961   2.771   1.573
  379SOL    HW2 2037   5.964   2.686   1.712
  380SOL     OW 2038   2.792   1.412   0.670
  380SOL    HW1 2039   2.746   1.324   0.680
  380SOL    HW2 2040   2.874   1.401   0.615
  381SOL     OW 2041   1.321   4.074   2.672
  381SOL    HW1 2042   1.327   4.066   2.573
  381SOL    HW2 2043   1.226   4.093   2.698
  382SOL     OW 2044   5.953   0.195   6.692
  382SOL    HW1 2045   5.962   0.126   6.620
  382SOL    HW2 2046   5.953   0.151   6.781
  383SOL     OW 2047   4.042   3.926   6.515
  383SOL    HW1 2048   4.113   3.968   6.572
  383SOL    HW2 2049   4.004   3.995   6.454
  384SOL     OW 2050   6.911   5.292   3.569
  384SOL    HW1 2051   6.994   5.319   3.521
  384SOL    HW2 2052   6.835   5.350   3.540
  385SOL     OW 2053   3.108   4.560   5.389
  385SOL    HW1 2054   3.065   4.526   5.305
  385SOL    HW2 2055   3.063   4.518   5.468
  386SOL     OW 2056   2.556   0.026   5.134
  386SOL    HW1 2057   2.554   0.123   5.156
  386SOL    HW2 2058   2.570   0.014   5.036
  387SOL     OW 2059   1.274   6.878   2.061
  387SOL    HW1 2060   1.339   6.908   1.991
  387SOL    HW2 2061   1.284   6.779   2.074
  388SOL     OW 2062   1.255   1.659   4.882
  388SOL    HW1 2063   1.292   1.738   4.932
  388SOL    HW2 2064   1.287   1.662   4.788
  389SOL     OW 2065   3.616   3.386   1.407
  389SOL    HW1 2066   3.585   3.481   1.408
  389SOL    HW2 2067   3.614   3.350   1.314
  390SOL     OW 2068   3.079   1.861   1.624
  390SOL    HW1 2069   3.141   1.785   1.607
  390SOL    HW2 2070   3.128   1.947   1.616
  391SOL     OW 2071   1.693   2.633   6.855
  391SOL    HW1 2072   1.687   2.670   6.948
  391SOL    HW2 2073   1.625   2.560   6.844
  392SOL     OW 2074   1.833   4.383   0.985
  392SOL    HW1 2075   1.832   4.372   1.084
  392SOL    HW2 2076   1.921   4.354   0.949
  393SOL     OW 2077   1.596   4.456   6.773
  393SOL    HW1 2078   1.663   4.495   6.835
  393SOL    HW2 2079   1.514   4.430   6.824
  394SOL     OW 2080   0.063   1.672   0.142
  394SOL    HW1 2081   6.988   1.688   0.131
  394SOL    HW2 2082   0.087   1.675   0.239
  395SOL     OW 2083   4.774   3.940   2.894
  395SOL    HW1 2084   4.695   3.937   2.832
  395SOL    HW2 2085   4.842   3.872   2.864
  396SOL     OW 2086   3.311   3.786   1.645
  396SOL    HW1 2087   3.267   3.856   1.590
  396SOL    HW2 2088   3.318   3.816   1.740
  397SOL     OW 2089   5.883   1.478   5.344
  397SOL    HW1 2090   5.897   1.558   5.402
  397SOL    HW2 2091   5.905   1.395   5.395
  398SOL     OW 2092   1.388   0.316   2.076
  398SOL    HW1 2093   1.387   0.313   1.976
  398SOL    HW2 2094   1.295   0.325   2.110
  399SOL     OW 2095   5.965   5.797   2.276
  399SOL    HW1 2096   6.064   5.784   2.280
  399SOL    HW2 2097   5.942   5.888   2.312
  400SOL     OW 2098   6.478   6.045   6.068
  400SOL    HW1 2099   6.413   6.000   6.007
  400SOL    HW2 2100   6.452   6.141   6.081
  401SOL     OW 2101   5.772   0.643   6.274
  401SOL    HW1 2102   5.815   0.712   6.332
  401SOL    HW2 2103   5.798   0.552   6.308
  402SOL     OW 2104   6.074   0.019   3.703
  402SOL    HW1 2105   6.018   7.014   3.625
  402SOL    HW2 2106   6.048   0.112   3.731
  403SOL     OW 2107   3.592   2.112   4.392
  403SOL    HW1 2108   3.565   2.154   4.478
  403SOL    HW2 2109   3.511   2.085   4.341
  404SOL     OW 2110   1.638   5.307   3.925
  404SOL    HW1 2111   1.651   5.390   3.980
  404SOL    HW2 2112   1.587   5.239   3.978
  405SOL     OW 2113   1.678   3.184   2.178
  405SOL    HW1 2114   1.681   3.283   2.163
  405SOL    HW2 2115   1.677   3.137   2.090
  406SOL     OW 2116   0.864   3.894   4.752
  406SOL    HW1 2117   0.835   3.799   4.758
  406SOL    HW2 2118   0.917   3.908   4.668
  407SOL     OW 2119   1.390   0.838   4.457
  407SOL    HW1 2120   1.460   0.851   4.528
  407SOL    HW2 2121   1.433   0.798   4.376
  408SOL     OW 2122   1.374   2.718   3.272
  408SOL    HW1 2123   1.407   2.708   3.178
  408SOL    HW2 2124   1.453   2.719   3.334
  409SOL     OW 2125   6.964   3.117   2.075
  409SOL    HW1 2126   6.927   3.025   2.061
  409SOL    HW2 2127   6.890   3.184   2.068
  410SOL     OW 2128   1.999   1.604   1.076
  410SOL    HW1 2129   1.935   1.681   1.083
  410SOL    HW2 2130   2.072   1.626   1.012
  411SOL     OW 2131   6.134   6.964   1.565
  411SOL    HW1 2132   6.044   7.008   1.572
  411SOL    HW2 2133   6.122   6.866   1.552
  412SOL     OW 2134   3.334   5.497   3.780
  412SOL    HW1 2135   3.302   5.585   3.814
  412SOL    HW2 2136   3.426   5.506   3.744
  413SOL     OW 2137   5.145   3.415   1.559
  413SOL    HW1 2138   5.068   3.424   1.496
  413SOL    HW2 2139   5.186   3.505   1.574
  414SOL     OW 2140   3.397   5.207   3.761
  414SOL    HW1 2141   3.446   5.262   3.828
  414SOL    HW2 2142   3.315   5.256   3.730
  415SOL     OW 2143   1.208   5.820   6.913
  415SOL    HW1 2144   1.269   5.874   6.855
  415SOL    HW2 2145   1.153   5.759   6.856
  416SOL     OW 2146   4.604   6.516   4.637
  416SOL    HW1 2147   4.607   6.610   4.672
  416SOL    HW2 2148   4.636   6.514   4.543
  417SOL     OW 2149   2.193   5.756   6.472
  417SOL    HW1 2150   2.212   5.658   6.465
  417SOL    HW2 2151   2.109   5.770   6.525
  418SOL     OW 2152   4.242   7.003   0.072
  418SOL    HW1 2153   4.164   0.030   0.112
  418SOL    HW2 2154   4.316   0.045   0.054
  419SOL     OW 2155   2.209   6.841   1.622
  419SOL    HW1 2156   2.244   6.823   1.714
  419SOL    HW2 2157   2.224   6.760   1.564
  420SOL     OW 2158   5.997   1.101   0.353
  420SOL    HW1 2159   5.927   1.037   0.384
  420SOL    HW2 2160   6.033   1.151   0.432
  421SOL     OW 2161   0.111   3.994   5.595
  421SOL    HW1 2162   0.032   3.941   5.626
  421SOL    HW2 2163   0.082   4.059   5.525
  422SOL     OW 2164   5.563   3.632   1.192
  422SOL    HW1 2165   5.466   3.632   1.168
  422SOL    HW2 2166   5.607   3.714   1.154
  423SOL     OW 2167   0.691   1.828   6.051
  423SOL    HW1 2168   0.674   1.887   5.972
  423SOL    HW2 2169   0.705   1.734   6.021
  424SOL     OW 2170   1.473   5.695   0.786
  424SOL    HW1 2171   1.431   5.653   0.705
  424SOL    HW2 2172   1.564   5.656   0.799
  425SOL     OW 2173   4.927   1.698   3.358
  425SOL    HW1 2174   4.884   1.779   3.317
  425SOL    HW2 2175   4.935   1.626   3.288
  426SOL     OW 2176   3.104   2.081   4.590
  426SOL    HW1 2177   3.080   1.984   4.600
  426SOL    HW2 2178   3.168   2.092   4.514
  427SOL     OW 2179   5.621   6.329   3.810
  427SOL    HW1 2180   5.592   6.370   3.724
  427SOL    HW2 2181   5.573   6.373   3.886
  428SOL     OW 2182   4.155   0.515   3.629
  428SOL    HW1 2183   4.220   0.590   3.615
  428SOL    HW2 2184   4.204   0.436   3.666
  429SOL     OW 2185   1.216   4.604   1.760
  429SOL    HW1 2186   1.155   4.591   1.681
  429SOL    HW2 2187   1.306   4.565   1.739
  430SOL     OW 2188   0.679   0.163   4.427
  430SOL    HW1 2189   0.611   0.172   4.356
  430SOL    HW2 2190   0.766   0.134   4.387
  431SOL     OW 2191   2.699   0.467   0.901
  431SOL    HW1 2192   2.726   0.469   0.805
  431SOL    HW2 2193   2.745   0.392   0.948
  432SOL     OW 2194   6.192   1.572   0.786
  432SOL    HW1 2195   6.254   1.641   0.823
  432SOL    HW2 2196   6.098   1.602   0.798
  433SOL     OW 2197   1.579   6.484   4.898
  433SOL    HW1 2198   1.600   6.481   4.800
  433SOL    HW2 2199   1.662   6.505   4.949
  434SOL     OW 2200   3.758   5.602   3.306
  434SOL    HW1 2201   3.805   5.607   3.218
  434SOL    HW2 2202   3.746   5.506   3.332
  435SOL     OW 2203   4.659   2.783   6.238
  435SOL    HW1 2204   4.659   2.696   6.188
  435SOL    HW2 2205   4.682   2.857   6.175
  436SOL     OW 2206   3.260   5.810   2.304
  436SOL    HW1 2207   3.187   5.746   2.282
  436SOL    HW2 2208   3.235   5.901   2.273
  437SOL     OW 2209   0.608   1.433   0.037
  437SOL    HW1 2210   0.653   1.394   0.117
  437SOL    HW2 2211   0.611   1.368   6.984
  438SOL     OW 2212   2.255   4.115   3.166
  438SOL    HW1 2213   2.333   4.054   3.176
  438SOL    HW2 2214   2.255   4.154   3.074
  439SOL     OW 2215   6.096   5.164   2.374
  439SOL    HW1 2216   6.031   5.221   2.426
  439SOL    HW2 2217   6.130   5.215   2.295
  440SOL     OW 2218   2.101   1.754   4.822
  440SOL    HW1 2219   2.027   1.729   4.759
  440SOL    HW2 2220   2.083   1.845   4.860
  441SOL     OW 2221   0.518   2.960   4.333
  441SOL    HW1 2222   0.435   3.012   4.349
  441SOL    HW2 2223   0.502   2.892   4.261
  442SOL     OW 2224   4.285   5.494   5.347
  442SOL    HW1 2225   4.309   5.591   5.348
  442SOL    HW2 2226   4.236   5.473   5.263
  443SOL     OW 2227   6.123   4.494   3.717
  443SOL    HW1 2228   6.053   4.451   3.774
  443SOL    HW2 2229   6.101   4.478   3.620
  444SOL     OW 2230   4.841   0.663   0.084
  444SOL    HW1 2231   4.921   0.719   0.107
  444SOL    HW2 2232   4.791   0.641   0.168
  445SOL     OW 2233   0.509   5.985   2.903
  445SOL    HW1 2234   0.439   5.977   2.832
  445SOL    HW2 2235   0.479   6.048   2.973
  446SOL     OW 2236   3.247   5.061   3.514
  446SOL    HW1 2237   3.314   4.998   3.551
  446SOL    HW2 2238   3.158   5.016   3.508
  447SOL     OW 2239   0.412   2.739   6.443
  447SOL    HW1 2240   0.333   2.734   6.504
  447SOL    HW2 2241   0.491   2.774   6.494
  448SOL     OW 2242   1.924   0.736   3.591
  448SOL    HW1 2243   1.825   0.722   3.592
  448SOL    HW2 2244   1.958   0.734   3.684
  449SOL     OW 2245   2.639   1.264   4.038
  449SOL    HW1 2246   2.698   1.255   3.958
  449SOL    HW2 2247   2.646   1.181   4.094
  450SOL     OW 2248   1.631   4.727   2.936
  450SOL    HW1 2249   1.609   4.811   2.887
  450SOL    HW2 2250   1.637   4.651   2.871
  451SOL     OW 2251   1.133   2.518   4.113
  451SOL    HW1 2252   1.054   2.535   4.055
  451SOL    HW2 2253   1.106   2.525   4.209
  452SOL     OW 2254   5.265   6.372   0.546
  452SOL    HW1 2255   5.330   6.446   0.531
  452SOL    HW2 2256   5.267   6.310   0.467
  453SOL     OW 2257   4.308   0.377   6.455
  453SOL    HW1 2258   4.302   0.473   6.425
  453SOL    HW2 2259   4.251   0.320   6.395
  454SOL     OW 2260   7.001   4.333   5.636
  454SOL    HW1 2261   6.901   4.340   5.625
  454SOL    HW2 2262   7.022   4.301   5.728
  455SOL     OW 2263   5.337   2.412   4.670
  455SOL    HW1 2264   5.406   2.453   4.730
  455SOL    HW2 2265   5.383   2.359   4.598
  456SOL     OW 2266   0.152   7.014   3.740
  456SOL    HW1 2267   0.087   0.039   3.680
  456SOL    HW2 2268   0.175   6.926   3.699
  457SOL     OW 2269   1.778   2.886   4.169
  457SOL    HW1 2270   1.776   2.796   4.126
  457SOL    HW2 2271   1.719   2.949   4.117
  458SOL     OW 2272   3.478   6.136   2.783
  458SOL    HW1 2273   3.423   6.070   2.832
  458SOL    HW2 2274   3.522   6.092   2.704
  459SOL     OW 2275   1.792   0.107   5.849
  459SOL    HW1 2276   1.722   0.106   5.921
  459SOL    HW2 2277   1.862   0.038   5.869
  460SOL     OW 2278   2.711   6.978   4.916
  460SOL    HW1 2279   2.792   0.005   4.948
  460SOL    HW2 2280   2.688   7.007   4.823
  461SOL     OW 2281   6.936   5.823   5.411
  461SOL    HW1 2282   7.006   5.884   5.374
  461SOL    HW2 2283   6.932   5.832   5.510
  462SOL     OW 2284   3.642   3.369   0.061
  462SOL    HW1 2285   3.698   3.389   0.141
  462SOL    HW2 2286   3.649   3.444   7.019
  463SOL     OW 2287   5.875   5.896   3.814
  463SOL    HW1 2288   5.812   5.962   3.773
  463SOL    HW2 2289   5.825   5.812   3.835
  464SOL     OW 2290   3.163   1.122   5.301
  464SOL    HW1 2291   3.188   1.217   5.286
  464SOL    HW2 2292   3.196   1.092   5.390
  465SOL     OW 2293   0.672   2.616   0.212
  465SOL    HW1 2294   0.591   2.568   0.179
  465SOL    HW2 2295   0.645   2.697   0.263
  466SOL     OW 2296   1.862   6.224   4.008
  466SOL    HW1 2297   1.828   6.160   3.939
  466SOL    HW2 2298   1.962   6.220   4.011
  467SOL     OW 2299   2.108   1.250   0.915
  467SOL    HW1 2300   2.016   1.260   0.952
  467SOL    HW2 2301   2.175   1.261   0.989
  468SOL     OW 2302   4.048   6.117   5.541
  468SOL    HW1 2303   4.014   6.204   5.578
  468SOL    HW2 2304   4.123   6.135   5.478
  469SOL     OW 2305   2.716   3.598   6.521
  469SOL    HW1 2306   2.800   3.548   6.545
  469SOL    HW2 2307   2.681   3.645   6.602
  470SOL     OW 2308   4.764   6.723   1.383
  470SOL    HW1 2309   4.858   6.709   1.354
  470SOL    HW2 2310   4.720   6.634   1.399
  471SOL     OW 2311   2.518   2.579   3.960
  471SOL    HW1 2312   2.518   2.525   3.876
  471SOL    HW2 2313   2.556   2.525   4.035
  472SOL     OW 2314   4.247   3.736   6.328
  472SOL    HW1 2315   4.236   3.743   6.427
  472SOL    HW2 2316   4.162   3.704   6.286
  473SOL     OW 2317   1.451   2.678   2.659
  473SOL    HW1 2318   1.422   2.594   2.705
  473SOL    HW2 2319   1.386   2.751   2.678
  474SOL     OW 2320   5.478   5.615   4.647
  474SOL    HW1 2321   5.497   5.530   4.696
  474SOL    HW2 2322   5.382   5.619   4.622
  475SOL     OW 2323   5.887   2.031   6.508
  475SOL    HW1 2324   5.958   2.073   6.564
  475SOL    HW2 2325   5.893   1.931   6.515
  476SOL     OW 2326   0.503   3.542   2.613
  476SOL    HW1 2327   0.571   3.560   2.684
  476SOL    HW2 2328   0.487   3.444   2.606
  477SOL     OW 2329   2.610   6.367   3.167
  477SOL    HW1 2330   2.652   6.283   3.133
  477SOL    HW2 2331   2.546   6.345   3.241
  478SOL     OW 2332   3.440   6.530   2.450
  478SOL    HW1 2333   3.401   6.464   2.386
  478SOL    HW2 2334   3.538   6.539   2.432
  479SOL     OW 2335   3.692   2.651   5.986
  479SOL    HW1 2336   3.680   2.594   6.068
  479SOL    HW2 2337   3.604   2.662   5.941
  480SOL     OW 2338   2.606   0.861   0.577
  480SOL    HW1 2339   2.546   0.782   0.590
  480SOL    HW2 2340   2.611   0.883   0.480
  481SOL     OW 2341   1.858   6.555   1.519
  481SOL    HW1 2342   1.916   6.484   1.481
  481SOL    HW2 2343   1.808   6.600   1.445
  482SOL     OW 2344   4.284   4.707   2.299
  482SOL    HW1 2345   4.188   4.717   2.275
  482SOL    HW2 2346   4.325   4.635   2.244
  483SOL     OW 2347   6.893   2.635   3.185
  483SOL    HW1 2348   6.817   2.698   3.199
  483SOL    HW2 2349   6.858   2.547   3.154
  484SOL     OW 2350   1.817   3.173   5.370
  484SOL    HW1 2351   1.917   3.180   5.378
  484SOL    HW2 2352   1.793   3.146   5.277
  485SOL     OW 2353   4.008   4.796   2.508
  485SOL    HW1 2354   3.912   4.773   2.518
  485SOL    HW2 2355   4.036   4.786   2.413
  486SOL     OW 2356   6.200   0.647   0.092
  486SOL    HW1 2357   6.202   0.730   0.148
  486SOL    HW2 2358   6.292   0.607   0.088
  487SOL     OW 2359   0.717   0.830   3.244
  487SOL    HW1 2360   0.779   0.759   3.277
  487SOL    HW2 2361   0.640   0.839   3.307
  488SOL     OW 2362   1.362   1.118   2.081
  488SOL    HW1 2363   1.279   1.074   2.115
  488SOL    HW2 2364   1.380   1.087   1.987
  489SOL     OW 2365   4.323   5.786   5.364
  489SOL    HW1 2366   4.304   5.851   5.438
  489SOL    HW2 2367   4.275   5.814   5.282
  490SOL     OW 2368   0.590   6.463   3.016
  490SOL    HW1 2369   0.596   6.440   2.919
  490SOL    HW2 2370   0.682   6.484   3.051
  491SOL     OW 2371   1.420   3.577   1.781
  491SOL    HW1 2372   1.339   3.634   1.768
  491SOL    HW2 2373   1.393   3.491   1.825
  492SOL     OW 2374   1.421   0.224   5.560
  492SOL    HW1 2375   1.416   0.286   5.481
  492SOL    HW2 2376   1.510   0.179   5.561
  493SOL     OW 2377   3.974   6.674   5.579
  493SOL    HW1 2378   3.988   6.654   5.676
  493SOL    HW2 2379   3.885   6.717   5.566
  494SOL     OW 2380   0.660   6.555   6.730
  494SOL    HW1 2381   0.676   6.512   6.819
  494SOL    HW2 2382   0.682   6.490   6.657
  495SOL     OW 2383   4.403   5.780   3.771
  495SOL    HW1 2384   4.313   5.779   3.814
  495SOL    HW2 2385   4.412   5.862   3.716
  496SOL     OW 2386   5.246   3.167   1.863
  496SOL    HW1 2387   5.270   3.251   1.813
  496SOL    HW2 2388   5.191   3.191   1.943
  497SOL     OW 2389   3.039   1.809   4.636
  497SOL    HW1 2390   2.987   1.763   4.564
  497SOL    HW2 2391   2.982   1.818   4.718
  498SOL     OW 2392   0.936   4.568   1.604
  498SOL    HW1 2393   0.910   4.537   1.695
  498SOL    HW2 2394   0.879   4.647   1.579
  499SOL     OW 2395   1.852   5.483   4.478
  499SOL    HW1 2396   1.928   5.548   4.473
  499SOL    HW2 2397   1.844   5.434   4.391
  500SOL     OW 2398   0.216   1.863   5.849
  500SOL    HW1 2399   0.300   1.863   5.903
  500SOL    HW2 2400   0.138   1.878   5.909
  501SOL     OW 2401   3.570   0.223   1.100
  501SOL    HW1 2402   3.501   0.259   1.037
  501SOL    HW2 2403   3.544   0.130   1.128
  502SOL     OW 2404   0.799   3.646   5.896
  502SOL    HW1 2405   0.807   3.555   5.855
  502SOL    HW2 2406   0.881   3.699   5.875
  503SOL     OW 2407   6.953   4.977   6.591
  503SOL    HW1 2408   6.981   5.046   6.657
  503SOL    HW2 2409   0.001   4.966   6.522
  504SOL     OW 2410   0.891   5.357   2.250
  504SOL    HW1 2411   0.984   5.393   2.243
  504SOL    HW2 2412   0.867   5.345   2.346
  505SOL     OW 2413   2.690   5.873   4.728
  505SOL    HW1 2414   2.757   5.947   4.723
  505SOL    HW2 2415   2.648   5.860   4.638
  506SOL     OW 2416   3.250   4.952   3.816
  506SOL    HW1 2417   3.151   4.949   3.803
  506SOL    HW2 2418   3.285   5.038   3.778
  507SOL     OW 2419   3.058   0.575   3.774
  507SOL    HW1 2420   3.095   0.484   3.759
  507SOL    HW2 2421   3.011   0.606   3.692
  508SOL     OW 2422   0.163   3.371   2.599
  508SOL    HW1 2423   0.242   3.331   2.553
  508SOL    HW2 2424   0.079   3.329   2.564
  509SOL     OW 2425   2.845   1.050   1.665
  509SOL    HW1 2426   2.821   1.146   1.650
  509SOL    HW2 2427   2.885   1.012   1.582
  510SOL     OW 2428   6.159   4.370   6.752
  510SOL    HW1 2429   6.166   4.280   6.797
  510SOL    HW2 2430   6.074   4.374   6.700
  511SOL     OW 2431   0.921   2.410   5.908
  511SOL    HW1 2432   0.977   2.336   5.872
  511SOL    HW2 2433   0.841   2.372   5.954
  512SOL     OW 2434   0.215   2.346   6.469
  512SOL    HW1 2435   0.179   2.255   6.451
  512SOL    HW2 2436   0.302   2.338   6.519
  513SOL     OW 2437   5.710   6.435   3.391
  513SOL    HW1 2438   5.735   6.367   3.460
  513SOL    HW2 2439   5.738   6.401   3.301
  514SOL     OW 2440   6.525   0.642   4.556
  514SOL    HW1 2441   6.598   0.667   4.619
  514SOL    HW2 2442   6.547   0.555   4.513
  515SOL     OW 2443   1.329   6.593   1.030
  515SOL    HW1 2444   1.308   6.596   0.932
  515SOL    HW2 2445   1.419   6.634   1.046
  516SOL     OW 2446   2.912   4.800   2.142
  516SOL    HW1 2447   2.878   4.728   2.081
  516SOL    HW2 2448   3.012   4.803   2.136
  517SOL     OW 2449   3.970   5.250   1.540
  517SOL    HW1 2450   3.895   5.255   1.473
  517SOL    HW2 2451   4.004   5.343   1.558
  518SOL     OW 2452   2.303   1.879   3.608
  518SOL    HW1 2453   2.245   1.869   3.688
  518SOL    HW2 2454   2.255   1.934   3.539
  519SOL     OW 2455   0.736   6.315   4.003
  519SOL    HW1 2456   0.677   6.245   3.962
  519SOL    HW2 2457   0.750   6.295   4.100
  520SOL     OW 2458   5.935   3.963   6.677
  520SOL    HW1 2459   6.019   3.931   6.719
  520SOL    HW2 2460   5.872   3.996   6.748
  521SOL     OW 2461   6.228   6.231   4.784
  521SOL    HW1 2462   6.268   6.255   4.696
  521SOL    HW2 2463   6.148   6.288   4.802
  522SOL     OW 2464   3.350   3.259   4.355
  522SOL    HW1 2465   3.320   3.309   4.273
  522SOL    HW2 2466   3.319   3.308   4.436
  523SOL     OW 2467   0.770   5.947   1.865
  523SOL    HW1 2468   0.840   5.913   1.803
  523SOL    HW2 2469   0.716   5.870   1.900
  524SOL     OW 2470   0.298   2.148   2.136
  524SOL    HW1 2471   0.363   2.131   2.063
  524SOL    HW2 2472   0.239   2.068   2.148
  525SOL     OW 2473   2.152   4.185   5.997
  525SOL    HW1 2474   2.107   4.179   5.908
  525SOL    HW2 2475   2.167   4.094   6.034
  526SOL     OW 2476   3.264   5.977   3.866
  526SOL    HW1 2477   3.306   5.886   3.866
  526SOL    HW2 2478   3.305   6.033   3.939
  527SOL     OW 2479   6.380   3.123   0.865
  527SOL    HW1 2480   6.385   3.193   0.793
  527SOL    HW2 2481   6.306   3.146   0.929
  528SOL     OW 2482   1.296   2.878   3.702
  528SOL    HW1 2483   1.314   2.955   3.640
  528SOL    HW2 2484   1.315   2.906   3.796
  529SOL     OW 2485   1.454   5.528   4.767
  529SOL    HW1 2486   1.501   5.568   4.689
  529SOL    HW2 2487   1.359   5.508   4.743
  530SOL     OW 2488   3.884   3.511   4.021
  530SOL    HW1 2489   3.878   3.413   4.042
  530SOL    HW2 2490   3.840   3.562   4.095
  531SOL     OW 2491   0.527   2.233   2.904
  531SOL    HW1 2492   0.594   2.267   2.837
  531SOL    HW2 2493   0.512   2.136   2.889
  532SOL     OW 2494   0.918   3.079   0.073
  532SOL    HW1 2495   0.863   3.158   0.045
  532SOL    HW2 2496   1.015   3.099   0.058
  533SOL     OW 2497   4.130   6.979   4.107
  533SOL    HW1 2498   4.110   6.897   4.054
  533SOL    HW2 2499   4.045   7.016   4.145
  534SOL     OW 2500   5.264   6.485   2.512
  534SOL    HW1 2501   5.218   6.465   2.599
  534SOL    HW2 2502   5.315   6.571   2.520
  535SOL     OW 2503   6.935   3.662   4.423
  535SOL    HW1 2504   6.894   3.584   4.376
  535SOL    HW2 2505   0.007   3.640   4.447
  536SOL     OW 2506   6.123   4.740   2.827
  536SOL    HW1 2507   6.069   4.738   2.911
  536SOL    HW2 2508   6.142   4.835   2.802
  537SOL     OW 2509   2.287   6.393   4.666
  537SOL    HW1 2510   2.262   6.339   4.585
  537SOL    HW2 2511   2.379   6.431   4.653
  538SOL     OW 2512   1.272   5.001   4.201
  538SOL    HW1 2513   1.289   4.963   4.292
  538SOL    HW2 2514   1.174   5.001   4.183
  539SOL     OW 2515   2.283   5.532   1.357
  539SOL    HW1 2516   2.332   5.619   1.360
  539SOL    HW2 2517   2.333   5.465   1.412
  540SOL     OW 2518   1.670   1.726   2.707
  540SOL    HW1 2519   1.642   1.711   2.613
  540SOL    HW2 2520   1.596   1.769   2.758
  541SOL     OW 2521   5.135   5.120   3.688
  541SOL    HW1 2522   5.091   5.037   3.723
  541SOL    HW2 2523   5.093   5.200   3.731
  542SOL     OW 2524   5.611   5.570   6.945
  542SOL    HW1 2525   5.552   5.494   6.917
  542SOL    HW2 2526   5.659   5.547   0.006
  543SOL     OW 2527   0.512   2.986   4.673
  543SOL    HW1 2528   0.497   2.926   4.752
  543SOL    HW2 2529   0.516   2.930   4.589
  544SOL     OW 2530   1.847   5.357   0.495
  544SOL    HW1 2531   1.921   5.337   0.432
  544SOL    HW2 2532   1.877   5.337   0.589
  545SOL     OW 2533   3.279   1.675   1.498
  545SOL    HW1 2534   3.320   1.756   1.457
  545SOL    HW2 2535   3.318   1.593   1.454
  546SOL     OW 2536   2.556   3.141   0.797
  546SOL    HW1 2537   2.474   3.161   0.742
  546SOL    HW2 2538   2.530   3.131   0.893
  547SOL     OW 2539   3.522   1.180   0.448
  547SOL    HW1 2540   3.574   1.146   0.370
  547SOL    HW2 2541   3.453   1.113   0.474
  548SOL     OW 2542   3.427   3.522   2.833
  548SOL    HW1 2543   3.516   3.554   2.801
  548SOL    HW2 2544   3.432   3.501   2.931
  549SOL     OW 2545   5.658   3.361   0.809
  549SOL    HW1 2546   5.627   3.270   0.784
  549SOL    HW2 2547   5.641   3.377   0.906
  550SOL     OW 2548   1.057   5.746   4.065
  550SOL    HW1 2549   1.014   5.697   3.989
  550SOL    HW2 2550   1.154   5.724   4.068
  551SOL     OW 2551   1.395   0.259   1.820
  551SOL    HW1 2552   1.306   0.287   1.785
  551SOL    HW2 2553   1.441   0.201   1.753
  552SOL     OW 2554   6.175   4.627   6.813
  552SOL    HW1 2555   6.180   4.531   6.784
  552SOL    HW2 2556   6.189   4.686   6.733
  553SOL     OW 2557   2.747   6.156   3.390
  553SOL    HW1 2558   2.707   6.182   3.478
  553SOL    HW2 2559   2.845   6.142   3.401
  554SOL     OW 2560   6.542   6.541   6.951
  554SOL    HW1 2561   6.615   6.494   6.999
  554SOL    HW2 2562   6.527   6.631   6.992
  555SOL     OW 2563   2.318   4.626   4.848
  555SOL    HW1 2564   2.309   4.603   4.945
  555SOL    HW2 2565   2.300   4.545   4.793
  556SOL     OW 2566   4.409   1.954   3.972
  556SOL    HW1 2567   4.331   1.933   4.030
  556SOL    HW2 2568   4.401   2.048   3.938
  557SOL     OW 2569   0.365   5.517   0.896
  557SOL    HW1 2570   0.337   5.582   0.967
  557SOL    HW2 2571   0.362   5.561   0.807
  558SOL     OW 2572   2.943   3.463   3.925
  558SOL    HW1 2573   2.867   3.472   3.860
  558SOL    HW2 2574   2.979   3.370   3.922
  559SOL     OW 2575   6.928   5.591   0.063
  559SOL    HW1 2576   6.991   5.667   0.078
  559SOL    HW2 2577   6.878   5.606   7.000
  560SOL     OW 2578   5.519   4.667   5.384
  560SOL    HW1 2579   5.609   4.694   5.418
  560SOL    HW2 2580   5.521   4.572   5.356
  561SOL     OW 2581   0.759   1.528   1.307
  561SOL    HW1 2582   0.712   1.501   1.223
  561SOL    HW2 2583   0.733   1.622   1.332
  562SOL     OW 2584   4.788   0.643   6.243
  562SOL    HW1 2585   4.837   0.584   6.309
  562SOL    HW2 2586   4.827   0.630   6.152
  563SOL     OW 2587   2.538   0.605   3.688
  563SOL    HW1 2588   2.602   0.586   3.613
  563SOL    HW2 2589   2.588   0.645   3.765
  564SOL     OW 2590   1.336   1.997   6.739
  564SOL    HW1 2591   1.246   2.022   6.777
  564SOL    HW2 2592   1.337   1.900   6.716
  565SOL     OW 2593   2.795   3.005   5.663
  565SOL    HW1 2594   2.787   2.960   5.574
  565SOL    HW2 2595   2.746   3.092   5.661
  566SOL     OW 2596   6.640   5.148   3.091
  566SOL    HW1 2597   6.723   5.122   3.140
  566SOL    HW2 2598   6.652   5.133   2.993
  567SOL     OW 2599   2.876   2.887   1.425
  567SOL    HW1 2600   2.900   2.959   1.489
  567SOL    HW2 2601   2.836   2.810   1.475
  568SOL     OW 2602   5.129   0.744   0.145
  568SOL    HW1 2603   5.201   0.684   0.179
  568SOL    HW2 2604   5.101   0.807   0.217
  569SOL     OW 2605   1.698   2.820   6.632
  569SOL    HW1 2606   1.712   2.767   6.716
  569SOL    HW2 2607   1.619   2.784   6.583
  570SOL     OW 2608   3.878   6.020   6.765
  570SOL    HW1 2609   3.876   5.963   6.683
  570SOL    HW2 2610   3.889   5.962   6.846
  571SOL     OW 2611   3.352   6.967   2.136
  571SOL    HW1 2612   3.429   6.969   2.072
  571SOL    HW2 2613   3.369   0.007   2.211
  572SOL     OW 2614   2.635   4.647   5.571
  572SOL    HW1 2615   2.649   4.706   5.650
  572SOL    HW2 2616   2.691   4.679   5.494
  573SOL     OW 2617   5.534   1.231   5.499
  573SOL    HW1 2618   5.552   1.132   5.502
  573SOL    HW2 2619   5.506   1.256   5.406
  574SOL     OW 2620   3.704   1.869   4.480
  574SOL    HW1 2621   3.691   1.800   4.409
  574SOL    HW2 2622   3.655   1.953   4.454
  575SOL     OW 2623   4.955   4.255   6.963
  575SOL    HW1 2624   4.990   4.162   6.956
  575SOL    HW2 2625   4.993   4.311   6.890
  576SOL     OW 2626   1.020   2.205   2.871
  576SOL    HW1 2627   0.970   2.286   2.903
  576SOL    HW2 2628   1.106   2.233   2.829
  577SOL     OW 2629   1.638   1.310   2.544
  577SOL    HW1 2630   1.659   1.231   2.601
  577SOL    HW2 2631   1.590   1.379   2.599
  578SOL     OW 2632   5.624   6.081   3.917
  578SOL    HW1 2633   5.608   6.171   3.875
  578SOL    HW2 2634   5.612   6.010   3.848
  579SOL     OW 2635   1.943   3.099   2.940
  579SOL    HW1 2636   1.893   3.032   2.885
  579SOL    HW2 2637   1.878   3.162   2.983
  580SOL     OW 2638   5.684   5.469   0.195
  580SOL    HW1 2639   5.682   5.551   0.251
  580SOL    HW2 2640   5.674   5.388   0.253
  581SOL     OW 2641   2.497   3.365   1.453
  581SOL    HW1 2642   2.510   3.413   1.367
  581SOL    HW2 2643   2.553   3.282   1.455
  582SOL     OW 2644   4.267   6.543   1.462
  582SOL    HW1 2645   4.238   6.552   1.557
  582SOL    HW2 2646   4.345   6.603   1.446
  583SOL     OW 2647   3.181   5.781   5.595
  583SOL    HW1 2648   3.107   5.798   5.660
  583SOL    HW2 2649   3.143   5.765   5.504
  584SOL     OW 2650   3.042   4.357   6.478
  584SOL    HW1 2651   3.112   4.428   6.487
  584SOL    HW2 2652   3.079   4.270   6.512
  585SOL     OW 2653   5.216   2.601   6.134
  585SOL    HW1 2654   5.145   2.629   6.198
  585SOL    HW2 2655   5.304   2.638   6.165
  586SOL     OW 2656   3.682   0.907   5.917
  586SOL    HW1 2657   3.733   0.993   5.907
  586SOL    HW2 2658   3.723   0.852   5.989
  587SOL     OW 2659   4.313   1.799   5.380
  587SOL    HW1 2660   4.335   1.887   5.337
  587SOL    HW2 2661   4.288   1.733   5.309
  588SOL     OW 2662   1.370   4.623   2.269
  588SOL    HW1 2663   1.322   4.600   2.185
  588SOL    HW2 2664   1.410   4.714   2.261
  589SOL     OW 2665   3.287   4.657   1.393
  589SOL    HW1 2666   3.280   4.734   1.456
  589SOL    HW2 2667   3.306   4.692   1.301
  590SOL     OW 2668   4.878   2.962   3.485
  590SOL    HW1 2669   4.974   2.934   3.490
  590SOL    HW2 2670   4.847   2.957   3.390
  591SOL     OW 2671   3.031   5.546   4.036
  591SOL    HW1 2672   3.048   5.451   4.060
  591SOL    HW2 2673   3.117   5.593   4.017
  592SOL     OW 2674   3.843   1.091   1.007
  592SOL    HW1 2675   3.925   1.091   0.950
  592SOL    HW2 2676   3.818   0.997   1.029
  593SOL     OW 2677   4.706   2.520   4.030
  593SOL    HW1 2678   4.607   2.505   4.041
  593SOL    HW2 2679   4.728   2.520   3.932
  594SOL     OW 2680   6.620   1.933   0.259
  594SOL    HW1 2681   6.672   2.007   0.216
  594SOL    HW2 2682   6.550   1.972   0.319
  595SOL     OW 2683   5.697   6.888   3.558
  595SOL    HW1 2684   5.701   6.789   3.565
  595SOL    HW2 2685   5.784   6.923   3.522
  596SOL     OW 2686   0.992   5.226   3.231
  596SOL    HW1 2687   0.960   5.220   3.326
  596SOL    HW2 2688   0.917   5.201   3.170
  597SOL     OW 2689   3.196   0.729   0.065
  597SOL    HW1 2690   3.116   0.716   0.006
  597SOL    HW2 2691   3.232   0.640   0.093
  598SOL     OW 2692   4.265   5.025   5.346
  598SOL    HW1 2693   4.340   5.090   5.345
  598SOL    HW2 2694   4.179   5.074   5.329
  599SOL     OW 2695   2.323   6.233   2.130
  599SOL    HW1 2696   2.375   6.148   2.126
  599SOL    HW2 2697   2.333   6.273   2.221
  600SOL     OW 2698   0.120   1.586   6.653
  600SOL    HW1 2699   0.044   1.524   6.633
  600SOL    HW2 2700   0.189   1.539   6.708
  601SOL     OW 2701   2.317   0.452   4.462
  601SOL    HW1 2702   2.337   0.524   4.395
  601SOL    HW2 2703   2.257   0.384   4.419
  602SOL     OW 2704   1.953   2.581   6.276
  602SOL    HW1 2705   2.014   2.653   6.308
  602SOL    HW2 2706   1.978   2.494   6.319
  603SOL     OW 2707   2.331   2.185   4.622
  603SOL    HW1 2708   2.273   2.233   4.688
  603SOL    HW2 2709   2.404   2.246   4.592
  604SOL     OW 2710   1.517   2.932   1.635
  604SOL    HW1 2711   1.464   3.006   1.593
  604SOL    HW2 2712   1.615   2.946   1.617
  605SOL     OW 2713   6.968   6.938   1.552
  605SOL    HW1 2714   6.876   6.977   1.560
  605SOL    HW2 2715   7.018   6.986   1.480
  606SOL     OW 2716   4.215   0.249   6.693
  606SOL    HW1 2717   4.207   0.288   6.601
  606SOL    HW2 2718   4.312   0.239   6.716
  607SOL     OW 2719   6.607   6.527   6.034
  607SOL    HW1 2720   6.702   6.519   6.064
  607SOL    HW2 2721   6.570   6.615   6.063
  608SOL     OW 2722   3.277   6.044   6.263
  608SOL    HW1 2723   3.297   5.977   6.192
  608SOL    HW2 2724   3.273   5.998   6.352
  609SOL     OW 2725   3.947   3.057   3.352
  609SOL    HW1 2726   3.909   2.993   3.419
  609SOL    HW2 2727   3.993   3.132   3.399
  610SOL     OW 2728   5.535   3.737   1.972
  610SOL    HW1 2729   5.616   3.704   1.923
  610SOL    HW2 2730   5.564   3.791   2.051
  611SOL     OW 2731   3.609   6.662   0.737
  611SOL    HW1 2732   3.582   6.742   0.683
  611SOL    HW2 2733   3.700   6.676   0.776
  612SOL     OW 2734   4.229   6.915   5.943
  612SOL    HW1 2735   4.259   6.986   5.879
  612SOL    HW2 2736   4.231   6.951   6.036
  613SOL     OW 2737   3.830   6.384   5.526
  613SOL    HW1 2738   3.861   6.397   5.620
  613SOL    HW2 2739   3.829   6.472   5.478
  614SOL     OW 2740   4.806   5.143   1.253
  614SOL    HW1 2741   4.815   5.242   1.261
  614SOL    HW2 2742   4.886   5.099   1.295
  615SOL     OW 2743   6.335   2.424   1.798
  615SOL    HW1 2744   6.259   2.366   1.769
  615SOL    HW2 2745   6.311   2.520   1.780
  616SOL     OW 2746   6.853   2.126   3.766
  616SOL    HW1 2747   6.849   2.062   3.689
  616SOL    HW2 2748   6.858   2.219   3.731
  617SOL     OW 2749   6.436   4.412   6.283
  617SOL    HW1 2750   6.386   4.436   6.366
  617SOL    HW2 2751   6.496   4.488   6.258
  618SOL     OW 2752   6.531   2.341   6.679
  618SOL    HW1 2753   6.564   2.338   6.774
  618SOL    HW2 2754   6.585   2.408   6.628
  619SOL     OW 2755   4.607   1.104   6.841
  619SOL    HW1 2756   4.592   1.018   6.791
  619SOL    HW2 2757   4.518   1.144   6.864
  620SOL     OW 2758   4.251   3.074   1.507
  620SOL    HW1 2759   4.188   2.999   1.528
  620SOL    HW2 2760   4.204   3.143   1.452
  621SOL     OW 2761   3.245   6.130   6.683
  621SOL    HW1 2762   3.209   6.165   6.770
  621SOL    HW2 2763   3.312   6.194   6.647
  622SOL     OW 2764   1.771   0.765   5.080
  622SOL    HW1 2765   1.704   0.840   5.085
  622SOL    HW2 2766   1.807   0.759   4.987
  623SOL     OW 2767   0.255   5.783   6.029
  623SOL    HW1 2768   0.221   5.841   5.955
  623SOL    HW2 2769   0.321   5.834   6.084
  624SOL     OW 2770   0.148   2.322   1.042
  624SOL    HW1 2771   0.052   2.344   1.052
  624SOL    HW2 2772   0.185   2.290   1.129
  625SOL     OW 2773   1.355   1.663   2.302
  625SOL    HW1 2774   1.331   1.575   2.343
  625SOL    HW2 2775   1.307   1.673   2.215
  626SOL     OW 2776   1.708   5.783   3.150
  626SOL    HW1 2777   1.791   5.823   3.111
  626SOL    HW2 2778   1.628   5.826   3.108
  627SOL     OW 2779   5.723   6.456   0.104
  627SOL    HW1 2780   5.712   6.420   0.011
  627SOL    HW2 2781   5.664   6.405   0.166
  628SOL     OW 2782   5.552   5.473   5.521
  628SOL    HW1 2783   5.540   5.554   5.578
  628SOL    HW2 2784   5.596   5.499   5.435
  629SOL     OW 2785   0.346   0.479   6.292
  629SOL    HW1 2786   0.361   0.548   6.362
  629SOL    HW2 2787   0.346   0.521   6.202
  630SOL     OW 2788   0.460   1.464   0.925
  630SOL    HW1 2789   0.422   1.550   0.890
  630SOL    HW2 2790   0.430   1.389   0.867
  631SOL     OW 2791   4.079   0.327   5.073
  631SOL    HW1 2792   4.008   0.394   5.094
  631SOL    HW2 2793   4.039   0.236   5.068
  632SOL     OW 2794   3.395   1.511   1.326
  632SOL    HW1 2795   3.358   1.423   1.296
  632SOL    HW2 2796   3.492   1.517   1.300
  633SOL     OW 2797   3.407   3.507   0.046
  633SOL    HW1 2798   3.317   3.468   0.064
  633SOL    HW2 2799   3.476   3.434   0.050
  634SOL     OW 2800   3.531   3.098   1.989
  634SOL    HW1 2801   3.542   3.000   2.007
  634SOL    HW2 2802   3.542   3.116   1.891
  635SOL     OW 2803   4.596   5.257   1.067
  635SOL    HW1 2804   4.602   5.258   0.967
  635SOL    HW2 2805   4.663   5.192   1.103
  636SOL     OW 2806   2.627   6.510   0.228
  636SOL    HW1 2807   2.723   6.482   0.220
  636SOL    HW2 2808   2.588   6.523   0.137
  637SOL     OW 2809   0.358   3.165   3.069
  637SOL    HW1 2810   0.399   3.228   3.003
  637SOL    HW2 2811   0.262   3.148   3.045
  638SOL     OW 2812   5.517   2.117   4.259
  638SOL    HW1 2813   5.598   2.155   4.215
  638SOL    HW2 2814   5.441   2.116   4.194
  639SOL     OW 2815   5.034   3.788   3.308
  639SOL    HW1 2816   5.074   3.746   3.226
  639SOL    HW2 2817   5.102   3.847   3.352
  640SOL     OW 2818   0.492   5.619   4.257
  640SOL    HW1 2819   0.588   5.643   4.248
  640SOL    HW2 2820   0.436   5.699   4.237
  641SOL     OW 2821   6.814   5.145   4.311
  641SOL    HW1 2822   6.844   5.175   4.402
  641SOL    HW2 2823   6.716   5.163   4.301
  642SOL     OW 2824   6.641   3.061   4.471
  642SOL    HW1 2825   6.544   3.080   4.453
  642SOL    HW2 2826   6.649   2.983   4.533
  643SOL     OW 2827   6.169   5.393   5.359
  643SOL    HW1 2828   6.079   5.365   5.391
  643SOL    HW2 2829   6.160   5.468   5.293
  644SOL     OW 2830   1.459   6.436   4.099
  644SOL    HW1 2831   1.555   6.453   4.076
  644SOL    HW2 2832   1.450   6.344   4.137
  645SOL     OW 2833   4.013   0.648   4.460
  645SOL    HW1 2834   4.039   0.732   4.509
  645SOL    HW2 2835   3.961   0.589   4.522
  646SOL     OW 2836   3.525   1.020   4.715
  646SOL    HW1 2837   3.571   0.957   4.653
  646SOL    HW2 2838   3.437   0.982   4.743
  647SOL     OW 2839   5.458   1.276   5.234
  647SOL    HW1 2840   5.539   1.253   5.180
  647SOL    HW2 2841   5.389   1.317   5.175
  648SOL     OW 2842   0.765   3.760   3.653
  648SOL    HW1 2843   0.771   3.665   3.624
  648SOL    HW2 2844   0.696   3.808   3.599
  649SOL     OW 2845   2.851   4.029   0.732
  649SOL    HW1 2846   2.836   3.932   0.747
  649SOL    HW2 2847   2.816   4.055   0.642
  650SOL     OW 2848   5.761   4.250   0.350
  650SOL    HW1 2849   5.861   4.238   0.350
  650SOL    HW2 2850   5.724   4.217   0.263
  651SOL     OW 2851   0.353   6.189   5.875
  651SOL    HW1 2852   0.431   6.127   5.881
  651SOL    HW2 2853   0.359   6.242   5.790
  652SOL     OW 2854   4.630   0.480   3.509
  652SOL    HW1 2855   4.581   0.397   3.482
  652SOL    HW2 2856   4.642   0.481   3.608
  653SOL     OW 2857   0.869   5.526   5.962
  653SOL    HW1 2858   0.946   5.515   6.026
  653SOL    HW2 2859   0.898   5.496   5.871
  654SOL     OW 2860   0.582   4.428   6.065
  654SOL    HW1 2861   0.601   4.473   5.978
  654SOL    HW2 2862   0.660   4.372   6.092
  655SOL     OW 2863   0.478   5.718   1.692
  655SOL    HW1 2864   0.420   5.639   1.671
  655SOL    HW2 2865   0.508   5.761   1.607
  656SOL     OW 2866   1.900   5.962   1.306
  656SOL    HW1 2867   1.920   5.902   1.384
  656SOL    HW2 2868   1.811   5.938   1.268
  657SOL     OW 2869   2.275   3.500   1.632
  657SOL    HW1 2870   2.326   3.585   1.615
  657SOL    HW2 2871   2.286   3.473   1.728
  658SOL     OW 2872   2.939   4.040   6.834
  658SOL    HW1 2873   2.925   4.119   6.893
  658SOL    HW2 2874   2.859   3.980   6.840
  659SOL     OW 2875   1.560   5.545   5.513
  659SOL    HW1 2876   1.606   5.484   5.449
  659SOL    HW2 2877   1.600   5.534   5.604
  660SOL     OW 2878   5.689   3.684   2.576
  660SOL    HW1 2879   5.735   3.755   2.523
  660SOL    HW2 2880   5.708   3.595   2.536
  661SOL     OW 2881   4.868   4.994   3.355
  661SOL    HW1 2882   4.843   5.051   3.433
  661SOL    HW2 2883   4.906   5.051   3.283
  662SOL     OW 2884   3.600   0.717   4.713
  662SOL    HW1 2885   3.699   0.710   4.698
  662SOL    HW2 2886   3.583   0.766   4.798
  663SOL     OW 2887   1.976   3.773   0.005
  663SOL    HW1 2888   2.030   3.770   6.943
  663SOL    HW2 2889   1.948   3.680   0.029
  664SOL     OW 2890   0.007   5.061   6.190
  664SOL    HW1 2891   6.984   4.972   6.198
  664SOL    HW2 2892   6.968   5.133   6.220
  665SOL     OW 2893   4.356   4.532   1.274
  665SOL    HW1 2894   4.433   4.476   1.243
  665SOL    HW2 2895   4.354   4.618   1.224
  666SOL     OW 2896   4.862   1.863   2.948
  666SOL    HW1 2897   4.845   1.775   2.903
  666SOL    HW2 2898   4.829   1.859   3.042
  667SOL     OW 2899   6.382   3.723   4.201
  667SOL    HW1 2900   6.344   3.702   4.110
  667SOL    HW2 2901   6.388   3.822   4.213
  668SOL     OW 2902   5.070   5.849   6.631
  668SOL    HW1 2903   5.131   5.926   6.611
  668SOL    HW2 2904   5.032   5.813   6.545
  669SOL     OW 2905   3.578   6.953   3.950
  669SOL    HW1 2906   3.644   6.904   4.007
  669SOL    HW2 2907   3.501   6.893   3.929
  670SOL     OW 2908   2.609   2.824   0.813
  670SOL    HW1 2909   2.532   2.785   0.863
  670SOL    HW2 2910   2.588   2.919   0.790
  671SOL     OW 2911   2.158   5.950   1.138
  671SOL    HW1 2912   2.174   6.023   1.072
  671SOL    HW2 2913   2.070   5.965   1.184
  672SOL     OW 2914   1.328   5.028   1.983
  672SOL    HW1 2915   1.273   5.081   2.047
  672SOL    HW2 2916   1.423   5.060   1.986
  673SOL     OW 2917   0.418   0.587   1.364
  673SOL    HW1 2918   0.467   0.536   1.293
  673SOL    HW2 2919   0.387   0.523   1.434
  674SOL     OW 2920   0.329   2.848   5.310
  674SOL    HW1 2921   0.278   2.933   5.294
  674SOL    HW2 2922   0.264   2.774   5.328
  675SOL     OW 2923   0.069   0.717   4.080
  675SOL    HW1 2924   0.095   0.800   4.030
  675SOL    HW2 2925   7.005   0.682   4.044
  676SOL     OW 2926   3.913   6.191   2.769
  676SOL    HW1 2927   3.879   6.123   2.704
  676SOL    HW2 2928   3.920   6.280   2.724
  677SOL     OW 2929   6.781   1.625   0.078
  677SOL    HW1 2930   6.708   1.683   0.040
  677SOL    HW2 2931   6.754   1.592   0.168
  678SOL     OW 2932   2.105   1.566   5.097
  678SOL    HW1 2933   2.008   1.552   5.079
  678SOL    HW2 2934   2.133   1.656   5.062
  679SOL     OW 2935   4.598   1.620   4.237
  679SOL    HW1 2936   4.585   1.693   4.170
  679SOL    HW2 2937   4.585   1.531   4.193
  680SOL     OW 2938   5.934   5.332   5.501
  680SOL    HW1 2939   5.928   5.266   5.576
  680SOL    HW2 2940   5.883   5.297   5.422
  681SOL     OW 2941   5.280   5.478   2.032
  681SOL    HW1 2942   5.328   5.560   2.001
  681SOL    HW2 2943   5.296   5.466   2.130
  682SOL     OW 2944   1.524   0.994   0.460
  682SOL    HW1 2945   1.431   1.025   0.440
  682SOL    HW2 2946   1.589   1.043   0.401
  683SOL     OW 2947   3.696   3.175   0.480
  683SOL    HW1 2948   3.707   3.184   0.381
  683SOL    HW2 2949   3.784   3.152   0.522
  684SOL     OW 2950   0.188   0.961   6.975
  684SOL    HW1 2951   0.148   0.925   0.036
  684SOL    HW2 2952   0.173   0.897   6.900
  685SOL     OW 2953   5.093   1.156   4.091
  685SOL    HW1 2954   5.031   1.126   4.019
  685SOL    HW2 2955   5.064   1.246   4.125
  686SOL     OW 2956   5.448   2.502   3.709
  686SOL    HW1 2957   5.367   2.531   3.657
  686SOL    HW2 2958   5.452   2.402   3.711
  687SOL     OW 2959   0.426   2.188   4.875
  687SOL    HW1 2960   0.489   2.148   4.808
  687SOL    HW2 2961   0.348   2.127   4.888
  688SOL     OW 2962   0.864   2.506   0.383
  688SOL    HW1 2963   0.840   2.570   0.310
  688SOL    HW2 2964   0.877   2.415   0.344
  689SOL     OW 2965   6.914   3.956   6.106
  689SOL    HW1 2966   6.970   3.881   6.140
  689SOL    HW2 2967   6.961   4.043   6.122
  690SOL     OW 2968   0.371   4.053   3.113
  690SOL    HW1 2969   0.450   4.075   3.170
  690SOL    HW2 2970   0.370   4.111   3.032
  691SOL     OW 2971   2.533   0.079   6.304
  691SOL    HW1 2972   2.454   0.111   6.358
  691SOL    HW2 2973   2.613   0.134   6.327
  692SOL     OW 2974   3.015   6.066   3.614
  692SOL    HW1 2975   2.949   6.048   3.687
  692SOL    HW2 2976   3.108   6.065   3.651
  693SOL     OW 2977   6.249   0.694   3.377
  693SOL    HW1 2978   6.215   0.654   3.462
  693SOL    HW2 2979   6.235   0.794   3.380
  694SOL     OW 2980   4.340   5.925   2.376
  694SOL    HW1 2981   4.410   5.964   2.436
  694SOL    HW2 2982   4.349   5.963   2.284
  695SOL     OW 2983   3.917   6.176   4.500
  695SOL    HW1 2984   3.951   6.131   4.583
  695SOL    HW2 2985   3.960   6.266   4.491
  696SOL     OW 2986   4.035   4.786   2.239
  696SOL    HW1 2987   3.937   4.804   2.247
  696SOL    HW2 2988   4.077   4.856   2.182
  697SOL     OW 2989   2.133   3.415   3.401
  697SOL    HW1 2990   2.045   3.404   3.447
  697SOL    HW2 2991   2.126   3.487   3.332
  698SOL     OW 2992   5.621   6.275   0.316
  698SOL    HW1 2993   5.710   6.262   0.360
  698SOL    HW2 2994   5.576   6.186   0.307
  699SOL     OW 2995   2.247   3.207   6.454
  699SOL    HW1 2996   2.281   3.180   6.363
  699SOL    HW2 2997   2.147   3.204   6.454
  700SOL     OW 2998   2.491   1.310   3.007
  700SOL    HW1 2999   2.501   1.311   3.106
  700SOL    HW2 3000   2.394   1.313   2.983
  701SOL     OW 3001   6.036   3.713   5.347
  701SOL    HW1 3002   6.013   3.626   5.303
  701SOL    HW2 3003   6.127   3.706   5.388
  702SOL     OW 3004   0.953   5.987   5.327
  702SOL    HW1 3005   0.964   6.086   5.317
  702SOL    HW2 3006   1.035   5.941   5.293
  703SOL     OW 3007   3.702   4.093   6.290
  703SOL    HW1 3008   3.646   4.062   6.214
  703SOL    HW2 3009   3.657   4.068   6.376
  704SOL     OW 3010   1.636   1.890   0.041
  704SOL    HW1 3011   1.550   1.844   0.018
  704SOL    HW2 3012   1.711   1.823   0.044
  705SOL     OW 3013   6.193   5.832   2.582
  705SOL    HW1 3014   6.194   5.798   2.488
  705SOL    HW2 3015   6.224   5.760   2.644
  706SOL     OW 3016   4.475   2.373   4.218
  706SOL    HW1 3017   4.513   2.294   4.170
  706SOL    HW2 3018   4.546   2.417   4.273
  707SOL     OW 3019   4.941   6.485   2.384
  707SOL    HW1 3020   5.026   6.434   2.396
  707SOL    HW2 3021   4.874   6.454   2.451
  708SOL     OW 3022   4.554   6.981   1.332
  708SOL    HW1 3023   4.486   0.013   1.283
  708SOL    HW2 3024   4.630   0.017   1.360
  709SOL     OW 3025   1.097   5.500   1.479
  709SOL    HW1 3026   1.188   5.480   1.516
  709SOL    HW2 3027   1.095   5.478   1.382
  710SOL     OW 3028   4.026   3.152   3.042
  710SOL    HW1 3029   3.967   3.090   3.092
  710SOL    HW2 3030   3.990   3.167   2.950
  711SOL     OW 3031   6.819   2.631   5.284
  711SOL    HW1 3032   6.806   2.558   5.350
  711SOL    HW2 3033   6.914   2.630   5.252
  712SOL     OW 3034   4.049   3.326   1.419
  712SOL    HW1 3035   3.952   3.314   1.442
  712SOL    HW2 3036   4.060   3.325   1.320
  713SOL     OW 3037   4.348   2.215   6.135
  713SOL    HW1 3038   4.399   2.257   6.210
  713SOL    HW2 3039   4.370   2.118   6.130
  714SOL     OW 3040   6.382   4.493   4.049
  714SOL    HW1 3041   6.374   4.494   3.950
  714SOL    HW2 3042   6.349   4.580   4.086
  715SOL     OW 3043   5.615   5.999   0.587
  715SOL    HW1 3044   5.698   6.036   0.629
  715SOL    HW2 3045   5.535   6.047   0.623
  716SOL     OW 3046   0.693   0.376   1.514
  716SOL    HW1 3047   0.594   0.380   1.533
  716SOL    HW2 3048   0.718   0.282   1.490
  717SOL     OW 3049   6.113   4.619   5.508
  717SOL    HW1 3050   6.131   4.531   5.550
  717SOL    HW2 3051   6.098   4.608   5.410
  718SOL     OW 3052   5.279   2.352   6.009
  718SOL    HW1 3053   5.303   2.370   5.914
  718SOL    HW2 3054   5.272   2.438   6.060
  719SOL     OW 3055   6.130   0.786   1.963
  719SOL    HW1 3056   6.032   0.795   1.947
  719SOL    HW2 3057   6.180   0.840   1.894
  720SOL     OW 3058   3.537   0.781   6.194
  720SOL    HW1 3059   3.528   0.705   6.130
  720SOL    HW2 3060   3.459   0.842   6.186
  721SOL     OW 3061   2.748   1.708   4.076
  721SOL    HW1 3062   2.714   1.793   4.037
  721SOL    HW2 3063   2.848   1.706   4.069
  722SOL     OW 3064   2.532   0.635   5.528
  722SOL    HW1 3065   2.585   0.650   5.444
  722SOL    HW2 3066   2.487   0.546   5.523
  723SOL     OW 3067   1.985   4.311   2.872
  723SOL    HW1 3068   1.910   4.287   2.933
  723SOL    HW2 3069   1.981   4.409   2.851
  724SOL     OW 3070   0.961   2.791   4.150
  724SOL    HW1 3071   0.914   2.726   4.091
  724SOL    HW2 3072   0.980   2.875   4.099
  725SOL     OW 3073   2.531   5.664   0.400
  725SOL    HW1 3074   2.588   5.582   0.393
  725SOL    HW2 3075   2.514   5.684   0.497
  726SOL     OW 3076   3.862   5.090   0.838
  726SOL    HW1 3077   3.827   5.164   0.896
  726SOL    HW2 3078   3.920   5.030   0.894
  727SOL     OW 3079   5.560   4.360   5.374
  727SOL    HW1 3080   5.593   4.322   5.460
  727SOL    HW2 3081   5.626   4.340   5.301
  728SOL     OW 3082   6.575   2.884   5.163
  728SOL    HW1 3083   6.658   2.905   5.215
  728SOL    HW2 3084   6.496   2.925   5.209
  729SOL     OW 3085   0.912   1.933   1.072
  729SOL    HW1 3086   0.872   2.009   1.123
  729SOL    HW2 3087   0.968   1.968   0.997
  730SOL     OW 3088   5.878   0.706   4.143
  730SOL    HW1 3089   5.886   0.635   4.073
  730SOL    HW2 3090   5.969   0.738   4.169
  731SOL     OW 3091   5.372   4.406   6.019
  731SOL    HW1 3092   5.427   4.486   5.996
  731SOL    HW2 3093   5.430   4.324   6.020
  732SOL     OW 3094   6.817   2.198   1.644
  732SOL    HW1 3095   6.817   2.137   1.723
  732SOL    HW2 3096   6.826   2.292   1.675
  733SOL     OW 3097   5.434   5.906   5.125
  733SOL    HW1 3098   5.408   6.002   5.119
  733SOL    HW2 3099   5.396   5.866   5.209
  734SOL     OW 3100   0.163   4.931   2.738
  734SOL    HW1 3101   0.165   4.837   2.771
  734SOL    HW2 3102   0.133   4.992   2.812
  735SOL     OW 3103   3.860   2.446   0.409
  735SOL    HW1 3104   3.862   2.397   0.496
  735SOL    HW2 3105   3.797   2.523   0.416
  736SOL     OW 3106   0.173   1.158   3.464
  736SOL    HW1 3107   0.167   1.080   3.526
  736SOL    HW2 3108   0.220   1.131   3.380
  737SOL     OW 3109   4.848   1.862   5.290
  737SOL    HW1 3110   4.906   1.910   5.224
  737SOL    HW2 3111   4.779   1.809   5.241
  738SOL     OW 3112   2.016   4.520   1.475
  738SOL    HW1 3113   2.023   4.520   1.376
  738SOL    HW2 3114   2.005   4.427   1.509
  739SOL     OW 3115   4.324   0.089   4.297
  739SOL    HW1 3116   4.265   0.013   4.322
  739SOL    HW2 3117   4.354   0.079   4.202
  740SOL     OW 3118   6.267   0.564   1.615
  740SOL    HW1 3119   6.329   0.640   1.599
  740SOL    HW2 3120   6.243   0.560   1.712
  741SOL     OW 3121   2.195   6.365   3.345
  741SOL    HW1 3122   2.230   6.416   3.423
  741SOL    HW2 3123   2.207   6.419   3.261
  742SOL     OW 3124   3.016   6.841   2.732
  742SOL    HW1 3125   2.939   6.902   2.751
  742SOL    HW2 3126   3.007   6.758   2.788
  743SOL     OW 3127   0.207   4.209   3.521
  743SOL    HW1 3128   0.229   4.240   3.613
  743SOL    HW2 3129   0.141   4.273   3.480
  744SOL     OW 3130   6.199   0.295   6.844
  744SOL    HW1 3131   6.213   0.318   6.941
  744SOL    HW2 3132   6.110   0.250   6.833
  745SOL     OW 3133   1.303   4.941   4.784
  745SOL    HW1 3134   1.336   5.030   4.815
  745SOL    HW2 3135   1.208   4.950   4.752
  746SOL     OW 3136   6.856   4.357   6.361
  746SOL    HW1 3137   6.888   4.264   6.378
  746SOL    HW2 3138   6.930   4.422   6.377
  747SOL     OW 3139   3.681   6.272   4.366
  747SOL    HW1 3140   3.737   6.195   4.397
  747SOL    HW2 3141   3.728   6.320   4.292
  748SOL     OW 3142   3.840   5.124   2.293
  748SOL    HW1 3143   3.792   5.159   2.213
  748SOL    HW2 3144   3.830   5.024   2.297
  749SOL     OW 3145   5.908   4.450   5.001
  749SOL    HW1 3146   6.000   4.411   5.009
  749SOL    HW2 3147   5.868   4.424   4.913
  750SOL     OW 3148   1.717   1.706   1.069
  750SOL    HW1 3149   1.731   1.765   1.148
  750SOL    HW2 3150   1.619   1.692   1.055
  751SOL     OW 3151   4.157   2.500   6.946
  751SOL    HW1 3152   4.140   2.412   6.990
  751SOL    HW2 3153   4.200   2.562   7.011
  752SOL     OW 3154   3.212   0.870   2.056
  752SOL    HW1 3155   3.235   0.871   2.153
  752SOL    HW2 3156   3.214   0.963   2.020
  753SOL     OW 3157   2.340   3.226   5.416
  753SOL    HW1 3158   2.397   3.302   5.388
  753SOL    HW2 3159   2.356   3.147   5.356
  754SOL     OW 3160   5.263   2.423   5.400
  754SOL    HW1 3161   5.287   2.505   5.348
  754SOL    HW2 3162   5.175   2.389   5.369
  755SOL     OW 3163   1.528   4.457   5.756
  755SOL    HW1 3164   1.611   4.501   5.723
  755SOL    HW2 3165   1.462   4.527   5.783
  756SOL     OW 3166   3.046   6.830   6.441
  756SOL    HW1 3167   3.099   6.894   6.386
  756SOL    HW2 3168   2.975   6.880   6.490
  757SOL     OW 3169   0.643   1.002   3.638
  757SOL    HW1 3170   0.589   1.003   3.554
  757SOL    HW2 3171   0.678   0.909   3.654
  758SOL     OW 3172   3.553   6.992   1.956
  758SOL    HW1 3173   3.585   0.063   1.940
  758SOL    HW2 3174   3.506   6.959   1.874
  759SOL     OW 3175   0.357   1.487   1.364
  759SOL    HW1 3176   0.271   1.457   1.323
  759SOL    HW2 3177   0.339   1.553   1.436
  760SOL     OW 3178   5.558   0.133   5.313
  760SOL    HW1 3179   5.545   0.036   5.330
  760SOL    HW2 3180   5.534   0.185   5.395
  761SOL     OW 3181   5.272   3.659   5.957
  761SOL    HW1 3182   5.312   3.749   5.972
  761SOL    HW2 3183   5.298   3.598   6.031
  762SOL     OW 3184   2.455   0.492   4.935
  762SOL    HW1 3185   2.517   0.519   4.861
  762SOL    HW2 3186   2.384   0.433   4.898
  763SOL     OW 3187   4.113   5.424   6.692
  763SOL    HW1 3188   4.094   5.450   6.598
  763SOL    HW2 3189   4.034   5.375   6.730
  764SOL     OW 3190   4.996   1.299   5.073
  764SOL    HW1 3191   5.034   1.232   5.137
  764SOL    HW2 3192   4.909   1.265   5.037
  765SOL     OW 3193   1.665   6.197   1.437
  765SOL    HW1 3194   1.749   6.179   1.489
  765SOL    HW2 3195   1.612   6.268   1.483
  766SOL     OW 3196   2.428   2.980   6.183
  766SOL    HW1 3197   2.521   2.960   6.213
  766SOL    HW2 3198   2.424   3.074   6.148
  767SOL     OW 3199   5.858   5.324   1.669
  767SOL    HW1 3200   5.864   5.416   1.629
  767SOL    HW2 3201   5.771   5.314   1.716
  768SOL     OW 3202   2.302   6.818   2.553
  768SOL    HW1 3203   2.204   6.802   2.558
  768SOL    HW2 3204   2.326   6.849   2.461
  769SOL     OW 3205   3.005   1.177   5.082
  769SOL    HW1 3206   3.058   1.253   5.045
  769SOL    HW2 3207   3.054   1.137   5.160
  770SOL     OW 3208   1.662   4.564   2.696
  770SOL    HW1 3209   1.709   4.634   2.641
  770SOL    HW2 3210   1.646   4.483   2.640
  771SOL     OW 3211   1.697   5.091   2.559
  771SOL    HW1 3212   1.644   5.150   2.499
  771SOL    HW2 3213   1.784   5.135   2.581
  772SOL     OW 3214   5.785   5.714   0.357
  772SOL    HW1 3215   5.782   5.813   0.370
  772SOL    HW2 3216   5.872   5.688   0.315
  773SOL     OW 3217   0.186   3.817   4.671
  773SOL    HW1 3218   0.107   3.771   4.713
  773SOL    HW2 3219   0.241   3.750   4.622
  774SOL     OW 3220   1.451   1.682   0.997
  774SOL    HW1 3221   1.382   1.725   1.056
  774SOL    HW2 3222   1.422   1.589   0.975
  775SOL     OW 3223   0.461   2.360   3.581
  775SOL    HW1 3224   0.525   2.420   3.629
  775SOL    HW2 3225   0.476   2.366   3.482
  776SOL     OW 3226   1.466   6.475   6.344
  776SOL    HW1 3227   1.462   6.566   6.301
  776SOL    HW2 3228   1.518   6.481   6.429
  777SOL     OW 3229   2.497   4.839   1.906
  777SOL    HW1 3230   2.534   4.779   1.978
  777SOL    HW2 3231   2.526   4.804   1.817
  778SOL     OW 3232   2.266   1.516   2.082
  778SOL    HW1 3233   2.254   1.567   2.167
  778SOL    HW2 3234   2.361   1.522   2.052
  779SOL     OW 3235   6.266   2.744   2.193
  779SOL    HW1 3236   6.217   2.799   2.126
  779SOL    HW2 3237   6.222   2.654   2.200
  780SOL     OW 3238   0.010   3.863   4.143
  780SOL    HW1 3239   0.071   3.927   4.191
  780SOL    HW2 3240   0.064   3.789   4.103
  781SOL     OW 3241   5.797   7.014   0.176
  781SOL    HW1 3242   5.768   0.052   0.103
  781SOL    HW2 3243   5.836   6.931   0.137
  782SOL     OW 3244   1.642   4.183   6.528
  782SOL    HW1 3245   1.667   4.226   6.615
  782SOL    HW2 3246   1.662   4.245   6.453
  783SOL     OW 3247   4.904   4.651   1.315
  783SOL    HW1 3248   4.946   4.685   1.399
  783SOL    HW2 3249   4.911   4.551   1.312
  784SOL     OW 3250   4.805   5.082   0.729
  784SOL    HW1 3251   4.736   5.051   0.663
  784SOL    HW2 3252   4.769   5.161   0.780
  785SOL     OW 3253   0.197   2.820   3.591
  785SOL    HW1 3254   0.197   2.802   3.689
  785SOL    HW2 3255   0.255   2.753   3.545
  786SOL     OW 3256   1.616   1.095   2.342
  786SOL    HW1 3257   1.684   1.165   2.365
  786SOL    HW2 3258   1.529   1.139   2.320
  787SOL     OW 3259   2.476   0.744   6.935
  787SOL    HW1 3260   2.456   0.660   6.886
  787SOL    HW2 3261   2.402   0.810   6.921
  788SOL     OW 3262   3.397   2.893   5.984
  788SOL    HW1 3263   3.307   2.933   5.966
  788SOL    HW2 3264   3.414   2.818   5.921
  789SOL     OW 3265   5.358   3.853   0.596
  789SOL    HW1 3266   5.355   3.952   0.610
  789SOL    HW2 3267   5.451   3.819   0.613
  790SOL     OW 3268   2.357   1.023   3.696
  790SOL    HW1 3269   2.452   1.005   3.720
  790SOL    HW2 3270   2.324   1.102   3.747
  791SOL     OW 3271   2.485   5.904   3.767
  791SOL    HW1 3272   2.494   5.922   3.865
  791SOL    HW2 3273   2.527   5.815   3.746
  792SOL     OW 3274   1.070   0.038   0.771
  792SOL    HW1 3275   1.055   0.044   0.672
  792SOL    HW2 3276   0.982   0.037   0.818
  793SOL     OW 3277   4.839   4.578   3.553
  793SOL    HW1 3278   4.902   4.501   3.560
  793SOL    HW2 3279   4.806   4.603   3.644
  794SOL     OW 3280   3.841   3.424   5.896
  794SOL    HW1 3281   3.787   3.392   5.974
  794SOL    HW2 3282   3.933   3.385   5.902
  795SOL     OW 3283   2.792   6.609   4.351
  795SOL    HW1 3284   2.722   6.560   4.298
  795SOL    HW2 3285   2.882   6.587   4.314
  796SOL     OW 3286   6.807   2.038   6.052
  796SOL    HW1 3287   6.836   1.969   5.986
  796SOL    HW2 3288   6.786   1.994   6.140
  797SOL     OW 3289   5.544   2.818   0.611
  797SOL    HW1 3290   5.555   2.720   0.595
  797SOL    HW2 3291   5.607   2.869   0.553
  798SOL     OW 3292   3.866   7.022   2.654
  798SOL    HW1 3293   3.965   7.010   2.651
  798SOL    HW2 3294   3.836   7.022   2.749
  799SOL     OW 3295   0.406   6.638   5.646
  799SOL    HW1 3296   0.447   6.670   5.732
  799SOL    HW2 3297   0.394   6.716   5.584
  800SOL     OW 3298   5.107   2.333   2.634
  800SOL    HW1 3299   5.152   2.401   2.577
  800SOL    HW2 3300   5.131   2.242   2.602
  801SOL     OW 3301   1.626   3.796   4.241
  801SOL    HW1 3302   1.534   3.822   4.271
  801SOL    HW2 3303   1.690   3.810   4.317
  802SOL     OW 3304   3.763   2.457   0.994
  802SOL    HW1 3305   3.795   2.428   0.904
  802SOL    HW2 3306   3.677   2.507   0.984
  803SOL     OW 3307   0.355   6.253   5.588
  803SOL    HW1 3308   0.439   6.293   5.551
  803SOL    HW2 3309   0.281   6.321   5.585
  804SOL     OW 3310   5.620   5.926   6.401
  804SOL    HW1 3311   5.545   5.962   6.456
  804SOL    HW2 3312   5.644   5.835   6.434
  805SOL     OW 3313   3.152   0.053   4.772
  805SOL    HW1 3314   3.102   0.038   4.686
  805SOL    HW2 3315   3.213   6.999   4.789
  806SOL     OW 3316   4.940   1.264   4.522
  806SOL    HW1 3317   4.936   1.219   4.612
  806SOL    HW2 3318   5.023   1.320   4.516
  807SOL     OW 3319   1.715   1.267   4.827
  807SOL    HW1 3320   1.756   1.295   4.740
  807SOL    HW2 3321   1.781   1.214   4.879
  808SOL     OW 3322   4.504   3.521   6.324
  808SOL    HW1 3323   4.512   3.620   6.327
  808SOL    HW2 3324   4.412   3.494   6.351
  809SOL     OW 3325   7.003   5.074   0.974
  809SOL    HW1 3326   7.017   5.056   0.877
  809SOL    HW2 3327   6.940   5.006   1.012
  810SOL     OW 3328   3.814   3.601   1.091
  810SOL    HW1 3329   3.762   3.686   1.099
  810SOL    HW2 3330   3.751   3.524   1.088
  811SOL     OW 3331   4.634   5.073   4.886
  811SOL    HW1 3332   4.554   5.092   4.942
  811SOL    HW2 3333   4.653   4.974   4.887
  812SOL     OW 3334   0.689   0.982   2.117
  812SOL    HW1 3335   0.684   0.929   2.033
  812SOL    HW2 3336   0.734   1.070   2.099
  813SOL     OW 3337   3.478   6.751   4.613
  813SOL    HW1 3338   3.490   6.652   4.611
  813SOL    HW2 3339   3.384   6.772   4.640
  814SOL     OW 3340   6.414   6.049   2.072
  814SOL    HW1 3341   6.444   6.067   2.166
  814SOL    HW2 3342   6.323   6.088   2.059
  815SOL     OW 3343   0.563   3.818   3.464
  815SOL    HW1 3344   0.482   3.772   3.502
  815SOL    HW2 3345   0.535   3.904   3.421
  816SOL     OW 3346   6.299   6.602   0.343
  816SOL    HW1 3347   6.256   6.619   0.254
  816SOL    HW2 3348   6.231   6.616   0.415
  817SOL     OW 3349   2.135   4.340   0.962
  817SOL    HW1 3350   2.118   4.254   0.916
  817SOL    HW2 3351   2.172   4.406   0.897
  818SOL     OW 3352   6.770   2.773   2.376
  818SOL    HW1 3353   6.740   2.841   2.443
  818SOL    HW2 3354   6.694   2.751   2.315
  819SOL     OW 3355   5.444   2.266   2.815
  819SOL    HW1 3356   5.501   2.344   2.789
  819SOL    HW2 3357   5.449   2.196   2.743
  820SOL     OW 3358   2.959   2.527   5.314
  820SOL    HW1 3359   3.037   2.495   5.260
  820SOL    HW2 3360   2.875   2.489   5.276
  821SOL     OW 3361   1.329   4.408   1.468
  821SOL    HW1 3362   1.381   4.355   1.401
  821SOL    HW2 3363   1.235   4.373   1.471
  822SOL     OW 3364   1.126   4.634   4.000
  822SOL    HW1 3365   1.141   4.545   3.959
  822SOL    HW2 3366   1.175   4.704   3.949
  823SOL     OW 3367   5.013   3.916   6.361
  823SOL    HW1 3368   5.096   3.963   6.331
  823SOL    HW2 3369   4.935   3.953   6.311
  824SOL     OW 3370   5.512   0.982   6.264
  824SOL    HW1 3371   5.597   1.008   6.218
  824SOL    HW2 3372   5.506   1.028   6.352
  825SOL     OW 3373   0.451   4.631   1.198
  825SOL    HW1 3374   0.536   4.603   1.154
  825SOL    HW2 3375   0.382   4.651   1.129
  826SOL     OW 3376   5.023   3.083   5.552
  826SOL    HW1 3377   5.075   3.164   5.528
  826SOL    HW2 3378   5.067   3.035   5.628
  827SOL     OW 3379   2.832   4.722   5.386
  827SOL    HW1 3380   2.792   4.807   5.351
  827SOL    HW2 3381   2.831   4.652   5.315
  828SOL     OW 3382   5.484   6.706   6.839
  828SOL    HW1 3383   5.582   6.711   6.857
  828SOL    HW2 3384   5.468   6.655   6.755
  829SOL     OW 3385   3.714   4.061   3.112
  829SOL    HW1 3386   3.705   4.130   3.184
  829SOL    HW2 3387   3.629   4.057   3.059
  830SOL     OW 3388   5.080   5.105   6.590
  830SOL    HW1 3389   5.126   5.080   6.675
  830SOL    HW2 3390   4.988   5.068   6.589
  831SOL     OW 3391   5.999   0.426   0.298
  831SOL    HW1 3392   5.910   0.471   0.292
  831SOL    HW2 3393   6.065   0.476   0.242
  832SOL     OW 3394   3.346   0.533   1.768
  832SOL    HW1 3395   3.349   0.457   1.703
  832SOL    HW2 3396   3.431   0.584   1.764
  833SOL     OW 3397   1.017   3.777   5.808
  833SOL    HW1 3398   1.025   3.696   5.750
  833SOL    HW2 3399   1.100   3.831   5.800
  834SOL     OW 3400   4.033   3.673   0.677
  834SOL    HW1 3401   4.103   3.612   0.715
  834SOL    HW2 3402   3.978   3.623   0.610
  835SOL     OW 3403   3.577   0.219   5.485
  835SOL    HW1 3404   3.646   0.261   5.545
  835SOL    HW2 3405   3.613   0.215   5.391
  836SOL     OW 3406   4.033   6.220   6.179
  836SOL    HW1 3407   4.133   6.223   6.180
  836SOL    HW2 3408   4.002   6.166   6.101
  837SOL     OW 3409   5.507   0.568   0.748
  837SOL    HW1 3410   5.503   0.597   0.844
  837SOL    HW2 3411   5.602   0.573   0.716
  838SOL     OW 3412   2.240   0.582   4.717
  838SOL    HW1 3413   2.243   0.501   4.658
  838SOL    HW2 3414   2.311   0.646   4.689
  839SOL     OW 3415   1.334   2.726   2.159
  839SOL    HW1 3416   1.400   2.716   2.233
  839SOL    HW2 3417   1.358   2.664   2.084
  840SOL     OW 3418   6.546   5.800   0.314
  840SOL    HW1 3419   6.530   5.839   0.223
  840SOL    HW2 3420   6.622   5.735   0.309
  841SOL     OW 3421   4.211   4.884   6.811
  841SOL    HW1 3422   4.165   4.902   6.724
  841SOL    HW2 3423   4.270   4.804   6.802
  842SOL     OW 3424   4.343   0.178   5.173
  842SOL    HW1 3425   4.390   0.165   5.260
  842SOL    HW2 3426   4.278   0.253   5.181
  843SOL     OW 3427   0.566   1.129   0.986
  843SOL    HW1 3428   0.599   1.057   1.047
  843SOL    HW2 3429   0.580   1.218   1.029
  844SOL     OW 3430   5.765   0.574   0.319
  844SOL    HW1 3431   5.697   0.647   0.328
  844SOL    HW2 3432   5.822   0.570   0.400
  845SOL     OW 3433   5.151   4.712   5.078
  845SOL    HW1 3434   5.211   4.765   5.139
  845SOL    HW2 3435   5.202   4.635   5.040
  846SOL     OW 3436   1.948   2.065   6.449
  846SOL    HW1 3437   1.884   2.014   6.391
  846SOL    HW2 3438   1.926   2.162   6.447
  847SOL     OW 3439   1.475   3.010   1.215
  847SOL    HW1 3440   1.383   2.973   1.226
  847SOL    HW2 3441   1.542   2.944   1.248
  848SOL     OW 3442   6.237   0.372   5.898
  848SOL    HW1 3443   6.308   0.413   5.841
  848SOL    HW2 3444   6.242   0.272   5.893
  849SOL     OW 3445   0.233   4.164   6.368
  849SOL    HW1 3446   0.286   4.204   6.293
  849SOL    HW2 3447   0.282   4.085   6.405
  850SOL     OW 3448   5.079   0.248   3.120
  850SOL    HW1 3449   5.118   0.190   3.049
  850SOL    HW2 3450   5.002   0.300   3.081
  851SOL     OW 3451   6.979   1.561   2.396
  851SOL    HW1 3452   7.021   1.579   2.485
  851SOL    HW2 3453   7.013   1.627   2.330
  852SOL     OW 3454   1.492   2.995   6.932
  852SOL    HW1 3455   1.557   2.920   6.942
  852SOL    HW2 3456   1.524   3.074   6.983
  853SOL     OW 3457   1.735   4.417   1.716
  853SOL    HW1 3458   1.800   4.354   1.675
  853SOL    HW2 3459   1.781   4.504   1.736
  854SOL     OW 3460   4.907   6.031   1.313
  854SOL    HW1 3461   4.998   6.005   1.343
  854SOL    HW2 3462   4.883   6.121   1.351
  855SOL     OW 3463   6.927   6.382   1.370
  855SOL    HW1 3464   6.845   6.361   1.423
  855SOL    HW2 3465   6.950   6.479   1.380
  856SOL     OW 3466   0.964   2.168   5.220
  856SOL    HW1 3467   0.937   2.189   5.126
  856SOL    HW2 3468   1.064   2.172   5.227
  857SOL     OW 3469   5.968   4.137   1.604
  857SOL    HW1 3470   6.048   4.164   1.551
  857SOL    HW2 3471   5.988   4.146   1.702
  858SOL     OW 3472   2.596   3.585   0.883
  858SOL    HW1 3473   2.556   3.656   0.942
  858SOL    HW2 3474   2.569   3.601   0.788
  859SOL     OW 3475   5.955   6.173   4.979
  859SOL    HW1 3476   6.003   6.088   4.999
  859SOL    HW2 3477   5.866   6.172   5.026
  860SOL     OW 3478   5.282   3.444   0.744
  860SOL    HW1 3479   5.356   3.467   0.681
  860SOL    HW2 3480   5.207   3.508   0.733
  861SOL     OW 3481   2.455   5.672   3.360
  861SOL    HW1 3482   2.535   5.732   3.360
  861SOL    HW2 3483   2.446   5.630   3.450
  862SOL     OW 3484   1.021   4.016   4.974
  862SOL    HW1 3485   0.953   4.089   4.976
  862SOL    HW2 3486   0.978   3.932   4.942
  863SOL     OW 3487   6.293   0.946   0.616
  863SOL    HW1 3488   6.236   1.026   0.638
  863SOL    HW2 3489   6.385   0.977   0.589
  864SOL     OW 3490   4.148   5.358   3.718
  864SOL    HW1 3491   4.214   5.316   3.780
  864SOL    HW2 3492   4.059   5.314   3.729
  865SOL     OW 3493   0.721   6.179   5.980
  865SOL    HW1 3494   0.688   6.206   5.889
  865SOL    HW2 3495   0.797   6.238   6.006
  866SOL     OW 3496   1.464   1.943   1.634
  866SOL    HW1 3497   1.542   1.966   1.692
  866SOL    HW2 3498   1.383   1.990   1.667
  867SOL     OW 3499   4.183   3.687   0.994
  867SOL    HW1 3500   4.145   3.756   0.932
  867SOL    HW2 3501   4.282   3.698   1.000
  868SOL     OW 3502   5.937   1.117   1.148
  868SOL    HW1 3503   5.943   1.204   1.100
  868SOL    HW2 3504   6.001   1.052   1.106
  869SOL     OW 3505   0.235   4.596   3.114
  869SOL    HW1 3506   0.311   4.540   3.080
  869SOL    HW2 3507   0.218   4.574   3.210
  870SOL     OW 3508   4.570   3.235   0.808
  870SOL    HW1 3509   4.523   3.314   0.848
  870SOL    HW2 3510   4.669   3.246   0.819
  871SOL     OW 3511   4.571   2.463   3.469
  871SOL    HW1 3512   4.619   2.550   3.468
  871SOL    HW2 3513   4.596   2.411   3.387
  872SOL     OW 3514   5.370   3.541   3.518
  872SOL    HW1 3515   5.361   3.612   3.589
  872SOL    HW2 3516   5.284   3.534   3.468
  873SOL     OW 3517   5.614   6.940   3.980
  873SOL    HW1 3518   5.535   6.889   4.014
  873SOL    HW2 3519   5.590   6.983   3.892
  874SOL     OW 3520   0.788   4.249   6.117
  874SOL    HW1 3521   0.765   4.211   6.207
  874SOL    HW2 3522   0.760   4.184   6.046
  875SOL     OW 3523   4.044   3.295   0.752
  875SOL    HW1 3524   3.957   3.341   0.733
  875SOL    HW2 3525   4.095   3.346   0.820
  876SOL     OW 3526   0.557   4.544   2.245
  876SOL    HW1 3527   0.558   4.501   2.155
  876SOL    HW2 3528   0.490   4.498   2.304
  877SOL     OW 3529   4.114   4.154   6.176
  877SOL    HW1 3530   4.134   4.237   6.124
  877SOL    HW2 3531   4.200   4.111   6.204
  878SOL     OW 3532   3.816   6.223   5.274
  878SOL    HW1 3533   3.834   6.294   5.342
  878SOL    HW2 3534   3.745   6.162   5.308
  879SOL     OW 3535   3.484   2.567   0.935
  879SOL    HW1 3536   3.462   2.626   1.013
  879SOL    HW2 3537   3.432   2.483   0.941
  880SOL     OW 3538   3.342   4.158   5.131
  880SOL    HW1 3539   3.288   4.127   5.209
  880SOL    HW2 3540   3.429   4.109   5.128
  881SOL     OW 3541   4.822   3.992   4.928
  881SOL    HW1 3542   4.806   3.994   5.026
  881SOL    HW2 3543   4.848   4.083   4.896
  882SOL     OW 3544   0.987   2.242   4.251
  882SOL    HW1 3545   0.996   2.330   4.297
  882SOL    HW2 3546   0.999   2.168   4.317
  883SOL     OW 3547   4.470   5.911   6.694
  883SOL    HW1 3548   4.499   5.953   6.608
  883SOL    HW2 3549   4.389   5.959   6.729
  884SOL     OW 3550   0.042   4.071   0.230
  884SOL    HW1 3551   7.013   4.024   0.301
  884SOL    HW2 3552   0.017   4.035   0.141
  885SOL     OW 3553   4.782   5.882   6.485
  885SOL    HW1 3554   4.851   5.882   6.412
  885SOL    HW2 3555   4.803   5.811   6.551
  886SOL     OW 3556   4.456   1.222   1.272
  886SOL    HW1 3557   4.526   1.232   1.202
  886SOL    HW2 3558   4.500   1.217   1.362
  887SOL     OW 3559   3.293   6.514   4.249
  887SOL    HW1 3560   3.366   6.575   4.281
  887SOL    HW2 3561   3.318   6.420   4.271
  888SOL     OW 3562   6.316   5.614   2.807
  888SOL    HW1 3563   6.278   5.670   2.880
  888SOL    HW2 3564   6.415   5.604   2.821
  889SOL     OW 3565   1.498   6.293   6.104
  889SOL    HW1 3566   1.504   6.348   6.187
  889SOL    HW2 3567   1.436   6.338   6.039
  890SOL     OW 3568   2.131   5.351   2.221
  890SOL    HW1 3569   2.141   5.276   2.155
  890SOL    HW2 3570   2.083   5.316   2.302
  891SOL     OW 3571   6.147   3.992   0.444
  891SOL    HW1 3572   6.193   3.941   0.371
  891SOL    HW2 3573   6.160   3.944   0.531
  892SOL     OW 3574   3.924   3.764   5.863
  892SOL    HW1 3575   3.919   3.666   5.842
  892SOL    HW2 3576   3.832   3.803   5.861
  893SOL     OW 3577   2.089   1.083   2.285
  893SOL    HW1 3578   2.019   1.024   2.326
  893SOL    HW2 3579   2.174   1.031   2.275
  894SOL     OW 3580   1.292   2.442   3.266
  894SOL    HW1 3581   1.198   2.456   3.294
  894SOL    HW2 3582   1.342   2.528   3.271
  895SOL     OW 3583   1.017   5.268   3.987
  895SOL    HW1 3584   1.012   5.172   4.013
  895SOL    HW2 3585   0.928   5.311   4.003
  896SOL     OW 3586   6.284   0.158   1.438
  896SOL    HW1 3587   6.222   0.106   1.497
  896SOL    HW2 3588   6.242   0.247   1.417
  897SOL     OW 3589   4.134   0.826   6.638
  897SOL    HW1 3590   4.155   0.924   6.637
  897SOL    HW2 3591   4.218   0.775   6.652
  898SOL     OW 3592   3.606   6.611   3.219
  898SOL    HW1 3593   3.604   6.542   3.147
  898SOL    HW2 3594   3.513   6.637   3.244
  899SOL     OW 3595   0.619   5.334   0.963
  899SOL    HW1 3596   0.638   5.333   0.865
  899SOL    HW2 3597   0.549   5.403   0.983
  900SOL     OW 3598   4.437   6.431   0.275
  900SOL    HW1 3599   4.386   6.449   0.359
  900SOL    HW2 3600   4.512   6.367   0.294
  901SOL     OW 3601   1.137   1.117   4.994
  901SOL    HW1 3602   1.053   1.067   4.976
  901SOL    HW2 3603   1.213   1.072   4.948
  902SOL     OW 3604   1.144   2.294   1.444
  902SOL    HW1 3605   1.142   2.247   1.356
  902SOL    HW2 3606   1.093   2.240   1.511
  903SOL     OW 3607   6.933   3.668   6.013
  903SOL    HW1 3608   6.899   3.684   5.921
  903SOL    HW2 3609   6.882   3.592   6.055
  904SOL     OW 3610   2.053   2.731   2.781
  904SOL    HW1 3611   2.141   2.683   2.779
  904SOL    HW2 3612   2.069   2.830   2.785
  905SOL     OW 3613   4.775   3.921   6.028
  905SOL    HW1 3614   4.697   3.916   6.090
  905SOL    HW2 3615   4.757   3.989   5.957
  906SOL     OW 3616   0.732   3.098   6.368
  906SOL    HW1 3617   0.807   3.098   6.434
  906SOL    HW2 3618   0.756   3.158   6.292
  907SOL     OW 3619   5.251   2.486   2.441
  907SOL    HW1 3620   5.266   2.500   2.343
  907SOL    HW2 3621   5.336   2.504   2.491
  908SOL     OW 3622   1.975   5.335   3.324
  908SOL    HW1 3623   1.932   5.415   3.282
  908SOL    HW2 3624   1.926   5.252   3.297
  909SOL     OW 3625   2.955   6.054   2.711
  909SOL    HW1 3626   2.949   5.957   2.688
  909SOL    HW2 3627   2.893   6.107   2.653
  910SOL     OW 3628   2.728   1.142   0.683
  910SOL    HW1 3629   2.825   1.125   0.665
  910SOL    HW2 3630   2.672   1.079   0.629
  911SOL     OW 3631   7.010   5.790   0.800
  911SOL    HW1 3632   6.928   5.740   0.772
  911SOL    HW2 3633   6.984   5.882   0.830
  912SOL     OW 3634   5.438   0.369   3.837
  912SOL    HW1 3635   5.414   0.326   3.751
  912SOL    HW2 3636   5.524   0.330   3.872
  913SOL     OW 3637   1.455   1.095   3.447
  913SOL    HW1 3638   1.395   1.037   3.501
  913SOL    HW2 3639   1.410   1.182   3.429
  914SOL     OW 3640   2.380   5.612   5.109
  914SOL    HW1 3641   2.417   5.633   5.018
  914SOL    HW2 3642   2.337   5.694   5.147
  915SOL     OW 3643   0.999   3.392   0.158
  915SOL    HW1 3644   1.016   3.360   0.251
  915SOL    HW2 3645   0.998   3.492   0.157
  916SOL     OW 3646   1.477   2.719   2.385
  916SOL    HW1 3647   1.453   2.676   2.471
  916SOL    HW2 3648   1.575   2.713   2.370
  917SOL     OW 3649   5.726   0.608   2.184
  917SOL    HW1 3650   5.803   0.655   2.228
  917SOL    HW2 3651   5.642   0.627   2.233
  918SOL     OW 3652   2.969   6.669   0.551
  918SOL    HW1 3653   3.004   6.751   0.597
  918SOL    HW2 3654   2.869   6.669   0.556
  919SOL     OW 3655   6.806   5.816   2.994
  919SOL    HW1 3656   6.759   5.825   3.082
  919SOL    HW2 3657   6.902   5.791   3.011
  920SOL     OW 3658   2.256   5.347   3.348
  920SOL    HW1 3659   2.157   5.345   3.342
  920SOL    HW2 3660   2.287   5.436   3.380
  921SOL     OW 3661   4.971   4.351   3.044
  921SOL    HW1 3662   5.042   4.383   2.981
  921SOL    HW2 3663   4.959   4.417   3.118
  922SOL     OW 3664   3.350   2.966   5.423
  922SOL    HW1 3665   3.442   2.998   5.400
  922SOL    HW2 3666   3.355   2.875   5.465
  923SOL     OW 3667   2.815   5.126   5.897
  923SOL    HW1 3668   2.820   5.167   5.806
  923SOL    HW2 3669   2.737   5.164   5.946
  924SOL     OW 3670   5.739   2.264   2.920
  924SOL    HW1 3671   5.736   2.166   2.937
  924SOL    HW2 3672   5.680   2.312   2.985
  925SOL     OW 3673   0.415   2.105   6.906
  925SOL    HW1 3674   0.438   2.200   6.886
  925SOL    HW2 3675   0.435   2.086   7.003
  926SOL     OW 3676   5.598   1.221   0.447
  926SOL    HW1 3677   5.685   1.177   0.468
  926SOL    HW2 3678   5.556   1.254   0.531
  927SOL     OW 3679   6.350   3.847   3.523
  927SOL    HW1 3680   6.321   3.932   3.479
  927SOL    HW2 3681   6.298   3.770   3.484
  928SOL     OW 3682   1.084   5.597   0.729
  928SOL    HW1 3683   1.038   5.549   0.654
  928SOL    HW2 3684   1.083   5.695   0.710
  929SOL     OW 3685   0.031   0.988   1.434
  929SOL    HW1 3686   0.068   0.899   1.459
  929SOL    HW2 3687   0.084   1.026   1.358
  930SOL     OW 3688   5.170   6.110   4.394
  930SOL    HW1 3689   5.212   6.037   4.341
  930SOL    HW2 3690   5.226   6.193   4.389
  931SOL     OW 3691   5.687   1.986   2.658
  931SOL    HW1 3692   5.710   2.073   2.614
  931SOL    HW2 3693   5.771   1.935   2.675
  932SOL     OW 3694   3.344   6.599   2.702
  932SOL    HW1 3695   3.407   6.533   2.741
  932SOL    HW2 3696   3.350   6.597   2.602
  933SOL     OW 3697   0.978   5.650   3.144
  933SOL    HW1 3698   0.952   5.578   3.079
  933SOL    HW2 3699   0.983   5.737   3.097
  934SOL     OW 3700   2.131   0.559   4.971
  934SOL    HW1 3701   2.160   0.552   4.876
  934SOL    HW2 3702   2.048   0.615   4.977
  935SOL     OW 3703   4.965   4.363   5.016
  935SOL    HW1 3704   5.017   4.297   5.070
  935SOL    HW2 3705   4.924   4.431   5.077
  936SOL     OW 3706   1.353   0.694   6.100
  936SOL    HW1 3707   1.414   0.698   6.020
  936SOL    HW2 3708   1.258   0.706   6.070
  937SOL     OW 3709   4.937   1.182   4.795
  937SOL    HW1 3710   5.018   1.182   4.854
  937SOL    HW2 3711   4.855   1.180   4.851
  938SOL     OW 3712   6.547   5.661   5.772
  938SOL    HW1 3713   6.620   5.594   5.785
  938SOL    HW2 3714   6.515   5.657   5.677
  939SOL     OW 3715   5.857   0.228   5.750
  939SOL    HW1 3716   5.880   0.321   5.778
  939SOL    HW2 3717   5.827   0.176   5.830
  940SOL     OW 3718   0.651   2.906   1.720
  940SOL    HW1 3719   0.666   2.896   1.818
  940SOL    HW2 3720   0.565   2.954   1.705
  941SOL     OW 3721   5.875   1.254   5.507
  941SOL    HW1 3722   5.818   1.232   5.428
  941SOL    HW2 3723   5.817   1.275   5.585
  942SOL     OW 3724   4.861   6.851   3.759
  942SOL    HW1 3725   4.851   6.775   3.695
  942SOL    HW2 3726   4.771   6.894   3.774
  943SOL     OW 3727   1.988   3.366   3.808
  943SOL    HW1 3728   1.957   3.273   3.828
  943SOL    HW2 3729   1.942   3.430   3.870
  944SOL     OW 3730   6.958   3.853   5.765
  944SOL    HW1 3731   6.895   3.917   5.809
  944SOL    HW2 3732   0.019   3.846   5.819
  945SOL     OW 3733   6.380   4.385   4.777
  945SOL    HW1 3734   6.389   4.475   4.734
  945SOL    HW2 3735   6.375   4.315   4.706
  946SOL     OW 3736   5.043   2.255   6.107
  946SOL    HW1 3737   5.049   2.182   6.175
  946SOL    HW2 3738   5.135   2.290   6.087
  947SOL     OW 3739   4.104   3.231   4.388
  947SOL    HW1 3740   4.067   3.203   4.476
  947SOL    HW2 3741   4.126   3.328   4.390
  948SOL     OW 3742   4.339   0.207   1.414
  948SOL    HW1 3743   4.378   0.170   1.499
  948SOL    HW2 3744   4.409   0.258   1.365
  949SOL     OW 3745   1.134   6.167   6.048
  949SOL    HW1 3746   1.035   6.180   6.058
  949SOL    HW2 3747   1.172   6.132   6.134
  950SOL     OW 3748   4.430   5.109   1.497
  950SOL    HW1 3749   4.334   5.089   1.478
  950SOL    HW2 3750   4.473   5.029   1.540
  951SOL     OW 3751   2.165   0.926   4.088
  951SOL    HW1 3752   2.122   0.973   4.010
  951SOL    HW2 3753   2.113   0.946   4.171
  952SOL     OW 3754   4.650   2.139   2.942
  952SOL    HW1 3755   4.728   2.201   2.931
  952SOL    HW2 3756   4.684   2.045   2.949
  953SOL     OW 3757   5.263   5.513   3.865
  953SOL    HW1 3758   5.189   5.458   3.903
  953SOL    HW2 3759   5.317   5.552   3.940
  954SOL     OW 3760   4.682   6.092   0.461
  954SOL    HW1 3761   4.776   6.079   0.491
  954SOL    HW2 3762   4.632   6.006   0.469
  955SOL     OW 3763   0.035   4.205   2.906
  955SOL    HW1 3764   7.013   4.130   2.953
  955SOL    HW2 3765   6.991   4.276   2.885
  956SOL     OW 3766   0.205   2.209   2.640
  956SOL    HW1 3767   0.201   2.268   2.558
  956SOL    HW2 3768   0.229   2.265   2.719
  957SOL     OW 3769   6.882   4.492   4.976
  957SOL    HW1 3770   6.916   4.585   4.961
  957SOL    HW2 3771   6.832   4.461   4.895
  958SOL     OW 3772   4.296   1.583   2.266
  958SOL    HW1 3773   4.291   1.679   2.237
  958SOL    HW2 3774   4.215   1.561   2.321
  959SOL     OW 3775   3.625   5.579   2.818
  959SOL    HW1 3776   3.537   5.601   2.777
  959SOL    HW2 3777   3.626   5.483   2.845
  960SOL     OW 3778   1.337   5.809   2.683
  960SOL    HW1 3779   1.259   5.817   2.621
  960SOL    HW2 3780   1.345   5.893   2.736
  961SOL     OW 3781   4.681   0.076   3.576
  961SOL    HW1 3782   4.608   0.138   3.546
  961SOL    HW2 3783   4.641   7.018   3.619
  962SOL     OW 3784   0.662   0.601   5.140
  962SOL    HW1 3785   0.624   0.678   5.192
  962SOL    HW2 3786   0.745   0.569   5.185
  963SOL     OW 3787   6.827   1.839   5.834
  963SOL    HW1 3788   6.913   1.806   5.794
  963SOL    HW2 3789   6.765   1.867   5.760
  964SOL     OW 3790   5.718   4.564   7.007
  964SOL    HW1 3791   5.815   4.579   0.004
  964SOL    HW2 3792   5.672   4.528   0.065
  965SOL     OW 3793   5.521   1.900   0.668
  965SOL    HW1 3794   5.563   1.826   0.721
  965SOL    HW2 3795   5.437   1.930   0.713
  966SOL     OW 3796   5.060   2.552   1.500
  966SOL    HW1 3797   4.990   2.481   1.498
  966SOL    HW2 3798   5.064   2.597   1.412
  967SOL     OW 3799   2.092   4.157   1.748
  967SOL    HW1 3800   2.105   4.255   1.762
  967SOL    HW2 3801   2.026   4.122   1.814
  968SOL     OW 3802   3.320   1.007   1.664
  968SOL    HW1 3803   3.371   1.055   1.736
  968SOL    HW2 3804   3.241   1.062   1.638
  969SOL     OW 3805   3.361   6.078   5.833
  969SOL    HW1 3806   3.361   6.019   5.913
  969SOL    HW2 3807   3.446   6.131   5.830
  970SOL     OW 3808   5.353   0.755   6.207
  970SOL    HW1 3809   5.289   0.796   6.142
  970SOL    HW2 3810   5.414   0.825   6.243
  971SOL     OW 3811   6.911   2.227   2.963
  971SOL    HW1 3812   6.823   2.191   2.994
  971SOL    HW2 3813   6.934   2.186   2.874
  972SOL     OW 3814   5.395   3.370   1.751
  972SOL    HW1 3815   5.403   3.372   1.651
  972SOL    HW2 3816   5.474   3.416   1.791
  973SOL     OW 3817   6.849   4.429   6.704
  973SOL    HW1 3818   6.924   4.389   6.651
  973SOL    HW2 3819   6.860   4.404   6.800
  974SOL     OW 3820   5.129   6.399   2.736
  974SOL    HW1 3821   5.199   6.346   2.785
  974SOL    HW2 3822   5.059   6.338   2.700
  975SOL     OW 3823   1.325   6.252   6.745
  975SOL    HW1 3824   1.418   6.263   6.711
  975SOL    HW2 3825   1.276   6.339   6.737
  976SOL     OW 3826   0.441   3.393   2.902
  976SOL    HW1 3827   0.351   3.431   2.879
  976SOL    HW2 3828   0.510   3.465   2.897
  977SOL     OW 3829   1.077   0.601   2.262
  977SOL    HW1 3830   1.174   0.623   2.263
  977SOL    HW2 3831   1.040   0.611   2.354
  978SOL     OW 3832   4.652   3.972   5.666
  978SOL    HW1 3833   4.699   3.890   5.636
  978SOL    HW2 3834   4.587   3.949   5.739
  979SOL     OW 3835   6.355   2.247   0.551
  979SOL    HW1 3836   6.347   2.341   0.519
  979SOL    HW2 3837   6.332   2.243   0.648
  980SOL     OW 3838   4.308   2.241   4.418
  980SOL    HW1 3839   4.360   2.292   4.349
  980SOL    HW2 3840   4.322   2.143   4.404
  981SOL     OW 3841   0.677   2.033   4.807
  981SOL    HW1 3842   0.613   2.042   4.731
  981SOL    HW2 3843   0.747   1.964   4.784
  982SOL     OW 3844   2.457   2.120   3.951
  982SOL    HW1 3845   2.396   2.199   3.948
  982SOL    HW2 3846   2.479   2.091   3.858
  983SOL     OW 3847   5.544   2.190   4.906
  983SOL    HW1 3848   5.500   2.111   4.863
  983SOL    HW2 3849   5.475   2.252   4.943
  984SOL     OW 3850   2.545   1.599   4.277
  984SOL    HW1 3851   2.616   1.616   4.210
  984SOL    HW2 3852   2.566   1.648   4.362
  985SOL     OW 3853   5.724   4.662   5.020
  985SOL    HW1 3854   5.800   4.603   4.993
  985SOL    HW2 3855   5.756   4.728   5.089
  986SOL     OW 3856   5.890   4.423   0.955
  986SOL    HW1 3857   5.940   4.500   0.916
  986SOL    HW2 3858   5.944   4.339   0.943
  987SOL     OW 3859   4.391   6.870   1.922
  987SOL    HW1 3860   4.451   6.794   1.945
  987SOL    HW2 3861   4.424   6.915   1.839
  988SOL     OW 3862   3.076   3.623   2.888
  988SOL    HW1 3863   3.115   3.532   2.899
  988SOL    HW2 3864   3.058   3.640   2.791
  989SOL     OW 3865   6.358   0.451   5.498
  989SOL    HW1 3866   6.372   0.363   5.453
  989SOL    HW2 3867   6.419   0.458   5.577
  990SOL     OW 3868   3.837   0.132   2.122
  990SOL    HW1 3869   3.768   0.175   2.063
  990SOL    HW2 3870   3.880   0.202   2.178
  991SOL     OW 3871   0.875   2.584   5.229
  991SOL    HW1 3872   0.915   2.509   5.281
  991SOL    HW2 3873   0.862   2.663   5.288
  992SOL     OW 3874   6.548   2.696   2.239
  992SOL    HW1 3875   6.448   2.707   2.238
  992SOL    HW2 3876   6.579   2.666   2.148
  993SOL     OW 3877   1.411   4.109   1.719
  993SOL    HW1 3878   1.470   4.122   1.799
  993SOL    HW2 3879   1.333   4.171   1.725
  994SOL     OW 3880   3.574   4.276   1.813
  994SOL    HW1 3881   3.668   4.243   1.823
  994SOL    HW2 3882   3.511   4.208   1.851
  995SOL     OW 3883   3.585   2.992   5.311
  995SOL    HW1 3884   3.667   3.014   5.364
  995SOL    HW2 3885   3.608   2.924   5.241
  996SOL     OW 3886   3.073   4.867   4.177
  996SOL    HW1 3887   3.065   4.936   4.249
  996SOL    HW2 3888   2.987   4.817   4.170
  997SOL     OW 3889   1.275   1.176   3.071
  997SOL    HW1 3890   1.183   1.146   3.098
  997SOL    HW2 3891   1.343   1.116   3.114
  998SOL     OW 3892   4.594   0.459   4.302
  998SOL    HW1 3893   4.573   0.365   4.330
  998SOL    HW2 3894   4.565   0.522   4.374
  999SOL     OW 3895   4.936   4.792   2.488
  999SOL    HW1 3896   4.841   4.807   2.519
  999SOL    HW2 3897   4.973   4.877   2.453
 1000SOL     OW 3898   2.409   1.190   2.070
 1000SOL    HW1 3899   2.385   1.276   2.113
 1000SOL    HW2 3900   2.504   1.193   2.039
 1001SOL     OW 3901   5.002   6.286   0.311
 1001SOL    HW1 3902   5.098   6.274   0.286
 1001SOL    HW2 3903   4.985   6.382   0.334
 1002SOL     OW 3904   5.964   1.790   0.732
 1002SOL    HW1 3905   5.921   1.700   0.724
 1002SOL    HW2 3906   5.919   1.843   0.804
 1003SOL     OW 3907   2.313   6.231   1.836
 1003SOL    HW1 3908   2.361   6.146   1.815
 1003SOL    HW2 3909   2.324   6.252   1.933
 1004SOL     OW 3910   0.284   6.793   2.188
 1004SOL    HW1 3911   0.216   6.729   2.152
 1004SOL    HW2 3912   0.320   6.848   2.112
 1005SOL     OW 3913   2.225   2.986   3.925
 1005SOL    HW1 3914   2.294   2.935   3.874
 1005SOL    HW2 3915   2.224   2.954   4.020
 1006SOL     OW 3916   1.259   4.686   0.753
 1006SOL    HW1 3917   1.261   4.784   0.774
 1006SOL    HW2 3918   1.351   4.656   0.728
 1007SOL     OW 3919   4.770   0.109   5.545
 1007SOL    HW1 3920   4.836   0.048   5.589
 1007SOL    HW2 3921   4.736   0.066   5.462
 1008SOL     OW 3922   1.709   2.800   4.990
 1008SOL    HW1 3923   1.753   2.752   4.914
 1008SOL    HW2 3924   1.621   2.836   4.960
 1009SOL     OW 3925   0.486   5.655   4.857
 1009SOL    HW1 3926   0.467   5.676   4.953
 1009SOL    HW2 3927   0.399   5.655   4.806
 1010SOL     OW 3928   3.420   2.730   5.745
 1010SOL    HW1 3929   3.423   2.633   5.770
 1010SOL    HW2 3930   3.355   2.743   5.671
 1011SOL     OW 3931   2.301   5.189   2.050
 1011SOL    HW1 3932   2.323   5.285   2.068
 1011SOL    HW2 3933   2.363   5.153   1.980
 1012SOL     OW 3934   6.783   0.632   1.666
 1012SOL    HW1 3935   6.684   0.621   1.654
 1012SOL    HW2 3936   6.810   0.723   1.634
 1013SOL     OW 3937   1.169   0.924   5.487
 1013SOL    HW1 3938   1.199   0.836   5.451
 1013SOL    HW2 3939   1.243   0.966   5.539
 1014SOL     OW 3940   5.781   6.023   6.206
 1014SOL    HW1 3941   5.860   6.052   6.259
 1014SOL    HW2 3942   5.713   5.981   6.266
 1015SOL     OW 3943   2.895   6.593   5.794
 1015SOL    HW1 3944   2.799   6.570   5.809
 1015SOL    HW2 3945   2.913   6.685   5.829
 1016SOL     OW 3946   3.971   3.658   6.639
 1016SOL    HW1 3947   3.981   3.650   6.738
 1016SOL    HW2 3948   4.057   3.694   6.601
 1017SOL     OW 3949   4.033   2.627   1.354
 1017SOL    HW1 3950   4.056   2.565   1.278
 1017SOL    HW2 3951   4.117   2.668   1.390
 1018SOL     OW 3952   0.375   3.818   4.072
 1018SOL    HW1 3953   0.463   3.842   4.031
 1018SOL    HW2 3954   0.322   3.901   4.088
 1019SOL     OW 3955   6.738   6.723   1.151
 1019SOL    HW1 3956   6.652   6.765   1.179
 1019SOL    HW2 3957   6.799   6.794   1.115
 1020SOL     OW 3958   0.564   0.828   1.586
 1020SOL    HW1 3959   0.619   0.770   1.526
 1020SOL    HW2 3960   0.548   0.916   1.542
 1021SOL     OW 3961   5.179   6.838   1.399
 1021SOL    HW1 3962   5.110   6.847   1.471
 1021SOL    HW2 3963   5.269   6.861   1.435
 1022SOL     OW 3964   4.012   5.030   5.843
 1022SOL    HW1 3965   4.079   5.036   5.770
 1022SOL    HW2 3966   3.938   4.968   5.817
 1023SOL     OW 3967   0.841   6.725   2.818
 1023SOL    HW1 3968   0.852   6.671   2.901
 1023SOL    HW2 3969   0.752   6.708   2.778
 1024SOL     OW 3970   0.387   2.237   4.050
 1024SOL    HW1 3971   0.442   2.170   4.100
 1024SOL    HW2 3972   0.380   2.211   3.954
 1025SOL     OW 3973   3.027   2.961   0.842
 1025SOL    HW1 3974   3.125   2.943   0.835
 1025SOL    HW2 3975   3.000   3.027   0.772
 1026SOL     OW 3976   2.007   2.694   0.702
 1026SOL    HW1 3977   2.005   2.634   0.623
 1026SOL    HW2 3978   2.095   2.742   0.706
 1027SOL     OW 3979   3.063   6.445   1.565
 1027SOL    HW1 3980   3.163   6.447   1.561
 1027SOL    HW2 3981   3.025   6.473   1.477
 1028SOL     OW 3982   3.060   6.194   0.290
 1028SOL    HW1 3983   3.027   6.282   0.325
 1028SOL    HW2 3984   2.992   6.155   0.229
 1029SOL     OW 3985   1.957   6.981   6.699
 1029SOL    HW1 3986   2.022   6.967   6.624
 1029SOL    HW2 3987   1.865   6.954   6.668
 1030SOL     OW 3988   3.097   3.052   1.839
 1030SOL    HW1 3989   3.123   3.148   1.849
 1030SOL    HW2 3990   3.013   3.046   1.785
 1031SOL     OW 3991   5.249   4.826   0.712
 1031SOL    HW1 3992   5.278   4.906   0.766
 1031SOL    HW2 3993   5.302   4.823   0.627
 1032SOL     OW 3994   2.431   1.935   4.747
 1032SOL    HW1 3995   2.410   1.910   4.842
 1032SOL    HW2 3996   2.384   2.020   4.724
 1033SOL     OW 3997   1.324   6.615   0.745
 1033SOL    HW1 3998   1.411   6.575   0.717
 1033SOL    HW2 3999   1.282   6.661   0.666
 1034SOL     OW 4000   0.648   5.144   4.892
 1034SOL    HW1 4001   0.575   5.117   4.954
 1034SOL    HW2 4002   0.609   5.196   4.816
 1035SOL     OW 4003   0.544   1.102   5.292
 1035SOL    HW1 4004   0.483   1.177   5.318
 1035SOL    HW2 4005   0.638   1.135   5.287
 1036SOL     OW 4006   3.482   1.214   1.831
 1036SOL    HW1 4007   3.565   1.237   1.881
 1036SOL    HW2 4008   3.410   1.190   1.895
 1037SOL     OW 4009   1.724   0.786   1.957
 1037SOL    HW1 4010   1.744   0.809   1.862
 1037SOL    HW2 4011   1.755   0.860   2.016
 1038SOL     OW 4012   1.146   0.235   4.745
 1038SOL    HW1 4013   1.057   0.276   4.726
 1038SOL    HW2 4014   1.159   0.153   4.689
 1039SOL     OW 4015   3.552   3.676   5.865
 1039SOL    HW1 4016   3.522   3.584   5.842
 1039SOL    HW2 4017   3.533   3.738   5.789
 1040SOL     OW 4018   4.783   2.685   2.755
 1040SOL    HW1 4019   4.798   2.587   2.763
 1040SOL    HW2 4020   4.790   2.711   2.658
 1041SOL     OW 4021   6.949   0.050   3.590
 1041SOL    HW1 4022   6.892   7.016   3.650
 1041SOL    HW2 4023   6.926   0.031   3.494
 1042SOL     OW 4024   4.736   5.277   2.247
 1042SOL    HW1 4025   4.737   5.190   2.295
 1042SOL    HW2 4026   4.694   5.347   2.305
 1043SOL     OW 4027   3.335   1.319   5.408
 1043SOL    HW1 4028   3.407   1.346   5.344
 1043SOL    HW2 4029   3.325   1.391   5.478
 1044SOL     OW 4030   5.182   4.769   2.643
 1044SOL    HW1 4031   5.269   4.756   2.594
 1044SOL    HW2 4032   5.106   4.761   2.578
 1045SOL     OW 4033   4.307   6.002   2.107
 1045SOL    HW1 4034   4.323   6.100   2.104
 1045SOL    HW2 4035   4.224   5.980   2.056
 1046SOL     OW 4036   1.467   0.836   0.203
 1046SOL    HW1 4037   1.430   0.747   0.231
 1046SOL    HW2 4038   1.471   0.897   0.282
 1047SOL     OW 4039   1.731   1.045   2.987
 1047SOL    HW1 4040   1.678   1.040   2.902
 1047SOL    HW2 4041   1.672   1.022   3.064
 1048SOL     OW 4042   4.679   6.440   4.374
 1048SOL    HW1 4043   4.730   6.356   4.359
 1048SOL    HW2 4044   4.600   6.443   4.314
 1049SOL     OW 4045   6.320   5.834   3.822
 1049SOL    HW1 4046   6.239   5.883   3.855
 1049SOL    HW2 4047   6.355   5.879   3.740
 1050SOL     OW 4048   4.390   5.045   1.237
 1050SOL    HW1 4049   4.409   5.112   1.309
 1050SOL    HW2 4050   4.390   5.090   1.148
 1051SOL     OW 4051   2.526   5.538   0.789
 1051SOL    HW1 4052   2.446   5.525   0.848
 1051SOL    HW2 4053   2.560   5.449   0.758
 1052SOL     OW 4054   3.826   0.400   4.582
 1052SOL    HW1 4055   3.858   0.311   4.613
 1052SOL    HW2 4056   3.829   0.403   4.482
 1053SOL     OW 4057   5.671   4.754   3.259
 1053SOL    HW1 4058   5.757   4.804   3.269
 1053SOL    HW2 4059   5.609   4.806   3.200
 1054SOL     OW 4060   3.018   3.977   5.959
 1054SOL    HW1 4061   2.970   4.040   6.020
 1054SOL    HW2 4062   3.091   3.931   6.009
 1055SOL     OW 4063   4.193   6.845   5.102
 1055SOL    HW1 4064   4.255   6.915   5.137
 1055SOL    HW2 4065   4.129   6.819   5.175
 1056SOL     OW 4066   1.982   5.282   6.326
 1056SOL    HW1 4067   1.980   5.255   6.422
 1056SOL    HW2 4068   1.889   5.304   6.296
 1057SOL     OW 4069   2.871   3.383   2.040
 1057SOL    HW1 4070   2.775   3.401   2.020
 1057SOL    HW2 4071   2.926   3.399   1.958
 1058SOL     OW 4072   4.655   1.410   3.576
 1058SOL    HW1 4073   4.723   1.483   3.570
 1058SOL    HW2 4074   4.586   1.423   3.504
 1059SOL     OW 4075   2.633   6.885   1.293
 1059SOL    HW1 4076   2.642   6.850   1.387
 1059SOL    HW2 4077   2.586   6.817   1.237
 1060SOL     OW 4078   0.109   4.652   4.617
 1060SOL    HW1 4079   0.119   4.689   4.709
 1060SOL    HW2 4080   0.022   4.683   4.578
 1061SOL     OW 4081   5.562   3.879   1.039
 1061SOL    HW1 4082   5.552   3.937   1.120
 1061SOL    HW2 4083   5.570   3.936   0.957
 1062SOL     OW 4084   5.983   4.132   6.457
 1062SOL    HW1 4085   5.955   4.063   6.391
 1062SOL    HW2 4086   5.981   4.093   6.550
 1063SOL     OW 4087   1.748   4.830   2.239
 1063SOL    HW1 4088   1.837   4.873   2.222
 1063SOL    HW2 4089   1.754   4.732   2.219
 1064SOL     OW 4090   1.700   3.904   1.817
 1064SOL    HW1 4091   1.695   4.002   1.835
 1064SOL    HW2 4092   1.624   3.857   1.861
 1065SOL     OW 4093   3.375   0.379   3.874
 1065SOL    HW1 4094   3.330   0.442   3.936
 1065SOL    HW2 4095   3.402   0.427   3.791
 1066SOL     OW 4096   4.643   0.724   3.659
 1066SOL    HW1 4097   4.654   0.821   3.678
 1066SOL    HW2 4098   4.661   0.707   3.562
 1067SOL     OW 4099   0.530   3.768   0.992
 1067SOL    HW1 4100   0.501   3.796   1.084
 1067SOL    HW2 4101   0.501   3.674   0.974
 1068SOL     OW 4102   5.504   5.364   2.875
 1068SOL    HW1 4103   5.423   5.411   2.841
 1068SOL    HW2 4104   5.586   5.409   2.840
 1069SOL     OW 4105   4.174   4.876   0.895
 1069SOL    HW1 4106   4.097   4.820   0.927
 1069SOL    HW2 4107   4.178   4.872   0.796
 1070SOL     OW 4108   0.248   0.055   2.270
 1070SOL    HW1 4109   0.185   0.123   2.232
 1070SOL    HW2 4110   0.197   6.996   2.296
 1071SOL     OW 4111   1.488   1.026   3.185
 1071SOL    HW1 4112   1.488   1.037   3.284
 1071SOL    HW2 4113   1.461   0.933   3.162
 1072SOL     OW 4114   2.083   0.774   0.710
 1072SOL    HW1 4115   2.040   0.856   0.747
 1072SOL    HW2 4116   2.085   0.703   0.781
 1073SOL     OW 4117   4.784   6.907   1.578
 1073SOL    HW1 4118   4.754   6.836   1.514
 1073SOL    HW2 4119   4.869   6.877   1.622
 1074SOL     OW 4120   2.287   5.585   0.969
 1074SOL    HW1 4121   2.353   5.656   0.994
 1074SOL    HW2 4122   2.195   5.615   0.995
 1075SOL     OW 4123   4.784   6.738   4.430
 1075SOL    HW1 4124   4.736   6.671   4.374
 1075SOL    HW2 4125   4.756   6.830   4.403
 1076SOL     OW 4126   6.994   2.697   5.544
 1076SOL    HW1 4127   0.045   2.671   5.482
 1076SOL    HW2 4128   0.011   2.733   5.629
 1077SOL     OW 4129   5.606   0.314   1.588
 1077SOL    HW1 4130   5.706   0.315   1.596
 1077SOL    HW2 4131   5.565   0.296   1.677
 1078SOL     OW 4132   1.205   1.505   2.557
 1078SOL    HW1 4133   1.200   1.605   2.558
 1078SOL    HW2 4134   1.218   1.472   2.464
 1079SOL     OW 4135   2.194   6.241   2.495
 1079SOL    HW1 4136   2.128   6.292   2.550
 1079SOL    HW2 4137   2.250   6.305   2.442
 1080SOL     OW 4138   1.044   4.164   3.986
 1080SOL    HW1 4139   1.060   4.111   4.070
 1080SOL    HW2 4140   1.012   4.103   3.914
 1081SOL     OW 4141   0.210   5.556   5.645
 1081SOL    HW1 4142   0.218   5.555   5.744
 1081SOL    HW2 4143   0.114   5.548   5.619
 1082SOL     OW 4144   3.914   1.887   5.707
 1082SOL    HW1 4145   3.957   1.967   5.667
 1082SOL    HW2 4146   3.952   1.871   5.798
 1083SOL     OW 4147   4.422   3.823   6.973
 1083SOL    HW1 4148   4.341   3.835   6.916
 1083SOL    HW2 4149   4.459   3.731   6.959
 1084SOL     OW 4150   5.672   5.950   0.067
 1084SOL    HW1 4151   5.698   5.888   7.016
 1084SOL    HW2 4152   5.750   6.006   0.093
 1085SOL     OW 4153   1.359   3.869   4.289
 1085SOL    HW1 4154   1.363   3.938   4.361
 1085SOL    HW2 4155   1.312   3.906   4.210
 1086SOL     OW 4156   6.711   6.455   0.907
 1086SOL    HW1 4157   6.704   6.459   1.007
 1086SOL    HW2 4158   6.801   6.418   0.882
 1087SOL     OW 4159   5.262   1.908   5.117
 1087SOL    HW1 4160   5.322   1.980   5.150
 1087SOL    HW2 4161   5.169   1.923   5.150
 1088SOL     OW 4162   6.290   4.328   3.296
 1088SOL    HW1 4163   6.228   4.334   3.218
 1088SOL    HW2 4164   6.349   4.408   3.298
 1089SOL     OW 4165   1.482   6.203   4.229
 1089SOL    HW1 4166   1.421   6.128   4.203
 1089SOL    HW2 4167   1.487   6.209   4.329
 1090SOL     OW 4168   2.058   2.113   3.683
 1090SOL    HW1 4169   1.993   2.156   3.620
 1090SOL    HW2 4170   2.031   2.018   3.699
 1091SOL     OW 4171   2.845   2.321   5.502
 1091SOL    HW1 4172   2.929   2.267   5.495
 1091SOL    HW2 4173   2.866   2.418   5.489
 1092SOL     OW 4174   2.042   4.122   1.274
 1092SOL    HW1 4175   1.969   4.118   1.207
 1092SOL    HW2 4176   2.129   4.140   1.228
 1093SOL     OW 4177   2.095   1.295   2.077
 1093SOL    HW1 4178   2.134   1.239   2.150
 1093SOL    HW2 4179   2.137   1.385   2.077
 1094SOL     OW 4180   0.625   6.703   3.377
 1094SOL    HW1 4181   0.722   6.676   3.385
 1094SOL    HW2 4182   0.602   6.715   3.281
 1095SOL     OW 4183   0.663   2.821   6.694
 1095SOL    HW1 4184   0.599   2.897   6.685
 1095SOL    HW2 4185   0.736   2.845   6.757
 1096SOL     OW 4186   3.460   4.498   1.688
 1096SOL    HW1 4187   3.480   4.413   1.738
 1096SOL    HW2 4188   3.501   4.575   1.737
 1097SOL     OW 4189   1.905   4.542   4.078
 1097SOL    HW1 4190   1.812   4.573   4.061
 1097SOL    HW2 4191   1.959   4.554   3.995
 1098SOL     OW 4192   4.413   3.653   0.533
 1098SOL    HW1 4193   4.355   3.616   0.462
 1098SOL    HW2 4194   4.506   3.618   0.522
 1099SOL     OW 4195   4.471   1.513   5.245
 1099SOL    HW1 4196   4.373   1.531   5.238
 1099SOL    HW2 4197   4.488   1.443   5.314
 1100SOL     OW 4198   3.438   2.035   5.727
 1100SOL    HW1 4199   3.440   2.051   5.826
 1100SOL    HW2 4200   3.419   1.939   5.709
 1101SOL     OW 4201   6.272   2.254   6.617
 1101SOL    HW1 4202   6.369   2.272   6.632
 1101SOL    HW2 4203   6.233   2.325   6.558
 1102SOL     OW 4204   0.516   5.960   4.986
 1102SOL    HW1 4205   0.529   5.934   4.890
 1102SOL    HW2 4206   0.418   5.969   5.004
 1103SOL     OW 4207   3.852   1.773   0.850
 1103SOL    HW1 4208   3.891   1.681   0.843
 1103SOL    HW2 4209   3.804   1.795   0.765
 1104SOL     OW 4210   2.195   2.916   5.212
 1104SOL    HW1 4211   2.262   2.964   5.155
 1104SOL    HW2 4212   2.243   2.855   5.275
 1105SOL     OW 4213   6.595   4.109   4.819
 1105SOL    HW1 4214   6.658   4.051   4.869
 1105SOL    HW2 4215   6.525   4.144   4.882
 1106SOL     OW 4216   0.368   1.936   1.731
 1106SOL    HW1 4217   0.286   1.982   1.697
 1106SOL    HW2 4218   0.420   2.000   1.788
 1107SOL     OW 4219   1.776   0.392   6.507
 1107SOL    HW1 4220   1.798   0.337   6.587
 1107SOL    HW2 4221   1.683   0.370   6.476
 1108SOL     OW 4222   3.759   0.413   5.556
 1108SOL    HW1 4223   3.840   0.377   5.509
 1108SOL    HW2 4224   3.786   0.453   5.643
 1109SOL     OW 4225   4.695   0.712   4.465
 1109SOL    HW1 4226   4.611   0.697   4.518
 1109SOL    HW2 4227   4.678   0.778   4.392
 1110SOL     OW 4228   2.402   1.844   3.299
 1110SOL    HW1 4229   2.328   1.894   3.343
 1110SOL    HW2 4230   2.369   1.803   3.214
 1111SOL     OW 4231   4.703   5.487   6.201
 1111SOL    HW1 4232   4.676   5.481   6.105
 1111SOL    HW2 4233   4.799   5.460   6.211
 1112SOL     OW 4234   5.114   1.485   2.400
 1112SOL    HW1 4235   5.104   1.389   2.374
 1112SOL    HW2 4236   5.123   1.491   2.500
 1113SOL     OW 4237   6.772   3.511   2.497
 1113SOL    HW1 4238   6.814   3.556   2.419
 1113SOL    HW2 4239   6.755   3.579   2.569
 1114SOL     OW 4240   3.901   1.975   6.640
 1114SOL    HW1 4241   3.928   2.041   6.711
 1114SOL    HW2 4242   3.934   2.006   6.551
 1115SOL     OW 4243   4.089   3.710   0.171
 1115SOL    HW1 4244   4.151   3.648   0.123
 1115SOL    HW2 4245   4.135   3.798   0.186
 1116SOL     OW 4246   5.122   6.647   5.438
 1116SOL    HW1 4247   5.171   6.706   5.372
 1116SOL    HW2 4248   5.032   6.685   5.455
 1117SOL     OW 4249   1.441   2.262   2.340
 1117SOL    HW1 4250   1.417   2.339   2.399
 1117SOL    HW2 4251   1.373   2.253   2.268
 1118SOL     OW 4252   2.468   4.821   1.313
 1118SOL    HW1 4253   2.505   4.738   1.355
 1118SOL    HW2 4254   2.371   4.829   1.335
 1119SOL     OW 4255   4.229   4.380   0.724
 1119SOL    HW1 4256   4.251   4.284   0.709
 1119SOL    HW2 4257   4.226   4.399   0.822
 1120SOL     OW 4258   6.173   6.774   5.341
 1120SOL    HW1 4259   6.238   6.837   5.383
 1120SOL    HW2 4260   6.219   6.688   5.319
 1121SOL     OW 4261   4.996   5.386   2.850
 1121SOL    HW1 4262   4.902   5.413   2.871
 1121SOL    HW2 4263   4.996   5.323   2.772
 1122SOL     OW 4264   5.550   3.474   6.777
 1122SOL    HW1 4265   5.502   3.458   6.863
 1122SOL    HW2 4266   5.592   3.389   6.746
 1123SOL     OW 4267   5.177   1.328   3.178
 1123SOL    HW1 4268   5.157   1.230   3.180
 1123SOL    HW2 4269   5.269   1.345   3.212
 1124SOL     OW 4270   6.587   3.550   5.253
 1124SOL    HW1 4271   6.500   3.521   5.214
 1124SOL    HW2 4272   6.628   3.474   5.304
 1125SOL     OW 4273   3.420   1.475   5.023
 1125SOL    HW1 4274   3.335   1.526   5.040
 1125SOL    HW2 4275   3.476   1.525   4.957
 1126SOL     OW 4276   6.033   5.107   6.676
 1126SOL    HW1 4277   6.074   5.140   6.762
 1126SOL    HW2 4278   6.055   5.011   6.663
 1127SOL     OW 4279   5.203   5.119   4.527
 1127SOL    HW1 4280   5.264   5.167   4.464
 1127SOL    HW2 4281   5.254   5.093   4.609
 1128SOL     OW 4282   5.581   1.736   5.496
 1128SOL    HW1 4283   5.598   1.711   5.592
 1128SOL    HW2 4284   5.560   1.833   5.490
 1129SOL     OW 4285   2.928   0.706   6.984
 1129SOL    HW1 4286   2.850   0.747   0.007
 1129SOL    HW2 4287   2.956   0.764   6.908
 1130SOL     OW 4288   2.659   4.777   0.340
 1130SOL    HW1 4289   2.714   4.819   0.268
 1130SOL    HW2 4290   2.621   4.691   0.308
 1131SOL     OW 4291   0.014   6.006   6.166
 1131SOL    HW1 4292   0.046   6.016   6.072
 1131SOL    HW2 4293   0.018   6.095   6.212
 1132SOL     OW 4294   5.333   0.254   1.502
 1132SOL    HW1 4295   5.430   0.270   1.520
 1132SOL    HW2 4296   5.278   0.320   1.553
 1133SOL     OW 4297   0.807   0.664   1.004
 1133SOL    HW1 4298   0.881   0.674   1.071
 1133SOL    HW2 4299   0.830   0.717   0.922
 1134SOL     OW 4300   5.601   0.818   1.800
 1134SOL    HW1 4301   5.559   0.736   1.760
 1134SOL    HW2 4302   5.569   0.828   1.895
 1135SOL     OW 4303   2.320   1.174   2.621
 1135SOL    HW1 4304   2.397   1.113   2.637
 1135SOL    HW2 4305   2.346   1.244   2.555
 1136SOL     OW 4306   3.387   5.177   4.207
 1136SOL    HW1 4307   3.346   5.144   4.122
 1136SOL    HW2 4308   3.423   5.269   4.193
 1137SOL     OW 4309   0.984   1.241   6.375
 1137SOL    HW1 4310   0.924   1.167   6.406
 1137SOL    HW2 4311   0.933   1.304   6.317
 1138SOL     OW 4312   0.111   1.030   6.621
 1138SOL    HW1 4313   0.145   1.042   6.528
 1138SOL    HW2 4314   0.182   1.060   6.686
 1139SOL     OW 4315   3.569   5.163   1.592
 1139SOL    HW1 4316   3.632   5.088   1.573
 1139SOL    HW2 4317   3.479   5.127   1.613
 1140SOL     OW 4318   4.073   1.027   2.139
 1140SOL    HW1 4319   4.075   1.127   2.137
 1140SOL    HW2 4320   4.158   0.991   2.101
 1141SOL     OW 4321   0.272   6.462   6.698
 1141SOL    HW1 4322   0.237   6.370   6.712
 1141SOL    HW2 4323   0.367   6.457   6.667
 1142SOL     OW 4324   2.896   0.142   5.010
 1142SOL    HW1 4325   2.908   0.121   5.106
 1142SOL    HW2 4326   2.980   0.122   4.960
 1143SOL     OW 4327   1.597   3.533   2.508
 1143SOL    HW1 4328   1.613   3.574   2.597
 1143SOL    HW2 4329   1.672   3.469   2.487
 1144SOL     OW 4330   6.623   5.224   5.268
 1144SOL    HW1 4331   6.543   5.263   5.313
 1144SOL    HW2 4332   6.696   5.211   5.335
 1145SOL     OW 4333   6.894   3.592   2.275
 1145SOL    HW1 4334   6.871   3.630   2.185
 1145SOL    HW2 4335   6.980   3.632   2.307
 1146SOL     OW 4336   6.295   0.755   2.542
 1146SOL    HW1 4337   6.209   0.737   2.494
 1146SOL    HW2 4338   6.372   0.730   2.483
 1147SOL     OW 4339   2.418   5.336   1.496
 1147SOL    HW1 4340   2.433   5.262   1.431
 1147SOL    HW2 4341   2.477   5.323   1.575
 1148SOL     OW 4342   5.054   6.392   0.704
 1148SOL    HW1 4343   4.972   6.371   0.652
 1148SOL    HW2 4344   5.132   6.397   0.642
 1149SOL     OW 4345   6.856   4.377   2.837
 1149SOL    HW1 4346   6.856   4.326   2.751
 1149SOL    HW2 4347   6.761   4.395   2.865
 1150SOL     OW 4348   2.363   3.921   0.263
 1150SOL    HW1 4349   2.294   3.859   0.227
 1150SOL    HW2 4350   2.369   4.002   0.205
 1151SOL     OW 4351   4.617   5.526   0.010
 1151SOL    HW1 4352   4.713   5.544   0.031
 1151SOL    HW2 4353   4.575   5.608   6.996
 1152SOL     OW 4354   5.936   4.750   6.080
 1152SOL    HW1 4355   5.993   4.671   6.057
 1152SOL    HW2 4356   5.880   4.728   6.161
 1153SOL     OW 4357   2.162   0.308   1.306
 1153SOL    HW1 4358   2.111   0.270   1.383
 1153SOL    HW2 4359   2.124   0.273   1.220
 1154SOL     OW 4360   0.647   4.517   1.699
 1154SOL    HW1 4361   0.693   4.436   1.662
 1154SOL    HW2 4362   0.663   4.594   1.638
 1155SOL     OW 4363   2.244   5.781   6.781
 1155SOL    HW1 4364   2.276   5.746   6.693
 1155SOL    HW2 4365   2.320   5.785   6.846
 1156SOL     OW 4366   3.373   1.634   4.361
 1156SOL    HW1 4367   3.316   1.663   4.438
 1156SOL    HW2 4368   3.369   1.535   4.352
 1157SOL     OW 4369   5.886   0.599   5.555
 1157SOL    HW1 4370   5.895   0.557   5.646
 1157SOL    HW2 4371   5.966   0.656   5.537
 1158SOL     OW 4372   6.798   5.538   5.405
 1158SOL    HW1 4373   6.701   5.558   5.394
 1158SOL    HW2 4374   6.852   5.608   5.358
 1159SOL     OW 4375   6.193   0.193   3.954
 1159SOL    HW1 4376   6.192   0.102   3.997
 1159SOL    HW2 4377   6.117   0.200   3.890
 1160SOL     OW 4378   3.884   3.699   1.347
 1160SOL    HW1 4379   3.887   3.796   1.321
 1160SOL    HW2 4380   3.857   3.645   1.268
 1161SOL     OW 4381   6.587   0.173   6.552
 1161SOL    HW1 4382   6.536   0.173   6.466
 1161SOL    HW2 4383   6.680   0.205   6.535
 1162SOL     OW 4384   2.894   2.309   6.681
 1162SOL    HW1 4385   2.825   2.335   6.749
 1162SOL    HW2 4386   2.852   2.250   6.612
 1163SOL     OW 4387   6.756   3.136   1.607
 1163SOL    HW1 4388   6.845   3.173   1.637
 1163SOL    HW2 4389   6.767   3.093   1.518
 1164SOL     OW 4390   5.794   3.141   5.512
 1164SOL    HW1 4391   5.776   3.208   5.440
 1164SOL    HW2 4392   5.714   3.083   5.525
 1165SOL     OW 4393   2.856   4.760   3.728
 1165SOL    HW1 4394   2.811   4.850   3.720
 1165SOL    HW2 4395   2.787   4.690   3.745
 1166SOL     OW 4396   3.649   6.853   0.178
 1166SOL    HW1 4397   3.581   6.903   0.231
 1166SOL    HW2 4398   3.689   6.781   0.235
 1167SOL     OW 4399   4.325   6.595   6.465
 1167SOL    HW1 4400   4.274   6.535   6.527
 1167SOL    HW2 4401   4.389   6.650   6.518
 1168SOL     OW 4402   5.018   1.989   3.676
 1168SOL    HW1 4403   5.068   1.987   3.590
 1168SOL    HW2 4404   5.025   1.900   3.721
 1169SOL     OW 4405   5.144   2.214   5.726
 1169SOL    HW1 4406   5.176   2.296   5.774
 1169SOL    HW2 4407   5.053   2.189   5.759
 1170SOL     OW 4408   5.347   0.881   2.957
 1170SOL    HW1 4409   5.280   0.880   3.031
 1170SOL    HW2 4410   5.366   0.787   2.928
 1171SOL     OW 4411   3.111   6.468   6.705
 1171SOL    HW1 4412   3.051   6.548   6.700
 1171SOL    HW2 4413   3.058   6.386   6.683
 1172SOL     OW 4414   3.119   4.117   1.858
 1172SOL    HW1 4415   3.073   4.193   1.810
 1172SOL    HW2 4416   3.079   4.106   1.949
 1173SOL     OW 4417   3.410   0.768   6.684
 1173SOL    HW1 4418   3.502   0.806   6.683
 1173SOL    HW2 4419   3.343   0.841   6.695
 1174SOL     OW 4420   3.526   4.646   0.810
 1174SOL    HW1 4421   3.534   4.733   0.858
 1174SOL    HW2 4422   3.578   4.651   0.724
 1175SOL     OW 4423   3.800   3.361   6.640
 1175SOL    HW1 4424   3.791   3.299   6.718
 1175SOL    HW2 4425   3.894   3.394   6.633
 1176SOL     OW 4426   5.798   4.999   6.221
 1176SOL    HW1 4427   5.808   5.099   6.216
 1176SOL    HW2 4428   5.727   4.969   6.158
 1177SOL     OW 4429   6.792   1.776   5.548
 1177SOL    HW1 4430   6.710   1.785   5.604
 1177SOL    HW2 4431   6.805   1.680   5.523
 1178SOL     OW 4432   3.068   3.779   0.723
 1178SOL    HW1 4433   2.968   3.788   0.723
 1178SOL    HW2 4434   3.093   3.689   0.760
 1179SOL     OW 4435   3.403   6.741   0.944
 1179SOL    HW1 4436   3.433   6.711   0.853
 1179SOL    HW2 4437   3.343   6.672   0.984
 1180SOL     OW 4438   2.186   6.015   3.842
 1180SOL    HW1 4439   2.194   5.938   3.778
 1180SOL    HW2 4440   2.241   6.091   3.809
 1181SOL     OW 4441   0.578   3.366   5.908
 1181SOL    HW1 4442   0.567   3.439   5.975
 1181SOL    HW2 4443   0.669   3.372   5.866
 1182SOL     OW 4444   2.965   5.294   3.253
 1182SOL    HW1 4445   2.986   5.258   3.163
 1182SOL    HW2 4446   3.000   5.388   3.261
 1183SOL     OW 4447   3.537   5.537   1.924
 1183SOL    HW1 4448   3.450   5.506   1.884
 1183SOL    HW2 4449   3.608   5.535   1.853
 1184SOL     OW 4450   5.392   0.146   6.464
 1184SOL    HW1 4451   5.301   0.116   6.493
 1184SOL    HW2 4452   5.460   0.078   6.492
 1185SOL     OW 4453   0.724   1.240   1.355
 1185SOL    HW1 4454   0.811   1.248   1.307
 1185SOL    HW2 4455   0.661   1.309   1.320
 1186SOL     OW 4456   5.613   5.593   5.301
 1186SOL    HW1 4457   5.579   5.588   5.207
 1186SOL    HW2 4458   5.707   5.628   5.300
 1187SOL     OW 4459   5.435   6.706   5.656
 1187SOL    HW1 4460   5.342   6.732   5.683
 1187SOL    HW2 4461   5.487   6.678   5.736
 1188SOL     OW 4462   3.654   5.562   6.234
 1188SOL    HW1 4463   3.632   5.501   6.158
 1188SOL    HW2 4464   3.570   5.585   6.284
 1189SOL     OW 4465   5.836   0.538   1.569
 1189SOL    HW1 4466   5.873   0.593   1.645
 1189SOL    HW2 4467   5.888   0.557   1.486
 1190SOL     OW 4468   3.336   5.950   3.037
 1190SOL    HW1 4469   3.304   5.955   2.943
 1190SOL    HW2 4470   3.413   5.887   3.043
 1191SOL     OW 4471   2.621   6.480   4.191
 1191SOL    HW1 4472   2.565   6.397   4.191
 1191SOL    HW2 4473   2.693   6.472   4.122
 1192SOL     OW 4474   5.631   5.985   3.644
 1192SOL    HW1 4475   5.534   5.974   3.623
 1192SOL    HW2 4476   5.682   5.997   3.558
 1193SOL     OW 4477   0.132   0.307   5.048
 1193SOL    HW1 4478   0.225   0.312   5.011
 1193SOL    HW2 4479   0.117   0.217   5.089
 1194SOL     OW 4480   6.522   1.738   0.627
 1194SOL    HW1 4481   6.603   1.689   0.661
 1194SOL    HW2 4482   6.479   1.684   0.554
 1195SOL     OW 4483   6.432   3.645   0.652
 1195SOL    HW1 4484   6.445   3.741   0.628
 1195SOL    HW2 4485   6.438   3.589   0.569
 1196SOL     OW 4486   5.825   4.583   3.101
 1196SOL    HW1 4487   5.767   4.630   3.167
 1196SOL    HW2 4488   5.791   4.599   3.008
 1197SOL     OW 4489   4.267   6.657   4.285
 1197SOL    HW1 4490   4.171   6.677   4.305
 1197SOL    HW2 4491   4.325   6.722   4.335
 1198SOL     OW 4492   1.079   3.802   2.079
 1198SOL    HW1 4493   0.997   3.839   2.122
 1198SOL    HW2 4494   1.139   3.762   2.149
 1199SOL     OW 4495   3.388   3.305   3.072
 1199SOL    HW1 4496   3.394   3.399   3.107
 1199SOL    HW2 4497   3.320   3.254   3.125
 1200SOL     OW 4498   3.737   4.002   4.713
 1200SOL    HW1 4499   3.666   4.033   4.650
 1200SOL    HW2 4500   3.825   4.002   4.666
 1201SOL     OW 4501   6.883   1.008   4.834
 1201SOL    HW1 4502   6.924   0.918   4.819
 1201SOL    HW2 4503   6.954   1.074   4.857
 1202SOL     OW 4504   6.656   6.336   5.362
 1202SOL    HW1 4505   6.571   6.302   5.322
 1202SOL    HW2 4506   6.696   6.265   5.420
 1203SOL     OW 4507   0.547   6.394   0.330
 1203SOL    HW1 4508   0.614   6.468   0.325
 1203SOL    HW2 4509   0.595   6.307   0.338
 1204SOL     OW 4510   4.997   1.476   1.831
 1204SOL    HW1 4511   4.908   1.492   1.873
 1204SOL    HW2 4512   5.063   1.542   1.867
 1205SOL     OW 4513   3.604   3.836   0.206
 1205SOL    HW1 4514   3.692   3.883   0.201
 1205SOL    HW2 4515   3.575   3.809   0.115
 1206SOL     OW 4516   1.202   3.143   4.778
 1206SOL    HW1 4517   1.204   3.083   4.698
 1206SOL    HW2 4518   1.295   3.172   4.800
 1207SOL     OW 4519   0.370   0.465   1.058
 1207SOL    HW1 4520   0.316   0.522   1.120
 1207SOL    HW2 4521   0.463   0.502   1.051
 1208SOL     OW 4522   2.992   3.401   1.789
 1208SOL    HW1 4523   2.997   3.493   1.752
 1208SOL    HW2 4524   3.067   3.346   1.754
 1209SOL     OW 4525   5.267   0.378   4.333
 1209SOL    HW1 4526   5.282   0.333   4.246
 1209SOL    HW2 4527   5.211   0.460   4.319
 1210SOL     OW 4528   4.700   6.646   4.044
 1210SOL    HW1 4529   4.627   6.594   4.088
 1210SOL    HW2 4530   4.784   6.636   4.096
 1211SOL     OW 4531   0.862   3.412   3.055
 1211SOL    HW1 4532   0.800   3.487   3.036
 1211SOL    HW2 4533   0.854   3.384   3.150
 1212SOL     OW 4534   6.545   0.550   6.041
 1212SOL    HW1 4535   6.588   0.499   5.967
 1212SOL    HW2 4536   6.467   0.497   6.076
 1213SOL     OW 4537   5.632   1.957   2.274
 1213SOL    HW1 4538   5.632   2.026   2.201
 1213SOL    HW2 4539   5.724   1.920   2.284
 1214SOL     OW 4540   0.560   2.544   6.307
 1214SOL    HW1 4541   0.501   2.599   6.367
 1214SOL    HW2 4542   0.568   2.589   6.218
 1215SOL     OW 4543   1.423   4.770   2.643
 1215SOL    HW1 4544   1.336   4.756   2.596
 1215SOL    HW2 4545   1.491   4.705   2.610
 1216SOL     OW 4546   5.846   1.120   0.770
 1216SOL    HW1 4547   5.797   1.206   0.779
 1216SOL    HW2 4548   5.791   1.045   0.808
 1217SOL     OW 4549   2.966   4.916   0.792
 1217SOL    HW1 4550   3.001   4.999   0.748
 1217SOL    HW2 4551   2.935   4.852   0.723
 1218SOL     OW 4552   1.688   2.658   5.347
 1218SOL    HW1 4553   1.737   2.647   5.434
 1218SOL    HW2 4554   1.733   2.729   5.292
 1219SOL     OW 4555   5.060   5.270   1.941
 1219SOL    HW1 4556   4.980   5.285   1.882
 1219SOL    HW2 4557   5.135   5.328   1.910
 1220SOL     OW 4558   6.723   4.044   2.148
 1220SOL    HW1 4559   6.738   3.995   2.063
 1220SOL    HW2 4560   6.801   4.103   2.168
 1221SOL     OW 4561   5.172   3.895   6.632
 1221SOL    HW1 4562   5.270   3.916   6.632
 1221SOL    HW2 4563   5.129   3.937   6.552
 1222SOL     OW 4564   0.156   0.806   6.764
 1222SOL    HW1 4565   0.137   0.875   6.694
 1222SOL    HW2 4566   0.122   0.717   6.733
 1223SOL     OW 4567   3.680   0.646   0.408
 1223SOL    HW1 4568   3.722   0.730   0.443
 1223SOL    HW2 4569   3.587   0.666   0.377
 1224SOL     OW 4570   3.220   5.946   6.498
 1224SOL    HW1 4571   3.231   6.016   6.568
 1224SOL    HW2 4572   3.189   5.861   6.540
 1225SOL     OW 4573   3.525   2.828   6.836
 1225SOL    HW1 4574   3.502   2.843   6.932
 1225SOL    HW2 4575   3.442   2.830   6.781
 1226SOL     OW 4576   3.638   6.192   0.538
 1226SOL    HW1 4577   3.619   6.242   0.454
 1226SOL    HW2 4578   3.595   6.102   0.534
 1227SOL     OW 4579   5.250   5.181   5.461
 1227SOL    HW1 4580   5.189   5.123   5.515
 1227SOL    HW2 4581   5.222   5.178   5.365
 1228SOL     OW 4582   3.575   2.420   6.463
 1228SOL    HW1 4583   3.555   2.362   6.385
 1228SOL    HW2 4584   3.610   2.364   6.539
 1229SOL     OW 4585   2.175   5.575   0.156
 1229SOL    HW1 4586   2.200   5.522   0.237
 1229SOL    HW2 4587   2.206   5.670   0.168
 1230SOL     OW 4588   5.828   6.055   2.246
 1230SOL    HW1 4589   5.832   6.029   2.149
 1230SOL    HW2 4590   5.790   6.147   2.254
 1231SOL     OW 4591   1.594   2.075   4.670
 1231SOL    HW1 4592   1.690   2.058   4.694
 1231SOL    HW2 4593   1.551   2.130   4.741
 1232SOL     OW 4594   6.493   0.901   4.717
 1232SOL    HW1 4595   6.441   0.840   4.777
 1232SOL    HW2 4596   6.463   0.888   4.622
 1233SOL     OW 4597   0.831   5.608   4.829
 1233SOL    HW1 4598   0.817   5.598   4.928
 1233SOL    HW2 4599   0.742   5.615   4.784
 1234SOL     OW 4600   5.941   2.531   5.293
 1234SOL    HW1 4601   5.923   2.629   5.283
 1234SOL    HW2 4602   5.885   2.480   5.227
 1235SOL     OW 4603   5.894   4.674   1.644
 1235SOL    HW1 4604   5.908   4.664   1.743
 1235SOL    HW2 4605   5.811   4.726   1.627
 1236SOL     OW 4606   4.555   1.646   1.510
 1236SOL    HW1 4607   4.626   1.716   1.518
 1236SOL    HW2 4608   4.567   1.577   1.581
 1237SOL     OW 4609   1.199   4.628   5.355
 1237SOL    HW1 4610   1.128   4.697   5.341
 1237SOL    HW2 4611   1.289   4.670   5.342
 1238SOL     OW 4612   1.518   0.423   6.129
 1238SOL    HW1 4613   1.594   0.457   6.185
 1238SOL    HW2 4614   1.462   0.499   6.097
 1239SOL     OW 4615   0.166   6.717   6.580
 1239SOL    HW1 4616   0.196   6.633   6.626
 1239SOL    HW2 4617   0.105   6.768   6.641
 1240SOL     OW 4618   6.102   6.112   1.128
 1240SOL    HW1 4619   6.023   6.058   1.096
 1240SOL    HW2 4620   6.174   6.050   1.158
 1241SOL     OW 4621   6.021   4.334   5.338
 1241SOL    HW1 4622   6.026   4.242   5.300
 1241SOL    HW2 4623   5.938   4.380   5.305
 1242SOL     OW 4624   2.040   3.867   1.027
 1242SOL    HW1 4625   1.972   3.935   1.050
 1242SOL    HW2 4626   2.038   3.793   1.094
 1243SOL     OW 4627   1.208   0.729   5.280
 1243SOL    HW1 4628   1.253   0.663   5.340
 1243SOL    HW2 4629   1.269   0.754   5.205
 1244SOL     OW 4630   5.427   6.285   4.470
 1244SOL    HW1 4631   5.420   6.354   4.543
 1244SOL    HW2 4632   5.513   6.235   4.479
 1245SOL     OW 4633   5.295   4.300   0.090
 1245SOL    HW1 4634   5.344   4.261   0.013
 1245SOL    HW2 4635   5.271   4.227   0.155
 1246SOL     OW 4636   3.330   1.255   1.240
 1246SOL    HW1 4637   3.402   1.198   1.278
 1246SOL    HW2 4638   3.336   1.254   1.140
 1247SOL     OW 4639   0.190   6.458   5.662
 1247SOL    HW1 4640   0.271   6.511   5.688
 1247SOL    HW2 4641   0.150   6.496   5.579
 1248SOL     OW 4642   1.984   0.013   3.944
 1248SOL    HW1 4643   2.000   6.951   3.893
 1248SOL    HW2 4644   1.949   0.083   3.882
 1249SOL     OW 4645   6.617   2.168   2.014
 1249SOL    HW1 4646   6.642   2.232   1.941
 1249SOL    HW2 4647   6.652   2.202   2.101
 1250SOL     OW 4648   6.058   5.166   3.295
 1250SOL    HW1 4649   5.972   5.146   3.248
 1250SOL    HW2 4650   6.124   5.202   3.230
 1251SOL     OW 4651   1.998   1.152   3.035
 1251SOL    HW1 4652   1.906   1.111   3.039
 1251SOL    HW2 4653   2.065   1.081   3.014
 1252SOL     OW 4654   4.009   4.469   6.813
 1252SOL    HW1 4655   3.967   4.388   6.771
 1252SOL    HW2 4656   3.990   4.549   6.756
 1253SOL     OW 4657   3.311   6.298   2.142
 1253SOL    HW1 4658   3.224   6.339   2.115
 1253SOL    HW2 4659   3.383   6.330   2.081
 1254SOL     OW 4660   0.389   2.661   3.746
 1254SOL    HW1 4661   0.450   2.736   3.720
 1254SOL    HW2 4662   0.399   2.586   3.680
 1255SOL     OW 4663   5.798   1.266   5.794
 1255SOL    HW1 4664   5.869   1.208   5.836
 1255SOL    HW2 4665   5.814   1.361   5.820
 1256SOL     OW 4666   7.007   0.367   3.589
 1256SOL    HW1 4667   7.015   0.268   3.577
 1256SOL    HW2 4668   0.002   0.412   3.502
 1257SOL     OW 4669   6.799   5.276   5.076
 1257SOL    HW1 4670   6.721   5.275   5.140
 1257SOL    HW2 4671   6.823   5.371   5.056
 1258SOL     OW 4672   1.470   5.334   3.125
 1258SOL    HW1 4673   1.444   5.254   3.072
 1258SOL    HW2 4674   1.561   5.364   3.097
 1259SOL     OW 4675   3.519   0.344   4.266
 1259SOL    HW1 4676   3.505   0.439   4.295
 1259SOL    HW2 4677   3.615   0.329   4.245
 1260SOL     OW 4678   3.450   2.076   0.145
 1260SOL    HW1 4679   3.411   2.082   0.237
 1260SOL    HW2 4680   3.522   2.006   0.143
 1261SOL     OW 4681   6.393   5.208   6.703
 1261SOL    HW1 4682   6.381   5.192   6.605
 1261SOL    HW2 4683   6.304   5.202   6.748
 1262SOL     OW 4684   5.525   4.702   1.025
 1262SOL    HW1 4685   5.582   4.665   0.951
 1262SOL    HW2 4686   5.482   4.626   1.074
 1263SOL     OW 4687   6.914   2.288   1.273
 1263SOL    HW1 4688   6.863   2.285   1.359
 1263SOL    HW2 4689   6.950   2.196   1.253
 1264SOL     OW 4690   6.729   3.454   1.344
 1264SOL    HW1 4691   6.760   3.386   1.411
 1264SOL    HW2 4692   6.806   3.513   1.318
 1265SOL     OW 4693   4.845   5.524   3.751
 1265SOL    HW1 4694   4.933   5.494   3.787
 1265SOL    HW2 4695   4.845   5.517   3.651
 1266SOL     OW 4696   0.713   1.371   4.311
 1266SOL    HW1 4697   0.757   1.325   4.234
 1266SOL    HW2 4698   0.651   1.308   4.357
 1267SOL     OW 4699   5.418   6.427   1.251
 1267SOL    HW1 4700   5.324   6.437   1.284
 1267SOL    HW2 4701   5.422   6.353   1.184
 1268SOL     OW 4702   3.935   3.110   0.553
 1268SOL    HW1 4703   3.931   3.010   0.558
 1268SOL    HW2 4704   3.993   3.145   0.626
 1269SOL     OW 4705   5.788   5.294   4.742
 1269SOL    HW1 4706   5.857   5.341   4.686
 1269SOL    HW2 4707   5.782   5.199   4.713
 1270SOL     OW 4708   2.105   4.261   3.339
 1270SOL    HW1 4709   2.159   4.200   3.281
 1270SOL    HW2 4710   2.108   4.354   3.303
 1271SOL     OW 4711   2.709   2.349   3.496
 1271SOL    HW1 4712   2.783   2.297   3.452
 1271SOL    HW2 4713   2.622   2.302   3.481
 1272SOL     OW 4714   5.122   5.555   0.200
 1272SOL    HW1 4715   5.189   5.503   0.254
 1272SOL    HW2 4716   5.151   5.650   0.193
 1273SOL     OW 4717   0.522   4.197   7.003
 1273SOL    HW1 4718   0.454   4.260   0.018
 1273SOL    HW2 4719   0.539   4.220   6.908
 1274SOL     OW 4720   6.631   4.363   1.422
 1274SOL    HW1 4721   6.545   4.317   1.446
 1274SOL    HW2 4722   6.628   4.458   1.451
 1275SOL     OW 4723   3.485   1.855   4.646
 1275SOL    HW1 4724   3.580   1.854   4.616
 1275SOL    HW2 4725   3.451   1.949   4.649
 1276SOL     OW 4726   0.011   6.277   5.084
 1276SOL    HW1 4727   6.960   6.345   5.084
 1276SOL    HW2 4728   0.005   6.221   5.001
 1277SOL     OW 4729   1.411   5.580   6.388
 1277SOL    HW1 4730   1.453   5.590   6.478
 1277SOL    HW2 4731   1.454   5.644   6.323
 1278SOL     OW 4732   0.774   6.864   4.682
 1278SOL    HW1 4733   0.812   6.872   4.774
 1278SOL    HW2 4734   0.840   6.899   4.615
 1279SOL     OW 4735   3.178   6.555   0.365
 1279SOL    HW1 4736   3.100   6.585   0.420
 1279SOL    HW2 4737   3.225   6.634   0.327
 1280SOL     OW 4738   3.260   6.543   5.053
 1280SOL    HW1 4739   3.165   6.548   5.084
 1280SOL    HW2 4740   3.263   6.497   4.964
 1281SOL     OW 4741   1.725   6.457   3.328
 1281SOL    HW1 4742   1.651   6.469   3.393
 1281SOL    HW2 4743   1.779   6.541   3.323
 1282SOL     OW 4744   0.763   2.077   6.829
 1282SOL    HW1 4745   0.708   2.001   6.795
 1282SOL    HW2 4746   0.731   2.162   6.788
 1283SOL     OW 4747   0.391   2.714   5.573
 1283SOL    HW1 4748   0.351   2.681   5.488
 1283SOL    HW2 4749   0.358   2.806   5.592
 1284SOL     OW 4750   4.926   2.084   1.481
 1284SOL    HW1 4751   4.962   2.090   1.575
 1284SOL    HW2 4752   4.875   1.998   1.471
 1285SOL     OW 4753   4.952   1.967   6.521
 1285SOL    HW1 4754   4.862   1.933   6.494
 1285SOL    HW2 4755   4.962   1.960   6.620
 1286SOL     OW 4756   5.090   4.070   2.122
 1286SOL    HW1 4757   5.159   4.040   2.188
 1286SOL    HW2 4758   5.121   4.153   2.076
 1287SOL     OW 4759   5.655   5.899   4.960
 1287SOL    HW1 4760   5.569   5.909   5.012
 1287SOL    HW2 4761   5.678   5.802   4.952
 1288SOL     OW 4762   4.538   3.600   6.899
 1288SOL    HW1 4763   4.623   3.567   6.941
 1288SOL    HW2 4764   4.496   3.526   6.846
 1289SOL     OW 4765   1.038   5.826   2.076
 1289SOL    HW1 4766   1.065   5.918   2.047
 1289SOL    HW2 4767   1.011   5.773   1.995
 1290SOL     OW 4768   0.457   6.163   6.575
 1290SOL    HW1 4769   0.461   6.256   6.539
 1290SOL    HW2 4770   0.542   6.142   6.622
 1291SOL     OW 4771   0.350   3.446   5.371
 1291SOL    HW1 4772   0.266   3.409   5.333
 1291SOL    HW2 4773   0.336   3.541   5.398
 1292SOL     OW 4774   0.233   5.645   2.095
 1292SOL    HW1 4775   0.309   5.694   2.138
 1292SOL    HW2 4776   0.270   5.570   2.040
 1293SOL     OW 4777   1.173   2.145   0.502
 1293SOL    HW1 4778   1.166   2.176   0.408
 1293SOL    HW2 4779   1.111   2.067   0.516
 1294SOL     OW 4780   0.984   3.110   6.479
 1294SOL    HW1 4781   0.983   3.011   6.495
 1294SOL    HW2 4782   1.074   3.137   6.445
 1295SOL     OW 4783   0.192   3.346   1.993
 1295SOL    HW1 4784   0.218   3.260   1.949
 1295SOL    HW2 4785   0.205   3.337   2.092
 1296SOL     OW 4786   3.565   0.170   5.882
 1296SOL    HW1 4787   3.552   0.245   5.947
 1296SOL    HW2 4788   3.663   0.152   5.872
 1297SOL     OW 4789   6.418   0.784   1.578
 1297SOL    HW1 4790   6.439   0.857   1.513
 1297SOL    HW2 4791   6.426   0.819   1.671
 1298SOL     OW 4792   5.420   4.823   2.513
 1298SOL    HW1 4793   5.493   4.874   2.469
 1298SOL    HW2 4794   5.452   4.731   2.535
 1299SOL     OW 4795   1.344   3.970   3.032
 1299SOL    HW1 4796   1.386   4.049   3.077
 1299SOL    HW2 4797   1.245   3.985   3.024
 1300SOL     OW 4798   3.028   2.869   1.156
 1300SOL    HW1 4799   2.971   2.909   1.084
 1300SOL    HW2 4800   2.977   2.871   1.243
 1301SOL     OW 4801   0.798   6.104   1.306
 1301SOL    HW1 4802   0.818   6.106   1.404
 1301SOL    HW2 4803   0.842   6.024   1.264
 1302SOL     OW 4804   4.962   0.732   5.419
 1302SOL    HW1 4805   5.000   0.657   5.364
 1302SOL    HW2 4806   4.926   0.803   5.358
 1303SOL     OW 4807   4.545   1.952   1.636
 1303SOL    HW1 4808   4.474   1.904   1.689
 1303SOL    HW2 4809   4.507   2.036   1.599
 1304SOL     OW 4810   2.183   1.088   6.489
 1304SOL    HW1 4811   2.230   1.173   6.464
 1304SOL    HW2 4812   2.217   1.056   6.577
 1305SOL     OW 4813   5.193   3.247   0.036
 1305SOL    HW1 4814   5.142   3.272   0.119
 1305SOL    HW2 4815   5.151   3.167   7.016
 1306SOL     OW 4816   0.512   4.961   4.013
 1306SOL    HW1 4817   0.546   4.896   4.081
 1306SOL    HW2 4818   0.418   4.987   4.035
 1307SOL     OW 4819   0.874   4.210   4.292
 1307SOL    HW1 4820   0.822   4.139   4.244
 1307SOL    HW2 4821   0.844   4.300   4.260
 1308SOL     OW 4822   5.740   6.626   5.055
 1308SOL    HW1 4823   5.799   6.632   5.135
 1308SOL    HW2 4824   5.793   6.649   4.973
 1309SOL     OW 4825   5.442   3.271   5.408
 1309SOL    HW1 4826   5.393   3.185   5.393
 1309SOL    HW2 4827   5.462   3.281   5.505
 1310SOL     OW 4828   0.025   3.950   3.877
 1310SOL    HW1 4829   6.985   4.022   3.846
 1310SOL    HW2 4830   0.002   3.923   3.970
 1311SOL     OW 4831   0.339   6.531   5.054
 1311SOL    HW1 4832   0.330   6.624   5.018
 1311SOL    HW2 4833   0.254   6.481   5.038
 1312SOL     OW 4834   1.651   0.011   0.067
 1312SOL    HW1 4835   1.628   0.105   0.043
 1312SOL    HW2 4836   1.744   7.013   0.037
 1313SOL     OW 4837   0.682   3.723   3.912
 1313SOL    HW1 4838   0.653   3.644   3.858
 1313SOL    HW2 4839   0.712   3.796   3.852
 1314SOL     OW 4840   4.114   1.381   5.804
 1314SOL    HW1 4841   4.167   1.297   5.819
 1314SOL    HW2 4842   4.163   1.439   5.740
 1315SOL     OW 4843   0.487   1.068   1.426
 1315SOL    HW1 4844   0.573   1.115   1.409
 1315SOL    HW2 4845   0.435   1.118   1.495
 1316SOL     OW 4846   1.828   5.927   4.630
 1316SOL    HW1 4847   1.856   5.920   4.535
 1316SOL    HW2 4848   1.853   5.843   4.679
 1317SOL     OW 4849   2.369   4.610   6.501
 1317SOL    HW1 4850   2.353   4.627   6.599
 1317SOL    HW2 4851   2.466   4.618   6.481
 1318SOL     OW 4852   0.739   1.842   1.363
 1318SOL    HW1 4853   0.669   1.827   1.293
 1318SOL    HW2 4854   0.805   1.910   1.330
 1319SOL     OW 4855   6.787   0.468   0.429
 1319SOL    HW1 4856   6.760   0.450   0.523
 1319SOL    HW2 4857   6.882   0.497   0.426
 1320SOL     OW 4858   4.653   4.279   0.755
 1320SOL    HW1 4859   4.582   4.349   0.762
 1320SOL    HW2 4860   4.743   4.321   0.769
 1321SOL     OW 4861   5.784   1.430   6.547
 1321SOL    HW1 4862   5.844   1.352   6.563
 1321SOL    HW2 4863   5.726   1.412   6.467
 1322SOL     OW 4864   3.952   0.801   3.770
 1322SOL    HW1 4865   4.035   0.833   3.724
 1322SOL    HW2 4866   3.949   0.701   3.769
 1323SOL     OW 4867   5.031   1.027   5.618
 1323SOL    HW1 4868   5.024   0.964   5.540
 1323SOL    HW2 4869   5.122   1.020   5.658
 1324SOL     OW 4870   1.338   3.339   0.529
 1324SOL    HW1 4871   1.285   3.420   0.503
 1324SOL    HW2 4872   1.281   3.280   0.587
 1325SOL     OW 4873   1.986   0.369   2.767
 1325SOL    HW1 4874   2.070   0.413   2.737
 1325SOL    HW2 4875   1.942   0.425   2.838
 1326SOL     OW 4876   4.886   3.349   4.963
 1326SOL    HW1 4877   4.838   3.435   4.984
 1326SOL    HW2 4878   4.857   3.279   5.028
 1327SOL     OW 4879   1.194   5.323   2.376
 1327SOL    HW1 4880   1.259   5.335   2.450
 1327SOL    HW2 4881   1.197   5.403   2.316
 1328SOL     OW 4882   1.420   2.726   0.827
 1328SOL    HW1 4883   1.513   2.749   0.853
 1328SOL    HW2 4884   1.358   2.743   0.904
 1329SOL     OW 4885   0.119   2.564   1.369
 1329SOL    HW1 4886   0.134   2.492   1.301
 1329SOL    HW2 4887   0.094   2.649   1.322
 1330SOL     OW 4888   0.441   1.677   1.860
 1330SOL    HW1 4889   0.468   1.644   1.769
 1330SOL    HW2 4890   0.386   1.760   1.850
 1331SOL     OW 4891   4.951   2.558   3.274
 1331SOL    HW1 4892   4.982   2.469   3.306
 1331SOL    HW2 4893   4.871   2.546   3.215
 1332SOL     OW 4894   2.807   0.196   6.188
 1332SOL    HW1 4895   2.775   0.123   6.129
 1332SOL    HW2 4896   2.737   0.266   6.197
 1333SOL     OW 4897   3.677   4.000   5.362
 1333SOL    HW1 4898   3.622   3.943   5.301
 1333SOL    HW2 4899   3.751   4.043   5.310
 1334SOL     OW 4900   6.436   1.631   4.729
 1334SOL    HW1 4901   6.420   1.624   4.631
 1334SOL    HW2 4902   6.417   1.724   4.760
 1335SOL     OW 4903   2.280   2.257   3.523
 1335SOL    HW1 4904   2.242   2.348   3.506
 1335SOL    HW2 4905   2.206   2.194   3.547
 1336SOL     OW 4906   1.824   1.855   5.321
 1336SOL    HW1 4907   1.765   1.881   5.397
 1336SOL    HW2 4908   1.769   1.836   5.240
 1337SOL     OW 4909   1.945   2.627   4.423
 1337SOL    HW1 4910   1.848   2.624   4.448
 1337SOL    HW2 4911   1.967   2.716   4.382
 1338SOL     OW 4912   5.498   2.058   5.169
 1338SOL    HW1 4913   5.542   1.970   5.153
 1338SOL    HW2 4914   5.568   2.129   5.182
 1339SOL     OW 4915   6.973   1.647   6.039
 1339SOL    HW1 4916   6.980   1.621   5.942
 1339SOL    HW2 4917   7.008   1.740   6.051
 1340SOL     OW 4918   6.948   2.162   2.669
 1340SOL    HW1 4919   0.022   2.172   2.647
 1340SOL    HW2 4920   6.912   2.081   2.623
 1341SOL     OW 4921   5.407   0.176   6.162
 1341SOL    HW1 4922   5.407   0.201   6.259
 1341SOL    HW2 4923   5.418   0.077   6.154
 1342SOL     OW 4924   1.780   5.364   6.165
 1342SOL    HW1 4925   1.854   5.380   6.100
 1342SOL    HW2 4926   1.745   5.452   6.199
 1343SOL     OW 4927   4.765   5.772   3.457
 1343SOL    HW1 4928   4.684   5.752   3.513
 1343SOL    HW2 4929   4.806   5.858   3.488
 1344SOL     OW 4930   6.981   5.591   4.437
 1344SOL    HW1 4931   6.944   5.641   4.359
 1344SOL    HW2 4932   6.974   5.647   4.520
 1345SOL     OW 4933   1.593   0.772   2.635
 1345SOL    HW1 4934   1.603   0.716   2.552
 1345SOL    HW2 4935   1.534   0.726   2.700
 1346SOL     OW 4936   0.849   6.194   4.524
 1346SOL    HW1 4937   0.940   6.184   4.484
 1346SOL    HW2 4938   0.857   6.209   4.622
 1347SOL     OW 4939   6.354   6.758   4.552
 1347SOL    HW1 4940   6.354   6.691   4.626
 1347SOL    HW2 4941   6.273   6.744   4.494
 1348SOL     OW 4942   5.416   5.538   2.552
 1348SOL    HW1 4943   5.443   5.617   2.607
 1348SOL    HW2 4944   5.347   5.485   2.602
 1349SOL     OW 4945   4.678   2.312   5.855
 1349SOL    HW1 4946   4.585   2.328   5.889
 1349SOL    HW2 4947   4.689   2.359   5.768
 1350SOL     OW 4948   5.152   5.245   5.167
 1350SOL    HW1 4949   5.192   5.200   5.087
 1350SOL    HW2 4950   5.199   5.332   5.184
 1351SOL     OW 4951   6.261   1.353   3.498
 1351SOL    HW1 4952   6.207   1.316   3.422
 1351SOL    HW2 4953   6.235   1.308   3.583
 1352SOL     OW 4954   6.760   6.687   2.778
 1352SOL    HW1 4955   6.825   6.743   2.727
 1352SOL    HW2 4956   6.723   6.740   2.854
 1353SOL     OW 4957   0.378   3.335   0.331
 1353SOL    HW1 4958   0.407   3.293   0.245
 1353SOL    HW2 4959   0.335   3.266   0.390
 1354SOL     OW 4960   1.015   3.443   0.452
 1354SOL    HW1 4961   0.920   3.427   0.480
 1354SOL    HW2 4962   1.075   3.422   0.529
 1355SOL     OW 4963   6.562   2.242   5.378
 1355SOL    HW1 4964   6.572   2.187   5.295
 1355SOL    HW2 4965   6.526   2.332   5.354
 1356SOL     OW 4966   2.990   3.276   2.948
 1356SOL    HW1 4967   2.967   3.287   2.852
 1356SOL    HW2 4968   2.979   3.180   2.974
 1357SOL     OW 4969   1.339   3.295   5.286
 1357SOL    HW1 4970   1.412   3.334   5.230
 1357SOL    HW2 4971   1.375   3.274   5.377
 1358SOL     OW 4972   4.350   0.855   5.770
 1358SOL    HW1 4973   4.425   0.919   5.751
 1358SOL    HW2 4974   4.334   0.851   5.868
 1359SOL     OW 4975   5.731   4.378   1.861
 1359SOL    HW1 4976   5.826   4.358   1.884
 1359SOL    HW2 4977   5.679   4.293   1.855
 1360SOL     OW 4978   4.089   2.701   0.391
 1360SOL    HW1 4979   4.065   2.785   0.440
 1360SOL    HW2 4980   4.083   2.624   0.454
 1361SOL     OW 4981   6.640   5.573   4.948
 1361SOL    HW1 4982   6.657   5.565   4.850
 1361SOL    HW2 4983   6.728   5.579   4.997
 1362SOL     OW 4984   2.954   3.746   4.292
 1362SOL    HW1 4985   2.916   3.679   4.356
 1362SOL    HW2 4986   2.930   3.838   4.323
 1363SOL     OW 4987   6.948   5.653   3.351
 1363SOL    HW1 4988   6.948   5.703   3.438
 1363SOL    HW2 4989   6.854   5.636   3.323
 1364SOL     OW 4990   6.418   2.350   1.314
 1364SOL    HW1 4991   6.368   2.429   1.350
 1364SOL    HW2 4992   6.474   2.310   1.387
 1365SOL     OW 4993   0.980   2.707   6.052
 1365SOL    HW1 4994   0.940   2.789   6.009
 1365SOL    HW2 4995   0.939   2.625   6.012
 1366SOL     OW 4996   1.042   4.527   7.019
 1366SOL    HW1 4997   1.030   4.430   0.016
 1366SOL    HW2 4998   1.018   4.545   6.923
 1367SOL     OW 4999   2.051   6.992   2.816
 1367SOL    HW1 5000   2.083   0.033   2.745
 1367SOL    HW2 5001   1.984   0.015   2.874
 1368SOL     OW 5002   6.764   0.360   3.711
 1368SOL    HW1 5003   6.720   0.370   3.622
 1368SOL    HW2 5004   6.863   0.356   3.699
 1369SOL     OW 5005   2.504   0.191   1.916
 1369SOL    HW1 5006   2.525   0.136   1.997
 1369SOL    HW2 5007   2.482   0.130   1.839
 1370SOL     OW 5008   3.893   1.357   1.855
 1370SOL    HW1 5009   3.855   1.418   1.785
 1370SOL    HW2 5010   3.984   1.326   1.826
 1371SOL     OW 5011   6.573   1.353   4.368
 1371SOL    HW1 5012   6.663   1.395   4.358
 1371SOL    HW2 5013   6.503   1.416   4.334
 1372SOL     OW 5014   1.262   2.950   0.755
 1372SOL    HW1 5015   1.339   2.886   0.755
 1372SOL    HW2 5016   1.236   2.972   0.661
 1373SOL     OW 5017   4.835   2.394   6.898
 1373SOL    HW1 5018   4.764   2.338   6.940
 1373SOL    HW2 5019   4.918   2.338   6.885
 1374SOL     OW 5020   4.902   1.715   0.067
 1374SOL    HW1 5021   4.866   1.675   7.006
 1374SOL    HW2 5022   4.964   1.649   0.112
 1375SOL     OW 5023   0.683   4.462   6.571
 1375SOL    HW1 5024   0.761   4.459   6.508
 1375SOL    HW2 5025   0.613   4.398   6.540
 1376SOL     OW 5026   4.479   4.818   5.118
 1376SOL    HW1 5027   4.412   4.886   5.090
 1376SOL    HW2 5028   4.537   4.795   5.040
 1377SOL     OW 5029   0.810   3.382   5.791
 1377SOL    HW1 5030   0.850   3.301   5.834
 1377SOL    HW2 5031   0.881   3.428   5.737
 1378SOL     OW 5032   6.042   1.265   5.091
 1378SOL    HW1 5033   6.089   1.244   5.006
 1378SOL    HW2 5034   6.057   1.191   5.157
 1379SOL     OW 5035   3.569   0.018   3.203
 1379SOL    HW1 5036   3.627   6.959   3.207
 1379SOL    HW2 5037   3.486   7.020   3.152
 1380SOL     OW 5038   0.053   6.921   2.381
 1380SOL    HW1 5039   6.985   6.954   2.405
 1380SOL    HW2 5040   0.045   6.842   2.320
 1381SOL     OW 5041   5.779   2.267   6.696
 1381SOL    HW1 5042   5.716   2.192   6.678
 1381SOL    HW2 5043   5.873   2.234   6.689
 1382SOL     OW 5044   4.575   3.458   0.302
 1382SOL    HW1 5045   4.604   3.530   0.239
 1382SOL    HW2 5046   4.530   3.385   0.250
 1383SOL     OW 5047   0.870   0.200   2.170
 1383SOL    HW1 5048   0.816   0.157   2.098
 1383SOL    HW2 5049   0.812   0.263   2.222
 1384SOL     OW 5050   4.808   0.299   1.862
 1384SOL    HW1 5051   4.831   0.243   1.782
 1384SOL    HW2 5052   4.831   0.248   1.945
 1385SOL     OW 5053   2.078   4.579   3.418
 1385SOL    HW1 5054   2.044   4.608   3.329
 1385SOL    HW2 5055   2.058   4.649   3.486
 1386SOL     OW 5056   3.238   0.388   4.643
 1386SOL    HW1 5057   3.303   0.332   4.591
 1386SOL    HW2 5058   3.146   0.350   4.632
 1387SOL     OW 5059   3.230   6.010   2.123
 1387SOL    HW1 5060   3.220   6.097   2.172
 1387SOL    HW2 5061   3.269   6.027   2.033
 1388SOL     OW 5062   0.528   0.341   3.123
 1388SOL    HW1 5063   0.598   0.363   3.056
 1388SOL    HW2 5064   0.550   0.385   3.210
 1389SOL     OW 5065   6.579   1.290   4.075
 1389SOL    HW1 5066   6.546   1.303   4.169
 1389SOL    HW2 5067   6.543   1.204   4.039
 1390SOL     OW 5068   6.463   2.896   6.146
 1390SOL    HW1 5069   6.410   2.905   6.063
 1390SOL    HW2 5070   6.410   2.929   6.224
 1391SOL     OW 5071   5.811   6.549   5.585
 1391SOL    HW1 5072   5.745   6.489   5.631
 1391SOL    HW2 5073   5.861   6.496   5.516
 1392SOL     OW 5074   5.485   6.664   6.242
 1392SOL    HW1 5075   5.555   6.614   6.192
 1392SOL    HW2 5076   5.433   6.601   6.299
 1393SOL     OW 5077   6.508   3.796   5.916
 1393SOL    HW1 5078   6.570   3.856   5.967
 1393SOL    HW2 5079   6.529   3.803   5.818
 1394SOL     OW 5080   3.844   6.015   4.891
 1394SOL    HW1 5081   3.788   5.980   4.966
 1394SOL    HW2 5082   3.792   6.081   4.838
 1395SOL     OW 5083   1.785   4.328   3.882
 1395SOL    HW1 5084   1.841   4.347   3.801
 1395SOL    HW2 5085   1.837   4.349   3.964
 1396SOL     OW 5086   0.650   0.338   4.645
 1396SOL    HW1 5087   0.648   0.271   4.571
 1396SOL    HW2 5088   0.578   0.406   4.631
 1397SOL     OW 5089   0.279   5.809   4.228
 1397SOL    HW1 5090   0.213   5.770   4.164
 1397SOL    HW2 5091   0.290   5.907   4.209
 1398SOL     OW 5092   2.550   1.472   0.023
 1398SOL    HW1 5093   2.541   1.476   6.946
 1398SOL    HW2 5094   2.503   1.391   0.058
 1399SOL     OW 5095   3.887   6.536   0.207
 1399SOL    HW1 5096   3.937   6.451   0.191
 1399SOL    HW2 5097   3.860   6.577   0.120
 1400SOL     OW 5098   0.549   1.619   4.717
 1400SOL    HW1 5099   0.493   1.686   4.767
 1400SOL    HW2 5100   0.490   1.545   4.685
 1401SOL     OW 5101   5.582   0.296   4.711
 1401SOL    HW1 5102   5.678   0.267   4.713
 1401SOL    HW2 5103   5.553   0.309   4.617
 1402SOL     OW 5104   5.525   4.626   6.551
 1402SOL    HW1 5105   5.445   4.610   6.492
 1402SOL    HW2 5106   5.579   4.701   6.513
 1403SOL     OW 5107   1.913   2.074   1.282
 1403SOL    HW1 5108   2.001   2.038   1.249
 1403SOL    HW2 5109   1.930   2.145   1.350
 1404SOL     OW 5110   6.720   0.461   6.940
 1404SOL    HW1 5111   6.744   0.558   6.946
 1404SOL    HW2 5112   6.637   0.450   6.886
 1405SOL     OW 5113   2.908   4.154   1.003
 1405SOL    HW1 5114   2.835   4.222   1.000
 1405SOL    HW2 5115   2.916   4.111   0.913
 1406SOL     OW 5116   1.806   5.371   1.154
 1406SOL    HW1 5117   1.798   5.276   1.123
 1406SOL    HW2 5118   1.902   5.400   1.149
 1407SOL     OW 5119   1.446   4.146   3.214
 1407SOL    HW1 5120   1.518   4.139   3.284
 1407SOL    HW2 5121   1.358   4.161   3.259
 1408SOL     OW 5122   5.613   6.834   6.453
 1408SOL    HW1 5123   5.581   6.843   6.359
 1408SOL    HW2 5124   5.535   6.833   6.515
 1409SOL     OW 5125   1.059   7.000   5.287
 1409SOL    HW1 5126   1.141   0.010   5.336
 1409SOL    HW2 5127   1.044   0.035   5.207
 1410SOL     OW 5128   2.159   4.119   6.315
 1410SOL    HW1 5129   2.230   4.187   6.333
 1410SOL    HW2 5130   2.200   4.041   6.267
 1411SOL     OW 5131   3.525   6.298   0.274
 1411SOL    HW1 5132   3.454   6.230   0.257
 1411SOL    HW2 5133   3.492   6.389   0.247
 1412SOL     OW 5134   0.744   4.045   1.283
 1412SOL    HW1 5135   0.694   4.124   1.247
 1412SOL    HW2 5136   0.798   4.004   1.210
 1413SOL     OW 5137   2.303   1.574   4.815
 1413SOL    HW1 5138   2.221   1.630   4.804
 1413SOL    HW2 5139   2.363   1.616   4.883
 1414SOL     OW 5140   2.610   1.814   1.706
 1414SOL    HW1 5141   2.644   1.846   1.795
 1414SOL    HW2 5142   2.513   1.836   1.698
 1415SOL     OW 5143   3.127   1.497   4.012
 1415SOL    HW1 5144   3.135   1.556   3.931
 1415SOL    HW2 5145   3.125   1.401   3.984
 1416SOL     OW 5146   3.791   6.650   4.630
 1416SOL    HW1 5147   3.888   6.636   4.651
 1416SOL    HW2 5148   3.769   6.747   4.637
 1417SOL     OW 5149   3.159   2.696   6.611
 1417SOL    HW1 5150   3.241   2.649   6.642
 1417SOL    HW2 5151   3.090   2.629   6.584
 1418SOL     OW 5152   2.889   3.596   1.123
 1418SOL    HW1 5153   2.821   3.602   1.196
 1418SOL    HW2 5154   2.854   3.539   1.049
 1419SOL     OW 5155   3.368   5.924   4.219
 1419SOL    HW1 5156   3.367   5.999   4.153
 1419SOL    HW2 5157   3.333   5.841   4.174
 1420SOL     OW 5158   3.616   6.267   3.316
 1420SOL    HW1 5159   3.522   6.259   3.350
 1420SOL    HW2 5160   3.659   6.348   3.355
 1421SOL     OW 5161   1.163   4.045   4.192
 1421SOL    HW1 5162   1.236   4.105   4.225
 1421SOL    HW2 5163   1.092   4.038   4.261
 1422SOL     OW 5164   2.823   4.424   6.638
 1422SOL    HW1 5165   2.888   4.400   6.565
 1422SOL    HW2 5166   2.814   4.348   6.701
 1423SOL     OW 5167   4.159   0.858   4.573
 1423SOL    HW1 5168   4.205   0.918   4.507
 1423SOL    HW2 5169   4.091   0.911   4.624
 1424SOL     OW 5170   0.001   4.160   6.662
 1424SOL    HW1 5171   0.063   4.082   6.672
 1424SOL    HW2 5172   0.032   4.217   6.585
 1425SOL     OW 5173   2.373   5.327   5.106
 1425SOL    HW1 5174   2.380   5.426   5.098
 1425SOL    HW2 5175   2.314   5.303   5.184
 1426SOL     OW 5176   2.477   2.169   5.851
 1426SOL    HW1 5177   2.557   2.120   5.818
 1426SOL    HW2 5178   2.394   2.125   5.815
 1427SOL     OW 5179   6.714   6.612   3.792
 1427SOL    HW1 5180   6.647   6.610   3.867
 1427SOL    HW2 5181   6.761   6.524   3.788
 1428SOL     OW 5182   0.779   2.187   1.725
 1428SOL    HW1 5183   0.767   2.088   1.738
 1428SOL    HW2 5184   0.739   2.236   1.802
 1429SOL     OW 5185   5.829   1.816   6.991
 1429SOL    HW1 5186   5.768   1.893   6.975
 1429SOL    HW2 5187   5.916   1.849   0.005
 1430SOL     OW 5188   2.081   5.109   3.748
 1430SOL    HW1 5189   2.179   5.093   3.763
 1430SOL    HW2 5190   2.031   5.024   3.762
 1431SOL     OW 5191   2.886   2.625   6.999
 1431SOL    HW1 5192   2.935   2.543   0.004
 1431SOL    HW2 5193   2.837   2.663   0.054
 1432SOL     OW 5194   3.441   0.957   0.846
 1432SOL    HW1 5195   3.342   0.947   0.851
 1432SOL    HW2 5196   3.484   0.898   0.914
 1433SOL     OW 5197   4.772   0.783   4.803
 1433SOL    HW1 5198   4.745   0.834   4.721
 1433SOL    HW2 5199   4.850   0.828   4.846
 1434SOL     OW 5200   0.648   1.118   6.275
 1434SOL    HW1 5201   0.613   1.040   6.326
 1434SOL    HW2 5202   0.591   1.134   6.194
 1435SOL     OW 5203   6.237   7.002   3.110
 1435SOL    HW1 5204   6.303   0.029   3.168
 1435SOL    HW2 5205   6.144   0.004   3.138
 1436SOL     OW 5206   5.445   4.159   6.900
 1436SOL    HW1 5207   5.469   4.175   6.804
 1436SOL    HW2 5208   5.440   4.061   6.918
 1437SOL     OW 5209   3.628   1.639   6.264
 1437SOL    HW1 5210   3.677   1.668   6.347
 1437SOL    HW2 5211   3.683   1.571   6.216
 1438SOL     OW 5212   2.487   0.145   1.121
 1438SOL    HW1 5213   2.479   0.245   1.126
 1438SOL    HW2 5214   2.566   0.121   1.064
 1439SOL     OW 5215   0.151   4.554   0.552
 1439SOL    HW1 5216   0.143   4.494   0.631
 1439SOL    HW2 5217   0.082   4.626   0.558
 1440SOL     OW 5218   2.919   2.709   6.022
 1440SOL    HW1 5219   2.912   2.805   5.995
 1440SOL    HW2 5220   2.911   2.701   6.121
 1441SOL     OW 5221   6.168   3.255   3.824
 1441SOL    HW1 5222   6.226   3.337   3.821
 1441SOL    HW2 5223   6.111   3.258   3.906
 1442SOL     OW 5224   6.313   5.161   0.062
 1442SOL    HW1 5225   6.326   5.066   0.031
 1442SOL    HW2 5226   6.396   5.192   0.109
 1443SOL     OW 5227   0.797   2.948   4.953
 1443SOL    HW1 5228   0.749   2.866   4.983
 1443SOL    HW2 5229   0.759   3.028   4.999
 1444SOL     OW 5230   4.482   5.545   1.076
 1444SOL    HW1 5231   4.536   5.465   1.100
 1444SOL    HW2 5232   4.533   5.628   1.100
 1445SOL     OW 5233   0.040   2.631   1.637
 1445SOL    HW1 5234   6.999   2.700   1.604
 1445SOL    HW2 5235   0.076   2.578   1.559
 1446SOL     OW 5236   4.924   1.982   6.804
 1446SOL    HW1 5237   4.998   1.966   6.868
 1446SOL    HW2 5238   4.843   2.013   6.854
 1447SOL     OW 5239   6.028   6.482   5.940
 1447SOL    HW1 5240   6.060   6.408   5.882
 1447SOL    HW2 5241   6.106   6.527   5.983
 1448SOL     OW 5242   6.655   2.761   0.138
 1448SOL    HW1 5243   6.601   2.844   0.123
 1448SOL    HW2 5244   6.704   2.768   0.225
 1449SOL     OW 5245   6.797   0.909   6.868
 1449SOL    HW1 5246   6.819   0.959   6.784
 1449SOL    HW2 5247   6.879   0.899   6.923
 1450SOL     OW 5248   0.960   2.817   1.964
 1450SOL    HW1 5249   0.990   2.814   2.060
 1450SOL    HW2 5250   1.030   2.777   1.906
 1451SOL     OW 5251   2.675   1.091   2.475
 1451SOL    HW1 5252   2.699   1.030   2.400
 1451SOL    HW2 5253   2.651   1.181   2.439
 1452SOL     OW 5254   4.228   1.053   4.347
 1452SOL    HW1 5255   4.319   1.025   4.315
 1452SOL    HW2 5256   4.221   1.153   4.345
 1453SOL     OW 5257   6.914   3.059   5.146
 1453SOL    HW1 5258   7.012   3.076   5.152
 1453SOL    HW2 5259   6.886   2.999   5.220
 1454SOL     OW 5260   6.491   2.478   3.090
 1454SOL    HW1 5261   6.584   2.460   3.058
 1454SOL    HW2 5262   6.449   2.547   3.030
 1455SOL     OW 5263   1.223   0.480   1.382
 1455SOL    HW1 5264   1.210   0.573   1.418
 1455SOL    HW2 5265   1.211   0.414   1.456
 1456SOL     OW 5266   6.504   6.884   5.210
 1456SOL    HW1 5267   6.508   6.819   5.286
 1456SOL    HW2 5268   6.569   6.857   5.139
 1457SOL     OW 5269   1.289   6.928   1.266
 1457SOL    HW1 5270   1.245   6.910   1.355
 1457SOL    HW2 5271   1.239   7.000   1.218
 1458SOL     OW 5272   5.945   5.964   3.559
 1458SOL    HW1 5273   6.004   6.038   3.590
 1458SOL    HW2 5274   5.980   5.876   3.592
 1459SOL     OW 5275   2.585   5.216   5.412
 1459SOL    HW1 5276   2.495   5.179   5.436
 1459SOL    HW2 5277   2.575   5.308   5.374
 1460SOL     OW 5278   0.465   5.380   6.031
 1460SOL    HW1 5279   0.469   5.404   5.934
 1460SOL    HW2 5280   0.555   5.392   6.072
 1461SOL     OW 5281   0.575   5.438   3.835
 1461SOL    HW1 5282   0.555   5.359   3.776
 1461SOL    HW2 5283   0.504   5.507   3.823
 1462SOL     OW 5284   1.300   1.140   5.981
 1462SOL    HW1 5285   1.232   1.114   5.912
 1462SOL    HW2 5286   1.254   1.167   6.065
 1463SOL     OW 5287   0.256   5.298   0.058
 1463SOL    HW1 5288   0.254   5.313   0.157
 1463SOL    HW2 5289   0.336   5.343   0.020
 1464SOL     OW 5290   6.167   6.693   1.027
 1464SOL    HW1 5291   6.094   6.735   0.972
 1464SOL    HW2 5292   6.164   6.731   1.120
 1465SOL     OW 5293   1.765   1.667   3.934
 1465SOL    HW1 5294   1.688   1.606   3.915
 1465SOL    HW2 5295   1.851   1.615   3.928
 1466SOL     OW 5296   1.300   1.402   2.335
 1466SOL    HW1 5297   1.282   1.389   2.237
 1466SOL    HW2 5298   1.313   1.313   2.378
 1467SOL     OW 5299   1.931   2.066   1.928
 1467SOL    HW1 5300   1.970   2.132   1.992
 1467SOL    HW2 5301   1.945   2.098   1.834
 1468SOL     OW 5302   5.765   5.527   2.823
 1468SOL    HW1 5303   5.731   5.548   2.914
 1468SOL    HW2 5304   5.807   5.609   2.783
 1469SOL     OW 5305   0.822   1.223   2.061
 1469SOL    HW1 5306   0.820   1.246   1.964
 1469SOL    HW2 5307   0.811   1.307   2.115
 1470SOL     OW 5308   1.695   1.426   2.302
 1470SOL    HW1 5309   1.709   1.401   2.397
 1470SOL    HW2 5310   1.601   1.458   2.289
 1471SOL     OW 5311   1.285   0.366   0.407
 1471SOL    HW1 5312   1.290   0.442   0.472
 1471SOL    HW2 5313   1.193   0.362   0.367
 1472SOL     OW 5314   3.872   5.575   5.006
 1472SOL    HW1 5315   3.901   5.608   4.916
 1472SOL    HW2 5316   3.893   5.644   5.075
 1473SOL     OW 5317   5.333   6.557   3.941
 1473SOL    HW1 5318   5.268   6.485   3.966
 1473SOL    HW2 5319   5.405   6.563   4.010
 1474SOL     OW 5320   6.228   5.748   3.022
 1474SOL    HW1 5321   6.182   5.687   3.086
 1474SOL    HW2 5322   6.238   5.838   3.064
 1475SOL     OW 5323   6.456   0.530   1.953
 1475SOL    HW1 5324   6.470   0.594   2.028
 1475SOL    HW2 5325   6.535   0.469   1.945
 1476SOL     OW 5326   2.404   1.304   1.429
 1476SOL    HW1 5327   2.392   1.356   1.514
 1476SOL    HW2 5328   2.406   1.367   1.352
 1477SOL     OW 5329   3.305   1.156   6.653
 1477SOL    HW1 5330   3.273   1.063   6.635
 1477SOL    HW2 5331   3.244   1.199   6.720
 1478SOL     OW 5332   5.892   5.344   0.027
 1478SOL    HW1 5333   5.942   5.271   0.073
 1478SOL    HW2 5334   5.851   5.405   0.095
 1479SOL     OW 5335   1.590   3.225   0.042
 1479SOL    HW1 5336   1.513   3.270   0.088
 1479SOL    HW2 5337   1.624   3.285   6.992
 1480SOL     OW 5338   3.501   0.029   6.159
 1480SOL    HW1 5339   3.531   7.002   6.077
 1480SOL    HW2 5340   3.444   0.107   6.132
 1481SOL     OW 5341   0.115   2.401   5.593
 1481SOL    HW1 5342   0.017   2.385   5.586
 1481SOL    HW2 5343   0.139   2.419   5.689
 1482SOL     OW 5344   5.048   2.251   0.898
 1482SOL    HW1 5345   4.954   2.252   0.866
 1482SOL    HW2 5346   5.051   2.272   0.996
 1483SOL     OW 5347   5.682   2.023   6.144
 1483SOL    HW1 5348   5.683   1.923   6.139
 1483SOL    HW2 5349   5.754   2.054   6.206
 1484SOL     OW 5350   5.793   5.098   3.787
 1484SOL    HW1 5351   5.846   5.014   3.785
 1484SOL    HW2 5352   5.814   5.150   3.870
 1485SOL     OW 5353   3.179   1.865   3.075
 1485SOL    HW1 5354   3.080   1.864   3.092
 1485SOL    HW2 5355   3.220   1.938   3.129
 1486SOL     OW 5356   4.813   2.146   3.230
 1486SOL    HW1 5357   4.884   2.216   3.218
 1486SOL    HW2 5358   4.788   2.141   3.327
 1487SOL     OW 5359   6.787   3.173   6.624
 1487SOL    HW1 5360   6.857   3.238   6.653
 1487SOL    HW2 5361   6.736   3.140   6.703
 1488SOL     OW 5362   5.547   1.854   3.424
 1488SOL    HW1 5363   5.596   1.864   3.510
 1488SOL    HW2 5364   5.497   1.939   3.404
 1489SOL     OW 5365   3.897   5.257   3.725
 1489SOL    HW1 5366   3.870   5.253   3.822
 1489SOL    HW2 5367   3.818   5.238   3.668
 1490SOL     OW 5368   1.109   2.876   0.982
 1490SOL    HW1 5369   1.178   2.814   1.019
 1490SOL    HW2 5370   1.143   2.916   0.897
 1491SOL     OW 5371   6.571   3.937   3.696
 1491SOL    HW1 5372   6.599   3.932   3.792
 1491SOL    HW2 5373   6.503   3.866   3.677
 1492SOL     OW 5374   5.567   1.350   2.642
 1492SOL    HW1 5375   5.564   1.423   2.574
 1492SOL    HW2 5376   5.511   1.377   2.721
 1493SOL     OW 5377   4.432   0.421   4.088
 1493SOL    HW1 5378   4.518   0.420   4.139
 1493SOL    HW2 5379   4.357   0.397   4.150
 1494SOL     OW 5380   5.945   1.718   5.494
 1494SOL    HW1 5381   5.941   1.817   5.481
 1494SOL    HW2 5382   5.925   1.697   5.590
 1495SOL     OW 5383   6.628   2.571   5.057
 1495SOL    HW1 5384   6.707   2.514   5.080
 1495SOL    HW2 5385   6.641   2.663   5.096
 1496SOL     OW 5386   0.699   1.743   1.971
 1496SOL    HW1 5387   0.750   1.657   1.967
 1496SOL    HW2 5388   0.603   1.726   1.948
 1497SOL     OW 5389   6.925   3.164   3.729
 1497SOL    HW1 5390   6.999   3.160   3.796
 1497SOL    HW2 5391   6.843   3.202   3.771
 1498SOL     OW 5392   1.965   4.747   6.216
 1498SOL    HW1 5393   1.944   4.717   6.123
 1498SOL    HW2 5394   2.060   4.725   6.237
 1499SOL     OW 5395   1.134   3.549   6.339
 1499SOL    HW1 5396   1.141   3.512   6.432
 1499SOL    HW2 5397   1.203   3.620   6.326
 1500SOL     OW 5398   6.729   6.086   6.803
 1500SOL    HW1 5399   6.800   6.154   6.786
 1500SOL    HW2 5400   6.640   6.123   6.778
 1501SOL     OW 5401   5.650   1.724   6.142
 1501SOL    HW1 5402   5.696   1.711   6.230
 1501SOL    HW2 5403   5.572   1.663   6.136
 1502SOL     OW 5404   5.802   0.493   1.208
 1502SOL    HW1 5405   5.800   0.593   1.221
 1502SOL    HW2 5406   5.714   0.463   1.172
 1503SOL     OW 5407   1.739   1.926   2.032
 1503SOL    HW1 5408   1.821   1.958   1.986
 1503SOL    HW2 5409   1.744   1.827   2.044
 1504SOL     OW 5410   0.944   0.377   5.036
 1504SOL    HW1 5411   0.947   0.446   5.108
 1504SOL    HW2 5412   0.860   0.388   4.983
 1505SOL     OW 5413   5.976   0.476   5.840
 1505SOL    HW1 5414   6.066   0.434   5.842
 1505SOL    HW2 5415   5.970   0.546   5.911
 1506SOL     OW 5416   1.804   5.123   1.065
 1506SOL    HW1 5417   1.840   5.087   1.151
 1506SOL    HW2 5418   1.732   5.062   1.031
 1507SOL     OW 5419   1.064   1.781   5.675
 1507SOL    HW1 5420   0.984   1.840   5.668
 1507SOL    HW2 5421   1.047   1.694   5.629
 1508SOL     OW 5422   6.692   0.354   1.952
 1508SOL    HW1 5423   6.708   0.335   1.855
 1508SOL    HW2 5424   6.702   0.269   2.004
 1509SOL     OW 5425   4.709   2.701   5.738
 1509SOL    HW1 5426   4.796   2.665   5.705
 1509SOL    HW2 5427   4.700   2.683   5.835
 1510SOL     OW 5428   5.541   2.613   5.052
 1510SOL    HW1 5429   5.574   2.596   4.959
 1510SOL    HW2 5430   5.619   2.612   5.115
 1511SOL     OW 5431   3.314   2.981   1.485
 1511SOL    HW1 5432   3.304   2.972   1.585
 1511SOL    HW2 5433   3.302   2.892   1.442
 1512SOL     OW 5434   0.714   5.078   1.405
 1512SOL    HW1 5435   0.639   5.064   1.341
 1512SOL    HW2 5436   0.678   5.091   1.497
 1513SOL     OW 5437   3.402   1.007   3.594
 1513SOL    HW1 5438   3.486   0.969   3.558
 1513SOL    HW2 5439   3.331   0.937   3.596
 1514SOL     OW 5440   4.937   2.142   5.878
 1514SOL    HW1 5441   4.989   2.166   5.960
 1514SOL    HW2 5442   4.850   2.191   5.878
 1515SOL     OW 5443   5.838   2.414   5.059
 1515SOL    HW1 5444   5.917   2.405   4.997
 1515SOL    HW2 5445   5.763   2.459   5.011
 1516SOL     OW 5446   0.043   0.195   0.453
 1516SOL    HW1 5447   7.007   0.196   0.533
 1516SOL    HW2 5448   0.051   0.102   0.418
 1517SOL     OW 5449   4.215   6.310   3.674
 1517SOL    HW1 5450   4.139   6.245   3.677
 1517SOL    HW2 5451   4.256   6.310   3.582
 1518SOL     OW 5452   1.181   3.082   0.031
 1518SOL    HW1 5453   1.220   3.093   6.962
 1518SOL    HW2 5454   1.240   3.126   0.098
 1519SOL     OW 5455   6.085   4.862   2.015
 1519SOL    HW1 5456   6.084   4.938   1.950
 1519SOL    HW2 5457   6.050   4.893   2.103
 1520SOL     OW 5458   0.107   3.624   2.434
 1520SOL    HW1 5459   0.170   3.666   2.498
 1520SOL    HW2 5460   0.134   3.529   2.417
 1521SOL     OW 5461   2.088   4.079   0.413
 1521SOL    HW1 5462   2.021   4.054   0.483
 1521SOL    HW2 5463   2.056   4.047   0.323
 1522SOL     OW 5464   6.141   6.817   4.830
 1522SOL    HW1 5465   6.166   6.737   4.776
 1522SOL    HW2 5466   6.218   6.844   4.888
 1523SOL     OW 5467   4.869   4.604   0.058
 1523SOL    HW1 5468   4.967   4.588   0.044
 1523SOL    HW2 5469   4.827   4.521   0.094
 1524SOL     OW 5470   1.264   2.061   2.004
 1524SOL    HW1 5471   1.303   2.136   2.057
 1524SOL    HW2 5472   1.287   2.073   1.907
 1525SOL     OW 5473   6.702   2.533   0.420
 1525SOL    HW1 5474   6.724   2.485   0.504
 1525SOL    HW2 5475   6.744   2.486   0.342
 1526SOL     OW 5476   0.528   6.741   6.569
 1526SOL    HW1 5477   0.574   6.676   6.629
 1526SOL    HW2 5478   0.433   6.714   6.558
 1527SOL     OW 5479   3.798   0.760   5.643
 1527SOL    HW1 5480   3.747   0.816   5.708
 1527SOL    HW2 5481   3.819   0.814   5.561
 1528SOL     OW 5482   4.915   5.856   2.372
 1528SOL    HW1 5483   4.845   5.793   2.408
 1528SOL    HW2 5484   4.992   5.803   2.338
 1529SOL     OW 5485   3.935   0.155   0.563
 1529SOL    HW1 5486   3.883   0.227   0.608
 1529SOL    HW2 5487   4.017   0.134   0.617
 1530SOL     OW 5488   3.188   1.410   2.965
 1530SOL    HW1 5489   3.095   1.375   2.954
 1530SOL    HW2 5490   3.195   1.460   3.051
 1531SOL     OW 5491   5.253   0.993   4.917
 1531SOL    HW1 5492   5.234   0.929   4.842
 1531SOL    HW2 5493   5.256   1.086   4.881
 1532SOL     OW 5494   2.696   3.643   5.956
 1532SOL    HW1 5495   2.716   3.718   6.019
 1532SOL    HW2 5496   2.612   3.597   5.985
 1533SOL     OW 5497   6.627   3.216   0.134
 1533SOL    HW1 5498   6.704   3.169   0.175
 1533SOL    HW2 5499   6.557   3.149   0.106
 1534SOL     OW 5500   1.691   5.143   6.507
 1534SOL    HW1 5501   1.723   5.104   6.593
 1534SOL    HW2 5502   1.733   5.093   6.431
 1535SOL     OW 5503   4.777   6.314   4.656
 1535SOL    HW1 5504   4.705   6.384   4.655
 1535SOL    HW2 5505   4.813   6.301   4.564
 1536SOL     OW 5506   4.074   4.243   5.246
 1536SOL    HW1 5507   4.123   4.174   5.301
 1536SOL    HW2 5508   4.137   4.316   5.221
 1537SOL     OW 5509   4.040   6.095   3.618
 1537SOL    HW1 5510   3.995   6.006   3.624
 1537SOL    HW2 5511   3.971   6.165   3.598
 1538SOL     OW 5512   3.641   5.938   5.056
 1538SOL    HW1 5513   3.648   5.915   5.153
 1538SOL    HW2 5514   3.598   5.861   5.007
 1539SOL     OW 5515   4.281   3.619   1.679
 1539SOL    HW1 5516   4.357   3.639   1.741
 1539SOL    HW2 5517   4.288   3.676   1.598
 1540SOL     OW 5518   1.762   6.367   6.046
 1540SOL    HW1 5519   1.667   6.337   6.032
 1540SOL    HW2 5520   1.810   6.299   6.101
 1541SOL     OW 5521   3.358   3.213   2.542
 1541SOL    HW1 5522   3.262   3.189   2.529
 1541SOL    HW2 5523   3.399   3.151   2.610
 1542SOL     OW 5524   6.604   5.847   1.647
 1542SOL    HW1 5525   6.580   5.844   1.744
 1542SOL    HW2 5526   6.591   5.940   1.612
 1543SOL     OW 5527   3.194   3.681   4.705
 1543SOL    HW1 5528   3.274   3.740   4.715
 1543SOL    HW2 5529   3.111   3.734   4.722
 1544SOL     OW 5530   3.500   4.145   2.473
 1544SOL    HW1 5531   3.454   4.056   2.480
 1544SOL    HW2 5532   3.502   4.174   2.377
 1545SOL     OW 5533   5.483   0.983   4.226
 1545SOL    HW1 5534   5.494   1.003   4.129
 1545SOL    HW2 5535   5.570   0.953   4.264
 1546SOL     OW 5536   4.900   6.759   6.139
 1546SOL    HW1 5537   4.853   6.820   6.202
 1546SOL    HW2 5538   4.951   6.690   6.191
 1547SOL     OW 5539   1.823   3.956   3.008
 1547SOL    HW1 5540   1.784   4.047   2.992
 1547SOL    HW2 5541   1.843   3.913   2.920
 1548SOL     OW 5542   4.572   4.249   5.895
 1548SOL    HW1 5543   4.669   4.242   5.872
 1548SOL    HW2 5544   4.520   4.279   5.815
 1549SOL     OW 5545   3.978   1.226   2.827
 1549SOL    HW1 5546   3.925   1.149   2.792
 1549SOL    HW2 5547   3.917   1.288   2.877
 1550SOL     OW 5548   2.363   5.079   6.036
 1550SOL    HW1 5549   2.445   5.117   6.080
 1550SOL    HW2 5550   2.361   5.107   5.940
 1551SOL     OW 5551   2.334   4.185   6.854
 1551SOL    HW1 5552   2.302   4.279   6.859
 1551SOL    HW2 5553   2.297   4.141   6.772
 1552SOL     OW 5554   0.308   0.187   1.103
 1552SOL    HW1 5555   0.254   0.158   1.024
 1552SOL    HW2 5556   0.352   0.275   1.083
 1553SOL     OW 5557   0.134   0.535   5.637
 1553SOL    HW1 5558   0.084   0.454   5.605
 1553SOL    HW2 5559   0.149   0.527   5.736
 1554SOL     OW 5560   3.697   1.788   3.585
 1554SOL    HW1 5561   3.608   1.763   3.623
 1554SOL    HW2 5562   3.723   1.721   3.515
 1555SOL     OW 5563   5.105   1.940   7.000
 1555SOL    HW1 5564   5.055   1.855   7.018
 1555SOL    HW2 5565   5.077   2.010   0.043
 1556SOL     OW 5566   3.756   0.912   0.491
 1556SOL    HW1 5567   3.659   0.906   0.514
 1556SOL    HW2 5568   3.792   1.001   0.520
 1557SOL     OW 5569   2.368   1.141   6.912
 1557SOL    HW1 5570   2.458   1.168   6.879
 1557SOL    HW2 5571   2.326   1.076   6.848
 1558SOL     OW 5572   5.275   1.093   3.866
 1558SOL    HW1 5573   5.239   1.064   3.955
 1558SOL    HW2 5574   5.360   1.144   3.880
 1559SOL     OW 5575   0.262   2.766   0.256
 1559SOL    HW1 5576   0.174   2.760   0.209
 1559SOL    HW2 5577   0.304   2.855   0.237
 1560SOL     OW 5578   3.537   1.309   5.952
 1560SOL    HW1 5579   3.501   1.216   5.957
 1560SOL    HW2 5580   3.499   1.355   5.872
 1561SOL     OW 5581   6.483   6.478   2.432
 1561SOL    HW1 5582   6.580   6.475   2.408
 1561SOL    HW2 5583   6.457   6.393   2.478
 1562SOL     OW 5584   4.403   6.288   1.361
 1562SOL    HW1 5585   4.428   6.383   1.341
 1562SOL    HW2 5586   4.392   6.238   1.275
 1563SOL     OW 5587   2.492   0.998   6.078
 1563SOL    HW1 5588   2.397   0.981   6.103
 1563SOL    HW2 5589   2.498   1.013   5.979
 1564SOL     OW 5590   1.131   2.693   2.553
 1564SOL    HW1 5591   1.191   2.613   2.551
 1564SOL    HW2 5592   1.112   2.717   2.649
 1565SOL     OW 5593   4.413   5.391   3.857
 1565SOL    HW1 5594   4.432   5.429   3.947
 1565SOL    HW2 5595   4.478   5.427   3.791
 1566SOL     OW 5596   5.492   4.992   4.299
 1566SOL    HW1 5597   5.524   4.912   4.350
 1566SOL    HW2 5598   5.490   4.971   4.202
 1567SOL     OW 5599   6.562   5.928   0.075
 1567SOL    HW1 5600   6.628   5.885   0.013
 1567SOL    HW2 5601   6.529   6.013   0.035
 1568SOL     OW 5602   2.228   6.591   1.477
 1568SOL    HW1 5603   2.317   6.551   1.456
 1568SOL    HW2 5604   2.156   6.522   1.464
 1569SOL     OW 5605   2.859   0.086   3.556
 1569SOL    HW1 5606   2.954   0.116   3.556
 1569SOL    HW2 5607   2.840   0.035   3.472
 1570SOL     OW 5608   2.528   6.714   0.403
 1570SOL    HW1 5609   2.566   6.653   0.333
 1570SOL    HW2 5610   2.487   6.794   0.358
 1571SOL     OW 5611   6.252   1.907   2.731
 1571SOL    HW1 5612   6.299   1.850   2.799
 1571SOL    HW2 5613   6.317   1.974   2.694
 1572SOL     OW 5614   1.327   5.910   0.743
 1572SOL    HW1 5615   1.387   5.834   0.767
 1572SOL    HW2 5616   1.239   5.875   0.712
 1573SOL     OW 5617   6.472   3.932   2.047
 1573SOL    HW1 5618   6.471   3.834   2.025
 1573SOL    HW2 5619   6.509   3.982   1.969
 1574SOL     OW 5620   6.392   1.500   3.689
 1574SOL    HW1 5621   6.340   1.423   3.652
 1574SOL    HW2 5622   6.387   1.500   3.789
 1575SOL     OW 5623   2.163   2.159   1.427
 1575SOL    HW1 5624   2.238   2.121   1.481
 1575SOL    HW2 5625   2.135   2.247   1.468
 1576SOL     OW 5626   1.139   0.541   3.060
 1576SOL    HW1 5627   1.093   0.504   3.140
 1576SOL    HW2 5628   1.103   0.499   2.977
 1577SOL     OW 5629   2.650   0.414   6.209
 1577SOL    HW1 5630   2.640   0.453   6.300
 1577SOL    HW2 5631   2.560   0.383   6.176
 1578SOL     OW 5632   5.814   2.534   5.642
 1578SOL    HW1 5633   5.847   2.622   5.675
 1578SOL    HW2 5634   5.743   2.549   5.572
 1579SOL     OW 5635   0.130   1.668   2.209
 1579SOL    HW1 5636   0.228   1.652   2.220
 1579SOL    HW2 5637   0.093   1.603   2.142
 1580SOL     OW 5638   3.550   3.871   4.109
 1580SOL    HW1 5639   3.535   3.801   4.180
 1580SOL    HW2 5640   3.467   3.925   4.098
 1581SOL     OW 5641   5.884   4.514   4.551
 1581SOL    HW1 5642   5.798   4.527   4.502
 1581SOL    HW2 5643   5.958   4.499   4.485
 1582SOL     OW 5644   1.900   6.582   4.277
 1582SOL    HW1 5645   1.980   6.541   4.234
 1582SOL    HW2 5646   1.861   6.519   4.344
 1583SOL     OW 5647   0.631   5.843   2.582
 1583SOL    HW1 5648   0.649   5.787   2.662
 1583SOL    HW2 5649   0.534   5.871   2.582
 1584SOL     OW 5650   0.856   5.847   6.576
 1584SOL    HW1 5651   0.860   5.861   6.477
 1584SOL    HW2 5652   0.806   5.763   6.595
 1585SOL     OW 5653   4.251   1.913   3.139
 1585SOL    HW1 5654   4.237   2.012   3.152
 1585SOL    HW2 5655   4.163   1.869   3.122
 1586SOL     OW 5656   3.249   4.909   2.074
 1586SOL    HW1 5657   3.334   4.943   2.114
 1586SOL    HW2 5658   3.269   4.847   1.998
 1587SOL     OW 5659   2.590   5.856   5.906
 1587SOL    HW1 5660   2.617   5.921   5.977
 1587SOL    HW2 5661   2.644   5.871   5.823
 1588SOL     OW 5662   3.632   0.685   2.609
 1588SOL    HW1 5663   3.619   0.778   2.643
 1588SOL    HW2 5664   3.583   0.674   2.522
 1589SOL     OW 5665   0.337   3.170   1.754
 1589SOL    HW1 5666   0.330   3.250   1.695
 1589SOL    HW2 5667   0.425   3.170   1.801
 1590SOL     OW 5668   4.106   0.245   4.467
 1590SOL    HW1 5669   4.107   0.146   4.481
 1590SOL    HW2 5670   4.102   0.291   4.556
 1591SOL     OW 5671   0.051   5.261   1.420
 1591SOL    HW1 5672   6.987   5.216   1.398
 1591SOL    HW2 5673   0.106   5.202   1.479
 1592SOL     OW 5674   2.283   4.071   6.584
 1592SOL    HW1 5675   2.221   4.053   6.508
 1592SOL    HW2 5676   2.358   4.005   6.582
 1593SOL     OW 5677   1.047   6.395   5.672
 1593SOL    HW1 5678   0.979   6.443   5.617
 1593SOL    HW2 5679   1.118   6.357   5.612
 1594SOL     OW 5680   1.215   6.426   1.678
 1594SOL    HW1 5681   1.197   6.524   1.690
 1594SOL    HW2 5682   1.255   6.411   1.587
 1595SOL     OW 5683   1.538   5.319   0.843
 1595SOL    HW1 5684   1.539   5.390   0.913
 1595SOL    HW2 5685   1.616   5.331   0.782
 1596SOL     OW 5686   0.251   2.569   3.945
 1596SOL    HW1 5687   0.270   2.475   3.974
 1596SOL    HW2 5688   0.303   2.590   3.863
 1597SOL     OW 5689   1.620   6.356   0.294
 1597SOL    HW1 5690   1.526   6.390   0.297
 1597SOL    HW2 5691   1.683   6.429   0.317
 1598SOL     OW 5692   7.016   4.772   5.377
 1598SOL    HW1 5693   0.022   4.709   5.450
 1598SOL    HW2 5694   6.935   4.822   5.407
 1599SOL     OW 5695   4.711   5.512   4.623
 1599SOL    HW1 5696   4.776   5.436   4.626
 1599SOL    HW2 5697   4.720   5.561   4.537
 1600SOL     OW 5698   3.841   1.571   3.822
 1600SOL    HW1 5699   3.862   1.663   3.787
 1600SOL    HW2 5700   3.813   1.577   3.917
 1601SOL     OW 5701   6.863   6.282   4.357
 1601SOL    HW1 5702   6.857   6.366   4.303
 1601SOL    HW2 5703   6.809   6.210   4.313
 1602SOL     OW 5704   3.787   5.327   4.299
 1602SOL    HW1 5705   3.791   5.295   4.394
 1602SOL    HW2 5706   3.872   5.373   4.276
 1603SOL     OW 5707   1.865   6.701   3.298
 1603SOL    HW1 5708   1.959   6.690   3.330
 1603SOL    HW2 5709   1.865   6.750   3.211
 1604SOL     OW 5710   5.298   4.102   0.723
 1604SOL    HW1 5711   5.333   4.186   0.764
 1604SOL    HW2 5712   5.199   4.108   0.712
 1605SOL     OW 5713   6.526   5.232   1.329
 1605SOL    HW1 5714   6.528   5.188   1.419
 1605SOL    HW2 5715   6.480   5.321   1.337
 1606SOL     OW 5716   3.714   6.768   5.496
 1606SOL    HW1 5717   3.723   6.711   5.414
 1606SOL    HW2 5718   3.731   6.864   5.473
 1607SOL     OW 5719   4.655   1.342   0.602
 1607SOL    HW1 5720   4.713   1.327   0.682
 1607SOL    HW2 5721   4.644   1.440   0.587
 1608SOL     OW 5722   0.353   1.089   3.254
 1608SOL    HW1 5723   0.338   1.072   3.156
 1608SOL    HW2 5724   0.434   1.146   3.266
 1609SOL     OW 5725   4.762   0.255   6.856
 1609SOL    HW1 5726   4.662   0.250   6.852
 1609SOL    HW2 5727   4.801   0.163   6.852
 1610SOL     OW 5728   6.335   4.444   6.555
 1610SOL    HW1 5729   6.427   4.439   6.594
 1610SOL    HW2 5730   6.269   4.403   6.618
 1611SOL     OW 5731   2.490   3.927   0.493
 1611SOL    HW1 5732   2.499   3.835   0.530
 1611SOL    HW2 5733   2.450   3.922   0.401
 1612SOL     OW 5734   3.091   0.115   0.329
 1612SOL    HW1 5735   3.096   0.065   0.243
 1612SOL    HW2 5736   3.000   0.103   0.369
 1613SOL     OW 5737   1.376   5.761   2.318
 1613SOL    HW1 5738   1.368   5.849   2.365
 1613SOL    HW2 5739   1.339   5.689   2.376
 1614SOL     OW 5740   4.956   2.933   6.466
 1614SOL    HW1 5741   5.023   2.974   6.528
 1614SOL    HW2 5742   4.874   2.909   6.518
 1615SOL     OW 5743   5.975   5.736   0.571
 1615SOL    HW1 5744   6.067   5.707   0.543
 1615SOL    HW2 5745   5.908   5.704   0.504
 1616SOL     OW 5746   3.408   0.988   5.110
 1616SOL    HW1 5747   3.343   0.921   5.146
 1616SOL    HW2 5748   3.363   1.077   5.101
 1617SOL     OW 5749   5.730   6.688   2.756
 1617SOL    HW1 5750   5.751   6.750   2.680
 1617SOL    HW2 5751   5.808   6.685   2.819
 1618SOL     OW 5752   1.274   5.559   2.629
 1618SOL    HW1 5753   1.342   5.486   2.639
 1618SOL    HW2 5754   1.318   5.648   2.643
 1619SOL     OW 5755   0.816   4.021   1.541
 1619SOL    HW1 5756   0.784   3.928   1.561
 1619SOL    HW2 5757   0.786   4.048   1.450
 1620SOL     OW 5758   2.737   4.616   1.710
 1620SOL    HW1 5759   2.782   4.586   1.626
 1620SOL    HW2 5760   2.794   4.592   1.789
 1621SOL     OW 5761   6.706   1.139   0.647
 1621SOL    HW1 5762   6.635   1.092   0.595
 1621SOL    HW2 5763   6.667   1.175   0.732
 1622SOL     OW 5764   0.668   2.917   5.261
 1622SOL    HW1 5765   0.609   2.838   5.276
 1622SOL    HW2 5766   0.621   3.000   5.289
 1623SOL     OW 5767   1.875   2.850   4.667
 1623SOL    HW1 5768   1.952   2.814   4.720
 1623SOL    HW2 5769   1.795   2.794   4.684
 1624SOL     OW 5770   3.032   1.383   5.623
 1624SOL    HW1 5771   3.074   1.472   5.606
 1624SOL    HW2 5772   3.080   1.336   5.697
 1625SOL     OW 5773   1.607   5.167   0.348
 1625SOL    HW1 5774   1.695   5.208   0.373
 1625SOL    HW2 5775   1.564   5.130   0.431
 1626SOL     OW 5776   4.353   1.455   0.081
 1626SOL    HW1 5777   4.293   1.479   0.157
 1626SOL    HW2 5778   4.440   1.420   0.116
 1627SOL     OW 5779   6.522   2.968   3.633
 1627SOL    HW1 5780   6.506   3.036   3.561
 1627SOL    HW2 5781   6.466   2.887   3.615
 1628SOL     OW 5782   4.682   4.725   0.299
 1628SOL    HW1 5783   4.616   4.793   0.330
 1628SOL    HW2 5784   4.698   4.737   0.201
 1629SOL     OW 5785   2.964   1.011   3.868
 1629SOL    HW1 5786   2.999   0.959   3.791
 1629SOL    HW2 5787   2.997   0.971   3.953
 1630SOL     OW 5788   1.255   4.692   6.041
 1630SOL    HW1 5789   1.227   4.787   6.029
 1630SOL    HW2 5790   1.281   4.653   5.952
 1631SOL     OW 5791   1.044   2.933   0.290
 1631SOL    HW1 5792   1.094   2.868   0.232
 1631SOL    HW2 5793   1.017   3.012   0.236
 1632SOL     OW 5794   5.734   2.288   0.966
 1632SOL    HW1 5795   5.634   2.298   0.972
 1632SOL    HW2 5796   5.771   2.267   1.056
 1633SOL     OW 5797   5.526   4.033   4.510
 1633SOL    HW1 5798   5.487   4.040   4.602
 1633SOL    HW2 5799   5.457   3.998   4.447
 1634SOL     OW 5800   3.882   5.829   4.355
 1634SOL    HW1 5801   3.957   5.764   4.371
 1634SOL    HW2 5802   3.819   5.790   4.287
 1635SOL     OW 5803   0.164   4.899   6.806
 1635SOL    HW1 5804   0.123   4.985   6.776
 1635SOL    HW2 5805   0.215   4.913   6.891
 1636SOL     OW 5806   2.831   4.507   1.479
 1636SOL    HW1 5807   2.759   4.477   1.416
 1636SOL    HW2 5808   2.918   4.466   1.452
 1637SOL     OW 5809   0.622   0.786   2.982
 1637SOL    HW1 5810   0.563   0.706   2.992
 1637SOL    HW2 5811   0.647   0.821   3.073
 1638SOL     OW 5812   6.883   4.641   3.754
 1638SOL    HW1 5813   6.965   4.583   3.756
 1638SOL    HW2 5814   6.911   4.737   3.746
 1639SOL     OW 5815   5.102   6.566   2.117
 1639SOL    HW1 5816   5.154   6.505   2.178
 1639SOL    HW2 5817   5.068   6.644   2.168
 1640SOL     OW 5818   5.906   0.213   6.984
 1640SOL    HW1 5819   5.956   0.160   0.030
 1640SOL    HW2 5820   5.934   0.309   6.990
 1641SOL     OW 5821   4.581   1.468   2.859
 1641SOL    HW1 5822   4.491   1.506   2.877
 1641SOL    HW2 5823   4.571   1.378   2.816
 1642SOL     OW 5824   6.622   3.921   6.476
 1642SOL    HW1 5825   6.572   4.004   6.501
 1642SOL    HW2 5826   6.606   3.900   6.379
 1643SOL     OW 5827   2.824   4.813   4.773
 1643SOL    HW1 5828   2.752   4.748   4.797
 1643SOL    HW2 5829   2.848   4.868   4.853
 1644SOL     OW 5830   6.017   3.558   0.152
 1644SOL    HW1 5831   6.097   3.548   0.094
 1644SOL    HW2 5832   5.949   3.616   0.106
 1645SOL     OW 5833   3.298   4.876   6.633
 1645SOL    HW1 5834   3.290   4.850   6.537
 1645SOL    HW2 5835   3.337   4.968   6.640
 1646SOL     OW 5836   2.931   6.688   6.673
 1646SOL    HW1 5837   3.010   6.739   6.709
 1646SOL    HW2 5838   2.903   6.729   6.587
 1647SOL     OW 5839   5.818   3.062   4.087
 1647SOL    HW1 5840   5.741   3.075   4.149
 1647SOL    HW2 5841   5.813   3.129   4.013
 1648SOL     OW 5842   5.383   5.807   0.623
 1648SOL    HW1 5843   5.345   5.857   0.701
 1648SOL    HW2 5844   5.338   5.719   0.615
 1649SOL     OW 5845   3.387   1.332   4.118
 1649SOL    HW1 5846   3.322   1.273   4.070
 1649SOL    HW2 5847   3.371   1.326   4.217
 1650SOL     OW 5848   1.628   6.315   5.756
 1650SOL    HW1 5849   1.711   6.260   5.771
 1650SOL    HW2 5850   1.549   6.254   5.750
 1651SOL     OW 5851   0.314   1.755   1.506
 1651SOL    HW1 5852   0.226   1.799   1.487
 1651SOL    HW2 5853   0.363   1.808   1.576
 1652SOL     OW 5854   1.007   3.328   2.301
 1652SOL    HW1 5855   1.028   3.391   2.226
 1652SOL    HW2 5856   1.079   3.259   2.308
 1653SOL     OW 5857   0.675   6.957   0.463
 1653SOL    HW1 5858   0.709   6.934   0.555
 1653SOL    HW2 5859   0.584   6.999   0.471
 1654SOL     OW 5860   0.262   3.390   1.626
 1654SOL    HW1 5861   0.317   3.387   1.542
 1654SOL    HW2 5862   0.285   3.473   1.677
 1655SOL     OW 5863   0.861   2.190   4.949
 1655SOL    HW1 5864   0.806   2.130   4.891
 1655SOL    HW2 5865   0.801   2.241   5.011
 1656SOL     OW 5866   2.198   4.371   2.542
 1656SOL    HW1 5867   2.162   4.278   2.550
 1656SOL    HW2 5868   2.129   4.430   2.499
 1657SOL     OW 5869   6.959   1.226   4.195
 1657SOL    HW1 5870   6.928   1.133   4.173
 1657SOL    HW2 5871   6.887   1.274   4.246
 1658SOL     OW 5872   0.275   6.664   1.235
 1658SOL    HW1 5873   0.274   6.564   1.230
 1658SOL    HW2 5874   0.309   6.693   1.325
 1659SOL     OW 5875   3.892   6.845   6.839
 1659SOL    HW1 5876   3.991   6.848   6.854
 1659SOL    HW2 5877   3.872   6.872   6.744
 1660SOL     OW 5878   1.364   5.718   3.533
 1660SOL    HW1 5879   1.416   5.665   3.467
 1660SOL    HW2 5880   1.369   5.675   3.623
 1661SOL     OW 5881   3.233   6.988   1.047
 1661SOL    HW1 5882   3.312   7.022   1.097
 1661SOL    HW2 5883   3.257   6.904   0.998
 1662SOL     OW 5884   6.718   0.307   4.113
 1662SOL    HW1 5885   6.641   0.285   4.053
 1662SOL    HW2 5886   6.682   0.346   4.199
 1663SOL     OW 5887   4.376   6.471   3.165
 1663SOL    HW1 5888   4.404   6.567   3.176
 1663SOL    HW2 5889   4.439   6.426   3.102
 1664SOL     OW 5890   1.915   6.467   4.917
 1664SOL    HW1 5891   1.986   6.510   4.862
 1664SOL    HW2 5892   1.955   6.436   5.004
 1665SOL     OW 5893   0.341   2.628   2.713
 1665SOL    HW1 5894   0.257   2.658   2.758
 1665SOL    HW2 5895   0.412   2.698   2.725
 1666SOL     OW 5896   5.625   2.075   6.606
 1666SOL    HW1 5897   5.680   2.067   6.522
 1666SOL    HW2 5898   5.610   1.985   6.645
 1667SOL     OW 5899   6.964   6.353   0.785
 1667SOL    HW1 5900   7.022   6.303   0.850
 1667SOL    HW2 5901   6.979   6.318   0.693
 1668SOL     OW 5902   5.317   6.629   4.352
 1668SOL    HW1 5903   5.226   6.670   4.348
 1668SOL    HW2 5904   5.341   6.613   4.448
 1669SOL     OW 5905   6.653   5.149   6.444
 1669SOL    HW1 5906   6.672   5.166   6.540
 1669SOL    HW2 5907   6.554   5.146   6.429
 1670SOL     OW 5908   0.247   3.926   5.848
 1670SOL    HW1 5909   0.204   3.962   5.766
 1670SOL    HW2 5910   0.285   3.835   5.829
 1671SOL     OW 5911   5.764   1.306   2.830
 1671SOL    HW1 5912   5.679   1.324   2.781
 1671SOL    HW2 5913   5.813   1.231   2.786
 1672SOL     OW 5914   1.448   2.437   0.771
 1672SOL    HW1 5915   1.511   2.387   0.830
 1672SOL    HW2 5916   1.459   2.535   0.786
 1673SOL     OW 5917   1.193   1.290   4.671
 1673SOL    HW1 5918   1.257   1.213   4.667
 1673SOL    HW2 5919   1.149   1.302   4.582
 1674SOL     OW 5920   0.682   3.064   2.489
 1674SOL    HW1 5921   0.759   3.001   2.494
 1674SOL    HW2 5922   0.680   3.122   2.570
 1675SOL     OW 5923   5.679   6.888   0.750
 1675SOL    HW1 5924   5.639   6.806   0.790
 1675SOL    HW2 5925   5.772   6.869   0.719
 1676SOL     OW 5926   2.105   2.702   2.113
 1676SOL    HW1 5927   2.163   2.694   2.032
 1676SOL    HW2 5928   2.023   2.755   2.089
 1677SOL     OW 5929   3.390   3.496   4.583
 1677SOL    HW1 5930   3.330   3.567   4.619
 1677SOL    HW2 5931   3.348   3.407   4.596
 1678SOL     OW 5932   5.725   4.087   3.758
 1678SOL    HW1 5933   5.646   4.058   3.704
 1678SOL    HW2 5934   5.718   4.184   3.778
 1679SOL     OW 5935   2.511   2.607   4.385
 1679SOL    HW1 5936   2.446   2.642   4.319
 1679SOL    HW2 5937   2.475   2.620   4.478
 1680SOL     OW 5938   0.059   2.565   5.177
 1680SOL    HW1 5939   0.049   2.469   5.152
 1680SOL    HW2 5940   0.098   2.616   5.100
 1681SOL     OW 5941   6.801   5.521   6.825
 1681SOL    HW1 5942   6.715   5.472   6.838
 1681SOL    HW2 5943   6.838   5.500   6.735
 1682SOL     OW 5944   1.548   0.946   5.082
 1682SOL    HW1 5945   1.553   0.980   5.176
 1682SOL    HW2 5946   1.547   1.023   5.018
 1683SOL     OW 5947   4.758   4.777   1.709
 1683SOL    HW1 5948   4.847   4.731   1.704
 1683SOL    HW2 5949   4.700   4.745   1.635
 1684SOL     OW 5950   1.327   6.025   2.425
 1684SOL    HW1 5951   1.268   5.983   2.493
 1684SOL    HW2 5952   1.385   6.094   2.469
 1685SOL     OW 5953   2.494   1.073   4.811
 1685SOL    HW1 5954   2.504   1.172   4.815
 1685SOL    HW2 5955   2.570   1.030   4.860
 1686SOL     OW 5956   2.549   6.258   4.473
 1686SOL    HW1 5957   2.537   6.357   4.473
 1686SOL    HW2 5958   2.469   6.215   4.432
 1687SOL     OW 5959   2.215   3.159   1.845
 1687SOL    HW1 5960   2.227   3.256   1.864
 1687SOL    HW2 5961   2.263   3.135   1.761
 1688SOL     OW 5962   2.338   2.641   4.146
 1688SOL    HW1 5963   2.288   2.556   4.165
 1688SOL    HW2 5964   2.405   2.624   4.074
 1689SOL     OW 5965   5.884   1.534   2.650
 1689SOL    HW1 5966   5.974   1.517   2.609
 1689SOL    HW2 5967   5.862   1.460   2.713
 1690SOL     OW 5968   1.733   2.657   4.039
 1690SOL    HW1 5969   1.830   2.655   4.014
 1690SOL    HW2 5970   1.701   2.563   4.053
 1691SOL     OW 5971   6.122   3.697   3.420
 1691SOL    HW1 5972   6.044   3.691   3.483
 1691SOL    HW2 5973   6.096   3.752   3.341
 1692SOL     OW 5974   5.393   6.551   1.556
 1692SOL    HW1 5975   5.333   6.537   1.477
 1692SOL    HW2 5976   5.342   6.593   1.630
 1693SOL     OW 5977   6.746   1.892   2.170
 1693SOL    HW1 5978   6.827   1.951   2.167
 1693SOL    HW2 5979   6.771   1.800   2.141
 1694SOL     OW 5980   5.571   1.144   2.460
 1694SOL    HW1 5981   5.583   1.214   2.531
 1694SOL    HW2 5982   5.635   1.069   2.477
 1695SOL     OW 5983   4.124   0.606   5.909
 1695SOL    HW1 5984   4.147   0.667   5.833
 1695SOL    HW2 5985   4.178   0.631   5.990
 1696SOL     OW 5986   4.339   5.111   0.946
 1696SOL    HW1 5987   4.298   5.020   0.946
 1696SOL    HW2 5988   4.384   5.127   0.858
 1697SOL     OW 5989   6.018   0.837   0.600
 1697SOL    HW1 5990   6.013   0.755   0.542
 1697SOL    HW2 5991   6.106   0.839   0.647
 1698SOL     OW 5992   3.530   7.011   6.990
 1698SOL    HW1 5993   3.600   6.974   0.029
 1698SOL    HW2 5994   3.546   0.086   6.977
 1699SOL     OW 5995   1.969   1.291   0.029
 1699SOL    HW1 5996   2.001   1.355   0.098
 1699SOL    HW2 5997   1.881   1.322   7.016
 1700SOL     OW 5998   6.253   3.645   3.972
 1700SOL    HW1 5999   6.205   3.714   3.917
 1700SOL    HW2 6000   6.298   3.580   3.911
 1701SOL     OW 6001   4.912   4.324   6.064
 1701SOL    HW1 6002   4.999   4.343   6.018
 1701SOL    HW2 6003   4.848   4.285   5.999
 1702SOL     OW 6004   6.269   1.618   0.498
 1702SOL    HW1 6005   6.230   1.625   0.589
 1702SOL    HW2 6006   6.281   1.521   0.474
 1703SOL     OW 6007   3.317   2.713   1.428
 1703SOL    HW1 6008   3.253   2.640   1.452
 1703SOL    HW2 6009   3.410   2.683   1.449
 1704SOL     OW 6010   0.929   2.113   1.296
 1704SOL    HW1 6011   1.027   2.092   1.296
 1704SOL    HW2 6012   0.915   2.205   1.259
 1705SOL     OW 6013   2.791   1.911   2.266
 1705SOL    HW1 6014   2.829   1.954   2.184
 1705SOL    HW2 6015   2.853   1.927   2.343
 1706SOL     OW 6016   5.052   1.213   2.178
 1706SOL    HW1 6017   5.140   1.229   2.132
 1706SOL    HW2 6018   5.068   1.189   2.273
 1707SOL     OW 6019   5.010   1.717   2.303
 1707SOL    HW1 6020   5.057   1.630   2.314
 1707SOL    HW2 6021   5.070   1.782   2.255
 1708SOL     OW 6022   4.744   5.465   2.050
 1708SOL    HW1 6023   4.676   5.420   1.993
 1708SOL    HW2 6024   4.769   5.403   2.125
 1709SOL     OW 6025   3.291   6.310   2.591
 1709SOL    HW1 6026   3.338   6.392   2.558
 1709SOL    HW2 6027   3.340   6.273   2.670
 1710SOL     OW 6028   5.109   4.670   3.814
 1710SOL    HW1 6029   5.031   4.627   3.859
 1710SOL    HW2 6030   5.194   4.623   3.842
 1711SOL     OW 6031   1.563   4.161   4.333
 1711SOL    HW1 6032   1.526   4.114   4.412
 1711SOL    HW2 6033   1.630   4.103   4.287
 1712SOL     OW 6034   6.540   2.122   5.103
 1712SOL    HW1 6035   6.563   2.152   5.011
 1712SOL    HW2 6036   6.442   2.101   5.108
 1713SOL     OW 6037   4.366   2.356   1.245
 1713SOL    HW1 6038   4.274   2.333   1.211
 1713SOL    HW2 6039   4.415   2.408   1.175
 1714SOL     OW 6040   3.507   1.023   5.685
 1714SOL    HW1 6041   3.510   1.001   5.782
 1714SOL    HW2 6042   3.596   1.059   5.656
 1715SOL     OW 6043   0.730   5.446   2.985
 1715SOL    HW1 6044   0.666   5.523   2.983
 1715SOL    HW2 6045   0.738   5.413   3.079
 1716SOL     OW 6046   5.025   6.859   3.225
 1716SOL    HW1 6047   5.063   6.929   3.285
 1716SOL    HW2 6048   4.948   6.814   3.271
 1717SOL     OW 6049   2.561   6.329   6.351
 1717SOL    HW1 6050   2.656   6.348   6.327
 1717SOL    HW2 6051   2.535   6.239   6.315
 1718SOL     OW 6052   2.367   1.343   1.762
 1718SOL    HW1 6053   2.271   1.358   1.784
 1718SOL    HW2 6054   2.385   1.245   1.755
 1719SOL     OW 6055   2.024   3.013   1.228
 1719SOL    HW1 6056   2.122   3.000   1.245
 1719SOL    HW2 6057   1.982   3.058   1.307
 1720SOL     OW 6058   6.812   3.088   0.298
 1720SOL    HW1 6059   6.797   2.993   0.326
 1720SOL    HW2 6060   6.907   3.100   0.269
 1721SOL     OW 6061   1.583   6.789   1.629
 1721SOL    HW1 6062   1.533   6.750   1.552
 1721SOL    HW2 6063   1.680   6.798   1.605
 1722SOL     OW 6064   3.399   1.415   3.456
 1722SOL    HW1 6065   3.319   1.448   3.508
 1722SOL    HW2 6066   3.479   1.417   3.515
 1723SOL     OW 6067   5.829   2.425   2.148
 1723SOL    HW1 6068   5.796   2.503   2.200
 1723SOL    HW2 6069   5.789   2.427   2.056
 1724SOL     OW 6070   6.641   2.619   1.643
 1724SOL    HW1 6071   6.632   2.522   1.664
 1724SOL    HW2 6072   6.551   2.655   1.617
 1725SOL     OW 6073   2.017   5.189   6.569
 1725SOL    HW1 6074   2.092   5.122   6.574
 1725SOL    HW2 6075   1.969   5.191   6.656
 1726SOL     OW 6076   6.578   4.644   4.796
 1726SOL    HW1 6077   6.618   4.553   4.809
 1726SOL    HW2 6078   6.574   4.664   4.699
 1727SOL     OW 6079   3.468   3.012   4.336
 1727SOL    HW1 6080   3.459   2.972   4.245
 1727SOL    HW2 6081   3.417   3.098   4.340
 1728SOL     OW 6082   5.024   4.894   4.687
 1728SOL    HW1 6083   4.974   4.979   4.670
 1728SOL    HW2 6084   5.112   4.898   4.638
 1729SOL     OW 6085   2.187   4.535   2.871
 1729SOL    HW1 6086   2.241   4.469   2.819
 1729SOL    HW2 6087   2.108   4.563   2.817
 1730SOL     OW 6088   1.269   6.402   5.969
 1730SOL    HW1 6089   1.238   6.407   5.874
 1730SOL    HW2 6090   1.232   6.319   6.011
 1731SOL     OW 6091   7.000   3.922   3.418
 1731SOL    HW1 6092   0.050   3.958   3.359
 1731SOL    HW2 6093   6.957   3.998   3.467
 1732SOL     OW 6094   2.697   4.951   5.267
 1732SOL    HW1 6095   2.678   5.022   5.335
 1732SOL    HW2 6096   2.620   4.944   5.204
 1733SOL     OW 6097   1.862   4.909   1.912
 1733SOL    HW1 6098   1.873   4.828   1.969
 1733SOL    HW2 6099   1.916   4.984   1.948
 1734SOL     OW 6100   4.648   3.563   1.409
 1734SOL    HW1 6101   4.647   3.649   1.462
 1734SOL    HW2 6102   4.559   3.519   1.416
 1735SOL     OW 6103   4.840   5.504   0.563
 1735SOL    HW1 6104   4.817   5.488   0.467
 1735SOL    HW2 6105   4.761   5.485   0.620
 1736SOL     OW 6106   3.523   3.832   0.498
 1736SOL    HW1 6107   3.518   3.862   0.403
 1736SOL    HW2 6108   3.433   3.841   0.541
 1737SOL     OW 6109   3.323   1.318   4.386
 1737SOL    HW1 6110   3.270   1.236   4.365
 1737SOL    HW2 6111   3.325   1.332   4.485
 1738SOL     OW 6112   1.670   3.075   3.994
 1738SOL    HW1 6113   1.592   3.137   3.984
 1738SOL    HW2 6114   1.753   3.128   4.013
 1739SOL     OW 6115   0.134   1.738   5.255
 1739SOL    HW1 6116   0.093   1.710   5.169
 1739SOL    HW2 6117   0.189   1.820   5.241
 1740SOL     OW 6118   0.227   2.239   5.835
 1740SOL    HW1 6119   0.273   2.325   5.815
 1740SOL    HW2 6120   0.220   2.184   5.751
 1741SOL     OW 6121   2.031   0.447   3.897
 1741SOL    HW1 6122   2.091   0.384   3.847
 1741SOL    HW2 6123   2.045   0.436   3.995
 1742SOL     OW 6124   5.526   0.689   6.612
 1742SOL    HW1 6125   5.500   0.644   6.527
 1742SOL    HW2 6126   5.589   0.631   6.663
 1743SOL     OW 6127   0.492   2.096   1.917
 1743SOL    HW1 6128   0.581   2.052   1.929
 1743SOL    HW2 6129   0.504   2.195   1.913
 1744SOL     OW 6130   6.689   2.460   3.332
 1744SOL    HW1 6131   6.594   2.458   3.300
 1744SOL    HW2 6132   6.705   2.543   3.385
 1745SOL     OW 6133   5.639   5.552   2.274
 1745SOL    HW1 6134   5.560   5.495   2.255
 1745SOL    HW2 6135   5.621   5.645   2.243
 1746SOL     OW 6136   1.457   4.009   4.538
 1746SOL    HW1 6137   1.385   3.940   4.546
 1746SOL    HW2 6138   1.501   4.022   4.626
 1747SOL     OW 6139   4.759   1.298   3.178
 1747SOL    HW1 6140   4.661   1.319   3.184
 1747SOL    HW2 6141   4.770   1.205   3.144
 1748SOL     OW 6142   0.894   0.948   4.993
 1748SOL    HW1 6143   0.904   0.928   5.091
 1748SOL    HW2 6144   0.811   1.001   4.978
 1749SOL     OW 6145   2.176   7.017   4.866
 1749SOL    HW1 6146   2.130   0.083   4.872
 1749SOL    HW2 6147   2.111   6.944   4.888
 1750SOL     OW 6148   4.914   6.193   4.417
 1750SOL    HW1 6149   4.917   6.269   4.352
 1750SOL    HW2 6150   5.003   6.149   4.421
 1751SOL     OW 6151   3.946   6.662   4.372
 1751SOL    HW1 6152   3.962   6.761   4.383
 1751SOL    HW2 6153   3.866   6.636   4.426
 1752SOL     OW 6154   6.480   1.850   2.113
 1752SOL    HW1 6155   6.464   1.863   2.016
 1752SOL    HW2 6156   6.572   1.880   2.137
 1753SOL     OW 6157   6.635   1.396   1.501
 1753SOL    HW1 6158   6.582   1.430   1.578
 1753SOL    HW2 6159   6.639   1.465   1.430
 1754SOL     OW 6160   1.692   4.698   6.979
 1754SOL    HW1 6161   1.639   4.776   6.945
 1754SOL    HW2 6162   1.655   4.670   0.045
 1755SOL     OW 6163   6.853   6.143   1.570
 1755SOL    HW1 6164   6.791   6.121   1.494
 1755SOL    HW2 6165   6.907   6.062   1.593
 1756SOL     OW 6166   4.401   5.614   5.662
 1756SOL    HW1 6167   4.433   5.689   5.603
 1756SOL    HW2 6168   4.393   5.646   5.756
 1757SOL     OW 6169   2.307   5.055   4.579
 1757SOL    HW1 6170   2.290   4.957   4.571
 1757SOL    HW2 6171   2.221   5.102   4.598
 1758SOL     OW 6172   2.177   0.251   4.323
 1758SOL    HW1 6173   2.081   0.241   4.350
 1758SOL    HW2 6174   2.221   0.161   4.323
 1759SOL     OW 6175   1.487   6.374   5.300
 1759SOL    HW1 6176   1.555   6.371   5.373
 1759SOL    HW2 6177   1.514   6.313   5.226
 1760SOL     OW 6178   5.391   1.399   2.827
 1760SOL    HW1 6179   5.342   1.485   2.842
 1760SOL    HW2 6180   5.429   1.366   2.913
 1761SOL     OW 6181   0.184   0.604   1.217
 1761SOL    HW1 6182   0.134   0.535   1.269
 1761SOL    HW2 6183   0.244   0.655   1.279
 1762SOL     OW 6184   0.545   1.153   4.481
 1762SOL    HW1 6185   0.497   1.103   4.409
 1762SOL    HW2 6186   0.490   1.232   4.509
 1763SOL     OW 6187   1.199   4.387   3.917
 1763SOL    HW1 6188   1.133   4.313   3.902
 1763SOL    HW2 6189   1.270   4.357   3.980
 1764SOL     OW 6190   2.160   3.146   2.371
 1764SOL    HW1 6191   2.194   3.066   2.420
 1764SOL    HW2 6192   2.126   3.118   2.281
 1765SOL     OW 6193   3.866   0.741   1.249
 1765SOL    HW1 6194   3.932   0.772   1.318
 1765SOL    HW2 6195   3.889   0.648   1.221
 1766SOL     OW 6196   5.011   4.491   2.559
 1766SOL    HW1 6197   4.984   4.581   2.524
 1766SOL    HW2 6198   4.929   4.434   2.570
 1767SOL     OW 6199   0.537   3.714   2.396
 1767SOL    HW1 6200   0.598   3.671   2.329
 1767SOL    HW2 6201   0.527   3.654   2.475
 1768SOL     OW 6202   4.118   1.710   6.503
 1768SOL    HW1 6203   4.066   1.626   6.515
 1768SOL    HW2 6204   4.104   1.746   6.411
 1769SOL     OW 6205   4.941   1.328   6.497
 1769SOL    HW1 6206   4.958   1.402   6.562
 1769SOL    HW2 6207   4.901   1.365   6.413
 1770SOL     OW 6208   6.880   4.600   4.476
 1770SOL    HW1 6209   6.846   4.522   4.530
 1770SOL    HW2 6210   6.827   4.681   4.498
 1771SOL     OW 6211   2.227   5.684   0.515
 1771SOL    HW1 6212   2.316   5.716   0.549
 1771SOL    HW2 6213   2.189   5.618   0.580
 1772SOL     OW 6214   3.483   7.009   3.586
 1772SOL    HW1 6215   3.517   0.079   3.572
 1772SOL    HW2 6216   3.416   7.009   3.660
 1773SOL     OW 6217   2.535   3.476   6.366
 1773SOL    HW1 6218   2.563   3.380   6.362
 1773SOL    HW2 6219   2.611   3.532   6.400
 1774SOL     OW 6220   4.506   0.142   1.649
 1774SOL    HW1 6221   4.601   0.158   1.675
 1774SOL    HW2 6222   4.490   0.044   1.639
 1775SOL     OW 6223   1.820   4.962   5.327
 1775SOL    HW1 6224   1.901   5.020   5.319
 1775SOL    HW2 6225   1.846   4.867   5.308
 1776SOL     OW 6226   5.252   1.155   6.426
 1776SOL    HW1 6227   5.154   1.155   6.444
 1776SOL    HW2 6228   5.297   1.089   6.486
 1777SOL     OW 6229   3.388   5.966   5.570
 1777SOL    HW1 6230   3.370   6.005   5.660
 1777SOL    HW2 6231   3.308   5.916   5.538
 1778SOL     OW 6232   4.431   1.790   4.588
 1778SOL    HW1 6233   4.528   1.812   4.599
 1778SOL    HW2 6234   4.386   1.792   4.678
 1779SOL     OW 6235   3.836   1.459   5.053
 1779SOL    HW1 6236   3.866   1.404   4.975
 1779SOL    HW2 6237   3.778   1.404   5.112
 1780SOL     OW 6238   2.284   3.946   6.130
 1780SOL    HW1 6239   2.301   3.857   6.087
 1780SOL    HW2 6240   2.361   4.007   6.111
 1781SOL     OW 6241   4.805   5.077   3.614
 1781SOL    HW1 6242   4.876   5.018   3.652
 1781SOL    HW2 6243   4.727   5.079   3.677
 1782SOL     OW 6244   2.901   1.756   3.287
 1782SOL    HW1 6245   2.890   1.843   3.240
 1782SOL    HW2 6246   2.997   1.744   3.313
 1783SOL     OW 6247   2.278   3.222   6.173
 1783SOL    HW1 6248   2.340   3.285   6.126
 1783SOL    HW2 6249   2.190   3.267   6.186
 1784SOL     OW 6250   2.650   1.402   2.414
 1784SOL    HW1 6251   2.646   1.501   2.420
 1784SOL    HW2 6252   2.727   1.374   2.356
 1785SOL     OW 6253   5.816   5.723   3.416
 1785SOL    HW1 6254   5.896   5.764   3.458
 1785SOL    HW2 6255   5.844   5.643   3.361
 1786SOL     OW 6256   1.227   3.612   0.404
 1786SOL    HW1 6257   1.142   3.562   0.386
 1786SOL    HW2 6258   1.273   3.631   0.317
 1787SOL     OW 6259   2.148   1.024   5.486
 1787SOL    HW1 6260   2.220   0.969   5.443
 1787SOL    HW2 6261   2.080   0.963   5.527
 1788SOL     OW 6262   3.542   4.098   6.973
 1788SOL    HW1 6263   3.631   4.141   6.965
 1788SOL    HW2 6264   3.529   4.033   6.898
 1789SOL     OW 6265   5.685   2.693   2.254
 1789SOL    HW1 6266   5.620   2.684   2.178
 1789SOL    HW2 6267   5.718   2.787   2.259
 1790SOL     OW 6268   3.822   0.150   4.647
 1790SOL    HW1 6269   3.739   0.205   4.640
 1790SOL    HW2 6270   3.799   0.060   4.686
 1791SOL     OW 6271   6.911   1.213   4.538
 1791SOL    HW1 6272   6.986   1.146   4.537
 1791SOL    HW2 6273   6.828   1.169   4.573
 1792SOL     OW 6274   0.739   0.827   4.471
 1792SOL    HW1 6275   0.817   0.788   4.521
 1792SOL    HW2 6276   0.660   0.831   4.531
 1793SOL     OW 6277   6.339   0.759   3.910
 1793SOL    HW1 6278   6.330   0.717   3.820
 1793SOL    HW2 6279   6.432   0.744   3.945
 1794SOL     OW 6280   5.227   6.138   6.071
 1794SOL    HW1 6281   5.144   6.128   6.126
 1794SOL    HW2 6282   5.202   6.144   5.974
 1795SOL     OW 6283   6.207   4.934   2.524
 1795SOL    HW1 6284   6.195   4.945   2.622
 1795SOL    HW2 6285   6.159   5.008   2.476
 1796SOL     OW 6286   1.977   0.666   4.554
 1796SOL    HW1 6287   1.988   0.631   4.461
 1796SOL    HW2 6288   2.056   0.722   4.578
 1797SOL     OW 6289   1.240   6.621   5.697
 1797SOL    HW1 6290   1.328   6.585   5.729
 1797SOL    HW2 6291   1.172   6.548   5.701
 1798SOL     OW 6292   4.476   2.793   5.305
 1798SOL    HW1 6293   4.481   2.780   5.404
 1798SOL    HW2 6294   4.568   2.802   5.268
 1799SOL     OW 6295   5.825   2.689   6.374
 1799SOL    HW1 6296   5.839   2.778   6.416
 1799SOL    HW2 6297   5.864   2.688   6.282
 1800SOL     OW 6298   4.986   4.367   3.599
 1800SOL    HW1 6299   4.971   4.330   3.691
 1800SOL    HW2 6300   5.065   4.427   3.599
 1801SOL     OW 6301   0.964   1.647   2.874
 1801SOL    HW1 6302   0.880   1.700   2.864
 1801SOL    HW2 6303   1.008   1.638   2.785
 1802SOL     OW 6304   6.155   6.231   2.951
 1802SOL    HW1 6305   6.178   6.136   2.971
 1802SOL    HW2 6306   6.218   6.268   2.883
 1803SOL     OW 6307   7.016   6.137   1.942
 1803SOL    HW1 6308   0.073   6.173   1.893
 1803SOL    HW2 6309   0.005   6.038   1.956
 1804SOL     OW 6310   3.387   3.312   5.465
 1804SOL    HW1 6311   3.445   3.337   5.542
 1804SOL    HW2 6312   3.443   3.291   5.385
 1805SOL     OW 6313   1.418   4.526   6.180
 1805SOL    HW1 6314   1.373   4.582   6.110
 1805SOL    HW2 6315   1.471   4.454   6.136
 1806SOL     OW 6316   1.093   2.402   1.806
 1806SOL    HW1 6317   1.017   2.418   1.744
 1806SOL    HW2 6318   1.075   2.319   1.860
 1807SOL     OW 6319   6.188   2.118   6.107
 1807SOL    HW1 6320   6.116   2.082   6.167
 1807SOL    HW2 6321   6.252   2.172   6.161
 1808SOL     OW 6322   5.667   4.522   4.356
 1808SOL    HW1 6323   5.570   4.547   4.353
 1808SOL    HW2 6324   5.677   4.423   4.344
 1809SOL     OW 6325   2.460   2.501   4.903
 1809SOL    HW1 6326   2.537   2.455   4.946
 1809SOL    HW2 6327   2.439   2.585   4.952
 1810SOL     OW 6328   1.262   0.028   4.589
 1810SOL    HW1 6329   1.302   6.977   4.536
 1810SOL    HW2 6330   1.260   0.003   4.686
 1811SOL     OW 6331   4.669   4.765   2.840
 1811SOL    HW1 6332   4.634   4.844   2.890
 1811SOL    HW2 6333   4.731   4.797   2.768
 1812SOL     OW 6334   5.083   6.950   6.044
 1812SOL    HW1 6335   5.014   6.895   6.091
 1812SOL    HW2 6336   5.167   6.897   6.033
 1813SOL     OW 6337   5.116   5.147   1.465
 1813SOL    HW1 6338   5.115   5.246   1.476
 1813SOL    HW2 6339   5.169   5.105   1.539
 1814SOL     OW 6340   6.032   0.442   0.851
 1814SOL    HW1 6341   6.066   0.463   0.943
 1814SOL    HW2 6342   6.096   0.477   0.783
 1815SOL     OW 6343   5.921   0.659   3.159
 1815SOL    HW1 6344   6.021   0.660   3.150
 1815SOL    HW2 6345   5.893   0.730   3.223
 1816SOL     OW 6346   3.040   4.776   0.404
 1816SOL    HW1 6347   2.967   4.749   0.341
 1816SOL    HW2 6348   3.116   4.711   0.397
 1817SOL     OW 6349   3.832   0.608   3.392
 1817SOL    HW1 6350   3.852   0.706   3.388
 1817SOL    HW2 6351   3.829   0.570   3.299
 1818SOL     OW 6352   2.080   6.353   1.176
 1818SOL    HW1 6353   2.159   6.305   1.137
 1818SOL    HW2 6354   2.046   6.419   1.109
 1819SOL     OW 6355   1.213   6.394   1.964
 1819SOL    HW1 6356   1.298   6.358   2.003
 1819SOL    HW2 6357   1.221   6.396   1.864
 1820SOL     OW 6358   3.389   0.420   2.671
 1820SOL    HW1 6359   3.399   0.459   2.579
 1820SOL    HW2 6360   3.446   0.339   2.680
 1821SOL     OW 6361   2.822   0.624   1.273
 1821SOL    HW1 6362   2.847   0.645   1.179
 1821SOL    HW2 6363   2.732   0.662   1.293
 1822SOL     OW 6364   0.895   2.388   1.587
 1822SOL    HW1 6365   0.839   2.393   1.504
 1822SOL    HW2 6366   0.851   2.327   1.653
 1823SOL     OW 6367   3.550   6.394   2.770
 1823SOL    HW1 6368   3.519   6.300   2.755
 1823SOL    HW2 6369   3.612   6.396   2.849
 1824SOL     OW 6370   4.006   3.943   0.477
 1824SOL    HW1 6371   3.920   3.986   0.450
 1824SOL    HW2 6372   3.994   3.844   0.481
 1825SOL     OW 6373   1.124   2.376   4.688
 1825SOL    HW1 6374   1.210   2.411   4.652
 1825SOL    HW2 6375   1.049   2.436   4.661
 1826SOL     OW 6376   2.938   1.732   1.839
 1826SOL    HW1 6377   2.989   1.797   1.782
 1826SOL    HW2 6378   2.890   1.667   1.780
 1827SOL     OW 6379   6.600   5.310   1.069
 1827SOL    HW1 6380   6.593   5.300   1.169
 1827SOL    HW2 6381   6.655   5.391   1.048
 1828SOL     OW 6382   1.517   2.391   0.117
 1828SOL    HW1 6383   1.514   2.322   0.045
 1828SOL    HW2 6384   1.612   2.401   0.149
 1829SOL     OW 6385   3.796   0.945   3.056
 1829SOL    HW1 6386   3.811   0.974   2.961
 1829SOL    HW2 6387   3.804   0.845   3.061
 1830SOL     OW 6388   5.648   6.143   4.518
 1830SOL    HW1 6389   5.631   6.049   4.546
 1830SOL    HW2 6390   5.735   6.148   4.468
 1831SOL     OW 6391   5.651   6.242   1.961
 1831SOL    HW1 6392   5.728   6.285   2.006
 1831SOL    HW2 6393   5.568   6.295   1.979
 1832SOL     OW 6394   4.231   1.582   0.788
 1832SOL    HW1 6395   4.264   1.566   0.695
 1832SOL    HW2 6396   4.236   1.679   0.810
 1833SOL     OW 6397   5.389   0.613   1.934
 1833SOL    HW1 6398   5.364   0.575   2.023
 1833SOL    HW2 6399   5.466   0.562   1.896
 1834SOL     OW 6400   2.214   3.924   0.647
 1834SOL    HW1 6401   2.187   3.887   0.558
 1834SOL    HW2 6402   2.300   3.973   0.638
 1835SOL     OW 6403   0.302   4.668   1.918
 1835SOL    HW1 6404   0.306   4.605   1.839
 1835SOL    HW2 6405   0.394   4.677   1.957
 1836SOL     OW 6406   5.478   2.701   1.342
 1836SOL    HW1 6407   5.432   2.657   1.419
 1836SOL    HW2 6408   5.461   2.651   1.258
 1837SOL     OW 6409   0.872   6.552   5.540
 1837SOL    HW1 6410   0.817   6.558   5.457
 1837SOL    HW2 6411   0.892   6.644   5.573
 1838SOL     OW 6412   6.549   0.773   5.243
 1838SOL    HW1 6413   6.643   0.744   5.226
 1838SOL    HW2 6414   6.489   0.692   5.244
 1839SOL     OW 6415   0.649   1.264   5.539
 1839SOL    HW1 6416   0.687   1.333   5.477
 1839SOL    HW2 6417   0.563   1.298   5.578
 1840SOL     OW 6418   4.028   6.964   2.204
 1840SOL    HW1 6419   4.113   7.000   2.165
 1840SOL    HW2 6420   3.954   0.005   2.186
 1841SOL     OW 6421   2.407   0.941   3.229
 1841SOL    HW1 6422   2.426   0.929   3.132
 1841SOL    HW2 6423   2.312   0.914   3.248
 1842SOL     OW 6424   1.774   5.778   0.934
 1842SOL    HW1 6425   1.787   5.856   0.873
 1842SOL    HW2 6426   1.744   5.811   1.024
 1843SOL     OW 6427   6.122   0.401   4.523
 1843SOL    HW1 6428   6.036   0.354   4.504
 1843SOL    HW2 6429   6.111   0.499   4.509
 1844SOL     OW 6430   3.563   6.922   5.029
 1844SOL    HW1 6431   3.475   6.877   5.048
 1844SOL    HW2 6432   3.545   7.010   4.985
 1845SOL     OW 6433   2.643   6.626   4.733
 1845SOL    HW1 6434   2.637   6.674   4.820
 1845SOL    HW2 6435   2.714   6.555   4.739
 1846SOL     OW 6436   3.680   1.105   2.383
 1846SOL    HW1 6437   3.777   1.079   2.383
 1846SOL    HW2 6438   3.672   1.204   2.393
 1847SOL     OW 6439   1.476   6.891   5.721
 1847SOL    HW1 6440   1.493   6.989   5.722
 1847SOL    HW2 6441   1.468   6.858   5.815
 1848SOL     OW 6442   2.062   6.338   2.975
 1848SOL    HW1 6443   2.087   6.412   3.037
 1848SOL    HW2 6444   1.969   6.306   2.997
 1849SOL     OW 6445   4.260   2.718   1.456
 1849SOL    HW1 6446   4.252   2.772   1.539
 1849SOL    HW2 6447   4.319   2.639   1.473
 1850SOL     OW 6448   0.205   2.431   2.471
 1850SOL    HW1 6449   0.167   2.520   2.495
 1850SOL    HW2 6450   0.290   2.443   2.419
 1851SOL     OW 6451   0.659   3.505   6.407
 1851SOL    HW1 6452   0.730   3.495   6.336
 1851SOL    HW2 6453   0.697   3.479   6.496
 1852SOL     OW 6454   6.976   4.587   2.701
 1852SOL    HW1 6455   6.919   4.663   2.668
 1852SOL    HW2 6456   6.920   4.523   2.753
 1853SOL     OW 6457   0.104   3.076   3.293
 1853SOL    HW1 6458   0.201   3.069   3.315
 1853SOL    HW2 6459   0.093   3.082   3.194
 1854SOL     OW 6460   2.101   5.471   2.908
 1854SOL    HW1 6461   2.157   5.422   2.974
 1854SOL    HW2 6462   2.060   5.551   2.951
 1855SOL     OW 6463   5.476   3.804   5.272
 1855SOL    HW1 6464   5.447   3.895   5.302
 1855SOL    HW2 6465   5.494   3.747   5.352
 1856SOL     OW 6466   4.864   3.616   6.034
 1856SOL    HW1 6467   4.849   3.714   6.044
 1856SOL    HW2 6468   4.954   3.593   6.070
 1857SOL     OW 6469   3.933   2.162   6.838
 1857SOL    HW1 6470   3.916   2.165   6.937
 1857SOL    HW2 6471   3.920   2.254   6.800
 1858SOL     OW 6472   5.507   3.399   3.163
 1858SOL    HW1 6473   5.516   3.433   3.256
 1858SOL    HW2 6474   5.574   3.326   3.147
 1859SOL     OW 6475   5.312   1.800   3.589
 1859SOL    HW1 6476   5.387   1.822   3.527
 1859SOL    HW2 6477   5.241   1.751   3.539
 1860SOL     OW 6478   0.653   1.071   5.039
 1860SOL    HW1 6479   0.604   1.085   5.126
 1860SOL    HW2 6480   0.628   1.145   4.976
 1861SOL     OW 6481   6.144   0.363   2.351
 1861SOL    HW1 6482   6.236   0.347   2.314
 1861SOL    HW2 6483   6.083   0.289   2.322
 1862SOL     OW 6484   2.667   0.548   6.434
 1862SOL    HW1 6485   2.664   0.630   6.378
 1862SOL    HW2 6486   2.719   0.567   6.518
 1863SOL     OW 6487   0.077   2.274   3.894
 1863SOL    HW1 6488   0.125   2.294   3.809
 1863SOL    HW2 6489   0.103   2.342   3.963
 1864SOL     OW 6490   2.509   5.777   4.925
 1864SOL    HW1 6491   2.523   5.838   5.003
 1864SOL    HW2 6492   2.577   5.798   4.854
 1865SOL     OW 6493   3.697   0.369   0.252
 1865SOL    HW1 6494   3.760   0.351   0.175
 1865SOL    HW2 6495   3.749   0.401   0.331
 1866SOL     OW 6496   6.434   4.879   3.848
 1866SOL    HW1 6497   6.424   4.943   3.772
 1866SOL    HW2 6498   6.354   4.819   3.852
 1867SOL     OW 6499   1.830   4.044   1.105
 1867SOL    HW1 6500   1.767   4.082   1.036
 1867SOL    HW2 6501   1.777   3.997   1.175
 1868SOL     OW 6502   4.961   3.468   6.776
 1868SOL    HW1 6503   5.004   3.556   6.793
 1868SOL    HW2 6504   4.930   3.464   6.681
 1869SOL     OW 6505   6.849   3.514   4.981
 1869SOL    HW1 6506   6.777   3.570   5.022
 1869SOL    HW2 6507   6.875   3.553   4.893
 1870SOL     OW 6508   1.082   3.306   5.220
 1870SOL    HW1 6509   1.177   3.320   5.245
 1870SOL    HW2 6510   1.071   3.215   5.178
 1871SOL     OW 6511   0.263   0.541   0.160
 1871SOL    HW1 6512   0.236   0.474   0.091
 1871SOL    HW2 6513   0.255   0.500   0.251
 1872SOL     OW 6514   4.727   2.025   0.336
 1872SOL    HW1 6515   4.688   1.945   0.289
 1872SOL    HW2 6516   4.824   2.032   0.315
 1873SOL     OW 6517   5.966   0.934   6.084
 1873SOL    HW1 6518   5.986   0.841   6.053
 1873SOL    HW2 6519   6.019   0.955   6.166
 1874SOL     OW 6520   1.755   1.334   6.846
 1874SOL    HW1 6521   1.804   1.419   6.828
 1874SOL    HW2 6522   1.665   1.337   6.802
 1875SOL     OW 6523   6.260   0.533   0.699
 1875SOL    HW1 6524   6.284   0.595   0.624
 1875SOL    HW2 6525   6.339   0.521   0.759
 1876SOL     OW 6526   3.634   5.716   5.905
 1876SOL    HW1 6527   3.684   5.779   5.965
 1876SOL    HW2 6528   3.629   5.755   5.813
 1877SOL     OW 6529   1.101   1.493   3.327
 1877SOL    HW1 6530   1.091   1.579   3.278
 1877SOL    HW2 6531   1.015   1.470   3.372
 1878SOL     OW 6532   0.025   2.551   4.349
 1878SOL    HW1 6533   6.948   2.559   4.339
 1878SOL    HW2 6534   0.051   2.571   4.443
 1879SOL     OW 6535   2.385   6.127   3.665
 1879SOL    HW1 6536   2.372   6.108   3.567
 1879SOL    HW2 6537   2.415   6.044   3.711
 1880SOL     OW 6538   0.323   1.756   2.891
 1880SOL    HW1 6539   0.358   1.753   2.985
 1880SOL    HW2 6540   0.283   1.846   2.873
 1881SOL     OW 6541   1.377   1.677   3.665
 1881SOL    HW1 6542   1.467   1.635   3.663
 1881SOL    HW2 6543   1.341   1.674   3.759
 1882SOL     OW 6544   1.101   4.636   6.582
 1882SOL    HW1 6545   1.125   4.726   6.618
 1882SOL    HW2 6546   1.182   4.593   6.542
 1883SOL     OW 6547   1.286   3.507   3.258
 1883SOL    HW1 6548   1.370   3.529   3.209
 1883SOL    HW2 6549   1.298   3.525   3.355
 1884SOL     OW 6550   5.997   2.315   0.819
 1884SOL    HW1 6551   5.986   2.375   0.740
 1884SOL    HW2 6552   5.907   2.283   0.849
 1885SOL     OW 6553   0.132   1.934   0.082
 1885SOL    HW1 6554   0.229   1.958   0.089
 1885SOL    HW2 6555   0.121   1.836   0.096
 1886SOL     OW 6556   2.850   1.355   1.079
 1886SOL    HW1 6557   2.776   1.332   1.016
 1886SOL    HW2 6558   2.901   1.434   1.044
 1887SOL     OW 6559   0.634   4.906   6.230
 1887SOL    HW1 6560   0.615   4.836   6.300
 1887SOL    HW2 6561   0.728   4.895   6.197
 1888SOL     OW 6562   3.224   2.027   6.285
 1888SOL    HW1 6563   3.220   1.962   6.361
 1888SOL    HW2 6564   3.235   2.120   6.321
 1889SOL     OW 6565   5.607   2.422   5.813
 1889SOL    HW1 6566   5.695   2.446   5.773
 1889SOL    HW2 6567   5.621   2.353   5.885
 1890SOL     OW 6568   1.471   5.730   5.209
 1890SOL    HW1 6569   1.425   5.691   5.289
 1890SOL    HW2 6570   1.489   5.657   5.142
 1891SOL     OW 6571   5.382   3.124   3.888
 1891SOL    HW1 6572   5.397   3.165   3.798
 1891SOL    HW2 6573   5.296   3.075   3.888
 1892SOL     OW 6574   4.057   0.473   0.954
 1892SOL    HW1 6575   4.066   0.571   0.975
 1892SOL    HW2 6576   3.965   0.443   0.976
 1893SOL     OW 6577   3.429   1.724   5.770
 1893SOL    HW1 6578   3.519   1.729   5.726
 1893SOL    HW2 6579   3.441   1.733   5.869
 1894SOL     OW 6580   3.726   4.015   2.570
 1894SOL    HW1 6581   3.655   4.075   2.535
 1894SOL    HW2 6582   3.780   3.978   2.494
 1895SOL     OW 6583   5.402   0.988   2.558
 1895SOL    HW1 6584   5.316   1.035   2.579
 1895SOL    HW2 6585   5.460   1.047   2.504
 1896SOL     OW 6586   0.852   0.470   3.172
 1896SOL    HW1 6587   0.843   0.406   3.095
 1896SOL    HW2 6588   0.780   0.452   3.239
 1897SOL     OW 6589   0.823   4.856   2.363
 1897SOL    HW1 6590   0.913   4.893   2.384
 1897SOL    HW2 6591   0.755   4.929   2.368
 1898SOL     OW 6592   3.204   4.852   2.428
 1898SOL    HW1 6593   3.206   4.857   2.528
 1898SOL    HW2 6594   3.161   4.766   2.400
 1899SOL     OW 6595   0.843   1.855   2.447
 1899SOL    HW1 6596   0.860   1.901   2.534
 1899SOL    HW2 6597   0.834   1.757   2.463
 1900SOL     OW 6598   1.230   0.464   5.131
 1900SOL    HW1 6599   1.211   0.553   5.172
 1900SOL    HW2 6600   1.144   0.419   5.108
 1901SOL     OW 6601   2.237   1.040   1.467
 1901SOL    HW1 6602   2.333   1.036   1.439
 1901SOL    HW2 6603   2.195   1.123   1.431
 1902SOL     OW 6604   2.240   2.446   4.377
 1902SOL    HW1 6605   2.306   2.464   4.450
 1902SOL    HW2 6606   2.264   2.361   4.331
 1903SOL     OW 6607   6.233   3.856   3.776
 1903SOL    HW1 6608   6.271   3.859   3.684
 1903SOL    HW2 6609   6.245   3.945   3.820
 1904SOL     OW 6610   5.979   6.862   4.200
 1904SOL    HW1 6611   5.930   6.775   4.199
 1904SOL    HW2 6612   5.938   6.924   4.134
 1905SOL     OW 6613   1.709   0.912   4.252
 1905SOL    HW1 6614   1.751   0.874   4.169
 1905SOL    HW2 6615   1.640   0.848   4.286
 1906SOL     OW 6616   2.544   0.316   5.181
 1906SOL    HW1 6617   2.529   0.368   5.096
 1906SOL    HW2 6618   2.638   0.333   5.213
 1907SOL     OW 6619   3.724   0.203   3.329
 1907SOL    HW1 6620   3.695   0.199   3.424
 1907SOL    HW2 6621   3.665   0.144   3.274
 1908SOL     OW 6622   3.885   0.707   4.747
 1908SOL    HW1 6623   3.969   0.662   4.715
 1908SOL    HW2 6624   3.890   0.805   4.726
 1909SOL     OW 6625   0.899   4.352   2.739
 1909SOL    HW1 6626   0.950   4.269   2.762
 1909SOL    HW2 6627   0.810   4.327   2.703
 1910SOL     OW 6628   0.443   2.658   6.795
 1910SOL    HW1 6629   0.519   2.704   6.750
 1910SOL    HW2 6630   0.403   2.719   6.863
 1911SOL     OW 6631   6.014   3.171   5.702
 1911SOL    HW1 6632   5.933   3.171   5.643
 1911SOL    HW2 6633   6.045   3.077   5.716
 1912SOL     OW 6634   3.521   7.014   1.200
 1912SOL    HW1 6635   3.544   7.011   1.297
 1912SOL    HW2 6636   3.533   6.924   1.159
 1913SOL     OW 6637   1.160   5.810   5.313
 1913SOL    HW1 6638   1.175   5.786   5.217
 1913SOL    HW2 6639   1.225   5.759   5.370
 1914SOL     OW 6640   3.348   2.924   6.591
 1914SOL    HW1 6641   3.269   2.866   6.610
 1914SOL    HW2 6642   3.427   2.867   6.568
 1915SOL     OW 6643   3.672   1.745   5.662
 1915SOL    HW1 6644   3.765   1.782   5.658
 1915SOL    HW2 6645   3.648   1.706   5.573
 1916SOL     OW 6646   3.281   6.208   1.273
 1916SOL    HW1 6647   3.329   6.120   1.270
 1916SOL    HW2 6648   3.337   6.278   1.229
 1917SOL     OW 6649   3.246   2.950   4.623
 1917SOL    HW1 6650   3.283   2.879   4.564
 1917SOL    HW2 6651   3.251   2.919   4.719
 1918SOL     OW 6652   0.611   1.128   6.980
 1918SOL    HW1 6653   0.673   1.086   6.913
 1918SOL    HW2 6654   0.546   1.060   7.012
 1919SOL     OW 6655   2.373   0.379   1.548
 1919SOL    HW1 6656   2.448   0.427   1.503
 1919SOL    HW2 6657   2.300   0.360   1.481
 1920SOL     OW 6658   1.122   5.115   3.010
 1920SOL    HW1 6659   1.088   5.167   3.088
 1920SOL    HW2 6660   1.121   5.172   2.928
 1921SOL     OW 6661   1.724   4.683   0.268
 1921SOL    HW1 6662   1.729   4.683   0.367
 1921SOL    HW2 6663   1.660   4.754   0.238
 1922SOL     OW 6664   3.445   4.228   0.698
 1922SOL    HW1 6665   3.360   4.180   0.677
 1922SOL    HW2 6666   3.490   4.184   0.776
 1923SOL     OW 6667   3.295   0.918   6.169
 1923SOL    HW1 6668   3.226   0.986   6.190
 1923SOL    HW2 6669   3.259   0.852   6.103
 1924SOL     OW 6670   5.214   5.080   1.713
 1924SOL    HW1 6671   5.277   5.031   1.772
 1924SOL    HW2 6672   5.170   5.154   1.764
 1925SOL     OW 6673   2.210   3.580   0.715
 1925SOL    HW1 6674   2.165   3.596   0.627
 1925SOL    HW2 6675   2.307   3.606   0.708
 1926SOL     OW 6676   1.496   6.741   2.881
 1926SOL    HW1 6677   1.502   6.652   2.928
 1926SOL    HW2 6678   1.529   6.813   2.942
 1927SOL     OW 6679   3.450   4.425   6.087
 1927SOL    HW1 6680   3.524   4.407   6.151
 1927SOL    HW2 6681   3.487   4.443   5.996
 1928SOL     OW 6682   6.664   4.052   5.621
 1928SOL    HW1 6683   6.747   4.059   5.678
 1928SOL    HW2 6684   6.588   4.021   5.678
 1929SOL     OW 6685   1.042   5.603   1.904
 1929SOL    HW1 6686   1.036   5.513   1.947
 1929SOL    HW2 6687   1.014   5.596   1.809
 1930SOL     OW 6688   3.558   3.937   6.491
 1930SOL    HW1 6689   3.475   3.883   6.474
 1930SOL    HW2 6690   3.564   3.959   6.588
 1931SOL     OW 6691   0.453   2.800   2.317
 1931SOL    HW1 6692   0.460   2.900   2.323
 1931SOL    HW2 6693   0.424   2.763   2.405
 1932SOL     OW 6694   5.154   3.401   3.277
 1932SOL    HW1 6695   5.119   3.466   3.345
 1932SOL    HW2 6696   5.085   3.331   3.259
 1933SOL     OW 6697   2.615   4.351   0.526
 1933SOL    HW1 6698   2.617   4.419   0.453
 1933SOL    HW2 6699   2.678   4.378   0.598
 1934SOL     OW 6700   1.044   0.119   5.027
 1934SOL    HW1 6701   1.027   0.217   5.021
 1934SOL    HW2 6702   1.107   0.092   4.954
 1935SOL     OW 6703   3.399   6.259   4.336
 1935SOL    HW1 6704   3.360   6.179   4.381
 1935SOL    HW2 6705   3.499   6.255   4.343
 1936SOL     OW 6706   6.592   3.941   3.979
 1936SOL    HW1 6707   6.645   3.891   4.049
 1936SOL    HW2 6708   6.499   3.956   4.012
 1937SOL     OW 6709   4.853   0.328   0.825
 1937SOL    HW1 6710   4.760   0.293   0.815
 1937SOL    HW2 6711   4.871   0.347   0.921
 1938SOL     OW 6712   2.559   0.869   1.670
 1938SOL    HW1 6713   2.563   0.799   1.741
 1938SOL    HW2 6714   2.651   0.902   1.651
 1939SOL     OW 6715   6.658   0.193   4.918
 1939SOL    HW1 6716   6.603   0.220   4.838
 1939SOL    HW2 6717   6.751   0.228   4.908
 1940SOL     OW 6718   4.724   5.053   0.258
 1940SOL    HW1 6719   4.731   4.990   0.180
 1940SOL    HW2 6720   4.692   5.142   0.227
 1941SOL     OW 6721   0.030   4.292   3.755
 1941SOL    HW1 6722   0.096   4.366   3.760
 1941SOL    HW2 6723   6.984   4.303   3.826
 1942SOL     OW 6724   5.249   0.489   1.628
 1942SOL    HW1 6725   5.179   0.498   1.699
 1942SOL    HW2 6726   5.227   0.550   1.552
 1943SOL     OW 6727   2.679   6.312   2.228
 1943SOL    HW1 6728   2.749   6.383   2.240
 1943SOL    HW2 6729   2.667   6.293   2.130
 1944SOL     OW 6730   5.818   2.607   0.406
 1944SOL    HW1 6731   5.832   2.696   0.364
 1944SOL    HW2 6732   5.825   2.535   0.337
 1945SOL     OW 6733   3.299   5.560   1.575
 1945SOL    HW1 6734   3.399   5.564   1.567
 1945SOL    HW2 6735   3.274   5.515   1.661
 1946SOL     OW 6736   6.176   0.419   1.392
 1946SOL    HW1 6737   6.228   0.480   1.451
 1946SOL    HW2 6738   6.142   0.469   1.313
 1947SOL     OW 6739   4.679   0.004   5.311
 1947SOL    HW1 6740   4.595   6.976   5.330
 1947SOL    HW2 6741   4.727   6.985   5.234
 1948SOL     OW 6742   5.737   5.204   3.502
 1948SOL    HW1 6743   5.761   5.118   3.457
 1948SOL    HW2 6744   5.777   5.206   3.594
 1949SOL     OW 6745   3.266   4.475   6.529
 1949SOL    HW1 6746   3.263   4.521   6.618
 1949SOL    HW2 6747   3.320   4.391   6.536
 1950SOL     OW 6748   3.916   4.539   0.357
 1950SOL    HW1 6749   3.939   4.532   0.454
 1950SOL    HW2 6750   3.905   4.635   0.332
 1951SOL     OW 6751   5.920   4.212   6.908
 1951SOL    HW1 6752   6.019   4.197   6.909
 1951SOL    HW2 6753   5.894   4.255   6.821
 1952SOL     OW 6754   4.674   2.530   0.534
 1952SOL    HW1 6755   4.599   2.464   0.534
 1952SOL    HW2 6756   4.690   2.563   0.627
 1953SOL     OW 6757   6.016   1.822   6.673
 1953SOL    HW1 6758   5.995   1.728   6.700
 1953SOL    HW2 6759   6.115   1.832   6.664
 1954SOL     OW 6760   5.713   1.578   3.286
 1954SOL    HW1 6761   5.697   1.653   3.349
 1954SOL    HW2 6762   5.728   1.613   3.194
 1955SOL     OW 6763   1.010   1.477   2.160
 1955SOL    HW1 6764   1.000   1.420   2.242
 1955SOL    HW2 6765   1.095   1.454   2.114
 1956SOL     OW 6766   4.751   6.565   2.790
 1956SOL    HW1 6767   4.661   6.607   2.798
 1956SOL    HW2 6768   4.815   6.631   2.752
 1957SOL     OW 6769   6.167   5.032   4.319
 1957SOL    HW1 6770   6.085   5.012   4.267
 1957SOL    HW2 6771   6.248   5.020   4.261
 1958SOL     OW 6772   4.851   2.404   2.721
 1958SOL    HW1 6773   4.782   2.400   2.648
 1958SOL    HW2 6774   4.936   2.362   2.689
 1959SOL     OW 6775   0.493   0.809   5.191
 1959SOL    HW1 6776   0.495   0.904   5.219
 1959SOL    HW2 6777   0.399   0.775   5.193
 1960SOL     OW 6778   6.815   4.321   2.173
 1960SOL    HW1 6779   6.907   4.349   2.198
 1960SOL    HW2 6780   6.801   4.335   2.074
 1961SOL     OW 6781   5.638   4.205   4.297
 1961SOL    HW1 6782   5.724   4.221   4.249
 1961SOL    HW2 6783   5.597   4.120   4.265
 1962SOL     OW 6784   2.003   6.666   3.622
 1962SOL    HW1 6785   1.928   6.712   3.573
 1962SOL    HW2 6786   1.968   6.584   3.666
 1963SOL     OW 6787   0.773   1.917   1.639
 1963SOL    HW1 6788   0.820   1.845   1.691
 1963SOL    HW2 6789   0.747   1.882   1.549
 1964SOL     OW 6790   4.747   4.228   0.420
 1964SOL    HW1 6791   4.784   4.318   0.441
 1964SOL    HW2 6792   4.648   4.234   0.411
 1965SOL     OW 6793   1.425   3.202   4.475
 1965SOL    HW1 6794   1.372   3.284   4.452
 1965SOL    HW2 6795   1.407   3.131   4.407
 1966SOL     OW 6796   6.703   6.380   0.078
 1966SOL    HW1 6797   6.706   6.421   0.170
 1966SOL    HW2 6798   6.753   6.294   0.079
 1967SOL     OW 6799   5.692   2.761   5.505
 1967SOL    HW1 6800   5.664   2.845   5.460
 1967SOL    HW2 6801   5.676   2.768   5.603
 1968SOL     OW 6802   2.430   0.200   6.701
 1968SOL    HW1 6803   2.482   0.115   6.695
 1968SOL    HW2 6804   2.461   0.263   6.629
 1969SOL     OW 6805   0.884   1.676   1.689
 1969SOL    HW1 6806   0.919   1.640   1.775
 1969SOL    HW2 6807   0.926   1.628   1.612
 1970SOL     OW 6808   2.112   6.684   6.150
 1970SOL    HW1 6809   2.112   6.745   6.230
 1970SOL    HW2 6810   2.033   6.623   6.154
 1971SOL     OW 6811   0.037   0.190   5.848
 1971SOL    HW1 6812   0.015   0.245   5.929
 1971SOL    HW2 6813   0.135   0.190   5.833
 1972SOL     OW 6814   5.230   2.545   2.157
 1972SOL    HW1 6815   5.278   2.620   2.202
 1972SOL    HW2 6816   5.189   2.577   2.072
 1973SOL     OW 6817   3.142   2.236   0.318
 1973SOL    HW1 6818   3.164   2.318   0.264
 1973SOL    HW2 6819   3.050   2.204   0.295
 1974SOL     OW 6820   5.928   0.134   4.617
 1974SOL    HW1 6821   6.023   0.105   4.630
 1974SOL    HW2 6822   5.884   0.143   4.707
 1975SOL     OW 6823   2.147   1.555   3.725
 1975SOL    HW1 6824   2.076   1.507   3.673
 1975SOL    HW2 6825   2.233   1.504   3.719
 1976SOL     OW 6826   0.239   6.522   0.064
 1976SOL    HW1 6827   0.210   6.570   7.003
 1976SOL    HW2 6828   0.163   6.468   0.099
 1977SOL     OW 6829   0.627   3.225   4.863
 1977SOL    HW1 6830   0.597   3.135   4.834
 1977SOL    HW2 6831   0.654   3.279   4.783
 1978SOL     OW 6832   1.530   0.363   2.931
 1978SOL    HW1 6833   1.596   0.361   2.856
 1978SOL    HW2 6834   1.481   0.276   2.935
 1979SOL     OW 6835   6.277   4.168   6.141
 1979SOL    HW1 6836   6.326   4.238   6.192
 1979SOL    HW2 6837   6.309   4.168   6.046
 1980SOL     OW 6838   2.904   0.373   4.593
 1980SOL    HW1 6839   2.949   0.321   4.520
 1980SOL    HW2 6840   2.828   0.426   4.554
 1981SOL     OW 6841   6.674   1.846   2.417
 1981SOL    HW1 6842   6.708   1.864   2.325
 1981SOL    HW2 6843   6.657   1.747   2.428
 1982SOL     OW 6844   0.052   4.220   4.961
 1982SOL    HW1 6845   0.013   4.135   4.997
 1982SOL    HW2 6846   7.000   4.283   4.936
 1983SOL     OW 6847   0.483   1.451   2.729
 1983SOL    HW1 6848   0.508   1.505   2.809
 1983SOL    HW2 6849   0.439   1.366   2.758
 1984SOL     OW 6850   5.820   1.439   5.093
 1984SOL    HW1 6851   5.842   1.461   5.188
 1984SOL    HW2 6852   5.891   1.380   5.055
 1985SOL     OW 6853   1.346   6.345   2.710
 1985SOL    HW1 6854   1.299   6.414   2.655
 1985SOL    HW2 6855   1.403   6.288   2.652
 1986SOL     OW 6856   1.622   1.248   0.058
 1986SOL    HW1 6857   1.551   1.180   0.041
 1986SOL    HW2 6858   1.693   1.241   7.010
 1987SOL     OW 6859   1.879   2.385   2.517
 1987SOL    HW1 6860   1.897   2.387   2.616
 1987SOL    HW2 6861   1.956   2.341   2.470
 1988SOL     OW 6862   5.979   4.320   0.685
 1988SOL    HW1 6863   5.957   4.224   0.672
 1988SOL    HW2 6864   5.896   4.375   0.677
 1989SOL     OW 6865   2.639   5.555   4.390
 1989SOL    HW1 6866   2.582   5.489   4.440
 1989SOL    HW2 6867   2.634   5.536   4.292
 1990SOL     OW 6868   3.595   6.385   0.733
 1990SOL    HW1 6869   3.610   6.476   0.695
 1990SOL    HW2 6870   3.626   6.316   0.667
 1991SOL     OW 6871   3.933   4.669   6.626
 1991SOL    HW1 6872   3.868   4.653   6.552
 1991SOL    HW2 6873   3.988   4.750   6.606
 1992SOL     OW 6874   1.285   0.833   0.729
 1992SOL    HW1 6875   1.237   0.872   0.650
 1992SOL    HW2 6876   1.348   0.901   0.767
 1993SOL     OW 6877   3.613   2.822   5.082
 1993SOL    HW1 6878   3.525   2.783   5.107
 1993SOL    HW2 6879   3.608   2.860   4.989
 1994SOL     OW 6880   0.532   1.091   0.723
 1994SOL    HW1 6881   0.543   1.087   0.822
 1994SOL    HW2 6882   0.609   1.044   0.679
 1995SOL     OW 6883   5.036   2.273   3.444
 1995SOL    HW1 6884   4.983   2.292   3.527
 1995SOL    HW2 6885   5.052   2.174   3.437
 1996SOL     OW 6886   2.160   3.305   0.660
 1996SOL    HW1 6887   2.194   3.389   0.701
 1996SOL    HW2 6888   2.126   3.244   0.732
 1997SOL     OW 6889   3.767   1.443   4.490
 1997SOL    HW1 6890   3.731   1.381   4.419
 1997SOL    HW2 6891   3.865   1.456   4.476
 1998SOL     OW 6892   2.008   4.525   6.449
 1998SOL    HW1 6893   1.994   4.451   6.383
 1998SOL    HW2 6894   2.015   4.612   6.401
 1999SOL     OW 6895   2.814   0.001   0.368
 1999SOL    HW1 6896   2.847   6.949   0.425
 1999SOL    HW2 6897   2.800   0.082   0.425
 2000SOL     OW 6898   4.333   2.167   5.466
 2000SOL    HW1 6899   4.354   2.088   5.522
 2000SOL    HW2 6900   4.316   2.138   5.372
 2001SOL     OW 6901   2.982   0.983   1.891
 2001SOL    HW1 6902   2.964   1.075   1.926
 2001SOL    HW2 6903   2.937   0.972   1.802
 2002SOL     OW 6904   0.945   4.523   6.775
 2002SOL    HW1 6905   0.996   4.563   6.699
 2002SOL    HW2 6906   0.910   4.433   6.748
 2003SOL     OW 6907   6.251   5.743   2.290
 2003SOL    HW1 6908   6.347   5.719   2.303
 2003SOL    HW2 6909   6.197   5.660   2.276
 2004SOL     OW 6910   5.454   0.698   5.782
 2004SOL    HW1 6911   5.361   0.669   5.805
 2004SOL    HW2 6912   5.500   0.732   5.864
 2005SOL     OW 6913   1.112   4.911   0.550
 2005SOL    HW1 6914   1.046   4.893   0.623
 2005SOL    HW2 6915   1.136   5.009   0.551
 2006SOL     OW 6916   4.954   6.637   4.149
 2006SOL    HW1 6917   5.005   6.672   4.071
 2006SOL    HW2 6918   4.953   6.707   4.221
 2007SOL     OW 6919   4.251   4.729   1.120
 2007SOL    HW1 6920   4.299   4.790   1.056
 2007SOL    HW2 6921   4.171   4.690   1.075
 2008SOL     OW 6922   3.020   5.098   4.027
 2008SOL    HW1 6923   2.924   5.095   4.055
 2008SOL    HW2 6924   3.065   5.013   4.054
 2009SOL     OW 6925   5.816   1.333   2.190
 2009SOL    HW1 6926   5.861   1.370   2.272
 2009SOL    HW2 6927   5.883   1.285   2.134
 2010SOL     OW 6928   2.139   1.664   0.839
 2010SOL    HW1 6929   2.234   1.675   0.809
 2010SOL    HW2 6930   2.102   1.753   0.866
 2011SOL     OW 6931   6.698   6.803   4.693
 2011SOL    HW1 6932   6.639   6.876   4.728
 2011SOL    HW2 6933   6.792   6.818   4.725
 2012SOL     OW 6934   1.476   3.818   1.953
 2012SOL    HW1 6935   1.480   3.757   2.032
 2012SOL    HW2 6936   1.425   3.773   1.879
 2013SOL     OW 6937   6.323   2.136   3.547
 2013SOL    HW1 6938   6.246   2.075   3.532
 2013SOL    HW2 6939   6.373   2.108   3.629
 2014SOL     OW 6940   2.531   5.196   3.722
 2014SOL    HW1 6941   2.493   5.177   3.632
 2014SOL    HW2 6942   2.530   5.294   3.739
 2015SOL     OW 6943   1.894   0.623   6.635
 2015SOL    HW1 6944   1.830   0.689   6.676
 2015SOL    HW2 6945   1.843   0.544   6.601
 2016SOL     OW 6946   1.215   6.079   5.132
 2016SOL    HW1 6947   1.279   6.044   5.201
 2016SOL    HW2 6948   1.236   6.174   5.111
 2017SOL     OW 6949   2.988   6.930   4.587
 2017SOL    HW1 6950   3.046   6.909   4.509
 2017SOL    HW2 6951   2.900   6.884   4.577
 2018SOL     OW 6952   5.542   6.967   5.609
 2018SOL    HW1 6953   5.620   6.912   5.581
 2018SOL    HW2 6954   5.460   6.909   5.610
 2019SOL     OW 6955   5.319   2.687   0.042
 2019SOL    HW1 6956   5.276   2.616   7.010
 2019SOL    HW2 6957   5.383   2.645   0.107
 2020SOL     OW 6958   0.896   6.237   4.793
 2020SOL    HW1 6959   0.939   6.327   4.801
 2020SOL    HW2 6960   0.923   6.180   4.871
 2021SOL     OW 6961   1.027   6.218   3.947
 2021SOL    HW1 6962   0.936   6.259   3.947
 2021SOL    HW2 6963   1.026   6.135   4.003
 2022SOL     OW 6964   1.741   3.868   3.245
 2022SOL    HW1 6965   1.776   3.893   3.155
 2022SOL    HW2 6966   1.817   3.848   3.306
 2023SOL     OW 6967   6.578   0.732   6.254
 2023SOL    HW1 6968   6.591   0.659   6.187
 2023SOL    HW2 6969   6.496   0.784   6.231
 2024SOL     OW 6970   0.345   0.092   3.911
 2024SOL    HW1 6971   0.419   0.074   3.846
 2024SOL    HW2 6972   0.258   0.099   3.862
 2025SOL     OW 6973   2.650   1.951   3.098
 2025SOL    HW1 6974   2.568   1.918   3.145
 2025SOL    HW2 6975   2.637   1.940   2.999
 2026SOL     OW 6976   0.293   2.758   6.012
 2026SOL    HW1 6977   0.243   2.816   6.076
 2026SOL    HW2 6978   0.392   2.771   6.025
 2027SOL     OW 6979   0.927   0.528   0.085
 2027SOL    HW1 6980   0.894   0.616   0.053
 2027SOL    HW2 6981   0.956   0.535   0.181
 2028SOL     OW 6982   3.033   6.555   5.341
 2028SOL    HW1 6983   2.941   6.531   5.372
 2028SOL    HW2 6984   3.041   6.535   5.243
 2029SOL     OW 6985   6.709   0.764   0.442
 2029SOL    HW1 6986   6.808   0.774   0.442
 2029SOL    HW2 6987   6.685   0.669   0.463
 2030SOL     OW 6988   2.264   1.286   2.869
 2030SOL    HW1 6989   2.275   1.244   2.779
 2030SOL    HW2 6990   2.167   1.300   2.887
 2031SOL     OW 6991   6.336   5.457   0.977
 2031SOL    HW1 6992   6.425   5.412   0.964
 2031SOL    HW2 6993   6.318   5.518   0.899
 2032SOL     OW 6994   4.767   0.113   2.081
 2032SOL    HW1 6995   4.692   0.049   2.067
 2032SOL    HW2 6996   4.848   0.064   2.113
 2033SOL     OW 6997   3.241   3.979   6.171
 2033SOL    HW1 6998   3.177   3.986   6.247
 2033SOL    HW2 6999   3.287   3.890   6.174
 2034SOL     OW 7000   2.966   5.871   5.306
 2034SOL    HW1 7001   2.938   5.781   5.340
 2034SOL    HW2 7002   2.983   5.866   5.208
 2035SOL     OW 7003   0.112   0.358   3.085
 2035SOL    HW1 7004   0.119   0.261   3.060
 2035SOL    HW2 7005   0.031   0.398   3.041
 2036SOL     OW 7006   1.489   4.243   2.851
 2036SOL    HW1 7007   1.459   4.174   2.784
 2036SOL    HW2 7008   1.409   4.277   2.900
 2037SOL     OW 7009   6.408   2.749   5.778
 2037SOL    HW1 7010   6.405   2.662   5.828
 2037SOL    HW2 7011   6.427   2.731   5.682
 2038SOL     OW 7012   1.802   2.423   0.153
 2038SOL    HW1 7013   1.812   2.323   0.151
 2038SOL    HW2 7014   1.891   2.465   0.135
 2039SOL     OW 7015   0.491   5.313   3.442
 2039SOL    HW1 7016   0.564   5.244   3.441
 2039SOL    HW2 7017   0.442   5.308   3.529
 2040SOL     OW 7018   3.204   3.403   5.282
 2040SOL    HW1 7019   3.273   3.366   5.344
 2040SOL    HW2 7020   3.193   3.341   5.204
 2041SOL     OW 7021   0.818   5.911   5.905
 2041SOL    HW1 7022   0.824   6.009   5.925
 2041SOL    HW2 7023   0.734   5.873   5.945
 2042SOL     OW 7024   4.848   6.124   0.135
 2042SOL    HW1 7025   4.843   6.199   0.069
 2042SOL    HW2 7026   4.905   6.151   0.212
 2043SOL     OW 7027   6.933   3.469   3.800
 2043SOL    HW1 7028   6.891   3.558   3.782
 2043SOL    HW2 7029   6.936   3.416   3.715
 2044SOL     OW 7030   6.397   6.880   1.593
 2044SOL    HW1 7031   6.400   6.782   1.570
 2044SOL    HW2 7032   6.306   6.916   1.572
 2045SOL     OW 7033   2.458   4.981   3.902
 2045SOL    HW1 7034   2.519   5.027   3.837
 2045SOL    HW2 7035   2.460   4.883   3.885
 2046SOL     OW 7036   6.469   2.214   4.133
 2046SOL    HW1 7037   6.452   2.303   4.175
 2046SOL    HW2 7038   6.567   2.194   4.135
 2047SOL     OW 7039   6.959   2.576   6.797
 2047SOL    HW1 7040   6.951   2.480   6.768
 2047SOL    HW2 7041   0.009   2.620   6.745
 2048SOL     OW 7042   1.881   6.614   6.032
 2048SOL    HW1 7043   1.847   6.520   6.038
 2048SOL    HW2 7044   1.804   6.677   6.033
 2049SOL     OW 7045   6.142   1.517   5.133
 2049SOL    HW1 7046   6.169   1.584   5.202
 2049SOL    HW2 7047   6.066   1.462   5.168
 2050SOL     OW 7048   6.551   2.713   4.305
 2050SOL    HW1 7049   6.489   2.739   4.379
 2050SOL    HW2 7050   6.540   2.776   4.228
 2051SOL     OW 7051   0.846   5.140   0.620
 2051SOL    HW1 7052   0.915   5.160   0.551
 2051SOL    HW2 7053   0.770   5.203   0.612
 2052SOL     OW 7054   1.635   3.646   1.275
 2052SOL    HW1 7055   1.724   3.614   1.308
 2052SOL    HW2 7056   1.562   3.604   1.330
 2053SOL     OW 7057   5.516   6.927   4.556
 2053SOL    HW1 7058   5.471   6.970   4.477
 2053SOL    HW2 7059   5.493   6.978   4.639
 2054SOL     OW 7060   3.509   4.142   3.287
 2054SOL    HW1 7061   3.520   4.163   3.384
 2054SOL    HW2 7062   3.413   4.152   3.261
 2055SOL     OW 7063   6.081   3.313   3.184
 2055SOL    HW1 7064   6.002   3.303   3.245
 2055SOL    HW2 7065   6.058   3.378   3.111
 2056SOL     OW 7066   4.133   5.678   2.322
 2056SOL    HW1 7067   4.173   5.742   2.387
 2056SOL    HW2 7068   4.112   5.726   2.237
 2057SOL     OW 7069   5.446   4.064   5.421
 2057SOL    HW1 7070   5.497   4.014   5.491
 2057SOL    HW2 7071   5.445   4.161   5.444
 2058SOL     OW 7072   0.795   1.830   3.268
 2058SOL    HW1 7073   0.729   1.755   3.266
 2058SOL    HW2 7074   0.788   1.879   3.355
 2059SOL     OW 7075   2.004   6.103   6.514
 2059SOL    HW1 7076   2.018   6.098   6.613
 2059SOL    HW2 7077   2.081   6.152   6.472
 2060SOL     OW 7078   0.203   4.310   1.829
 2060SOL    HW1 7079   0.114   4.320   1.786
 2060SOL    HW2 7080   0.269   4.369   1.782
 2061SOL     OW 7081   0.771   2.131   3.274
 2061SOL    HW1 7082   0.849   2.168   3.324
 2061SOL    HW2 7083   0.797   2.043   3.234
 2062SOL     OW 7084   6.280   6.358   3.698
 2062SOL    HW1 7085   6.371   6.316   3.689
 2062SOL    HW2 7086   6.289   6.457   3.696
 2063SOL     OW 7087   1.919   6.774   6.479
 2063SOL    HW1 7088   1.822   6.791   6.498
 2063SOL    HW2 7089   1.934   6.676   6.471
 2064SOL     OW 7090   1.249   2.549   5.391
 2064SOL    HW1 7091   1.314   2.614   5.352
 2064SOL    HW2 7092   1.167   2.598   5.422
 2065SOL     OW 7093   6.425   2.470   5.219
 2065SOL    HW1 7094   6.359   2.542   5.240
 2065SOL    HW2 7095   6.493   2.505   5.154
 2066SOL     OW 7096   0.353   4.635   4.166
 2066SOL    HW1 7097   0.388   4.554   4.213
 2066SOL    HW2 7098   0.305   4.694   4.231
 2067SOL     OW 7099   6.123   5.224   0.834
 2067SOL    HW1 7100   6.055   5.151   0.842
 2067SOL    HW2 7101   6.211   5.190   0.866
 2068SOL     OW 7102   2.498   6.879   4.303
 2068SOL    HW1 7103   2.544   6.848   4.386
 2068SOL    HW2 7104   2.470   6.799   4.249
 2069SOL     OW 7105   7.006   2.035   3.984
 2069SOL    HW1 7106   0.017   2.129   3.976
 2069SOL    HW2 7107   6.948   2.013   3.906
 2070SOL     OW 7108   0.790   1.058   1.563
 2070SOL    HW1 7109   0.838   0.996   1.501
 2070SOL    HW2 7110   0.768   1.143   1.515
 2071SOL     OW 7111   6.507   6.965   5.837
 2071SOL    HW1 7112   6.425   6.920   5.802
 2071SOL    HW2 7113   6.537   0.012   5.772
 2072SOL     OW 7114   4.253   6.338   4.219
 2072SOL    HW1 7115   4.192   6.302   4.148
 2072SOL    HW2 7116   4.211   6.418   4.261
 2073SOL     OW 7117   3.893   0.008   5.343
 2073SOL    HW1 7118   3.930   0.042   5.256
 2073SOL    HW2 7119   3.874   0.086   5.403
 2074SOL     OW 7120   1.980   2.561   6.789
 2074SOL    HW1 7121   2.052   2.629   6.805
 2074SOL    HW2 7122   1.891   2.607   6.783
 2075SOL     OW 7123   6.912   2.884   2.763
 2075SOL    HW1 7124   6.844   2.931   2.820
 2075SOL    HW2 7125   6.972   2.951   2.721
 2076SOL     OW 7126   6.243   0.178   6.496
 2076SOL    HW1 7127   6.149   0.164   6.464
 2076SOL    HW2 7128   6.241   0.223   6.585
 2077SOL     OW 7129   6.014   2.546   3.395
 2077SOL    HW1 7130   6.055   2.631   3.362
 2077SOL    HW2 7131   6.087   2.484   3.425
 2078SOL     OW 7132   1.544   5.820   5.982
 2078SOL    HW1 7133   1.608   5.759   5.936
 2078SOL    HW2 7134   1.451   5.802   5.950
 2079SOL     OW 7135   5.385   2.070   3.385
 2079SOL    HW1 7136   5.385   2.037   3.290
 2079SOL    HW2 7137   5.381   2.170   3.385
 2080SOL     OW 7138   1.513   7.018   4.769
 2080SOL    HW1 7139   1.445   6.980   4.831
 2080SOL    HW2 7140   1.496   6.983   4.676
 2081SOL     OW 7141   1.158   5.145   4.569
 2081SOL    HW1 7142   1.103   5.192   4.639
 2081SOL    HW2 7143   1.245   5.116   4.609
 2082SOL     OW 7144   0.443   0.061   3.059
 2082SOL    HW1 7145   0.439   0.158   3.081
 2082SOL    HW2 7146   0.493   0.012   3.130
 2083SOL     OW 7147   6.792   4.895   5.467
 2083SOL    HW1 7148   6.757   4.840   5.543
 2083SOL    HW2 7149   6.718   4.914   5.402
 2084SOL     OW 7150   0.445   4.548   3.363
 2084SOL    HW1 7151   0.477   4.494   3.441
 2084SOL    HW2 7152   0.350   4.574   3.377
 2085SOL     OW 7153   4.753   0.385   0.131
 2085SOL    HW1 7154   4.833   0.330   0.107
 2085SOL    HW2 7155   4.703   0.408   0.047
 2086SOL     OW 7156   4.126   6.597   6.292
 2086SOL    HW1 7157   4.049   6.547   6.331
 2086SOL    HW2 7158   4.200   6.603   6.359
 2087SOL     OW 7159   4.913   0.853   1.774
 2087SOL    HW1 7160   4.858   0.871   1.693
 2087SOL    HW2 7161   4.854   0.856   1.856
 2088SOL     OW 7162   1.776   5.881   0.425
 2088SOL    HW1 7163   1.692   5.830   0.411
 2088SOL    HW2 7164   1.781   5.957   0.360
 2089SOL     OW 7165   5.051   2.679   6.324
 2089SOL    HW1 7166   5.033   2.774   6.349
 2089SOL    HW2 7167   4.967   2.637   6.290
 2090SOL     OW 7168   4.395   3.616   5.625
 2090SOL    HW1 7169   4.366   3.706   5.658
 2090SOL    HW2 7170   4.381   3.611   5.526
 2091SOL     OW 7171   0.681   5.623   1.167
 2091SOL    HW1 7172   0.610   5.578   1.222
 2091SOL    HW2 7173   0.763   5.566   1.167
 2092SOL     OW 7174   4.682   3.921   0.039
 2092SOL    HW1 7175   4.756   3.973   7.021
 2092SOL    HW2 7176   4.609   3.908   6.995
 2093SOL     OW 7177   2.547   2.286   1.254
 2093SOL    HW1 7178   2.541   2.186   1.253
 2093SOL    HW2 7179   2.533   2.319   1.347
 2094SOL     OW 7180   6.202   1.979   3.212
 2094SOL    HW1 7181   6.221   2.019   3.122
 2094SOL    HW2 7182   6.153   2.046   3.268
 2095SOL     OW 7183   5.768   6.823   5.534
 2095SOL    HW1 7184   5.787   6.726   5.549
 2095SOL    HW2 7185   5.848   6.877   5.558
 2096SOL     OW 7186   4.871   4.108   3.131
 2096SOL    HW1 7187   4.831   4.050   3.061
 2096SOL    HW2 7188   4.924   4.181   3.088
 2097SOL     OW 7189   2.329   3.463   6.535
 2097SOL    HW1 7190   2.416   3.474   6.487
 2097SOL    HW2 7191   2.281   3.383   6.499
 2098SOL     OW 7192   3.727   6.022   1.756
 2098SOL    HW1 7193   3.773   6.053   1.672
 2098SOL    HW2 7194   3.655   5.956   1.732
 2099SOL     OW 7195   3.549   2.718   6.531
 2099SOL    HW1 7196   3.483   2.666   6.477
 2099SOL    HW2 7197   3.618   2.758   6.471
 2100SOL     OW 7198   5.378   2.535   6.752
 2100SOL    HW1 7199   5.302   2.492   6.800
 2100SOL    HW2 7200   5.362   2.531   6.654
 2101SOL     OW 7201   1.089   6.974   1.479
 2101SOL    HW1 7202   1.045   6.985   1.567
 2101SOL    HW2 7203   1.020   6.954   1.409
 2102SOL     OW 7204   5.308   5.056   2.643
 2102SOL    HW1 7205   5.318   4.958   2.627
 2102SOL    HW2 7206   5.319   5.075   2.741
 2103SOL     OW 7207   3.240   3.577   6.755
 2103SOL    HW1 7208   3.263   3.543   6.846
 2103SOL    HW2 7209   3.221   3.500   6.695
 2104SOL     OW 7210   1.663   4.190   1.855
 2104SOL    HW1 7211   1.710   4.226   1.935
 2104SOL    HW2 7212   1.651   4.263   1.788
 2105SOL     OW 7213   5.305   4.833   5.354
 2105SOL    HW1 7214   5.372   4.759   5.358
 2105SOL    HW2 7215   5.312   4.879   5.265
 2106SOL     OW 7216   5.071   3.604   0.686
 2106SOL    HW1 7217   5.026   3.662   0.754
 2106SOL    HW2 7218   5.089   3.658   0.603
 2107SOL     OW 7219   6.222   2.280   5.233
 2107SOL    HW1 7220   6.283   2.358   5.216
 2107SOL    HW2 7221   6.162   2.302   5.310
 2108SOL     OW 7222   6.228   6.013   4.438
 2108SOL    HW1 7223   6.316   5.983   4.476
 2108SOL    HW2 7224   6.155   5.955   4.473
 2109SOL     OW 7225   4.632   5.726   2.130
 2109SOL    HW1 7226   4.714   5.783   2.121
 2109SOL    HW2 7227   4.648   5.637   2.088
 2110SOL     OW 7228   2.535   1.352   0.356
 2110SOL    HW1 7229   2.634   1.339   0.354
 2110SOL    HW2 7230   2.497   1.335   0.265
 2111SOL     OW 7231   2.189   2.729   6.806
 2111SOL    HW1 7232   2.271   2.736   6.863
 2111SOL    HW2 7233   2.128   2.805   6.826
 2112SOL     OW 7234   5.224   2.707   0.804
 2112SOL    HW1 7235   5.300   2.734   0.862
 2112SOL    HW2 7236   5.148   2.770   0.816
 2113SOL     OW 7237   2.538   1.793   4.478
 2113SOL    HW1 7238   2.513   1.864   4.412
 2113SOL    HW2 7239   2.467   1.786   4.548
 2114SOL     OW 7240   2.192   1.942   6.432
 2114SOL    HW1 7241   2.110   1.998   6.418
 2114SOL    HW2 7242   2.184   1.893   6.519
 2115SOL     OW 7243   0.763   4.743   3.166
 2115SOL    HW1 7244   0.793   4.788   3.082
 2115SOL    HW2 7245   0.836   4.749   3.235
 2116SOL     OW 7246   0.431   4.448   2.973
 2116SOL    HW1 7247   0.370   4.395   2.914
 2116SOL    HW2 7248   0.511   4.477   2.921
 2117SOL     OW 7249   6.837   4.659   1.680
 2117SOL    HW1 7250   6.784   4.686   1.760
 2117SOL    HW2 7251   6.934   4.674   1.698
 2118SOL     OW 7252   6.351   2.687   2.918
 2118SOL    HW1 7253   6.256   2.716   2.930
 2118SOL    HW2 7254   6.360   2.635   2.833
 2119SOL     OW 7255   1.421   0.325   0.798
 2119SOL    HW1 7256   1.502   0.376   0.826
 2119SOL    HW2 7257   1.345   0.346   0.859
 2120SOL     OW 7258   0.423   4.649   3.916
 2120SOL    HW1 7259   0.522   4.638   3.929
 2120SOL    HW2 7260   0.378   4.651   4.005
 2121SOL     OW 7261   1.617   3.389   5.799
 2121SOL    HW1 7262   1.650   3.450   5.871
 2121SOL    HW2 7263   1.680   3.392   5.721
 2122SOL     OW 7264   5.493   4.738   5.862
 2122SOL    HW1 7265   5.477   4.811   5.796
 2122SOL    HW2 7266   5.427   4.746   5.937
 2123SOL     OW 7267   6.629   5.161   2.304
 2123SOL    HW1 7268   6.596   5.200   2.390
 2123SOL    HW2 7269   6.613   5.062   2.304
 2124SOL     OW 7270   2.911   2.443   1.052
 2124SOL    HW1 7271   2.830   2.450   0.994
 2124SOL    HW2 7272   2.978   2.511   1.025
 2125SOL     OW 7273   2.031   0.564   2.495
 2125SOL    HW1 7274   1.940   0.525   2.508
 2125SOL    HW2 7275   2.075   0.520   2.416
 2126SOL     OW 7276   4.211   2.657   6.558
 2126SOL    HW1 7277   4.242   2.574   6.605
 2126SOL    HW2 7278   4.289   2.716   6.539
 2127SOL     OW 7279   1.222   2.209   5.193
 2127SOL    HW1 7280   1.322   2.205   5.200
 2127SOL    HW2 7281   1.196   2.230   5.099
 2128SOL     OW 7282   6.562   3.530   4.069
 2128SOL    HW1 7283   6.573   3.446   4.122
 2128SOL    HW2 7284   6.510   3.597   4.123
 2129SOL     OW 7285   4.801   3.221   5.200
 2129SOL    HW1 7286   4.754   3.292   5.252
 2129SOL    HW2 7287   4.774   3.131   5.233
 2130SOL     OW 7288   3.517   0.684   2.955
 2130SOL    HW1 7289   3.494   0.665   3.050
 2130SOL    HW2 7290   3.434   0.679   2.899
 2131SOL     OW 7291   4.755   1.470   0.036
 2131SOL    HW1 7292   4.694   1.440   0.109
 2131SOL    HW2 7293   4.700   1.514   6.987
 2132SOL     OW 7294   4.041   0.770   0.930
 2132SOL    HW1 7295   4.088   0.783   0.842
 2132SOL    HW2 7296   3.945   0.795   0.921
 2133SOL     OW 7297   3.044   3.235   1.278
 2133SOL    HW1 7298   3.108   3.188   1.217
 2133SOL    HW2 7299   2.950   3.206   1.256
 2134SOL     OW 7300   1.037   0.484   5.414
 2134SOL    HW1 7301   1.054   0.539   5.496
 2134SOL    HW2 7302   1.089   0.399   5.419
 2135SOL     OW 7303   1.736   3.114   5.107
 2135SOL    HW1 7304   1.819   3.101   5.052
 2135SOL    HW2 7305   1.659   3.071   5.061
 2136SOL     OW 7306   0.433   4.382   4.617
 2136SOL    HW1 7307   0.381   4.324   4.554
 2136SOL    HW2 7308   0.371   4.423   4.684
 2137SOL     OW 7309   0.633   5.945   4.141
 2137SOL    HW1 7310   0.612   5.851   4.116
 2137SOL    HW2 7311   0.619   6.005   4.062
 2138SOL     OW 7312   6.944   0.603   2.192
 2138SOL    HW1 7313   6.982   0.685   2.150
 2138SOL    HW2 7314   6.892   0.551   2.124
 2139SOL     OW 7315   2.966   0.837   2.426
 2139SOL    HW1 7316   2.979   0.918   2.484
 2139SOL    HW2 7317   2.894   0.855   2.359
 2140SOL     OW 7318   3.586   6.297   3.919
 2140SOL    HW1 7319   3.623   6.215   3.962
 2140SOL    HW2 7320   3.661   6.356   3.888
 2141SOL     OW 7321   6.035   4.416   1.910
 2141SOL    HW1 7322   6.075   4.350   1.973
 2141SOL    HW2 7323   6.091   4.423   1.828
 2142SOL     OW 7324   1.396   2.140   2.987
 2142SOL    HW1 7325   1.347   2.193   2.918
 2142SOL    HW2 7326   1.480   2.188   3.013
 2143SOL     OW 7327   3.040   4.394   1.374
 2143SOL    HW1 7328   3.083   4.455   1.307
 2143SOL    HW2 7329   3.025   4.304   1.333
 2144SOL     OW 7330   1.309   5.632   4.048
 2144SOL    HW1 7331   1.304   5.532   4.047
 2144SOL    HW2 7332   1.404   5.660   4.031
 2145SOL     OW 7333   4.259   5.992   4.103
 2145SOL    HW1 7334   4.172   6.006   4.149
 2145SOL    HW2 7335   4.247   6.003   4.004
 2146SOL     OW 7336   2.704   3.936   1.233
 2146SOL    HW1 7337   2.694   3.935   1.133
 2146SOL    HW2 7338   2.745   3.851   1.264
 2147SOL     OW 7339   6.958   1.460   6.235
 2147SOL    HW1 7340   6.959   1.518   6.154
 2147SOL    HW2 7341   6.864   1.452   6.269
 2148SOL     OW 7342   5.128   2.381   4.862
 2148SOL    HW1 7343   5.160   2.327   4.940
 2148SOL    HW2 7344   5.193   2.373   4.786
 2149SOL     OW 7345   3.274   2.343   1.334
 2149SOL    HW1 7346   3.371   2.319   1.341
 2149SOL    HW2 7347   3.239   2.361   1.426
 2150SOL     OW 7348   2.993   1.761   2.462
 2150SOL    HW1 7349   3.059   1.813   2.407
 2150SOL    HW2 7350   2.938   1.825   2.517
 2151SOL     OW 7351   1.888   0.970   4.616
 2151SOL    HW1 7352   1.875   1.069   4.616
 2151SOL    HW2 7353   1.985   0.949   4.602
 2152SOL     OW 7354   4.046   6.047   1.679
 2152SOL    HW1 7355   4.041   6.016   1.774
 2152SOL    HW2 7356   4.127   6.104   1.667
 2153SOL     OW 7357   3.351   0.790   3.304
 2153SOL    HW1 7358   3.447   0.785   3.276
 2153SOL    HW2 7359   3.299   0.843   3.237
 2154SOL     OW 7360   4.631   0.379   5.122
 2154SOL    HW1 7361   4.576   0.402   5.202
 2154SOL    HW2 7362   4.719   0.343   5.151
 2155SOL     OW 7363   1.963   6.227   0.248
 2155SOL    HW1 7364   1.874   6.181   0.247
 2155SOL    HW2 7365   1.950   6.325   0.233
 2156SOL     OW 7366   2.548   0.818   4.300
 2156SOL    HW1 7367   2.500   0.735   4.328
 2156SOL    HW2 7368   2.506   0.854   4.216
 2157SOL     OW 7369   6.097   1.041   3.302
 2157SOL    HW1 7370   6.130   1.015   3.212
 2157SOL    HW2 7371   6.060   1.134   3.299
 2158SOL     OW 7372   3.924   6.525   0.839
 2158SOL    HW1 7373   3.921   6.569   0.929
 2158SOL    HW2 7374   3.983   6.444   0.843
 2159SOL     OW 7375   2.124   6.102   5.461
 2159SOL    HW1 7376   2.024   6.108   5.460
 2159SOL    HW2 7377   2.156   6.059   5.377
 2160SOL     OW 7378   4.705   4.033   0.637
 2160SOL    HW1 7379   4.689   4.113   0.695
 2160SOL    HW2 7380   4.742   4.062   0.549
 2161SOL     OW 7381   5.091   4.135   3.275
 2161SOL    HW1 7382   5.004   4.127   3.228
 2161SOL    HW2 7383   5.162   4.089   3.222
 2162SOL     OW 7384   2.877   0.692   0.994
 2162SOL    HW1 7385   2.883   0.741   0.907
 2162SOL    HW2 7386   2.829   0.606   0.980
 2163SOL     OW 7387   0.286   4.326   6.706
 2163SOL    HW1 7388   0.267   4.265   6.782
 2163SOL    HW2 7389   0.299   4.419   6.739
 2164SOL     OW 7390   1.852   2.950   0.375
 2164SOL    HW1 7391   1.808   2.982   0.458
 2164SOL    HW2 7392   1.821   2.857   0.355
 2165SOL     OW 7393   0.112   2.008   2.883
 2165SOL    HW1 7394   0.083   2.018   2.788
 2165SOL    HW2 7395   0.136   2.098   2.920
 2166SOL     OW 7396   1.460   2.351   5.241
 2166SOL    HW1 7397   1.525   2.425   5.223
 2166SOL    HW2 7398   1.387   2.385   5.300
 2167SOL     OW 7399   1.521   1.136   4.037
 2167SOL    HW1 7400   1.601   1.097   3.990
 2167SOL    HW2 7401   1.536   1.234   4.052
 2168SOL     OW 7402   0.787   1.913   3.534
 2168SOL    HW1 7403   0.747   2.002   3.556
 2168SOL    HW2 7404   0.833   1.877   3.615
 2169SOL     OW 7405   5.855   1.967   5.655
 2169SOL    HW1 7406   5.831   1.893   5.717
 2169SOL    HW2 7407   5.782   2.035   5.654
 2170SOL     OW 7408   6.345   5.803   5.159
 2170SOL    HW1 7409   6.358   5.705   5.145
 2170SOL    HW2 7410   6.267   5.835   5.106
 2171SOL     OW 7411   0.019   3.709   1.574
 2171SOL    HW1 7412   7.020   3.802   1.605
 2171SOL    HW2 7413   6.986   3.643   1.623
 2172SOL     OW 7414   2.711   2.472   0.480
 2172SOL    HW1 7415   2.742   2.494   0.388
 2172SOL    HW2 7416   2.737   2.378   0.502
 2173SOL     OW 7417   3.963   0.066   5.078
 2173SOL    HW1 7418   3.877   0.082   5.030
 2173SOL    HW2 7419   4.032   0.035   5.014
 2174SOL     OW 7420   5.471   5.171   5.225
 2174SOL    HW1 7421   5.445   5.089   5.175
 2174SOL    HW2 7422   5.501   5.145   5.317
 2175SOL     OW 7423   2.561   2.181   4.359
 2175SOL    HW1 7424   2.572   2.244   4.437
 2175SOL    HW2 7425   2.634   2.113   4.361
 2176SOL     OW 7426   0.850   2.936   6.863
 2176SOL    HW1 7427   0.934   2.913   6.814
 2176SOL    HW2 7428   0.872   2.956   6.958
 2177SOL     OW 7429   6.164   1.261   3.724
 2177SOL    HW1 7430   6.191   1.165   3.729
 2177SOL    HW2 7431   6.065   1.268   3.737
 2178SOL     OW 7432   1.068   3.652   0.165
 2178SOL    HW1 7433   1.141   3.718   0.145
 2178SOL    HW2 7434   0.980   3.690   0.135
 2179SOL     OW 7435   1.778   5.396   4.731
 2179SOL    HW1 7436   1.763   5.410   4.634
 2179SOL    HW2 7437   1.716   5.325   4.764
 2180SOL     OW 7438   2.268   2.718   1.888
 2180SOL    HW1 7439   2.363   2.741   1.866
 2180SOL    HW2 7440   2.207   2.787   1.849
 2181SOL     OW 7441   4.629   4.844   5.332
 2181SOL    HW1 7442   4.593   4.896   5.254
 2181SOL    HW2 7443   4.598   4.749   5.326
 2182SOL     OW 7444   0.459   3.484   4.876
 2182SOL    HW1 7445   0.433   3.503   4.971
 2182SOL    HW2 7446   0.530   3.413   4.875
 2183SOL     OW 7447   2.888   4.227   5.568
 2183SOL    HW1 7448   2.924   4.216   5.475
 2183SOL    HW2 7449   2.924   4.312   5.607
 2184SOL     OW 7450   5.052   1.659   6.499
 2184SOL    HW1 7451   5.043   1.758   6.510
 2184SOL    HW2 7452   4.968   1.614   6.530
 2185SOL     OW 7453   1.576   2.074   0.754
 2185SOL    HW1 7454   1.540   1.987   0.786
 2185SOL    HW2 7455   1.527   2.102   0.671
 2186SOL     OW 7456   0.098   5.204   2.395
 2186SOL    HW1 7457   0.103   5.269   2.319
 2186SOL    HW2 7458   0.152   5.238   2.472
 2187SOL     OW 7459   6.724   1.437   1.865
 2187SOL    HW1 7460   6.647   1.446   1.802
 2187SOL    HW2 7461   6.695   1.461   1.957
 2188SOL     OW 7462   5.767   6.151   4.169
 2188SOL    HW1 7463   5.684   6.191   4.207
 2188SOL    HW2 7464   5.751   6.126   4.073
 2189SOL     OW 7465   1.919   6.957   0.079
 2189SOL    HW1 7466   1.919   6.954   0.179
 2189SOL    HW2 7467   1.953   0.023   0.049
 2190SOL     OW 7468   0.606   2.597   1.744
 2190SOL    HW1 7469   0.627   2.682   1.694
 2190SOL    HW2 7470   0.582   2.525   1.679
 2191SOL     OW 7471   3.292   1.884   6.527
 2191SOL    HW1 7472   3.388   1.859   6.537
 2191SOL    HW2 7473   3.270   1.960   6.588
 2192SOL     OW 7474   3.816   0.678   3.040
 2192SOL    HW1 7475   3.866   0.613   2.982
 2192SOL    HW2 7476   3.723   0.688   3.005
 2193SOL     OW 7477   6.511   5.658   6.056
 2193SOL    HW1 7478   6.567   5.678   5.976
 2193SOL    HW2 7479   6.534   5.567   6.091
 2194SOL     OW 7480   2.132   4.921   6.499
 2194SOL    HW1 7481   2.034   4.909   6.511
 2194SOL    HW2 7482   2.151   4.946   6.404
 2195SOL     OW 7483   0.098   0.537   3.759
 2195SOL    HW1 7484   0.069   0.461   3.701
 2195SOL    HW2 7485   0.018   0.574   3.808
 2196SOL     OW 7486   3.259   0.205   4.976
 2196SOL    HW1 7487   3.218   0.139   4.913
 2196SOL    HW2 7488   3.223   0.297   4.957
 2197SOL     OW 7489   3.623   3.387   1.075
 2197SOL    HW1 7490   3.569   3.320   1.126
 2197SOL    HW2 7491   3.593   3.479   1.100
 2198SOL     OW 7492   6.599   1.002   0.027
 2198SOL    HW1 7493   6.672   0.951   7.003
 2198SOL    HW2 7494   6.623   1.099   0.031
 2199SOL     OW 7495   5.054   1.069   3.195
 2199SOL    HW1 7496   4.963   1.040   3.224
 2199SOL    HW2 7497   5.116   0.990   3.194
 2200SOL     OW 7498   3.135   6.862   4.367
 2200SOL    HW1 7499   3.230   6.854   4.338
 2200SOL    HW2 7500   3.085   6.921   4.304
 2201SOL     OW 7501   6.334   2.269   3.098
 2201SOL    HW1 7502   6.397   2.346   3.106
 2201SOL    HW2 7503   6.274   2.283   3.019
 2202SOL     OW 7504   2.821   4.769   2.553
 2202SOL    HW1 7505   2.828   4.869   2.555
 2202SOL    HW2 7506   2.873   4.730   2.629
 2203SOL     OW 7507   2.115   2.814   1.518
 2203SOL    HW1 7508   2.161   2.729   1.543
 2203SOL    HW2 7509   2.020   2.796   1.496
 2204SOL     OW 7510   4.251   1.394   6.847
 2204SOL    HW1 7511   4.287   1.384   6.940
 2204SOL    HW2 7512   4.327   1.416   6.785
 2205SOL     OW 7513   1.676   6.767   5.948
 2205SOL    HW1 7514   1.581   6.794   5.966
 2205SOL    HW2 7515   1.715   6.828   5.879
 2206SOL     OW 7516   2.196   4.434   6.106
 2206SOL    HW1 7517   2.151   4.350   6.078
 2206SOL    HW2 7518   2.251   4.469   6.030
 2207SOL     OW 7519   2.791   3.794   6.908
 2207SOL    HW1 7520   2.723   3.752   6.848
 2207SOL    HW2 7521   2.853   3.723   6.941
 2208SOL     OW 7522   1.517   6.173   2.577
 2208SOL    HW1 7523   1.581   6.181   2.501
 2208SOL    HW2 7524   1.553   6.109   2.645
 2209SOL     OW 7525   1.214   5.759   5.721
 2209SOL    HW1 7526   1.187   5.852   5.749
 2209SOL    HW2 7527   1.254   5.711   5.799
 2210SOL     OW 7528   6.976   5.003   4.157
 2210SOL    HW1 7529   0.021   5.076   4.155
 2210SOL    HW2 7530   6.894   5.034   4.205
 2211SOL     OW 7531   5.661   0.343   0.089
 2211SOL    HW1 7532   5.756   0.353   0.119
 2211SOL    HW2 7533   5.642   0.407   0.015
 2212SOL     OW 7534   2.427   6.494   0.025
 2212SOL    HW1 7535   2.425   6.541   6.959
 2212SOL    HW2 7536   2.333   6.474   0.053
 2213SOL     OW 7537   3.883   2.828   5.259
 2213SOL    HW1 7538   3.967   2.779   5.285
 2213SOL    HW2 7539   3.812   2.762   5.236
 2214SOL     OW 7540   4.153   2.627   5.716
 2214SOL    HW1 7541   4.163   2.720   5.682
 2214SOL    HW2 7542   4.172   2.626   5.815
 2215SOL     OW 7543   6.513   1.947   6.791
 2215SOL    HW1 7544   6.594   1.953   6.734
 2215SOL    HW2 7545   6.533   1.895   6.874
 2216SOL     OW 7546   1.538   0.161   5.971
 2216SOL    HW1 7547   1.513   0.247   6.015
 2216SOL    HW2 7548   1.456   0.115   5.937
 2217SOL     OW 7549   4.090   6.828   1.441
 2217SOL    HW1 7550   4.076   6.747   1.498
 2217SOL    HW2 7551   4.158   6.808   1.371
 2218SOL     OW 7552   0.274   6.711   0.955
 2218SOL    HW1 7553   0.195   6.652   0.940
 2218SOL    HW2 7554   0.318   6.685   1.041
 2219SOL     OW 7555   6.688   2.579   2.003
 2219SOL    HW1 7556   6.781   2.600   1.973
 2219SOL    HW2 7557   6.654   2.499   1.954
 2220SOL     OW 7558   0.805   0.666   3.881
 2220SOL    HW1 7559   0.712   0.630   3.883
 2220SOL    HW2 7560   0.862   0.615   3.946
 2221SOL     OW 7561   6.210   0.956   5.768
 2221SOL    HW1 7562   6.181   0.876   5.716
 2221SOL    HW2 7563   6.259   1.019   5.708
 2222SOL     OW 7564   4.241   0.212   0.562
 2222SOL    HW1 7565   4.330   0.185   0.525
 2222SOL    HW2 7566   4.253   0.253   0.652
 2223SOL     OW 7567   6.165   0.514   3.865
 2223SOL    HW1 7568   6.234   0.569   3.912
 2223SOL    HW2 7569   6.074   0.536   3.902
 2224SOL     OW 7570   1.787   4.330   1.290
 2224SOL    HW1 7571   1.852   4.290   1.355
 2224SOL    HW2 7572   1.765   4.424   1.318
 2225SOL     OW 7573   6.288   6.021   2.768
 2225SOL    HW1 7574   6.367   5.989   2.820
 2225SOL    HW2 7575   6.260   5.950   2.703
 2226SOL     OW 7576   3.860   5.527   0.724
 2226SOL    HW1 7577   3.767   5.535   0.759
 2226SOL    HW2 7578   3.866   5.572   0.635
 2227SOL     OW 7579   5.420   3.827   0.184
 2227SOL    HW1 7580   5.407   3.759   0.256
 2227SOL    HW2 7581   5.500   3.883   0.205
 2228SOL     OW 7582   2.689   5.228   1.386
 2228SOL    HW1 7583   2.615   5.173   1.346
 2228SOL    HW2 7584   2.678   5.231   1.485
 2229SOL     OW 7585   3.924   1.775   4.591
 2229SOL    HW1 7586   3.840   1.809   4.549
 2229SOL    HW2 7587   3.901   1.726   4.675
 2230SOL     OW 7588   6.053   5.754   5.379
 2230SOL    HW1 7589   5.965   5.742   5.425
 2230SOL    HW2 7590   6.063   5.684   5.308
 2231SOL     OW 7591   0.311   0.802   1.714
 2231SOL    HW1 7592   0.401   0.798   1.670
 2231SOL    HW2 7593   0.310   0.876   1.782
 2232SOL     OW 7594   0.757   3.014   4.474
 2232SOL    HW1 7595   0.681   3.030   4.411
 2232SOL    HW2 7596   0.728   3.037   4.567
 2233SOL     OW 7597   2.325   4.410   1.367
 2233SOL    HW1 7598   2.293   4.317   1.387
 2233SOL    HW2 7599   2.278   4.444   1.285
 2234SOL     OW 7600   4.193   2.028   1.946
 2234SOL    HW1 7601   4.192   2.116   1.993
 2234SOL    HW2 7602   4.100   2.003   1.921
 2235SOL     OW 7603   1.923   0.655   1.179
 2235SOL    HW1 7604   1.891   0.631   1.087
 2235SOL    HW2 7605   1.911   0.577   1.240
 2236SOL     OW 7606   0.904   4.130   6.708
 2236SOL    HW1 7607   0.972   4.151   6.637
 2236SOL    HW2 7608   0.887   4.031   6.710
 2237SOL     OW 7609   5.794   4.748   3.661
 2237SOL    HW1 7610   5.697   4.750   3.638
 2237SOL    HW2 7611   5.848   4.733   3.578
 2238SOL     OW 7612   5.401   4.986   1.866
 2238SOL    HW1 7613   5.402   5.080   1.899
 2238SOL    HW2 7614   5.449   4.927   1.932
 2239SOL     OW 7615   3.313   5.293   3.395
 2239SOL    HW1 7616   3.263   5.303   3.309
 2239SOL    HW2 7617   3.289   5.205   3.437
 2240SOL     OW 7618   5.176   6.112   3.936
 2240SOL    HW1 7619   5.120   6.029   3.943
 2240SOL    HW2 7620   5.189   6.134   3.839
 2241SOL     OW 7621   0.539   0.080   2.317
 2241SOL    HW1 7622   0.440   0.071   2.306
 2241SOL    HW2 7623   0.559   0.163   2.369
 2242SOL     OW 7624   4.897   2.277   2.954
 2242SOL    HW1 7625   4.987   2.234   2.955
 2242SOL    HW2 7626   4.890   2.340   2.877
 2243SOL     OW 7627   2.573   6.588   5.505
 2243SOL    HW1 7628   2.532   6.616   5.591
 2243SOL    HW2 7629   2.666   6.556   5.521
 2244SOL     OW 7630   2.459   0.063   2.183
 2244SOL    HW1 7631   2.431   7.008   2.239
 2244SOL    HW2 7632   2.384   0.127   2.175
 2245SOL     OW 7633   0.403   1.659   2.323
 2245SOL    HW1 7634   0.422   1.628   2.416
 2245SOL    HW2 7635   0.450   1.746   2.307
 2246SOL     OW 7636   1.088   1.139   5.832
 2246SOL    HW1 7637   1.132   1.228   5.841
 2246SOL    HW2 7638   1.009   1.146   5.772
 2247SOL     OW 7639   2.707   2.934   5.900
 2247SOL    HW1 7640   2.770   2.951   5.824
 2247SOL    HW2 7641   2.626   2.886   5.865
 2248SOL     OW 7642   3.584   3.663   6.409
 2248SOL    HW1 7643   3.625   3.754   6.419
 2248SOL    HW2 7644   3.586   3.636   6.313
 2249SOL     OW 7645   5.910   6.596   2.381
 2249SOL    HW1 7646   5.923   6.530   2.306
 2249SOL    HW2 7647   5.882   6.547   2.463
 2250SOL     OW 7648   4.281   3.923   0.172
 2250SOL    HW1 7649   4.316   3.905   0.080
 2250SOL    HW2 7650   4.357   3.939   0.235
 2251SOL     OW 7651   5.022   0.866   0.371
 2251SOL    HW1 7652   4.926   0.891   0.381
 2251SOL    HW2 7653   5.050   0.809   0.447
 2252SOL     OW 7654   5.253   2.220   2.990
 2252SOL    HW1 7655   5.301   2.262   2.914
 2252SOL    HW2 7656   5.184   2.157   2.956
 2253SOL     OW 7657   1.190   3.956   6.289
 2253SOL    HW1 7658   1.242   3.870   6.288
 2253SOL    HW2 7659   1.144   3.968   6.201
 2254SOL     OW 7660   2.666   3.266   5.649
 2254SOL    HW1 7661   2.688   3.358   5.618
 2254SOL    HW2 7662   2.575   3.266   5.691
 2255SOL     OW 7663   4.806   2.897   6.787
 2255SOL    HW1 7664   4.753   2.814   6.772
 2255SOL    HW2 7665   4.795   2.928   6.882
 2256SOL     OW 7666   5.097   6.194   1.744
 2256SOL    HW1 7667   5.095   6.280   1.796
 2256SOL    HW2 7668   5.050   6.123   1.796
 2257SOL     OW 7669   0.149   1.911   4.217
 2257SOL    HW1 7670   0.106   1.964   4.144
 2257SOL    HW2 7671   0.131   1.955   4.305
 2258SOL     OW 7672   1.458   5.615   5.820
 2258SOL    HW1 7673   1.485   5.538   5.763
 2258SOL    HW2 7674   1.423   5.582   5.908
 2259SOL     OW 7675   4.446   4.050   6.707
 2259SOL    HW1 7676   4.351   4.053   6.676
 2259SOL    HW2 7677   4.461   4.123   6.775
 2260SOL     OW 7678   5.716   4.412   3.290
 2260SOL    HW1 7679   5.772   4.347   3.342
 2260SOL    HW2 7680   5.773   4.491   3.264
 2261SOL     OW 7681   6.703   6.480   0.604
 2261SOL    HW1 7682   6.718   6.402   0.665
 2261SOL    HW2 7683   6.703   6.449   0.509
 2262SOL     OW 7684   5.102   2.051   1.809
 2262SOL    HW1 7685   5.135   2.056   1.904
 2262SOL    HW2 7686   5.014   2.097   1.803
 2263SOL     OW 7687   2.796   5.917   6.492
 2263SOL    HW1 7688   2.855   5.995   6.473
 2263SOL    HW2 7689   2.738   5.937   6.571
 2264SOL     OW 7690   3.352   3.076   0.882
 2264SOL    HW1 7691   3.337   2.977   0.881
 2264SOL    HW2 7692   3.448   3.095   0.900
 2265SOL     OW 7693   0.501   0.627   3.851
 2265SOL    HW1 7694   0.435   0.665   3.785
 2265SOL    HW2 7695   0.483   0.666   3.941
 2266SOL     OW 7696   6.274   1.993   1.292
 2266SOL    HW1 7697   6.235   2.085   1.301
 2266SOL    HW2 7698   6.323   1.986   1.205
 2267SOL     OW 7699   5.016   2.623   4.979
 2267SOL    HW1 7700   4.920   2.625   4.950
 2267SOL    HW2 7701   5.060   2.542   4.942
 2268SOL     OW 7702   6.650   3.924   6.194
 2268SOL    HW1 7703   6.741   3.937   6.155
 2268SOL    HW2 7704   6.607   4.014   6.207
 2269SOL     OW 7705   5.723   6.113   5.129
 2269SOL    HW1 7706   5.704   6.026   5.082
 2269SOL    HW2 7707   5.683   6.111   5.220
 2270SOL     OW 7708   3.638   2.502   6.215
 2270SOL    HW1 7709   3.662   2.499   6.312
 2270SOL    HW2 7710   3.566   2.435   6.196
 2271SOL     OW 7711   6.222   4.277   0.586
 2271SOL    HW1 7712   6.152   4.318   0.644
 2271SOL    HW2 7713   6.185   4.197   0.539
 2272SOL     OW 7714   5.845   1.692   4.995
 2272SOL    HW1 7715   5.844   1.598   5.028
 2272SOL    HW2 7716   5.932   1.710   4.950
 2273SOL     OW 7717   1.758   0.551   2.113
 2273SOL    HW1 7718   1.852   0.520   2.099
 2273SOL    HW2 7719   1.753   0.649   2.094
 2274SOL     OW 7720   1.885   2.186   5.835
 2274SOL    HW1 7721   1.859   2.182   5.738
 2274SOL    HW2 7722   1.959   2.251   5.847
 2275SOL     OW 7723   5.836   0.836   4.605
 2275SOL    HW1 7724   5.777   0.896   4.660
 2275SOL    HW2 7725   5.795   0.745   4.599
 2276SOL     OW 7726   2.996   4.710   1.168
 2276SOL    HW1 7727   2.945   4.633   1.128
 2276SOL    HW2 7728   3.044   4.759   1.095
 2277SOL     OW 7729   3.685   3.452   5.678
 2277SOL    HW1 7730   3.750   3.435   5.752
 2277SOL    HW2 7731   3.593   3.463   5.716
 2278SOL     OW 7732   6.604   5.387   3.751
 2278SOL    HW1 7733   6.664   5.310   3.772
 2278SOL    HW2 7734   6.631   5.427   3.663
 2279SOL     OW 7735   4.544   6.085   4.760
 2279SOL    HW1 7736   4.505   6.097   4.851
 2279SOL    HW2 7737   4.643   6.100   4.763
 2280SOL     OW 7738   0.130   5.912   4.806
 2280SOL    HW1 7739   0.162   5.874   4.893
 2280SOL    HW2 7740   0.067   5.988   4.825
 2281SOL     OW 7741   3.744   1.230   1.542
 2281SOL    HW1 7742   3.728   1.231   1.640
 2281SOL    HW2 7743   3.763   1.323   1.511
 2282SOL     OW 7744   4.840   6.854   5.154
 2282SOL    HW1 7745   4.867   6.932   5.096
 2282SOL    HW2 7746   4.755   6.815   5.119
 2283SOL     OW 7747   6.360   4.668   1.730
 2283SOL    HW1 7748   6.370   4.767   1.718
 2283SOL    HW2 7749   6.364   4.646   1.827
 2284SOL     OW 7750   2.344   1.659   0.100
 2284SOL    HW1 7751   2.319   1.697   0.011
 2284SOL    HW2 7752   2.423   1.598   0.090
 2285SOL     OW 7753   1.827   2.167   0.661
 2285SOL    HW1 7754   1.781   2.103   0.723
 2285SOL    HW2 7755   1.762   2.197   0.591
 2286SOL     OW 7756   0.359   0.089   4.786
 2286SOL    HW1 7757   0.316   0.161   4.730
 2286SOL    HW2 7758   0.448   0.065   4.747
 2287SOL     OW 7759   1.835   1.707   2.273
 2287SOL    HW1 7760   1.818   1.713   2.175
 2287SOL    HW2 7761   1.833   1.611   2.301
 2288SOL     OW 7762   6.540   5.236   4.323
 2288SOL    HW1 7763   6.494   5.272   4.241
 2288SOL    HW2 7764   6.502   5.280   4.404
 2289SOL     OW 7765   6.645   4.495   2.963
 2289SOL    HW1 7766   6.616   4.572   3.020
 2289SOL    HW2 7767   6.592   4.494   2.878
 2290SOL     OW 7768   1.340   3.385   1.997
 2290SOL    HW1 7769   1.354   3.436   2.082
 2290SOL    HW2 7770   1.427   3.349   1.964
 2291SOL     OW 7771   2.265   2.346   6.864
 2291SOL    HW1 7772   2.293   2.441   6.858
 2291SOL    HW2 7773   2.273   2.303   6.774
 2292SOL     OW 7774   5.914   2.473   3.653
 2292SOL    HW1 7775   5.934   2.569   3.671
 2292SOL    HW2 7776   5.917   2.457   3.554
 2293SOL     OW 7777   6.413   6.592   1.191
 2293SOL    HW1 7778   6.321   6.606   1.155
 2293SOL    HW2 7779   6.456   6.681   1.207
 2294SOL     OW 7780   3.622   1.021   6.319
 2294SOL    HW1 7781   3.601   0.949   6.253
 2294SOL    HW2 7782   3.539   1.071   6.343
 2295SOL     OW 7783   0.826   1.587   2.585
 2295SOL    HW1 7784   0.747   1.596   2.646
 2295SOL    HW2 7785   0.863   1.495   2.592
 2296SOL     OW 7786   3.327   5.860   2.557
 2296SOL    HW1 7787   3.289   5.847   2.466
 2296SOL    HW2 7788   3.413   5.911   2.549
 2297SOL     OW 7789   5.005   4.298   5.612
 2297SOL    HW1 7790   5.048   4.353   5.541
 2297SOL    HW2 7791   4.968   4.214   5.572
 2298SOL     OW 7792   4.004   3.626   2.273
 2298SOL    HW1 7793   4.040   3.712   2.235
 2298SOL    HW2 7794   4.044   3.610   2.363
 2299SOL     OW 7795   4.560   4.537   5.314
 2299SOL    HW1 7796   4.645   4.505   5.272
 2299SOL    HW2 7797   4.515   4.461   5.361
 2300SOL     OW 7798   1.905   5.909   3.006
 2300SOL    HW1 7799   1.947   5.984   3.057
 2300SOL    HW2 7800   1.874   5.943   2.917
 2301SOL     OW 7801   3.339   2.933   3.332
 2301SOL    HW1 7802   3.283   2.860   3.294
 2301SOL    HW2 7803   3.302   3.021   3.303
 2302SOL     OW 7804   4.016   0.508   1.268
 2302SOL    HW1 7805   4.076   0.431   1.292
 2302SOL    HW2 7806   4.062   0.565   1.200
 2303SOL     OW 7807   2.500   3.765   0.102
 2303SOL    HW1 7808   2.454   3.826   0.166
 2303SOL    HW2 7809   2.513   3.812   0.014
 2304SOL     OW 7810   5.381   6.893   4.142
 2304SOL    HW1 7811   5.425   6.974   4.181
 2304SOL    HW2 7812   5.360   6.828   4.215
 2305SOL     OW 7813   1.880   0.497   2.984
 2305SOL    HW1 7814   1.787   0.529   3.000
 2305SOL    HW2 7815   1.943   0.575   2.990
 2306SOL     OW 7816   2.432   5.439   2.311
 2306SOL    HW1 7817   2.504   5.433   2.380
 2306SOL    HW2 7818   2.353   5.384   2.341
 2307SOL     OW 7819   0.129   2.868   4.555
 2307SOL    HW1 7820   0.092   2.884   4.463
 2307SOL    HW2 7821   0.113   2.949   4.612
 2308SOL     OW 7822   2.247   4.725   1.850
 2308SOL    HW1 7823   2.303   4.794   1.895
 2308SOL    HW2 7824   2.296   4.688   1.771
 2309SOL     OW 7825   1.916   0.458   5.372
 2309SOL    HW1 7826   1.832   0.441   5.321
 2309SOL    HW2 7827   1.950   0.372   5.411
 2310SOL     OW 7828   5.507   5.607   0.949
 2310SOL    HW1 7829   5.580   5.577   1.010
 2310SOL    HW2 7830   5.450   5.675   0.995
 2311SOL     OW 7831   2.264   0.004   1.100
 2311SOL    HW1 7832   2.248   6.993   1.193
 2311SOL    HW2 7833   2.357   0.040   1.093
 2312SOL     OW 7834   5.085   6.004   3.191
 2312SOL    HW1 7835   5.020   6.054   3.249
 2312SOL    HW2 7836   5.100   6.055   3.107
 2313SOL     OW 7837   5.101   5.800   1.920
 2313SOL    HW1 7838   5.126   5.806   1.823
 2313SOL    HW2 7839   5.053   5.714   1.937
 2314SOL     OW 7840   5.359   5.956   3.730
 2314SOL    HW1 7841   5.393   5.883   3.790
 2314SOL    HW2 7842   5.269   5.930   3.694
 2315SOL     OW 7843   5.299   2.808   6.639
 2315SOL    HW1 7844   5.360   2.785   6.563
 2315SOL    HW2 7845   5.232   2.735   6.650
 2316SOL     OW 7846   4.132   1.707   3.800
 2316SOL    HW1 7847   4.096   1.787   3.752
 2316SOL    HW2 7848   4.109   1.714   3.897
 2317SOL     OW 7849   0.448   6.083   3.318
 2317SOL    HW1 7850   0.456   6.171   3.272
 2317SOL    HW2 7851   0.353   6.052   3.314
 2318SOL     OW 7852   0.607   2.822   3.649
 2318SOL    HW1 7853   0.689   2.780   3.610
 2318SOL    HW2 7854   0.631   2.866   3.736
 2319SOL     OW 7855   1.912   4.891   3.047
 2319SOL    HW1 7856   1.843   4.961   3.067
 2319SOL    HW2 7857   1.910   4.821   3.118
 2320SOL     OW 7858   0.926   2.443   3.949
 2320SOL    HW1 7859   0.858   2.516   3.939
 2320SOL    HW2 7860   0.990   2.447   3.872
 2321SOL     OW 7861   2.868   0.383   6.007
 2321SOL    HW1 7862   2.847   0.345   5.917
 2321SOL    HW2 7863   2.848   0.316   6.078
 2322SOL     OW 7864   2.464   1.752   4.968
 2322SOL    HW1 7865   2.429   1.818   5.034
 2322SOL    HW2 7866   2.564   1.744   4.978
 2323SOL     OW 7867   2.721   5.028   2.099
 2323SOL    HW1 7868   2.756   5.115   2.132
 2323SOL    HW2 7869   2.789   4.956   2.114
 2324SOL     OW 7870   6.575   6.651   2.039
 2324SOL    HW1 7871   6.566   6.671   2.137
 2324SOL    HW2 7872   6.504   6.699   1.988
 2325SOL     OW 7873   1.065   4.819   1.915
 2325SOL    HW1 7874   1.122   4.883   1.863
 2325SOL    HW2 7875   1.013   4.761   1.851
 2326SOL     OW 7876   3.329   4.701   5.336
 2326SOL    HW1 7877   3.256   4.645   5.375
 2326SOL    HW2 7878   3.313   4.714   5.238
 2327SOL     OW 7879   6.164   3.730   5.037
 2327SOL    HW1 7880   6.137   3.816   4.994
 2327SOL    HW2 7881   6.082   3.679   5.066
 2328SOL     OW 7882   3.317   2.163   3.146
 2328SOL    HW1 7883   3.375   2.178   3.226
 2328SOL    HW2 7884   3.221   2.179   3.171
 2329SOL     OW 7885   1.355   4.293   5.210
 2329SOL    HW1 7886   1.349   4.318   5.307
 2329SOL    HW2 7887   1.363   4.376   5.155
 2330SOL     OW 7888   0.854   3.851   2.246
 2330SOL    HW1 7889   0.823   3.760   2.272
 2330SOL    HW2 7890   0.777   3.903   2.208
 2331SOL     OW 7891   6.357   3.850   0.291
 2331SOL    HW1 7892   6.374   3.753   0.307
 2331SOL    HW2 7893   6.397   3.904   0.365
 2332SOL     OW 7894   4.650   1.954   5.982
 2332SOL    HW1 7895   4.656   1.926   5.886
 2332SOL    HW2 7896   4.739   1.940   6.025
 2333SOL     OW 7897   0.040   5.788   3.114
 2333SOL    HW1 7898   0.037   5.702   3.164
 2333SOL    HW2 7899   6.989   5.848   3.145
 2334SOL     OW 7900   2.596   0.278   6.976
 2334SOL    HW1 7901   2.686   0.322   6.984
 2334SOL    HW2 7902   2.561   0.288   6.883
 2335SOL     OW 7903   5.737   1.137   3.263
 2335SOL    HW1 7904   5.766   1.213   3.205
 2335SOL    HW2 7905   5.644   1.111   3.238
 2336SOL     OW 7906   4.000   1.959   5.311
 2336SOL    HW1 7907   4.052   1.943   5.227
 2336SOL    HW2 7908   3.911   1.915   5.305
 2337SOL     OW 7909   4.573   1.247   3.816
 2337SOL    HW1 7910   4.598   1.314   3.745
 2337SOL    HW2 7911   4.477   1.221   3.805
 2338SOL     OW 7912   0.883   1.077   0.054
 2338SOL    HW1 7913   0.785   1.095   0.064
 2338SOL    HW2 7914   0.907   1.074   6.980
 2339SOL     OW 7915   3.917   3.666   5.273
 2339SOL    HW1 7916   3.976   3.603   5.224
 2339SOL    HW2 7917   3.955   3.758   5.269
 2340SOL     OW 7918   5.196   5.390   6.077
 2340SOL    HW1 7919   5.248   5.358   5.998
 2340SOL    HW2 7920   5.217   5.332   6.156
 2341SOL     OW 7921   5.238   4.259   1.418
 2341SOL    HW1 7922   5.141   4.279   1.410
 2341SOL    HW2 7923   5.273   4.229   1.329
 2342SOL     OW 7924   0.810   5.642   5.334
 2342SOL    HW1 7925   0.857   5.730   5.323
 2342SOL    HW2 7926   0.755   5.644   5.417
 2343SOL     OW 7927   1.941   6.438   2.192
 2343SOL    HW1 7928   2.037   6.460   2.180
 2343SOL    HW2 7929   1.888   6.522   2.203
 2344SOL     OW 7930   1.651   1.260   1.207
 2344SOL    HW1 7931   1.720   1.313   1.157
 2344SOL    HW2 7932   1.696   1.202   1.275
 2345SOL     OW 7933   2.117   5.473   5.544
 2345SOL    HW1 7934   2.125   5.465   5.644
 2345SOL    HW2 7935   2.155   5.561   5.515
 2346SOL     OW 7936   5.233   3.252   4.849
 2346SOL    HW1 7937   5.154   3.250   4.788
 2346SOL    HW2 7938   5.208   3.210   4.936
 2347SOL     OW 7939   2.165   3.942   1.582
 2347SOL    HW1 7940   2.157   4.011   1.655
 2347SOL    HW2 7941   2.250   3.891   1.594
 2348SOL     OW 7942   3.519   6.038   3.585
 2348SOL    HW1 7943   3.553   5.997   3.669
 2348SOL    HW2 7944   3.487   5.967   3.523
 2349SOL     OW 7945   0.854   5.413   6.484
 2349SOL    HW1 7946   0.811   5.393   6.395
 2349SOL    HW2 7947   0.939   5.362   6.491
 2350SOL     OW 7948   4.997   6.750   6.584
 2350SOL    HW1 7949   5.057   6.828   6.574
 2350SOL    HW2 7950   5.044   6.678   6.636
 2351SOL     OW 7951   3.834   4.901   2.748
 2351SOL    HW1 7952   3.830   4.977   2.683
 2351SOL    HW2 7953   3.747   4.892   2.795
 2352SOL     OW 7954   1.091   3.714   2.529
 2352SOL    HW1 7955   1.164   3.723   2.597
 2352SOL    HW2 7956   1.028   3.642   2.558
 2353SOL     OW 7957   2.887   4.784   4.491
 2353SOL    HW1 7958   2.857   4.798   4.585
 2353SOL    HW2 7959   2.884   4.871   4.441
 2354SOL     OW 7960   3.398   2.489   6.649
 2354SOL    HW1 7961   3.463   2.470   6.576
 2354SOL    HW2 7962   3.447   2.525   6.729
 2355SOL     OW 7963   1.275   4.821   6.830
 2355SOL    HW1 7964   1.337   4.808   6.753
 2355SOL    HW2 7965   1.211   4.895   6.808
 2356SOL     OW 7966   2.757   4.005   0.448
 2356SOL    HW1 7967   2.672   3.972   0.489
 2356SOL    HW2 7968   2.758   3.981   0.351
 2357SOL     OW 7969   3.799   5.190   4.006
 2357SOL    HW1 7970   3.787   5.091   4.009
 2357SOL    HW2 7971   3.844   5.221   4.090
 2358SOL     OW 7972   2.569   5.113   4.692
 2358SOL    HW1 7973   2.474   5.105   4.661
 2358SOL    HW2 7974   2.591   5.035   4.751
 2359SOL     OW 7975   0.829   1.607   5.948
 2359SOL    HW1 7976   0.925   1.605   5.975
 2359SOL    HW2 7977   0.822   1.633   5.851
 2360SOL     OW 7978   5.094   5.988   5.396
 2360SOL    HW1 7979   5.068   5.913   5.334
 2360SOL    HW2 7980   5.090   5.955   5.491
 2361SOL     OW 7981   2.653   0.051   4.670
 2361SOL    HW1 7982   2.702   0.038   4.584
 2361SOL    HW2 7983   2.560   0.016   4.661
 2362SOL     OW 7984   3.754   6.840   5.210
 2362SOL    HW1 7985   3.808   6.912   5.254
 2362SOL    HW2 7986   3.676   6.880   5.163
 2363SOL     OW 7987   4.760   2.646   4.882
 2363SOL    HW1 7988   4.719   2.571   4.831
 2363SOL    HW2 7989   4.703   2.669   4.960
 2364SOL     OW 7990   0.144   2.295   3.058
 2364SOL    HW1 7991   0.049   2.283   3.030
 2364SOL    HW2 7992   0.191   2.353   2.992
 2365SOL     OW 7993   6.030   2.807   6.154
 2365SOL    HW1 7994   6.123   2.842   6.155
 2365SOL    HW2 7995   6.026   2.721   6.103
 2366SOL     OW 7996   1.370   3.775   5.546
 2366SOL    HW1 7997   1.393   3.823   5.462
 2366SOL    HW2 7998   1.318   3.692   5.525
 2367SOL     OW 7999   2.111   3.768   6.376
 2367SOL    HW1 8000   2.145   3.799   6.465
 2367SOL    HW2 8001   2.045   3.834   6.341
 2368SOL     OW 8002   5.191   1.114   4.337
 2368SOL    HW1 8003   5.232   1.023   4.333
 2368SOL    HW2 8004   5.156   1.139   4.246
 2369SOL     OW 8005   2.199   3.110   4.343
 2369SOL    HW1 8006   2.208   3.092   4.441
 2369SOL    HW2 8007   2.231   3.031   4.292
 2370SOL     OW 8008   4.345   4.366   6.763
 2370SOL    HW1 8009   4.316   4.401   6.851
 2370SOL    HW2 8010   4.434   4.405   6.738
 2371SOL     OW 8011   1.312   6.148   2.171
 2371SOL    HW1 8012   1.220   6.179   2.196
 2371SOL    HW2 8013   1.334   6.064   2.221
 2372SOL     OW 8014   0.983   1.936   0.577
 2372SOL    HW1 8015   0.900   1.987   0.554
 2372SOL    HW2 8016   0.958   1.849   0.621
 2373SOL     OW 8017   5.631   0.473   6.736
 2373SOL    HW1 8018   5.702   0.431   6.792
 2373SOL    HW2 8019   5.630   0.430   6.646
 2374SOL     OW 8020   6.156   6.143   3.511
 2374SOL    HW1 8021   6.074   6.150   3.454
 2374SOL    HW2 8022   6.195   6.234   3.525
 2375SOL     OW 8023   1.264   6.723   3.829
 2375SOL    HW1 8024   1.298   6.725   3.735
 2375SOL    HW2 8025   1.304   6.798   3.881
 2376SOL     OW 8026   6.455   2.938   4.169
 2376SOL    HW1 8027   6.436   2.915   4.073
 2376SOL    HW2 8028   6.374   2.978   4.210
 2377SOL     OW 8029   3.297   3.831   3.695
 2377SOL    HW1 8030   3.242   3.868   3.769
 2377SOL    HW2 8031   3.324   3.737   3.717
 2378SOL     OW 8032   5.013   2.272   6.712
 2378SOL    HW1 8033   4.956   2.195   6.742
 2378SOL    HW2 8034   5.083   2.239   6.648
 2379SOL     OW 8035   6.861   2.800   6.946
 2379SOL    HW1 8036   6.875   2.711   6.903
 2379SOL    HW2 8037   6.775   2.800   6.996
 2380SOL     OW 8038   6.729   0.344   5.860
 2380SOL    HW1 8039   6.796   0.305   5.797
 2380SOL    HW2 8040   6.695   0.273   5.921
 2381SOL     OW 8041   2.060   4.165   4.169
 2381SOL    HW1 8042   2.137   4.138   4.225
 2381SOL    HW2 8043   2.092   4.222   4.093
 2382SOL     OW 8044   2.609   5.492   2.538
 2382SOL    HW1 8045   2.512   5.517   2.537
 2382SOL    HW2 8046   2.649   5.518   2.625
 2383SOL     OW 8047   5.728   6.353   6.861
 2383SOL    HW1 8048   5.648   6.298   6.840
 2383SOL    HW2 8049   5.805   6.323   6.804
 2384SOL     OW 8050   1.591   1.185   1.874
 2384SOL    HW1 8051   1.681   1.227   1.858
 2384SOL    HW2 8052   1.584   1.159   1.970
 2385SOL     OW 8053   6.328   0.369   1.068
 2385SOL    HW1 8054   6.254   0.430   1.096
 2385SOL    HW2 8055   6.290   0.279   1.045
 2386SOL     OW 8056   4.015   4.868   3.990
 2386SOL    HW1 8057   4.048   4.855   4.083
 2386SOL    HW2 8058   3.919   4.840   3.984
 2387SOL     OW 8059   7.023   2.302   4.240
 2387SOL    HW1 8060   6.938   2.251   4.223
 2387SOL    HW2 8061   7.003   2.378   4.301
 2388SOL     OW 8062   1.164   1.917   4.719
 2388SOL    HW1 8063   1.219   1.980   4.773
 2388SOL    HW2 8064   1.224   1.862   4.661
 2389SOL     OW 8065   4.744   4.077   3.807
 2389SOL    HW1 8066   4.760   4.016   3.884
 2389SOL    HW2 8067   4.698   4.160   3.839
 2390SOL     OW 8068   3.565   3.978   5.053
 2390SOL    HW1 8069   3.593   3.892   5.094
 2390SOL    HW2 8070   3.645   4.023   5.012
 2391SOL     OW 8071   3.422   4.435   5.557
 2391SOL    HW1 8072   3.517   4.445   5.525
 2391SOL    HW2 8073   3.391   4.341   5.543
 2392SOL     OW 8074   3.270   5.512   5.546
 2392SOL    HW1 8075   3.197   5.444   5.537
 2392SOL    HW2 8076   3.233   5.598   5.579
 2393SOL     OW 8077   3.534   5.237   1.320
 2393SOL    HW1 8078   3.463   5.306   1.309
 2393SOL    HW2 8079   3.542   5.212   1.416
 2394SOL     OW 8080   1.388   3.522   4.796
 2394SOL    HW1 8081   1.311   3.550   4.739
 2394SOL    HW2 8082   1.460   3.591   4.791
 2395SOL     OW 8083   6.966   2.274   6.745
 2395SOL    HW1 8084   6.876   2.254   6.784
 2395SOL    HW2 8085   6.989   2.204   6.678
 2396SOL     OW 8086   5.556   6.019   1.227
 2396SOL    HW1 8087   5.655   6.009   1.237
 2396SOL    HW2 8088   5.518   6.056   1.312
 2397SOL     OW 8089   6.775   4.627   0.614
 2397SOL    HW1 8090   6.761   4.572   0.532
 2397SOL    HW2 8091   6.705   4.605   0.681
 2398SOL     OW 8092   2.502   4.841   5.818
 2398SOL    HW1 8093   2.405   4.865   5.808
 2398SOL    HW2 8094   2.558   4.911   5.775
 2399SOL     OW 8095   4.418   2.073   2.310
 2399SOL    HW1 8096   4.500   2.068   2.368
 2399SOL    HW2 8097   4.382   2.167   2.313
 2400SOL     OW 8098   3.630   4.454   0.284
 2400SOL    HW1 8099   3.589   4.545   0.280
 2400SOL    HW2 8100   3.707   4.454   0.348
 2401SOL     OW 8101   3.543   0.588   5.525
 2401SOL    HW1 8102   3.605   0.514   5.552
 2401SOL    HW2 8103   3.596   0.659   5.478
 2402SOL     OW 8104   6.832   1.886   4.526
 2402SOL    HW1 8105   6.793   1.870   4.435
 2402SOL    HW2 8106   6.837   1.984   4.543
 2403SOL     OW 8107   2.800   2.871   0.223
 2403SOL    HW1 8108   2.718   2.833   0.264
 2403SOL    HW2 8109   2.777   2.914   0.135
 2404SOL     OW 8110   5.418   1.841   1.989
 2404SOL    HW1 8111   5.392   1.833   1.893
 2404SOL    HW2 8112   5.513   1.871   1.996
 2405SOL     OW 8113   3.962   3.359   5.494
 2405SOL    HW1 8114   3.884   3.382   5.436
 2405SOL    HW2 8115   3.965   3.422   5.572
 2406SOL     OW 8116   1.935   0.458   3.452
 2406SOL    HW1 8117   1.893   0.541   3.414
 2406SOL    HW2 8118   1.868   0.410   3.508
 2407SOL     OW 8119   4.469   2.208   2.735
 2407SOL    HW1 8120   4.375   2.217   2.770
 2407SOL    HW2 8121   4.530   2.181   2.810
 2408SOL     OW 8122   3.577   5.413   2.519
 2408SOL    HW1 8123   3.640   5.403   2.595
 2408SOL    HW2 8124   3.532   5.326   2.501
 2409SOL     OW 8125   2.334   2.728   2.267
 2409SOL    HW1 8126   2.346   2.816   2.312
 2409SOL    HW2 8127   2.262   2.734   2.199
 2410SOL     OW 8128   6.421   2.616   6.203
 2410SOL    HW1 8129   6.441   2.713   6.217
 2410SOL    HW2 8130   6.394   2.601   6.108
 2411SOL     OW 8131   3.685   4.478   5.500
 2411SOL    HW1 8132   3.669   4.574   5.479
 2411SOL    HW2 8133   3.774   4.450   5.462
 2412SOL     OW 8134   2.801   3.886   0.163
 2412SOL    HW1 8135   2.819   3.873   0.065
 2412SOL    HW2 8136   2.875   3.845   0.216
 2413SOL     OW 8137   6.261   3.063   6.706
 2413SOL    HW1 8138   6.228   2.972   6.734
 2413SOL    HW2 8139   6.310   3.056   6.620
 2414SOL     OW 8140   6.041   3.756   2.793
 2414SOL    HW1 8141   6.127   3.713   2.821
 2414SOL    HW2 8142   6.039   3.763   2.693
 2415SOL     OW 8143   1.641   0.235   1.094
 2415SOL    HW1 8144   1.612   0.142   1.115
 2415SOL    HW2 8145   1.603   0.298   1.162
 2416SOL     OW 8146   3.023   1.292   4.833
 2416SOL    HW1 8147   2.948   1.228   4.818
 2416SOL    HW2 8148   3.110   1.249   4.807
 2417SOL     OW 8149   4.604   2.538   0.098
 2417SOL    HW1 8150   4.677   2.540   0.166
 2417SOL    HW2 8151   4.583   2.444   0.074
 2418SOL     OW 8152   3.461   3.673   4.864
 2418SOL    HW1 8153   3.491   3.587   4.906
 2418SOL    HW2 8154   3.542   3.727   4.839
 2419SOL     OW 8155   0.346   6.731   4.560
 2419SOL    HW1 8156   0.345   6.789   4.641
 2419SOL    HW2 8157   0.274   6.661   4.568
 2420SOL     OW 8158   4.162   6.973   2.695
 2420SOL    HW1 8159   4.169   6.882   2.736
 2420SOL    HW2 8160   4.195   6.970   2.601
 2421SOL     OW 8161   2.555   1.013   4.527
 2421SOL    HW1 8162   2.462   1.049   4.536
 2421SOL    HW2 8163   2.561   0.956   4.445
 2422SOL     OW 8164   5.557   0.377   1.129
 2422SOL    HW1 8165   5.596   0.285   1.137
 2422SOL    HW2 8166   5.459   0.373   1.148
 2423SOL     OW 8167   0.748   6.125   2.823
 2423SOL    HW1 8168   0.697   6.151   2.742
 2423SOL    HW2 8169   0.686   6.080   2.888
 2424SOL     OW 8170   5.518   5.711   5.972
 2424SOL    HW1 8171   5.466   5.690   6.055
 2424SOL    HW2 8172   5.512   5.809   5.953
 2425SOL     OW 8173   6.279   0.136   4.267
 2425SOL    HW1 8174   6.330   0.067   4.318
 2425SOL    HW2 8175   6.233   0.093   4.190
 2426SOL     OW 8176   1.140   4.453   4.219
 2426SOL    HW1 8177   1.108   4.380   4.159
 2426SOL    HW2 8178   1.143   4.539   4.167
 2427SOL     OW 8179   6.013   5.459   6.570
 2427SOL    HW1 8180   6.098   5.511   6.580
 2427SOL    HW2 8181   6.031   5.374   6.521
 2428SOL     OW 8182   1.196   0.430   3.690
 2428SOL    HW1 8183   1.135   0.353   3.708
 2428SOL    HW2 8184   1.211   0.480   3.775
 2429SOL     OW 8185   6.810   5.422   3.056
 2429SOL    HW1 8186   6.757   5.341   3.084
 2429SOL    HW2 8187   6.904   5.395   3.038
 2430SOL     OW 8188   5.914   2.645   0.911
 2430SOL    HW1 8189   5.903   2.624   0.814
 2430SOL    HW2 8190   5.907   2.560   0.965
 2431SOL     OW 8191   4.187   0.624   1.987
 2431SOL    HW1 8192   4.236   0.537   1.975
 2431SOL    HW2 8193   4.089   0.605   1.997
 2432SOL     OW 8194   4.334   6.241   2.894
 2432SOL    HW1 8195   4.271   6.168   2.868
 2432SOL    HW2 8196   4.283   6.326   2.908
 2433SOL     OW 8197   2.916   6.777   6.956
 2433SOL    HW1 8198   2.922   6.742   6.862
 2433SOL    HW2 8199   2.917   6.700   7.020
 2434SOL     OW 8200   4.869   1.690   3.627
 2434SOL    HW1 8201   4.920   1.693   3.541
 2434SOL    HW2 8202   4.933   1.685   3.704
 2435SOL     OW 8203   4.236   6.022   0.059
 2435SOL    HW1 8204   4.240   5.982   0.150
 2435SOL    HW2 8205   4.297   6.101   0.054
 2436SOL     OW 8206   2.264   6.840   0.888
 2436SOL    HW1 8207   2.361   6.830   0.866
 2436SOL    HW2 8208   2.252   6.912   0.957
 2437SOL     OW 8209   5.272   5.723   1.270
 2437SOL    HW1 8210   5.359   5.712   1.222
 2437SOL    HW2 8211   5.199   5.739   1.204
 2438SOL     OW 8212   4.059   0.675   5.142
 2438SOL    HW1 8213   4.149   0.635   5.125
 2438SOL    HW2 8214   4.024   0.642   5.229
 2439SOL     OW 8215   1.129   3.753   6.906
 2439SOL    HW1 8216   1.109   3.842   6.947
 2439SOL    HW2 8217   1.224   3.752   6.875
 2440SOL     OW 8218   3.632   6.464   5.155
 2440SOL    HW1 8219   3.629   6.372   5.116
 2440SOL    HW2 8220   3.556   6.475   5.220
 2441SOL     OW 8221   6.534   1.317   6.863
 2441SOL    HW1 8222   6.556   1.296   6.768
 2441SOL    HW2 8223   6.448   1.273   6.888
 2442SOL     OW 8224   5.651   5.692   3.677
 2442SOL    HW1 8225   5.670   5.784   3.642
 2442SOL    HW2 8226   5.734   5.637   3.672
 2443SOL     OW 8227   3.026   0.251   6.363
 2443SOL    HW1 8228   3.048   0.348   6.363
 2443SOL    HW2 8229   2.939   0.236   6.315
 2444SOL     OW 8230   4.105   4.555   6.377
 2444SOL    HW1 8231   4.182   4.607   6.412
 2444SOL    HW2 8232   4.072   4.492   6.448
 2445SOL     OW 8233   6.505   1.086   1.991
 2445SOL    HW1 8234   6.534   1.060   2.083
 2445SOL    HW2 8235   6.582   1.124   1.941
 2446SOL     OW 8236   0.302   3.122   4.320
 2446SOL    HW1 8237   0.285   3.205   4.266
 2446SOL    HW2 8238   0.244   3.049   4.286
 2447SOL     OW 8239   3.158   0.822   1.323
 2447SOL    HW1 8240   3.088   0.894   1.317
 2447SOL    HW2 8241   3.167   0.778   1.234
 2448SOL     OW 8242   6.409   0.858   4.458
 2448SOL    HW1 8243   6.466   0.776   4.468
 2448SOL    HW2 8244   6.396   0.877   4.361
 2449SOL     OW 8245   6.860   4.300   3.148
 2449SOL    HW1 8246   6.766   4.286   3.182
 2449SOL    HW2 8247   6.861   4.376   3.083
 2450SOL     OW 8248   3.550   5.588   5.549
 2450SOL    HW1 8249   3.452   5.568   5.553
 2450SOL    HW2 8250   3.576   5.608   5.455
 2451SOL     OW 8251   0.725   0.750   3.631
 2451SOL    HW1 8252   0.716   0.682   3.558
 2451SOL    HW2 8253   0.754   0.706   3.715
 2452SOL     OW 8254   2.606   1.942   3.433
 2452SOL    HW1 8255   2.523   1.909   3.387
 2452SOL    HW2 8256   2.683   1.884   3.407
 2453SOL     OW 8257   6.508   3.904   0.792
 2453SOL    HW1 8258   6.482   3.840   0.864
 2453SOL    HW2 8259   6.597   3.944   0.814
 2454SOL     OW 8260   3.642   1.038   0.201
 2454SOL    HW1 8261   3.711   1.034   0.128
 2454SOL    HW2 8262   3.607   0.946   0.218
 2455SOL     OW 8263   4.562   0.329   0.628
 2455SOL    HW1 8264   4.583   0.427   0.626
 2455SOL    HW2 8265   4.567   0.293   0.535
 2456SOL     OW 8266   5.951   1.991   0.550
 2456SOL    HW1 8267   5.966   1.914   0.613
 2456SOL    HW2 8268   6.037   2.038   0.534
 2457SOL     OW 8269   0.052   6.672   6.057
 2457SOL    HW1 8270   0.051   6.772   6.051
 2457SOL    HW2 8271   0.136   6.637   6.015
 2458SOL     OW 8272   2.180   6.064   4.251
 2458SOL    HW1 8273   2.277   6.050   4.273
 2458SOL    HW2 8274   2.142   5.979   4.214
 2459SOL     OW 8275   2.537   6.061   6.232
 2459SOL    HW1 8276   2.576   6.110   6.154
 2459SOL    HW2 8277   2.549   5.962   6.218
 2460SOL     OW 8278   2.156   1.535   1.273
 2460SOL    HW1 8279   2.130   1.444   1.306
 2460SOL    HW2 8280   2.101   1.559   1.193
 2461SOL     OW 8281   4.735   1.047   3.135
 2461SOL    HW1 8282   4.764   1.014   3.225
 2461SOL    HW2 8283   4.636   1.039   3.127
 2462SOL     OW 8284   2.076   5.833   0.376
 2462SOL    HW1 8285   2.124   5.771   0.438
 2462SOL    HW2 8286   1.995   5.870   0.422
 2463SOL     OW 8287   6.601   1.949   5.672
 2463SOL    HW1 8288   6.526   1.955   5.605
 2463SOL    HW2 8289   6.578   2.004   5.752
 2464SOL     OW 8290   1.923   4.003   1.987
 2464SOL    HW1 8291   1.973   3.962   2.063
 2464SOL    HW2 8292   1.826   3.976   1.992
 2465SOL     OW 8293   0.400   0.531   1.839
 2465SOL    HW1 8294   0.361   0.623   1.840
 2465SOL    HW2 8295   0.498   0.536   1.857
 2466SOL     OW 8296   2.362   2.061   2.455
 2466SOL    HW1 8297   2.278   2.110   2.477
 2466SOL    HW2 8298   2.420   2.055   2.537
 2467SOL     OW 8299   5.069   1.106   5.243
 2467SOL    HW1 8300   5.136   1.062   5.303
 2467SOL    HW2 8301   4.990   1.045   5.232
 2468SOL     OW 8302   4.782   6.334   2.016
 2468SOL    HW1 8303   4.868   6.282   2.016
 2468SOL    HW2 8304   4.725   6.303   2.091
 2469SOL     OW 8305   4.057   4.115   5.652
 2469SOL    HW1 8306   3.969   4.070   5.638
 2469SOL    HW2 8307   4.097   4.084   5.738
 2470SOL     OW 8308   3.846   4.870   6.274
 2470SOL    HW1 8309   3.812   4.827   6.358
 2470SOL    HW2 8310   3.915   4.811   6.232
 2471SOL     OW 8311   2.817   6.058   0.723
 2471SOL    HW1 8312   2.848   6.106   0.805
 2471SOL    HW2 8313   2.887   6.068   0.652
 2472SOL     OW 8314   4.938   2.398   4.622
 2472SOL    HW1 8315   5.015   2.402   4.685
 2472SOL    HW2 8316   4.889   2.312   4.633
 2473SOL     OW 8317   2.087   3.986   4.882
 2473SOL    HW1 8318   2.042   4.075   4.877
 2473SOL    HW2 8319   2.165   3.992   4.944
 2474SOL     OW 8320   0.788   5.971   0.928
 2474SOL    HW1 8321   0.787   5.921   0.842
 2474SOL    HW2 8322   0.876   5.957   0.974
 2475SOL     OW 8323   4.480   1.490   2.106
 2475SOL    HW1 8324   4.417   1.540   2.166
 2475SOL    HW2 8325   4.452   1.394   2.101
 2476SOL     OW 8326   6.996   1.840   3.271
 2476SOL    HW1 8327   0.018   1.756   3.302
 2476SOL    HW2 8328   0.011   1.918   3.321
 2477SOL     OW 8329   4.788   1.279   2.079
 2477SOL    HW1 8330   4.879   1.240   2.085
 2477SOL    HW2 8331   4.747   1.282   2.170
 2478SOL     OW 8332   6.160   1.500   2.584
 2478SOL    HW1 8333   6.237   1.553   2.549
 2478SOL    HW2 8334   6.182   1.403   2.582
 2479SOL     OW 8335   1.611   3.700   1.575
 2479SOL    HW1 8336   1.590   3.796   1.561
 2479SOL    HW2 8337   1.566   3.667   1.658
 2480SOL     OW 8338   5.672   4.450   0.569
 2480SOL    HW1 8339   5.718   4.401   0.495
 2480SOL    HW2 8340   5.575   4.424   0.572
 2481SOL     OW 8341   2.184   0.783   0.001
 2481SOL    HW1 8342   2.167   0.721   6.947
 2481SOL    HW2 8343   2.125   0.863   7.016
 2482SOL     OW 8344   4.705   3.449   5.893
 2482SOL    HW1 8345   4.763   3.386   5.841
 2482SOL    HW2 8346   4.762   3.523   5.931
 2483SOL     OW 8347   1.777   2.252   6.856
 2483SOL    HW1 8348   1.695   2.214   6.815
 2483SOL    HW2 8349   1.831   2.299   6.785
 2484SOL     OW 8350   3.297   0.699   0.455
 2484SOL    HW1 8351   3.307   0.610   0.411
 2484SOL    HW2 8352   3.229   0.693   0.528
 2485SOL     OW 8353   5.836   3.726   1.442
 2485SOL    HW1 8354   5.930   3.759   1.448
 2485SOL    HW2 8355   5.835   3.633   1.404
 2486SOL     OW 8356   1.762   4.390   4.843
 2486SOL    HW1 8357   1.694   4.354   4.779
 2486SOL    HW2 8358   1.794   4.479   4.811
 2487SOL     OW 8359   3.511   5.799   0.199
 2487SOL    HW1 8360   3.486   5.785   0.103
 2487SOL    HW2 8361   3.609   5.785   0.209
 2488SOL     OW 8362   2.089   4.314   2.146
 2488SOL    HW1 8363   2.008   4.280   2.193
 2488SOL    HW2 8364   2.126   4.393   2.195
 2489SOL     OW 8365   1.261   5.709   2.940
 2489SOL    HW1 8366   1.229   5.737   2.850
 2489SOL    HW2 8367   1.185   5.666   2.990
 2490SOL     OW 8368   6.341   4.835   1.458
 2490SOL    HW1 8369   6.343   4.895   1.537
 2490SOL    HW2 8370   6.259   4.778   1.460
 2491SOL     OW 8371   2.960   5.305   0.946
 2491SOL    HW1 8372   2.986   5.333   0.853
 2491SOL    HW2 8373   2.905   5.222   0.941
 2492SOL     OW 8374   4.494   2.770   0.072
 2492SOL    HW1 8375   4.516   2.673   0.075
 2492SOL    HW2 8376   4.476   2.798   7.000
 2493SOL     OW 8377   6.107   0.884   2.715
 2493SOL    HW1 8378   6.046   0.806   2.726
 2493SOL    HW2 8379   6.175   0.865   2.644
 2494SOL     OW 8380   6.051   4.103   1.869
 2494SOL    HW1 8381   6.141   4.099   1.913
 2494SOL    HW2 8382   5.992   4.032   1.907
 2495SOL     OW 8383   5.115   0.623   4.369
 2495SOL    HW1 8384   5.147   0.707   4.412
 2495SOL    HW2 8385   5.060   0.646   4.289
 2496SOL     OW 8386   0.544   4.216   5.709
 2496SOL    HW1 8387   0.596   4.168   5.780
 2496SOL    HW2 8388   0.529   4.155   5.632
 2497SOL     OW 8389   0.079   0.611   0.955
 2497SOL    HW1 8390   0.120   0.626   1.045
 2497SOL    HW2 8391   0.126   0.536   0.909
 2498SOL     OW 8392   3.359   2.052   4.264
 2498SOL    HW1 8393   3.265   2.054   4.298
 2498SOL    HW2 8394   3.380   2.138   4.218
 2499SOL     OW 8395   5.278   2.152   4.107
 2499SOL    HW1 8396   5.178   2.155   4.110
 2499SOL    HW2 8397   5.313   2.240   4.074
 2500SOL     OW 8398   4.265   3.139   7.003
 2500SOL    HW1 8399   4.326   3.169   0.054
 2500SOL    HW2 8400   4.170   3.143   0.011
 2501SOL     OW 8401   6.495   5.604   6.995
 2501SOL    HW1 8402   6.548   5.680   6.958
 2501SOL    HW2 8403   6.397   5.626   6.988
 2502SOL     OW 8404   2.019   5.681   3.097
 2502SOL    HW1 8405   2.079   5.712   3.171
 2502SOL    HW2 8406   1.981   5.760   3.049
 2503SOL     OW 8407   3.152   5.623   4.738
 2503SOL    HW1 8408   3.191   5.699   4.687
 2503SOL    HW2 8409   3.054   5.640   4.754
 2504SOL     OW 8410   2.702   5.278   4.936
 2504SOL    HW1 8411   2.663   5.217   5.005
 2504SOL    HW2 8412   2.696   5.235   4.846
 2505SOL     OW 8413   2.065   5.821   4.194
 2505SOL    HW1 8414   2.075   5.765   4.277
 2505SOL    HW2 8415   2.057   5.761   4.115
 2506SOL     OW 8416   5.820   2.961   6.467
 2506SOL    HW1 8417   5.871   3.046   6.451
 2506SOL    HW2 8418   5.787   2.959   6.561
 2507SOL     OW 8419   0.811   4.506   0.518
 2507SOL    HW1 8420   0.901   4.512   0.561
 2507SOL    HW2 8421   0.783   4.410   0.513
 2508SOL     OW 8422   2.728   1.555   1.752
 2508SOL    HW1 8423   2.688   1.469   1.719
 2508SOL    HW2 8424   2.662   1.630   1.739
 2509SOL     OW 8425   6.049   2.650   2.784
 2509SOL    HW1 8426   5.979   2.682   2.720
 2509SOL    HW2 8427   6.027   2.557   2.813
 2510SOL     OW 8428   3.433   4.333   1.378
 2510SOL    HW1 8429   3.416   4.235   1.371
 2510SOL    HW2 8430   3.526   4.349   1.410
 2511SOL     OW 8431   2.909   1.342   3.593
 2511SOL    HW1 8432   2.865   1.341   3.503
 2511SOL    HW2 8433   2.993   1.288   3.590
 2512SOL     OW 8434   4.953   4.843   4.939
 2512SOL    HW1 8435   4.979   4.868   4.845
 2512SOL    HW2 8436   5.033   4.812   4.989
 2513SOL     OW 8437   1.408   3.080   5.071
 2513SOL    HW1 8438   1.377   3.074   5.166
 2513SOL    HW2 8439   1.404   3.175   5.040
 2514SOL     OW 8440   6.668   3.526   4.411
 2514SOL    HW1 8441   6.583   3.568   4.442
 2514SOL    HW2 8442   6.648   3.463   4.335
 2515SOL     OW 8443   1.142   6.609   0.359
 2515SOL    HW1 8444   1.205   6.532   0.360
 2515SOL    HW2 8445   1.193   6.694   0.376
 2516SOL     OW 8446   5.884   0.558   3.908
 2516SOL    HW1 8447   5.858   0.464   3.885
 2516SOL    HW2 8448   5.814   0.621   3.876
 2517SOL     OW 8449   0.966   5.433   5.722
 2517SOL    HW1 8450   1.008   5.510   5.673
 2517SOL    HW2 8451   0.883   5.405   5.674
 2518SOL     OW 8452   1.939   3.487   6.823
 2518SOL    HW1 8453   1.977   3.529   6.740
 2518SOL    HW2 8454   1.993   3.406   6.846
 2519SOL     OW 8455   5.264   6.477   3.676
 2519SOL    HW1 8456   5.285   6.511   3.768
 2519SOL    HW2 8457   5.244   6.380   3.681
 2520SOL     OW 8458   1.373   2.624   0.067
 2520SOL    HW1 8459   1.401   2.649   6.997
 2520SOL    HW2 8460   1.441   2.564   0.108
 2521SOL     OW 8461   1.213   6.036   5.800
 2521SOL    HW1 8462   1.128   6.056   5.750
 2521SOL    HW2 8463   1.200   6.058   5.897
 2522SOL     OW 8464   6.900   3.417   5.756
 2522SOL    HW1 8465   6.826   3.452   5.699
 2522SOL    HW2 8466   6.865   3.398   5.848
 2523SOL     OW 8467   0.008   2.987   1.837
 2523SOL    HW1 8468   7.018   3.060   1.904
 2523SOL    HW2 8469   0.087   2.931   1.863
 2524SOL     OW 8470   0.944   5.101   5.291
 2524SOL    HW1 8471   1.006   5.134   5.362
 2524SOL    HW2 8472   0.990   5.106   5.202
 2525SOL     OW 8473   0.511   2.742   4.164
 2525SOL    HW1 8474   0.418   2.716   4.138
 2525SOL    HW2 8475   0.543   2.683   4.238
 2526SOL     OW 8476   1.885   4.320   5.628
 2526SOL    HW1 8477   1.845   4.244   5.578
 2526SOL    HW2 8478   1.978   4.296   5.657
 2527SOL     OW 8479   5.419   6.184   5.217
 2527SOL    HW1 8480   5.324   6.195   5.188
 2527SOL    HW2 8481   5.476   6.251   5.169
 2528SOL     OW 8482   5.687   4.574   0.841
 2528SOL    HW1 8483   5.718   4.503   0.905
 2528SOL    HW2 8484   5.679   4.535   0.749
 2529SOL     OW 8485   6.793   6.372   6.490
 2529SOL    HW1 8486   6.812   6.468   6.470
 2529SOL    HW2 8487   6.761   6.326   6.408
 2530SOL     OW 8488   1.270   6.643   4.572
 2530SOL    HW1 8489   1.296   6.735   4.542
 2530SOL    HW2 8490   1.251   6.586   4.491
 2531SOL     OW 8491   4.712   5.973   4.369
 2531SOL    HW1 8492   4.766   6.047   4.409
 2531SOL    HW2 8493   4.761   5.934   4.292
 2532SOL     OW 8494   1.059   5.893   0.695
 2532SOL    HW1 8495   0.998   5.912   0.618
 2532SOL    HW2 8496   1.040   5.958   0.768
 2533SOL     OW 8497   3.494   0.276   3.023
 2533SOL    HW1 8498   3.579   0.305   2.978
 2533SOL    HW2 8499   3.500   0.179   3.046
 2534SOL     OW 8500   2.739   0.781   3.000
 2534SOL    HW1 8501   2.817   0.759   2.941
 2534SOL    HW2 8502   2.697   0.696   3.032
 2535SOL     OW 8503   2.772   2.728   6.755
 2535SOL    HW1 8504   2.804   2.668   6.829
 2535SOL    HW2 8505   2.697   2.684   6.706
 2536SOL     OW 8506   6.659   1.926   3.852
 2536SOL    HW1 8507   6.717   1.997   3.813
 2536SOL    HW2 8508   6.635   1.860   3.782
 2537SOL     OW 8509   5.086   6.378   6.673
 2537SOL    HW1 8510   5.109   6.433   6.593
 2537SOL    HW2 8511   5.084   6.437   6.754
 2538SOL     OW 8512   1.189   3.877   4.545
 2538SOL    HW1 8513   1.149   3.963   4.576
 2538SOL    HW2 8514   1.179   3.870   4.446
 2539SOL     OW 8515   5.262   0.484   6.072
 2539SOL    HW1 8516   5.287   0.429   5.993
 2539SOL    HW2 8517   5.245   0.578   6.043
 2540SOL     OW 8518   4.368   0.938   2.562
 2540SOL    HW1 8519   4.316   0.854   2.572
 2540SOL    HW2 8520   4.435   0.928   2.488
 2541SOL     OW 8521   1.977   6.544   5.398
 2541SOL    HW1 8522   2.065   6.592   5.406
 2541SOL    HW2 8523   1.917   6.595   5.337
 2542SOL     OW 8524   4.979   1.367   6.073
 2542SOL    HW1 8525   4.946   1.430   6.003
 2542SOL    HW2 8526   4.988   1.275   6.033
 2543SOL     OW 8527   1.948   1.653   2.580
 2543SOL    HW1 8528   1.857   1.692   2.595
 2543SOL    HW2 8529   1.951   1.561   2.618
 2544SOL     OW 8530   0.100   4.929   1.427
 2544SOL    HW1 8531   0.107   4.831   1.408
 2544SOL    HW2 8532   0.191   4.970   1.420
 2545SOL     OW 8533   1.825   0.685   0.885
 2545SOL    HW1 8534   1.816   0.746   0.807
 2545SOL    HW2 8535   1.779   0.599   0.866
 2546SOL     OW 8536   6.969   2.649   1.937
 2546SOL    HW1 8537   0.046   2.647   1.949
 2546SOL    HW2 8538   6.946   2.632   1.842
 2547SOL     OW 8539   5.995   4.678   7.011
 2547SOL    HW1 8540   5.958   4.767   6.987
 2547SOL    HW2 8541   6.068   4.654   6.947
 2548SOL     OW 8542   3.087   6.795   5.510
 2548SOL    HW1 8543   3.086   6.714   5.451
 2548SOL    HW2 8544   2.993   6.822   5.530
 2549SOL     OW 8545   1.929   1.144   1.125
 2549SOL    HW1 8546   1.866   1.208   1.081
 2549SOL    HW2 8547   1.935   1.061   1.071
 2550SOL     OW 8548   7.011   0.241   6.270
 2550SOL    HW1 8549   6.996   0.314   6.203
 2550SOL    HW2 8550   0.086   0.222   6.278
 2551SOL     OW 8551   2.798   5.533   0.195
 2551SOL    HW1 8552   2.751   5.621   0.190
 2551SOL    HW2 8553   2.773   5.487   0.280
 2552SOL     OW 8554   1.097   5.505   6.122
 2552SOL    HW1 8555   1.183   5.468   6.155
 2552SOL    HW2 8556   1.078   5.593   6.167
 2553SOL     OW 8557   3.565   3.927   6.783
 2553SOL    HW1 8558   3.548   3.879   6.869
 2553SOL    HW2 8559   3.663   3.926   6.763
 2554SOL     OW 8560   1.329   5.983   6.750
 2554SOL    HW1 8561   1.316   6.082   6.747
 2554SOL    HW2 8562   1.427   5.962   6.741
 2555SOL     OW 8563   6.396   6.303   6.096
 2555SOL    HW1 8564   6.446   6.380   6.057
 2555SOL    HW2 8565   6.298   6.323   6.097
 2556SOL     OW 8566   3.864   5.928   0.500
 2556SOL    HW1 8567   3.875   6.025   0.520
 2556SOL    HW2 8568   3.874   5.913   0.402
 2557SOL     OW 8569   2.256   2.531   6.507
 2557SOL    HW1 8570   2.202   2.615   6.495
 2557SOL    HW2 8571   2.199   2.461   6.550
 2558SOL     OW 8572   4.086   3.395   5.762
 2558SOL    HW1 8573   4.152   3.320   5.754
 2558SOL    HW2 8574   4.135   3.479   5.787
 2559SOL     OW 8575   6.762   3.510   4.694
 2559SOL    HW1 8576   6.741   3.413   4.701
 2559SOL    HW2 8577   6.735   3.543   4.603
 2560SOL     OW 8578   5.484   3.639   4.338
 2560SOL    HW1 8579   5.549   3.563   4.341
 2560SOL    HW2 8580   5.426   3.631   4.257
 2561SOL     OW 8581   2.979   0.240   3.983
 2561SOL    HW1 8582   2.886   0.229   3.948
 2561SOL    HW2 8583   3.043   0.246   3.906
 2562SOL     OW 8584   2.030   5.620   2.227
 2562SOL    HW1 8585   1.933   5.621   2.204
 2562SOL    HW2 8586   2.066   5.528   2.213
 2563SOL     OW 8587   4.343   1.686   6.951
 2563SOL    HW1 8588   4.351   1.618   0.002
 2563SOL    HW2 8589   4.248   1.688   6.918
 2564SOL     OW 8590   0.945   6.802   6.488
 2564SOL    HW1 8591   0.860   6.825   6.440
 2564SOL    HW2 8592   1.011   6.764   6.423
 2565SOL     OW 8593   7.001   0.614   0.008
 2565SOL    HW1 8594   6.931   0.607   0.079
 2565SOL    HW2 8595   0.064   0.576   0.042
 2566SOL     OW 8596   1.580   6.967   0.922
 2566SOL    HW1 8597   1.508   6.960   0.853
 2566SOL    HW2 8598   1.655   0.001   0.887
 2567SOL     OW 8599   1.420   1.231   1.542
 2567SOL    HW1 8600   1.451   1.136   1.540
 2567SOL    HW2 8601   1.334   1.237   1.592
 2568SOL     OW 8602   3.345   0.173   6.732
 2568SOL    HW1 8603   3.279   0.106   6.768
 2568SOL    HW2 8604   3.323   0.194   6.637
 2569SOL     OW 8605   2.977   0.325   1.663
 2569SOL    HW1 8606   2.967   0.282   1.574
 2569SOL    HW2 8607   2.892   0.316   1.715
 2570SOL     OW 8608   5.980   0.499   6.981
 2570SOL    HW1 8609   6.064   0.544   7.011
 2570SOL    HW2 8610   5.905   0.565   6.979
 2571SOL     OW 8611   2.195   3.497   5.604
 2571SOL    HW1 8612   2.281   3.491   5.655
 2571SOL    HW2 8613   2.215   3.513   5.507
 2572SOL     OW 8614   1.966   6.244   0.845
 2572SOL    HW1 8615   1.947   6.222   0.750
 2572SOL    HW2 8616   1.879   6.249   0.896
 2573SOL     OW 8617   6.364   1.685   2.295
 2573SOL    HW1 8618   6.455   1.656   2.327
 2573SOL    HW2 8619   6.374   1.757   2.227
 2574SOL     OW 8620   6.862   3.409   0.074
 2574SOL    HW1 8621   6.953   3.367   0.084
 2574SOL    HW2 8622   6.792   3.337   0.081
 2575SOL     OW 8623   4.933   5.202   0.300
 2575SOL    HW1 8624   4.975   5.195   0.391
 2575SOL    HW2 8625   4.864   5.130   0.290
 2576SOL     OW 8626   4.222   6.910   4.714
 2576SOL    HW1 8627   4.148   6.943   4.655
 2576SOL    HW2 8628   4.304   6.965   4.697
 2577SOL     OW 8629   4.025   6.248   2.166
 2577SOL    HW1 8630   3.968   6.320   2.127
 2577SOL    HW2 8631   4.120   6.259   2.134
 2578SOL     OW 8632   4.646   2.259   4.598
 2578SOL    HW1 8633   4.681   2.233   4.508
 2578SOL    HW2 8634   4.702   2.216   4.669
 2579SOL     OW 8635   0.932   0.676   3.342
 2579SOL    HW1 8636   0.928   0.606   3.271
 2579SOL    HW2 8637   1.026   0.707   3.353
 2580SOL     OW 8638   2.404   2.777   6.976
 2580SOL    HW1 8639   2.339   2.814   0.019
 2580SOL    HW2 8640   2.431   2.685   7.005
 2581SOL     OW 8641   6.980   4.312   1.159
 2581SOL    HW1 8642   0.057   4.320   1.162
 2581SOL    HW2 8643   6.950   4.300   1.064
 2582SOL     OW 8644   0.794   4.278   2.005
 2582SOL    HW1 8645   0.730   4.202   1.993
 2582SOL    HW2 8646   0.879   4.243   2.045
 2583SOL     OW 8647   0.524   1.776   1.198
 2583SOL    HW1 8648   0.437   1.793   1.244
 2583SOL    HW2 8649   0.507   1.732   1.110
 2584SOL     OW 8650   3.977   5.875   0.235
 2584SOL    HW1 8651   4.049   5.883   0.303
 2584SOL    HW2 8652   4.007   5.915   0.149
 2585SOL     OW 8653   4.145   2.076   0.686
 2585SOL    HW1 8654   4.228   2.133   0.690
 2585SOL    HW2 8655   4.148   2.010   0.761
 2586SOL     OW 8656   3.530   1.487   3.919
 2586SOL    HW1 8657   3.519   1.420   3.845
 2586SOL    HW2 8658   3.500   1.447   4.005
 2587SOL     OW 8659   6.823   0.677   3.610
 2587SOL    HW1 8660   6.769   0.761   3.601
 2587SOL    HW2 8661   6.855   0.648   3.520
 2588SOL     OW 8662   4.762   6.983   6.783
 2588SOL    HW1 8663   4.691   6.930   6.830
 2588SOL    HW2 8664   4.723   0.006   6.703
 2589SOL     OW 8665   0.435   5.885   6.282
 2589SOL    HW1 8666   0.364   5.952   6.305
 2589SOL    HW2 8667   0.419   5.801   6.334
 2590SOL     OW 8668   3.211   6.317   1.804
 2590SOL    HW1 8669   3.119   6.278   1.806
 2590SOL    HW2 8670   3.279   6.244   1.815
 2591SOL     OW 8671   6.778   5.646   1.904
 2591SOL    HW1 8672   6.800   5.743   1.901
 2591SOL    HW2 8673   6.827   5.598   1.831
 2592SOL     OW 8674   3.451   6.365   1.129
 2592SOL    HW1 8675   3.502   6.450   1.140
 2592SOL    HW2 8676   3.504   6.300   1.075
 2593SOL     OW 8677   2.647   5.871   1.280
 2593SOL    HW1 8678   2.677   5.915   1.195
 2593SOL    HW2 8679   2.642   5.940   1.352
 2594SOL     OW 8680   0.580   5.874   6.045
 2594SOL    HW1 8681   0.587   5.778   6.016
 2594SOL    HW2 8682   0.510   5.882   6.117
 2595SOL     OW 8683   6.489   1.351   4.659
 2595SOL    HW1 8684   6.495   1.331   4.561
 2595SOL    HW2 8685   6.458   1.445   4.672
 2596SOL     OW 8686   3.904   1.969   1.617
 2596SOL    HW1 8687   3.839   2.021   1.673
 2596SOL    HW2 8688   3.882   1.982   1.520
 2597SOL     OW 8689   1.746   3.936   6.497
 2597SOL    HW1 8690   1.818   3.945   6.429
 2597SOL    HW2 8691   1.692   4.020   6.500
 2598SOL     OW 8692   6.170   1.368   4.463
 2598SOL    HW1 8693   6.183   1.334   4.557
 2598SOL    HW2 8694   6.125   1.298   4.408
 2599SOL     OW 8695   2.854   0.239   0.764
 2599SOL    HW1 8696   2.860   0.283   0.674
 2599SOL    HW2 8697   2.775   0.177   0.766
 2600SOL     OW 8698   4.874   3.422   4.247
 2600SOL    HW1 8699   4.930   3.445   4.327
 2600SOL    HW2 8700   4.794   3.371   4.276
 2601SOL     OW 8701   1.943   2.206   0.039
 2601SOL    HW1 8702   1.875   2.231   6.993
 2601SOL    HW2 8703   2.019   2.159   7.019
 2602SOL     OW 8704   6.752   4.545   4.010
 2602SOL    HW1 8705   6.676   4.590   4.058
 2602SOL    HW2 8706   6.778   4.600   3.930
 2603SOL     OW 8707   2.025   1.780   1.842
 2603SOL    HW1 8708   2.034   1.857   1.906
 2603SOL    HW2 8709   1.984   1.812   1.757
 2604SOL     OW 8710   4.935   1.494   3.175
 2604SOL    HW1 8711   5.022   1.449   3.194
 2604SOL    HW2 8712   4.862   1.425   3.172
 2605SOL     OW 8713   2.455   4.429   2.781
 2605SOL    HW1 8714   2.454   4.529   2.777
 2605SOL    HW2 8715   2.436   4.392   2.690
 2606SOL     OW 8716   6.998   4.648   1.365
 2606SOL    HW1 8717   6.927   4.588   1.329
 2606SOL    HW2 8718   7.014   4.628   1.461
 2607SOL     OW 8719   0.121   1.188   0.157
 2607SOL    HW1 8720   0.087   1.133   0.081
 2607SOL    HW2 8721   0.211   1.153   0.186
 2608SOL     OW 8722   5.046   4.539   1.643
 2608SOL    HW1 8723   5.050   4.454   1.590
 2608SOL    HW2 8724   5.058   4.518   1.740
 2609SOL     OW 8725   6.833   1.756   1.404
 2609SOL    HW1 8726   6.850   1.753   1.503
 2609SOL    HW2 8727   6.758   1.695   1.382
 2610SOL     OW 8728   0.057   4.931   4.404
 2610SOL    HW1 8729   0.008   4.952   4.320
 2610SOL    HW2 8730   0.093   5.015   4.444
 2611SOL     OW 8731   4.684   6.343   0.900
 2611SOL    HW1 8732   4.654   6.395   0.821
 2611SOL    HW2 8733   4.606   6.295   0.941
 2612SOL     OW 8734   6.580   0.082   5.608
 2612SOL    HW1 8735   6.677   0.095   5.588
 2612SOL    HW2 8736   6.526   0.121   5.534
 2613SOL     OW 8737   2.774   6.994   0.094
 2613SOL    HW1 8738   2.741   7.010   0.187
 2613SOL    HW2 8739   2.835   6.915   0.094
 2614SOL     OW 8740   0.060   0.688   6.073
 2614SOL    HW1 8741   0.004   0.691   6.157
 2614SOL    HW2 8742   7.023   0.684   5.993
 2615SOL     OW 8743   0.042   3.067   3.044
 2615SOL    HW1 8744   7.022   3.131   2.980
 2615SOL    HW2 8745   7.020   2.978   3.037
 2616SOL     OW 8746   3.904   3.093   5.134
 2616SOL    HW1 8747   3.877   3.013   5.189
 2616SOL    HW2 8748   3.964   3.152   5.187
 2617SOL     OW 8749   3.622   6.761   1.123
 2617SOL    HW1 8750   3.692   6.691   1.107
 2617SOL    HW2 8751   3.557   6.761   1.048
 2618SOL     OW 8752   0.398   0.239   4.355
 2618SOL    HW1 8753   0.384   0.309   4.285
 2618SOL    HW2 8754   0.356   0.154   4.324
 2619SOL     OW 8755   4.058   1.502   3.181
 2619SOL    HW1 8756   4.078   1.599   3.169
 2619SOL    HW2 8757   4.074   1.476   3.277
 2620SOL     OW 8758   0.024   6.768   2.931
 2620SOL    HW1 8759   0.091   6.843   2.934
 2620SOL    HW2 8760   6.989   6.779   2.851
 2621SOL     OW 8761   1.218   6.137   3.085
 2621SOL    HW1 8762   1.222   6.234   3.107
 2621SOL    HW2 8763   1.221   6.083   3.169
 2622SOL     OW 8764   2.026   2.823   5.869
 2622SOL    HW1 8765   2.106   2.835   5.928
 2622SOL    HW2 8766   1.951   2.783   5.922
 2623SOL     OW 8767   2.399   1.589   5.669
 2623SOL    HW1 8768   2.360   1.644   5.595
 2623SOL    HW2 8769   2.473   1.533   5.633
 2624SOL     OW 8770   6.774   2.103   5.468
 2624SOL    HW1 8771   6.704   2.175   5.474
 2624SOL    HW2 8772   6.735   2.016   5.495
 2625SOL     OW 8773   2.433   2.223   5.177
 2625SOL    HW1 8774   2.479   2.201   5.263
 2625SOL    HW2 8775   2.502   2.247   5.108
 2626SOL     OW 8776   0.589   6.822   5.288
 2626SOL    HW1 8777   0.603   6.899   5.351
 2626SOL    HW2 8778   0.600   6.854   5.194
 2627SOL     OW 8779   1.496   1.333   5.605
 2627SOL    HW1 8780   1.527   1.428   5.593
 2627SOL    HW2 8781   1.563   1.283   5.660
 2628SOL     OW 8782   2.264   4.937   6.262
 2628SOL    HW1 8783   2.268   4.988   6.176
 2628SOL    HW2 8784   2.249   4.840   6.243
 2629SOL     OW 8785   2.634   3.131   1.441
 2629SOL    HW1 8786   2.703   3.068   1.404
 2629SOL    HW2 8787   2.594   3.091   1.523
 2630SOL     OW 8788   2.897   1.960   2.601
 2630SOL    HW1 8789   2.956   2.032   2.638
 2630SOL    HW2 8790   2.831   1.932   2.671
 2631SOL     OW 8791   5.578   0.643   5.521
 2631SOL    HW1 8792   5.567   0.643   5.621
 2631SOL    HW2 8793   5.670   0.672   5.497
 2632SOL     OW 8794   3.977   2.629   6.439
 2632SOL    HW1 8795   4.068   2.662   6.467
 2632SOL    HW2 8796   3.988   2.554   6.374
 2633SOL     OW 8797   0.075   1.007   4.553
 2633SOL    HW1 8798   0.072   0.939   4.481
 2633SOL    HW2 8799   0.127   0.971   4.631
 2634SOL     OW 8800   0.659   4.477   3.193
 2634SOL    HW1 8801   0.696   4.569   3.176
 2634SOL    HW2 8802   0.568   4.485   3.234
 2635SOL     OW 8803   6.083   6.244   5.774
 2635SOL    HW1 8804   6.012   6.194   5.725
 2635SOL    HW2 8805   6.169   6.240   5.723
 2636SOL     OW 8806   4.525   0.522   5.352
 2636SOL    HW1 8807   4.549   0.605   5.301
 2636SOL    HW2 8808   4.516   0.545   5.449
 2637SOL     OW 8809   5.066   1.665   3.791
 2637SOL    HW1 8810   5.072   1.568   3.814
 2637SOL    HW2 8811   5.100   1.719   3.868
 2638SOL     OW 8812   6.774   0.474   3.200
 2638SOL    HW1 8813   6.683   0.470   3.158
 2638SOL    HW2 8814   6.780   0.407   3.273
 2639SOL     OW 8815   0.665   6.555   1.073
 2639SOL    HW1 8816   0.763   6.532   1.079
 2639SOL    HW2 8817   0.622   6.496   1.005
 2640SOL     OW 8818   0.754   5.549   5.096
 2640SOL    HW1 8819   0.792   5.575   5.185
 2640SOL    HW2 8820   0.688   5.618   5.067
 2641SOL     OW 8821   4.966   3.146   2.543
 2641SOL    HW1 8822   4.990   3.237   2.578
 2641SOL    HW2 8823   4.897   3.105   2.602
 2642SOL     OW 8824   4.016   6.791   3.921
 2642SOL    HW1 8825   3.958   6.839   3.855
 2642SOL    HW2 8826   4.009   6.693   3.906
 2643SOL     OW 8827   0.120   4.138   3.177
 2643SOL    HW1 8828   0.214   4.118   3.152
 2643SOL    HW2 8829   0.088   4.219   3.128
 2644SOL     OW 8830   6.316   5.924   5.887
 2644SOL    HW1 8831   6.287   5.923   5.791
 2644SOL    HW2 8832   6.307   5.832   5.926
 2645SOL     OW 8833   4.442   5.625   4.692
 2645SOL    HW1 8834   4.525   5.570   4.694
 2645SOL    HW2 8835   4.456   5.706   4.635
 2646SOL     OW 8836   5.948   0.460   6.673
 2646SOL    HW1 8837   5.945   0.490   6.768
 2646SOL    HW2 8838   5.952   0.360   6.669
 2647SOL     OW 8839   6.562   6.951   2.463
 2647SOL    HW1 8840   6.497   0.005   2.463
 2647SOL    HW2 8841   6.527   6.878   2.521
 2648SOL     OW 8842   0.557   0.242   4.035
 2648SOL    HW1 8843   0.629   0.211   3.973
 2648SOL    HW2 8844   0.468   0.231   3.991
 2649SOL     OW 8845   5.490   3.131   0.143
 2649SOL    HW1 8846   5.454   3.084   0.063
 2649SOL    HW2 8847   5.422   3.127   0.217
 2650SOL     OW 8848   1.003   4.098   4.535
 2650SOL    HW1 8849   0.965   4.147   4.613
 2650SOL    HW2 8850   0.980   4.146   4.450
 2651SOL     OW 8851   0.959   0.863   0.270
 2651SOL    HW1 8852   0.970   0.846   0.172
 2651SOL    HW2 8853   0.952   0.776   0.318
 2652SOL     OW 8854   3.447   3.709   4.309
 2652SOL    HW1 8855   3.355   3.671   4.313
 2652SOL    HW2 8856   3.463   3.766   4.389
 2653SOL     OW 8857   4.933   6.862   5.453
 2653SOL    HW1 8858   5.005   6.931   5.466
 2653SOL    HW2 8859   4.911   6.856   5.356
 2654SOL     OW 8860   4.829   6.019   1.891
 2654SOL    HW1 8861   4.882   5.959   1.831
 2654SOL    HW2 8862   4.877   6.031   1.977
 2655SOL     OW 8863   4.489   6.230   4.266
 2655SOL    HW1 8864   4.482   6.188   4.356
 2655SOL    HW2 8865   4.399   6.265   4.239
 2656SOL     OW 8866   3.565   4.981   4.227
 2656SOL    HW1 8867   3.474   4.940   4.229
 2656SOL    HW2 8868   3.558   5.079   4.245
 2657SOL     OW 8869   0.964   4.002   6.113
 2657SOL    HW1 8870   0.944   4.094   6.146
 2657SOL    HW2 8871   0.978   4.005   6.014
 2658SOL     OW 8872   5.024   4.150   0.722
 2658SOL    HW1 8873   5.006   4.135   0.625
 2658SOL    HW2 8874   5.000   4.244   0.747
 2659SOL     OW 8875   5.552   3.086   4.124
 2659SOL    HW1 8876   5.495   3.045   4.196
 2659SOL    HW2 8877   5.499   3.089   4.039
 2660SOL     OW 8878   1.688   0.318   1.547
 2660SOL    HW1 8879   1.677   0.235   1.602
 2660SOL    HW2 8880   1.714   0.394   1.607
 2661SOL     OW 8881   2.489   6.714   1.142
 2661SOL    HW1 8882   2.504   6.716   1.043
 2661SOL    HW2 8883   2.399   6.675   1.162
 2662SOL     OW 8884   4.890   6.713   4.905
 2662SOL    HW1 8885   4.888   6.740   5.001
 2662SOL    HW2 8886   4.892   6.613   4.898
 2663SOL     OW 8887   3.228   3.801   6.908
 2663SOL    HW1 8888   3.217   3.723   6.847
 2663SOL    HW2 8889   3.167   3.875   6.880
 2664SOL     OW 8890   4.201   4.025   5.403
 2664SOL    HW1 8891   4.162   4.058   5.489
 2664SOL    HW2 8892   4.299   4.007   5.415
 2665SOL     OW 8893   2.544   2.749   5.285
 2665SOL    HW1 8894   2.508   2.697   5.208
 2665SOL    HW2 8895   2.537   2.847   5.264
 2666SOL     OW 8896   5.766   4.290   1.151
 2666SOL    HW1 8897   5.803   4.362   1.092
 2666SOL    HW2 8898   5.837   4.222   1.170
 2667SOL     OW 8899   0.528   6.446   3.759
 2667SOL    HW1 8900   0.477   6.492   3.687
 2667SOL    HW2 8901   0.612   6.406   3.721
 2668SOL     OW 8902   0.115   3.022   4.855
 2668SOL    HW1 8903   0.149   3.062   4.769
 2668SOL    HW2 8904   0.162   3.065   4.932
 2669SOL     OW 8905   2.719   4.422   5.358
 2669SOL    HW1 8906   2.806   4.443   5.314
 2669SOL    HW2 8907   2.735   4.358   5.434
 2670SOL     OW 8908   6.154   3.345   6.343
 2670SOL    HW1 8909   6.175   3.439   6.367
 2670SOL    HW2 8910   6.166   3.332   6.245
 2671SOL     OW 8911   4.219   5.423   5.707
 2671SOL    HW1 8912   4.251   5.391   5.796
 2671SOL    HW2 8913   4.292   5.473   5.661
 2672SOL     OW 8914   1.526   5.045   0.802
 2672SOL    HW1 8915   1.534   5.140   0.831
 2672SOL    HW2 8916   1.594   4.989   0.849
 2673SOL     OW 8917   6.093   0.599   3.597
 2673SOL    HW1 8918   6.103   0.576   3.693
 2673SOL    HW2 8919   6.088   0.515   3.543
 2674SOL     OW 8920   1.412   4.494   3.681
 2674SOL    HW1 8921   1.423   4.483   3.779
 2674SOL    HW2 8922   1.422   4.404   3.636
 2675SOL     OW 8923   6.685   5.434   3.479
 2675SOL    HW1 8924   6.683   5.532   3.461
 2675SOL    HW2 8925   6.667   5.385   3.393
 2676SOL     OW 8926   4.074   2.518   0.713
 2676SOL    HW1 8927   4.012   2.576   0.764
 2676SOL    HW2 8928   4.024   2.441   0.673
 2677SOL     OW 8929   3.059   3.367   0.484
 2677SOL    HW1 8930   3.106   3.454   0.495
 2677SOL    HW2 8931   3.100   3.298   0.544
 2678SOL     OW 8932   0.410   2.862   1.280
 2678SOL    HW1 8933   0.401   2.905   1.370
 2678SOL    HW2 8934   0.495   2.810   1.277
 2679SOL     OW 8935   3.348   4.720   1.128
 2679SOL    HW1 8936   3.278   4.784   1.097
 2679SOL    HW2 8937   3.352   4.642   1.066
 2680SOL     OW 8938   0.879   1.699   0.677
 2680SOL    HW1 8939   0.795   1.714   0.728
 2680SOL    HW2 8940   0.942   1.644   0.732
 2681SOL     OW 8941   1.282   2.702   3.988
 2681SOL    HW1 8942   1.352   2.670   3.924
 2681SOL    HW2 8943   1.242   2.623   4.034
 2682SOL     OW 8944   4.843   4.222   2.573
 2682SOL    HW1 8945   4.903   4.168   2.632
 2682SOL    HW2 8946   4.847   4.188   2.480
 2683SOL     OW 8947   2.295   4.801   1.545
 2683SOL    HW1 8948   2.387   4.780   1.579
 2683SOL    HW2 8949   2.251   4.867   1.607
 2684SOL     OW 8950   4.026   5.694   1.426
 2684SOL    HW1 8951   4.059   5.730   1.513
 2684SOL    HW2 8952   4.027   5.767   1.358
 2685SOL     OW 8953   6.162   6.543   6.399
 2685SOL    HW1 8954   6.078   6.544   6.452
 2685SOL    HW2 8955   6.144   6.509   6.307
 2686SOL     OW 8956   1.673   1.578   5.863
 2686SOL    HW1 8957   1.727   1.503   5.900
 2686SOL    HW2 8958   1.722   1.665   5.877
 2687SOL     OW 8959   4.541   4.638   2.410
 2687SOL    HW1 8960   4.547   4.628   2.510
 2687SOL    HW2 8961   4.445   4.633   2.382
 2688SOL     OW 8962   3.781   4.212   6.906
 2688SOL    HW1 8963   3.732   4.250   6.828
 2688SOL    HW2 8964   3.794   4.283   6.975
 2689SOL     OW 8965   1.628   4.160   3.453
 2689SOL    HW1 8966   1.564   4.190   3.524
 2689SOL    HW2 8967   1.616   4.063   3.436
 2690SOL     OW 8968   3.299   3.384   4.087
 2690SOL    HW1 8969   3.296   3.480   4.060
 2690SOL    HW2 8970   3.376   3.339   4.043
 2691SOL     OW 8971   1.560   5.282   2.355
 2691SOL    HW1 8972   1.576   5.372   2.315
 2691SOL    HW2 8973   1.576   5.212   2.285
 2692SOL     OW 8974   3.470   5.346   2.939
 2692SOL    HW1 8975   3.446   5.302   2.852
 2692SOL    HW2 8976   3.558   5.311   2.971
 2693SOL     OW 8977   2.301   5.355   3.085
 2693SOL    HW1 8978   2.298   5.261   3.050
 2693SOL    HW2 8979   2.295   5.354   3.185
 2694SOL     OW 8980   4.075   6.425   3.268
 2694SOL    HW1 8981   4.147   6.358   3.248
 2694SOL    HW2 8982   3.993   6.402   3.214
 2695SOL     OW 8983   5.439   0.401   2.707
 2695SOL    HW1 8984   5.409   0.308   2.688
 2695SOL    HW2 8985   5.478   0.441   2.624
 2696SOL     OW 8986   3.694   3.645   5.443
 2696SOL    HW1 8987   3.778   3.671   5.395
 2696SOL    HW2 8988   3.717   3.594   5.526
 2697SOL     OW 8989   3.209   1.663   2.666
 2697SOL    HW1 8990   3.132   1.687   2.608
 2697SOL    HW2 8991   3.228   1.565   2.658
 2698SOL     OW 8992   2.158   6.528   0.084
 2698SOL    HW1 8993   2.170   6.624   0.109
 2698SOL    HW2 8994   2.066   6.498   0.110
 2699SOL     OW 8995   2.711   6.764   0.596
 2699SOL    HW1 8996   2.670   6.825   0.664
 2699SOL    HW2 8997   2.649   6.756   0.517
 2700SOL     OW 8998   2.084   3.707   0.473
 2700SOL    HW1 8999   1.984   3.709   0.482
 2700SOL    HW2 9000   2.109   3.716   0.377
 2701SOL     OW 9001   5.819   1.489   6.125
 2701SOL    HW1 9002   5.788   1.567   6.070
 2701SOL    HW2 9003   5.891   1.440   6.077
 2702SOL     OW 9004   0.810   3.018   3.475
 2702SOL    HW1 9005   0.826   3.098   3.533
 2702SOL    HW2 9006   0.875   2.946   3.500
 2703SOL     OW 9007   1.553   7.016   1.214
 2703SOL    HW1 9008   1.553   6.974   1.123
 2703SOL    HW2 9009   1.464   7.001   1.257
 2704SOL     OW 9010   6.776   5.853   1.134
 2704SOL    HW1 9011   6.701   5.834   1.071
 2704SOL    HW2 9012   6.770   5.948   1.166
 2705SOL     OW 9013   6.784   5.801   4.614
 2705SOL    HW1 9014   6.778   5.893   4.651
 2705SOL    HW2 9015   6.763   5.802   4.516
 2706SOL     OW 9016   0.218   6.222   1.813
 2706SOL    HW1 9017   0.229   6.270   1.727
 2706SOL    HW2 9018   0.284   6.147   1.818
 2707SOL     OW 9019   3.879   6.989   4.270
 2707SOL    HW1 9020   3.838   6.910   4.225
 2707SOL    HW2 9021   3.807   0.028   4.303
 2708SOL     OW 9022   0.545   2.366   6.859
 2708SOL    HW1 9023   0.528   2.343   6.955
 2708SOL    HW2 9024   0.541   2.465   6.848
 2709SOL     OW 9025   6.226   6.879   0.213
 2709SOL    HW1 9026   6.143   6.935   0.209
 2709SOL    HW2 9027   6.295   6.926   0.269
 2710SOL     OW 9028   1.385   3.940   3.517
 2710SOL    HW1 9029   1.462   3.879   3.497
 2710SOL    HW2 9030   1.299   3.890   3.506
 2711SOL     OW 9031   2.625   0.961   3.777
 2711SOL    HW1 9032   2.701   1.015   3.813
 2711SOL    HW2 9033   2.634   0.866   3.808
 2712SOL     OW 9034   2.859   4.511   1.063
 2712SOL    HW1 9035   2.947   4.473   1.090
 2712SOL    HW2 9036   2.789   4.439   1.067
 2713SOL     OW 9037   2.579   2.311   4.598
 2713SOL    HW1 9038   2.597   2.399   4.643
 2713SOL    HW2 9039   2.630   2.239   4.643
 2714SOL     OW 9040   3.662   2.614   0.684
 2714SOL    HW1 9041   3.592   2.550   0.715
 2714SOL    HW2 9042   3.636   2.651   0.595
 2715SOL     OW 9043   4.945   1.882   0.829
 2715SOL    HW1 9044   4.988   1.936   0.900
 2715SOL    HW2 9045   4.998   1.798   0.813
 2716SOL     OW 9046   5.211   4.163   2.488
 2716SOL    HW1 9047   5.210   4.253   2.445
 2716SOL    HW2 9048   5.135   4.156   2.552
 2717SOL     OW 9049   0.954   6.433   2.447
 2717SOL    HW1 9050   0.957   6.390   2.537
 2717SOL    HW2 9051   0.861   6.467   2.429
 2718SOL     OW 9052   2.085   2.081   4.828
 2718SOL    HW1 9053   2.172   2.118   4.859
 2718SOL    HW2 9054   2.032   2.051   4.908
 2719SOL     OW 9055   6.817   5.309   0.593
 2719SOL    HW1 9056   6.813   5.381   0.525
 2719SOL    HW2 9057   6.731   5.305   0.644
 2720SOL     OW 9058   2.034   6.304   1.851
 2720SOL    HW1 9059   2.124   6.266   1.834
 2720SOL    HW2 9060   2.042   6.400   1.876
 2721SOL     OW 9061   2.336   0.299   3.478
 2721SOL    HW1 9062   2.325   0.332   3.572
 2721SOL    HW2 9063   2.364   0.374   3.419
 2722SOL     OW 9064   6.713   5.549   0.975
 2722SOL    HW1 9065   6.724   5.570   0.878
 2722SOL    HW2 9066   6.719   5.633   1.028
 2723SOL     OW 9067   0.752   0.005   5.999
 2723SOL    HW1 9068   0.737   6.960   5.927
 2723SOL    HW2 9069   0.769   6.982   6.086
 2724SOL     OW 9070   1.884   6.730   6.995
 2724SOL    HW1 9071   1.904   6.818   0.016
 2724SOL    HW2 9072   1.963   6.702   6.940
 2725SOL     OW 9073   5.388   5.397   4.285
 2725SOL    HW1 9074   5.472   5.351   4.256
 2725SOL    HW2 9075   5.389   5.491   4.251
 2726SOL     OW 9076   0.042   2.875   1.011
 2726SOL    HW1 9077   0.028   2.886   1.109
 2726SOL    HW2 9078   0.019   2.962   0.965
 2727SOL     OW 9079   0.255   5.122   2.962
 2727SOL    HW1 9080   0.301   5.196   2.913
 2727SOL    HW2 9081   0.320   5.049   2.982
 2728SOL     OW 9082   4.844   6.321   6.013
 2728SOL    HW1 9083   4.813   6.246   5.954
 2728SOL    HW2 9084   4.764   6.370   6.049
 2729SOL     OW 9085   6.984   6.000   0.955
 2729SOL    HW1 9086   6.956   5.975   1.047
 2729SOL    HW2 9087   0.023   6.079   0.959
 2730SOL     OW 9088   1.525   5.693   1.567
 2730SOL    HW1 9089   1.553   5.789   1.565
 2730SOL    HW2 9090   1.487   5.667   1.479
 2731SOL     OW 9091   3.940   3.754   3.134
 2731SOL    HW1 9092   3.849   3.764   3.175
 2731SOL    HW2 9093   3.931   3.740   3.036
 2732SOL     OW 9094   5.499   2.202   1.518
 2732SOL    HW1 9095   5.513   2.160   1.428
 2732SOL    HW2 9096   5.436   2.147   1.572
 2733SOL     OW 9097   6.696   0.687   4.764
 2733SOL    HW1 9098   6.665   0.782   4.767
 2733SOL    HW2 9099   6.685   0.645   4.854
 2734SOL     OW 9100   2.611   6.066   1.462
 2734SOL    HW1 9101   2.582   6.066   1.558
 2734SOL    HW2 9102   2.642   6.158   1.436
 2735SOL     OW 9103   1.384   3.387   2.550
 2735SOL    HW1 9104   1.332   3.448   2.609
 2735SOL    HW2 9105   1.466   3.434   2.518
 2736SOL     OW 9106   4.802   6.734   5.672
 2736SOL    HW1 9107   4.853   6.758   5.589
 2736SOL    HW2 9108   4.704   6.730   5.650
 2737SOL     OW 9109   3.350   3.723   6.167
 2737SOL    HW1 9110   3.270   3.670   6.138
 2737SOL    HW2 9111   3.433   3.668   6.154
 2738SOL     OW 9112   4.973   6.193   2.619
 2738SOL    HW1 9113   4.975   6.149   2.530
 2738SOL    HW2 9114   4.902   6.263   2.621
 2739SOL     OW 9115   6.896   5.053   1.450
 2739SOL    HW1 9116   6.825   5.028   1.384
 2739SOL    HW2 9117   6.978   4.999   1.433
 2740SOL     OW 9118   6.722   3.817   2.428
 2740SOL    HW1 9119   6.669   3.901   2.438
 2740SOL    HW2 9120   6.796   3.831   2.362
 2741SOL     OW 9121   6.275   0.198   4.963
 2741SOL    HW1 9122   6.219   0.275   4.994
 2741SOL    HW2 9123   6.298   0.210   4.867
 2742SOL     OW 9124   2.527   5.725   6.535
 2742SOL    HW1 9125   2.436   5.700   6.502
 2742SOL    HW2 9126   2.581   5.642   6.548
 2743SOL     OW 9127   6.828   5.023   2.038
 2743SOL    HW1 9128   6.883   5.000   2.118
 2743SOL    HW2 9129   6.807   5.121   2.040
 2744SOL     OW 9130   5.345   2.040   6.255
 2744SOL    HW1 9131   5.382   2.012   6.167
 2744SOL    HW2 9132   5.400   2.115   6.292
 2745SOL     OW 9133   6.916   6.705   5.736
 2745SOL    HW1 9134   6.919   6.608   5.760
 2745SOL    HW2 9135   6.878   6.757   5.813
 2746SOL     OW 9136   2.525   2.081   3.698
 2746SOL    HW1 9137   2.474   2.145   3.641
 2746SOL    HW2 9138   2.501   1.988   3.672
 2747SOL     OW 9139   6.254   3.927   6.502
 2747SOL    HW1 9140   6.283   4.017   6.534
 2747SOL    HW2 9141   6.209   3.935   6.413
 2748SOL     OW 9142   5.210   1.318   1.127
 2748SOL    HW1 9143   5.165   1.243   1.176
 2748SOL    HW2 9144   5.301   1.332   1.164
 2749SOL     OW 9145   7.018   5.014   2.243
 2749SOL    HW1 9146   0.079   5.060   2.274
 2749SOL    HW2 9147   6.980   4.960   2.317
 2750SOL     OW 9148   0.888   5.454   1.124
 2750SOL    HW1 9149   0.811   5.393   1.106
 2750SOL    HW2 9150   0.936   5.425   1.207
 2751SOL     OW 9151   0.962   5.841   1.703
 2751SOL    HW1 9152   0.929   5.784   1.629
 2751SOL    HW2 9153   1.061   5.828   1.714
 2752SOL     OW 9154   4.007   5.209   6.051
 2752SOL    HW1 9155   4.010   5.133   5.985
 2752SOL    HW2 9156   4.095   5.215   6.098
 2753SOL     OW 9157   0.681   6.092   5.485
 2753SOL    HW1 9158   0.737   6.137   5.416
 2753SOL    HW2 9159   0.591   6.071   5.447
 2754SOL     OW 9160   0.380   0.679   2.652
 2754SOL    HW1 9161   0.465   0.662   2.603
 2754SOL    HW2 9162   0.383   0.634   2.742
 2755SOL     OW 9163   2.149   6.952   3.110
 2755SOL    HW1 9164   2.158   6.957   3.011
 2755SOL    HW2 9165   2.240   6.942   3.152
 2756SOL     OW 9166   6.029   4.858   6.627
 2756SOL    HW1 9167   5.959   4.788   6.640
 2756SOL    HW2 9168   6.105   4.819   6.575
 2757SOL     OW 9169   2.780   0.561   6.702
 2757SOL    HW1 9170   2.742   0.653   6.711
 2757SOL    HW2 9171   2.751   0.505   6.780
 2758SOL     OW 9172   4.440   6.591   3.788
 2758SOL    HW1 9173   4.402   6.643   3.865
 2758SOL    HW2 9174   4.374   6.590   3.713
 2759SOL     OW 9175   4.722   5.656   5.194
 2759SOL    HW1 9176   4.715   5.577   5.132
 2759SOL    HW2 9177   4.810   5.701   5.181
 2760SOL     OW 9178   0.314   5.989   2.711
 2760SOL    HW1 9179   0.311   5.929   2.630
 2760SOL    HW2 9180   0.234   5.973   2.767
 2761SOL     OW 9181   1.714   4.340   5.104
 2761SOL    HW1 9182   1.731   4.348   5.006
 2761SOL    HW2 9183   1.772   4.268   5.143
 2762SOL     OW 9184   1.993   0.317   6.078
 2762SOL    HW1 9185   2.052   0.255   6.026
 2762SOL    HW2 9186   1.985   0.404   6.028
 2763SOL     OW 9187   4.770   2.207   4.353
 2763SOL    HW1 9188   4.773   2.118   4.308
 2763SOL    HW2 9189   4.722   2.272   4.294
 2764SOL     OW 9190   6.498   1.243   1.296
 2764SOL    HW1 9191   6.507   1.284   1.386
 2764SOL    HW2 9192   6.580   1.188   1.276
 2765SOL     OW 9193   6.625   0.090   0.231
 2765SOL    HW1 9194   6.605   0.188   0.238
 2765SOL    HW2 9195   6.635   0.065   0.135
 2766SOL     OW 9196   5.137   2.627   0.495
 2766SOL    HW1 9197   5.050   2.677   0.495
 2766SOL    HW2 9198   5.184   2.640   0.582
 2767SOL     OW 9199   6.532   4.833   0.239
 2767SOL    HW1 9200   6.497   4.837   0.333
 2767SOL    HW2 9201   6.592   4.911   0.223
 2768SOL     OW 9202   4.388   0.531   1.027
 2768SOL    HW1 9203   4.468   0.515   1.085
 2768SOL    HW2 9204   4.319   0.580   1.080
 2769SOL     OW 9205   1.888   4.508   6.023
 2769SOL    HW1 9206   1.852   4.441   5.959
 2769SOL    HW2 9207   1.941   4.577   5.974
 2770SOL     OW 9208   4.341   5.617   5.986
 2770SOL    HW1 9209   4.388   5.706   5.986
 2770SOL    HW2 9210   4.355   5.572   6.075
 2771SOL     OW 9211   6.188   0.970   3.804
 2771SOL    HW1 9212   6.119   0.936   3.741
 2771SOL    HW2 9213   6.243   0.894   3.839
 2772SOL     OW 9214   3.942   1.977   0.535
 2772SOL    HW1 9215   3.870   2.044   0.516
 2772SOL    HW2 9216   4.016   2.021   0.586
 2773SOL     OW 9217   6.082   1.579   4.851
 2773SOL    HW1 9218   6.134   1.576   4.936
 2773SOL    HW2 9219   6.089   1.491   4.804
 2774SOL     OW 9220   5.260   2.702   2.985
 2774SOL    HW1 9221   5.252   2.615   3.033
 2774SOL    HW2 9222   5.191   2.706   2.912
 2775SOL     OW 9223   6.671   4.081   5.230
 2775SOL    HW1 9224   6.735   4.068   5.306
 2775SOL    HW2 9225   6.670   3.999   5.173
 2776SOL     OW 9226   4.670   4.840   5.960
 2776SOL    HW1 9227   4.696   4.826   5.865
 2776SOL    HW2 9228   4.660   4.751   6.005
 2777SOL     OW 9229   2.807   1.861   1.531
 2777SOL    HW1 9230   2.742   1.821   1.595
 2777SOL    HW2 9231   2.897   1.864   1.573
 2778SOL     OW 9232   1.676   6.855   5.336
 2778SOL    HW1 9233   1.662   6.944   5.293
 2778SOL    HW2 9234   1.676   6.783   5.267
 2779SOL     OW 9235   5.218   6.319   2.266
 2779SOL    HW1 9236   5.250   6.364   2.350
 2779SOL    HW2 9237   5.253   6.226   2.263
 2780SOL     OW 9238   0.890   6.747   6.985
 2780SOL    HW1 9239   0.908   6.720   6.890
 2780SOL    HW2 9240   0.791   6.759   6.997
 2781SOL     OW 9241   6.084   0.295   2.056
 2781SOL    HW1 9242   6.121   0.388   2.050
 2781SOL    HW2 9243   6.148   0.232   2.012
 2782SOL     OW 9244   4.662   1.161   5.278
 2782SOL    HW1 9245   4.637   1.132   5.370
 2782SOL    HW2 9246   4.581   1.200   5.233
 2783SOL     OW 9247   5.037   4.081   2.714
 2783SOL    HW1 9248   5.002   3.989   2.700
 2783SOL    HW2 9249   5.083   4.087   2.803
 2784SOL     OW 9250   3.276   1.379   2.150
 2784SOL    HW1 9251   3.313   1.446   2.215
 2784SOL    HW2 9252   3.266   1.421   2.060
 2785SOL     OW 9253   5.517   2.492   0.798
 2785SOL    HW1 9254   5.447   2.563   0.798
 2785SOL    HW2 9255   5.539   2.467   0.704
 2786SOL     OW 9256   4.500   6.673   2.831
 2786SOL    HW1 9257   4.515   6.756   2.776
 2786SOL    HW2 9258   4.453   6.605   2.775
 2787SOL     OW 9259   5.587   0.365   6.028
 2787SOL    HW1 9260   5.510   0.305   6.048
 2787SOL    HW2 9261   5.554   0.460   6.022
 2788SOL     OW 9262   1.779   5.731   5.902
 2788SOL    HW1 9263   1.811   5.824   5.885
 2788SOL    HW2 9264   1.830   5.692   5.979
 2789SOL     OW 9265   1.357   2.188   3.875
 2789SOL    HW1 9266   1.390   2.224   3.788
 2789SOL    HW2 9267   1.311   2.100   3.860
 2790SOL     OW 9268   3.428   5.780   1.956
 2790SOL    HW1 9269   3.469   5.692   1.935
 2790SOL    HW2 9270   3.480   5.824   2.029
 2791SOL     OW 9271   0.843   2.449   2.813
 2791SOL    HW1 9272   0.808   2.379   2.751
 2791SOL    HW2 9273   0.805   2.538   2.787
 2792SOL     OW 9274   1.763   0.485   3.923
 2792SOL    HW1 9275   1.719   0.520   3.840
 2792SOL    HW2 9276   1.860   0.470   3.905
 2793SOL     OW 9277   5.270   3.691   1.594
 2793SOL    HW1 9278   5.301   3.708   1.687
 2793SOL    HW2 9279   5.346   3.658   1.538
 2794SOL     OW 9280   0.051   1.895   6.112
 2794SOL    HW1 9281   0.130   1.950   6.139
 2794SOL    HW2 9282   6.992   1.929   6.159
 2795SOL     OW 9283   0.640   3.751   0.633
 2795SOL    HW1 9284   0.731   3.724   0.665
 2795SOL    HW2 9285   0.605   3.682   0.570
 2796SOL     OW 9286   0.332   6.569   2.934
 2796SOL    HW1 9287   0.304   6.634   3.005
 2796SOL    HW2 9288   0.412   6.517   2.965
 2797SOL     OW 9289   5.229   5.527   4.615
 2797SOL    HW1 9290   5.221   5.461   4.541
 2797SOL    HW2 9291   5.149   5.587   4.615
 2798SOL     OW 9292   6.753   5.268   2.061
 2798SOL    HW1 9293   6.703   5.250   2.146
 2798SOL    HW2 9294   6.800   5.357   2.068
 2799SOL     OW 9295   6.009   5.532   5.681
 2799SOL    HW1 9296   6.007   5.448   5.626
 2799SOL    HW2 9297   6.103   5.554   5.704
 2800SOL     OW 9298   4.646   6.261   6.491
 2800SOL    HW1 9299   4.741   6.231   6.504
 2800SOL    HW2 9300   4.595   6.188   6.444
 2801SOL     OW 9301   6.972   5.557   5.646
 2801SOL    HW1 9302   6.892   5.532   5.590
 2801SOL    HW2 9303   6.952   5.642   5.696
 2802SOL     OW 9304   5.469   5.926   5.615
 2802SOL    HW1 9305   5.471   5.874   5.530
 2802SOL    HW2 9306   5.452   6.022   5.595
 2803SOL     OW 9307   4.311   5.545   6.244
 2803SOL    HW1 9308   4.269   5.466   6.289
 2803SOL    HW2 9309   4.387   5.578   6.299
 2804SOL     OW 9310   0.293   4.616   5.498
 2804SOL    HW1 9311   0.204   4.647   5.530
 2804SOL    HW2 9312   0.300   4.628   5.399
 2805SOL     OW 9313   6.206   3.340   2.333
 2805SOL    HW1 9314   6.179   3.413   2.396
 2805SOL    HW2 9315   6.124   3.300   2.292
 2806SOL     OW 9316   0.692   4.389   5.474
 2806SOL    HW1 9317   0.598   4.356   5.488
 2806SOL    HW2 9318   0.756   4.327   5.518
 2807SOL     OW 9319   3.433   6.946   4.419
 2807SOL    HW1 9320   3.430   6.902   4.329
 2807SOL    HW2 9321   3.472   6.883   4.486
 2808SOL     OW 9322   6.663   4.937   1.846
 2808SOL    HW1 9323   6.729   4.952   1.919
 2808SOL    HW2 9324   6.580   4.898   1.884
 2809SOL     OW 9325   5.406   2.804   0.985
 2809SOL    HW1 9326   5.431   2.899   1.004
 2809SOL    HW2 9327   5.344   2.771   1.057
 2810SOL     OW 9328   2.992   5.764   3.121
 2810SOL    HW1 9329   2.895   5.737   3.116
 2810SOL    HW2 9330   3.001   5.859   3.092
 2811SOL     OW 9331   1.236   2.043   4.146
 2811SOL    HW1 9332   1.170   2.064   4.074
 2811SOL    HW2 9333   1.316   1.999   4.107
 2812SOL     OW 9334   5.122   3.024   6.901
 2812SOL    HW1 9335   5.090   2.930   6.891
 2812SOL    HW2 9336   5.057   3.086   6.857
 2813SOL     OW 9337   0.818   0.638   6.402
 2813SOL    HW1 9338   0.840   0.575   6.327
 2813SOL    HW2 9339   0.777   0.587   6.478
 2814SOL     OW 9340   3.539   3.797   5.625
 2814SOL    HW1 9341   3.535   3.894   5.602
 2814SOL    HW2 9342   3.593   3.748   5.556
 2815SOL     OW 9343   0.014   5.698   6.517
 2815SOL    HW1 9344   0.022   5.712   6.418
 2815SOL    HW2 9345   6.975   5.621   6.535
 2816SOL     OW 9346   6.357   6.010   3.628
 2816SOL    HW1 9347   6.263   6.040   3.610
 2816SOL    HW2 9348   6.397   5.975   3.544
 2817SOL     OW 9349   3.093   0.001   2.008
 2817SOL    HW1 9350   3.031   6.963   2.057
 2817SOL    HW2 9351   3.187   7.009   2.041
 2818SOL     OW 9352   0.515   0.621   2.187
 2818SOL    HW1 9353   0.431   0.567   2.190
 2818SOL    HW2 9354   0.502   0.704   2.242
 2819SOL     OW 9355   2.304   0.759   1.509
 2819SOL    HW1 9356   2.393   0.773   1.553
 2819SOL    HW2 9357   2.257   0.847   1.502
 2820SOL     OW 9358   1.066   2.148   3.676
 2820SOL    HW1 9359   1.074   2.110   3.768
 2820SOL    HW2 9360   1.142   2.116   3.620
 2821SOL     OW 9361   3.515   4.768   6.113
 2821SOL    HW1 9362   3.536   4.812   6.025
 2821SOL    HW2 9363   3.536   4.670   6.107
 2822SOL     OW 9364   3.725   1.812   0.498
 2822SOL    HW1 9365   3.812   1.861   0.499
 2822SOL    HW2 9366   3.653   1.872   0.534
 2823SOL     OW 9367   5.434   0.897   1.134
 2823SOL    HW1 9368   5.399   0.924   1.223
 2823SOL    HW2 9369   5.400   0.960   1.064
 2824SOL     OW 9370   2.359   1.415   4.321
 2824SOL    HW1 9371   2.284   1.475   4.349
 2824SOL    HW2 9372   2.432   1.471   4.280
 2825SOL     OW 9373   4.888   6.162   6.596
 2825SOL    HW1 9374   4.934   6.074   6.581
 2825SOL    HW2 9375   4.944   6.219   6.657
 2826SOL     OW 9376   4.937   1.486   6.724
 2826SOL    HW1 9377   4.872   1.562   6.735
 2826SOL    HW2 9378   4.912   1.412   6.786
 2827SOL     OW 9379   0.460   1.425   6.490
 2827SOL    HW1 9380   0.491   1.438   6.396
 2827SOL    HW2 9381   0.439   1.514   6.531
 2828SOL     OW 9382   2.423   2.526   0.305
 2828SOL    HW1 9383   2.408   2.431   0.278
 2828SOL    HW2 9384   2.437   2.531   0.404
 2829SOL     OW 9385   3.085   3.091   4.437
 2829SOL    HW1 9386   3.111   3.013   4.494
 2829SOL    HW2 9387   3.167   3.135   4.401
 2830SOL     OW 9388   3.259   4.181   5.508
 2830SOL    HW1 9389   3.214   4.183   5.597
 2830SOL    HW2 9390   3.195   4.213   5.438
 2831SOL     OW 9391   0.849   4.122   3.338
 2831SOL    HW1 9392   0.833   4.163   3.427
 2831SOL    HW2 9393   0.929   4.062   3.342
 2832SOL     OW 9394   0.948   3.212   1.748
 2832SOL    HW1 9395   0.980   3.197   1.654
 2832SOL    HW2 9396   0.910   3.126   1.783
 2833SOL     OW 9397   2.627   1.674   2.411
 2833SOL    HW1 9398   2.534   1.705   2.430
 2833SOL    HW2 9399   2.677   1.747   2.365
 2834SOL     OW 9400   4.081   6.691   5.846
 2834SOL    HW1 9401   4.136   6.774   5.856
 2834SOL    HW2 9402   4.126   6.616   5.895
 2835SOL     OW 9403   0.395   6.128   1.507
 2835SOL    HW1 9404   0.307   6.173   1.524
 2835SOL    HW2 9405   0.467   6.197   1.507
 2836SOL     OW 9406   0.562   6.443   1.826
 2836SOL    HW1 9407   0.486   6.495   1.788
 2836SOL    HW2 9408   0.531   6.350   1.849
 2837SOL     OW 9409   4.606   4.328   2.499
 2837SOL    HW1 9410   4.575   4.409   2.550
 2837SOL    HW2 9411   4.682   4.285   2.548
 2838SOL     OW 9412   4.094   3.929   0.820
 2838SOL    HW1 9413   4.159   3.989   0.775
 2838SOL    HW2 9414   4.050   3.870   0.751
 2839SOL     OW 9415   0.089   2.503   3.366
 2839SOL    HW1 9416   0.055   2.596   3.354
 2839SOL    HW2 9417   0.020   2.438   3.332
 2840SOL     OW 9418   2.009   0.256   1.892
 2840SOL    HW1 9419   1.946   0.325   1.858
 2840SOL    HW2 9420   1.985   0.233   1.986
 2841SOL     OW 9421   6.289   1.470   6.121
 2841SOL    HW1 9422   6.336   1.556   6.104
 2841SOL    HW2 9423   6.327   1.399   6.062
 2842SOL     OW 9424   0.010   4.540   4.039
 2842SOL    HW1 9425   0.037   4.531   4.135
 2842SOL    HW2 9426   6.935   4.520   4.031
 2843SOL     OW 9427   2.092   2.028   3.048
 2843SOL    HW1 9428   2.028   2.105   3.056
 2843SOL    HW2 9429   2.160   2.049   2.978
 2844SOL     OW 9430   6.179   5.241   6.880
 2844SOL    HW1 9431   6.187   5.341   6.878
 2844SOL    HW2 9432   6.215   5.206   6.967
 2845SOL     OW 9433   5.743   3.454   2.443
 2845SOL    HW1 9434   5.804   3.377   2.422
 2845SOL    HW2 9435   5.662   3.450   2.383
 2846SOL     OW 9436   3.846   0.463   0.478
 2846SOL    HW1 9437   3.792   0.536   0.436
 2846SOL    HW2 9438   3.920   0.502   0.533
 2847SOL     OW 9439   5.406   4.167   2.672
 2847SOL    HW1 9440   5.327   4.188   2.614
 2847SOL    HW2 9441   5.386   4.193   2.767
 2848SOL     OW 9442   1.963   2.389   4.912
 2848SOL    HW1 9443   2.047   2.360   4.867
 2848SOL    HW2 9444   1.908   2.309   4.936
 2849SOL     OW 9445   4.044   0.565   0.642
 2849SOL    HW1 9446   4.101   0.498   0.689
 2849SOL    HW2 9447   4.085   0.656   0.650
 2850SOL     OW 9448   1.911   0.181   2.431
 2850SOL    HW1 9449   2.008   0.190   2.454
 2850SOL    HW2 9450   1.881   0.087   2.450
 2851SOL     OW 9451   5.590   2.235   6.020
 2851SOL    HW1 9452   5.492   2.225   6.038
 2851SOL    HW2 9453   5.640   2.163   6.068
 2852SOL     OW 9454   0.066   4.411   6.540
 2852SOL    HW1 9455   0.059   4.511   6.549
 2852SOL    HW2 9456   0.149   4.380   6.587
 2853SOL     OW 9457   2.003   1.931   5.966
 2853SOL    HW1 9458   1.986   2.029   5.964
 2853SOL    HW2 9459   1.918   1.882   5.945
 2854SOL     OW 9460   4.579   1.015   5.754
 2854SOL    HW1 9461   4.641   0.945   5.788
 2854SOL    HW2 9462   4.578   1.093   5.818
 2855SOL     OW 9463   2.079   1.568   5.752
 2855SOL    HW1 9464   2.067   1.643   5.688
 2855SOL    HW2 9465   2.177   1.556   5.771
 2856SOL     OW 9466   0.518   3.491   5.659
 2856SOL    HW1 9467   0.477   3.438   5.585
 2856SOL    HW2 9468   0.545   3.430   5.734
 2857SOL     OW 9469   1.416   2.667   1.491
 2857SOL    HW1 9470   1.339   2.604   1.503
 2857SOL    HW2 9471   1.444   2.703   1.579
 2858SOL     OW 9472   4.434   4.912   2.083
 2858SOL    HW1 9473   4.486   4.986   2.041
 2858SOL    HW2 9474   4.497   4.843   2.119
 2859SOL     OW 9475   6.623   6.710   0.349
 2859SOL    HW1 9476   6.541   6.654   0.365
 2859SOL    HW2 9477   6.704   6.652   0.349
 2860SOL     OW 9478   2.221   1.621   1.823
 2860SOL    HW1 9479   2.256   1.594   1.913
 2860SOL    HW2 9480   2.155   1.695   1.833
 2861SOL     OW 9481   3.145   5.282   6.279
 2861SOL    HW1 9482   3.105   5.218   6.213
 2861SOL    HW2 9483   3.148   5.374   6.238
 2862SOL     OW 9484   4.374   1.771   1.767
 2862SOL    HW1 9485   4.339   1.749   1.858
 2862SOL    HW2 9486   4.406   1.687   1.723
 2863SOL     OW 9487   4.580   1.568   6.861
 2863SOL    HW1 9488   4.551   1.492   6.803
 2863SOL    HW2 9489   4.500   1.607   6.907
 2864SOL     OW 9490   4.717   2.139   1.185
 2864SOL    HW1 9491   4.669   2.181   1.108
 2864SOL    HW2 9492   4.748   2.047   1.159
 2865SOL     OW 9493   4.072   6.434   4.465
 2865SOL    HW1 9494   4.018   6.517   4.449
 2865SOL    HW2 9495   4.160   6.459   4.506
 2866SOL     OW 9496   5.369   4.977   6.416
 2866SOL    HW1 9497   5.467   4.964   6.400
 2866SOL    HW2 9498   5.356   5.017   6.507
 2867SOL     OW 9499   6.016   6.455   2.826
 2867SOL    HW1 9500   5.995   6.510   2.908
 2867SOL    HW2 9501   6.039   6.362   2.854
 2868SOL     OW 9502   1.938   1.333   5.750
 2868SOL    HW1 9503   1.974   1.427   5.758
 2868SOL    HW2 9504   2.012   1.268   5.769
 2869SOL     OW 9505   0.028   1.164   2.711
 2869SOL    HW1 9506   0.074   1.210   2.787
 2869SOL    HW2 9507   0.002   1.072   2.739
 2870SOL     OW 9508   0.495   1.855   5.623
 2870SOL    HW1 9509   0.521   1.880   5.530
 2870SOL    HW2 9510   0.403   1.889   5.642
 2871SOL     OW 9511   6.070   1.031   6.916
 2871SOL    HW1 9512   5.986   1.052   6.867
 2871SOL    HW2 9513   6.093   0.935   6.904
 2872SOL     OW 9514   2.379   2.240   1.875
 2872SOL    HW1 9515   2.300   2.295   1.904
 2872SOL    HW2 9516   2.462   2.275   1.919
 2873SOL     OW 9517   6.714   5.801   2.181
 2873SOL    HW1 9518   6.679   5.827   2.091
 2873SOL    HW2 9519   6.740   5.883   2.232
 2874SOL     OW 9520   4.844   0.079   2.845
 2874SOL    HW1 9521   4.837   0.163   2.899
 2874SOL    HW2 9522   4.896   0.011   2.896
 2875SOL     OW 9523   5.471   0.238   1.803
 2875SOL    HW1 9524   5.432   0.288   1.880
 2875SOL    HW2 9525   5.423   0.152   1.790
 2876SOL     OW 9526   2.179   0.557   2.729
 2876SOL    HW1 9527   2.265   0.608   2.723
 2876SOL    HW2 9528   2.122   0.577   2.649
 2877SOL     OW 9529   2.620   1.360   5.087
 2877SOL    HW1 9530   2.564   1.354   5.170
 2877SOL    HW2 9531   2.647   1.268   5.058
 2878SOL     OW 9532   3.924   4.374   5.434
 2878SOL    HW1 9533   3.895   4.310   5.505
 2878SOL    HW2 9534   3.950   4.322   5.352
 2879SOL     OW 9535   4.835   4.988   6.505
 2879SOL    HW1 9536   4.816   5.044   6.424
 2879SOL    HW2 9537   4.837   4.892   6.479
 2880SOL     OW 9538   0.239   1.951   2.498
 2880SOL    HW1 9539   0.239   2.047   2.526
 2880SOL    HW2 9540   0.314   1.936   2.434
 2881SOL     OW 9541   4.201   6.137   6.559
 2881SOL    HW1 9542   4.170   6.070   6.491
 2881SOL    HW2 9543   4.226   6.090   6.643
 2882SOL     OW 9544   0.295   5.513   1.637
 2882SOL    HW1 9545   0.341   5.425   1.626
 2882SOL    HW2 9546   0.200   5.504   1.605
 2883SOL     OW 9547   5.976   0.290   3.789
 2883SOL    HW1 9548   5.938   0.282   3.697
 2883SOL    HW2 9549   6.020   0.379   3.799
 2884SOL     OW 9550   0.551   6.751   3.129
 2884SOL    HW1 9551   0.590   6.703   3.051
 2884SOL    HW2 9552   0.463   6.790   3.103
 2885SOL     OW 9553   1.905   3.985   3.698
 2885SOL    HW1 9554   1.902   4.054   3.626
 2885SOL    HW2 9555   1.997   3.949   3.706
 2886SOL     OW 9556   1.081   3.052   6.158
 2886SOL    HW1 9557   1.083   3.124   6.228
 2886SOL    HW2 9558   1.023   3.082   6.082
 2887SOL     OW 9559   0.552   6.447   5.532
 2887SOL    HW1 9560   0.600   6.510   5.471
 2887SOL    HW2 9561   0.476   6.495   5.576
 2888SOL     OW 9562   6.767   4.470   6.104
 2888SOL    HW1 9563   6.820   4.457   6.188
 2888SOL    HW2 9564   6.793   4.557   6.062
 2889SOL     OW 9565   3.010   6.419   2.570
 2889SOL    HW1 9566   3.085   6.356   2.591
 2889SOL    HW2 9567   2.930   6.367   2.541
 2890SOL     OW 9568   1.394   5.994   0.457
 2890SOL    HW1 9569   1.380   6.011   0.555
 2890SOL    HW2 9570   1.455   5.915   0.445
 2891SOL     OW 9571   0.523   4.789   3.267
 2891SOL    HW1 9572   0.503   4.697   3.302
 2891SOL    HW2 9573   0.610   4.787   3.219
 2892SOL     OW 9574   6.422   3.440   1.043
 2892SOL    HW1 9575   6.341   3.381   1.041
 2892SOL    HW2 9576   6.480   3.419   0.964
 2893SOL     OW 9577   0.310   5.738   4.508
 2893SOL    HW1 9578   0.317   5.775   4.415
 2893SOL    HW2 9579   0.214   5.726   4.532
 2894SOL     OW 9580   0.307   2.901   1.836
 2894SOL    HW1 9581   0.301   2.999   1.816
 2894SOL    HW2 9582   0.336   2.852   1.754
 2895SOL     OW 9583   4.813   1.166   5.513
 2895SOL    HW1 9584   4.844   1.181   5.419
 2895SOL    HW2 9585   4.891   1.145   5.571
 2896SOL     OW 9586   4.482   6.674   5.885
 2896SOL    HW1 9587   4.521   6.590   5.846
 2896SOL    HW2 9588   4.440   6.653   5.973
 2897SOL     OW 9589   4.021   4.896   2.957
 2897SOL    HW1 9590   4.003   4.950   3.039
 2897SOL    HW2 9591   3.935   4.873   2.913
 2898SOL     OW 9592   4.445   4.703   4.277
 2898SOL    HW1 9593   4.366   4.713   4.338
 2898SOL    HW2 9594   4.508   4.779   4.292
 2899SOL     OW 9595   0.547   1.651   0.384
 2899SOL    HW1 9596   0.627   1.700   0.349
 2899SOL    HW2 9597   0.541   1.664   0.483
 2900SOL     OW 9598   2.798   4.181   6.364
 2900SOL    HW1 9599   2.707   4.205   6.396
 2900SOL    HW2 9600   2.796   4.164   6.266
 2901SOL     OW 9601   2.293   4.792   2.873
 2901SOL    HW1 9602   2.262   4.703   2.905
 2901SOL    HW2 9603   2.273   4.862   2.942
 2902SOL     OW 9604   6.100   5.581   3.173
 2902SOL    HW1 9605   6.009   5.542   3.183
 2902SOL    HW2 9606   6.168   5.508   3.169
 2903SOL     OW 9607   3.772   0.326   0.728
 2903SOL    HW1 9608   3.784   0.397   0.658
 2903SOL    HW2 9609   3.768   0.368   0.818
 2904SOL     OW 9610   2.437   4.695   3.924
 2904SOL    HW1 9611   2.525   4.685   3.971
 2904SOL    HW2 9612   2.369   4.637   3.967
 2905SOL     OW 9613   1.463   3.263   4.862
 2905SOL    HW1 9614   1.426   3.351   4.833
 2905SOL    HW2 9615   1.563   3.268   4.864
 2906SOL     OW 9616   4.973   5.167   2.638
 2906SOL    HW1 9617   5.024   5.122   2.565
 2906SOL    HW2 9618   4.882   5.126   2.645
 2907SOL     OW 9619   0.226   1.517   3.795
 2907SOL    HW1 9620   0.174   1.490   3.715
 2907SOL    HW2 9621   0.198   1.610   3.823
 2908SOL     OW 9622   4.884   6.623   3.586
 2908SOL    HW1 9623   4.820   6.578   3.649
 2908SOL    HW2 9624   4.948   6.555   3.550
 2909SOL     OW 9625   1.454   5.558   3.756
 2909SOL    HW1 9626   1.415   5.504   3.831
 2909SOL    HW2 9627   1.543   5.521   3.732
 2910SOL     OW 9628   5.369   1.305   4.274
 2910SOL    HW1 9629   5.278   1.280   4.309
 2910SOL    HW2 9630   5.368   1.302   4.174
 2911SOL     OW 9631   1.462   5.975   3.530
 2911SOL    HW1 9632   1.550   5.962   3.483
 2911SOL    HW2 9633   1.423   5.886   3.553
 2912SOL     OW 9634   5.299   6.730   0.598
 2912SOL    HW1 9635   5.390   6.771   0.588
 2912SOL    HW2 9636   5.250   6.775   0.673
 2913SOL     OW 9637   3.082   5.098   2.377
 2913SOL    HW1 9638   3.082   5.123   2.281
 2913SOL    HW2 9639   3.130   5.010   2.388
 2914SOL     OW 9640   6.614   6.020   6.364
 2914SOL    HW1 9641   6.515   6.029   6.347
 2914SOL    HW2 9642   6.659   6.106   6.340
 2915SOL     OW 9643   3.594   1.750   3.913
 2915SOL    HW1 9644   3.588   1.651   3.899
 2915SOL    HW2 9645   3.502   1.788   3.924
 2916SOL     OW 9646   1.360   5.564   0.578
 2916SOL    HW1 9647   1.282   5.551   0.516
 2916SOL    HW2 9648   1.433   5.501   0.552
 2917SOL     OW 9649   2.287   0.572   3.157
 2917SOL    HW1 9650   2.207   0.622   3.122
 2917SOL    HW2 9651   2.291   0.581   3.256
 2918SOL     OW 9652   6.314   4.714   5.232
 2918SOL    HW1 9653   6.365   4.668   5.305
 2918SOL    HW2 9654   6.222   4.676   5.226
 2919SOL     OW 9655   5.580   0.536   2.521
 2919SOL    HW1 9656   5.518   0.609   2.552
 2919SOL    HW2 9657   5.671   0.574   2.505
 2920SOL     OW 9658   3.155   1.235   1.492
 2920SOL    HW1 9659   3.100   1.315   1.515
 2920SOL    HW2 9660   3.213   1.256   1.413
 2921SOL     OW 9661   0.613   6.648   4.510
 2921SOL    HW1 9662   0.525   6.690   4.529
 2921SOL    HW2 9663   0.671   6.652   4.591
 2922SOL     OW 9664   4.705   0.131   1.095
 2922SOL    HW1 9665   4.665   0.165   1.010
 2922SOL    HW2 9666   4.783   0.188   1.121
 2923SOL     OW 9667   6.121   5.007   2.762
 2923SOL    HW1 9668   6.168   5.005   2.851
 2923SOL    HW2 9669   6.042   5.067   2.768
 2924SOL     OW 9670   6.333   1.799   5.547
 2924SOL    HW1 9671   6.328   1.884   5.496
 2924SOL    HW2 9672   6.287   1.811   5.635
 2925SOL     OW 9673   4.787   1.851   1.525
 2925SOL    HW1 9674   4.816   1.767   1.572
 2925SOL    HW2 9675   4.707   1.889   1.571
 2926SOL     OW 9676   6.099   1.398   5.587
 2926SOL    HW1 9677   6.028   1.333   5.559
 2926SOL    HW2 9678   6.064   1.457   5.660
 2927SOL     OW 9679   1.556   3.960   1.566
 2927SOL    HW1 9680   1.484   4.015   1.608
 2927SOL    HW2 9681   1.623   3.933   1.636
 2928SOL     OW 9682   0.597   0.509   6.873
 2928SOL    HW1 9683   0.632   0.571   6.943
 2928SOL    HW2 9684   0.549   0.433   6.916
 2929SOL     OW 9685   1.173   2.209   6.302
 2929SOL    HW1 9686   1.131   2.173   6.385
 2929SOL    HW2 9687   1.112   2.277   6.261
 2930SOL     OW 9688   5.453   6.660   5.363
 2930SOL    HW1 9689   5.385   6.629   5.297
 2930SOL    HW2 9690   5.421   6.641   5.456
 2931SOL     OW 9691   5.535   4.643   6.828
 2931SOL    HW1 9692   5.618   4.628   6.882
 2931SOL    HW2 9693   5.557   4.641   6.731
 2932SOL     OW 9694   1.150   5.538   2.167
 2932SOL    HW1 9695   1.120   5.619   2.118
 2932SOL    HW2 9696   1.213   5.486   2.110
 2933SOL     OW 9697   0.938   5.610   2.860
 2933SOL    HW1 9698   0.956   5.604   2.761
 2933SOL    HW2 9699   0.856   5.559   2.883
 2934SOL     OW 9700   5.238   1.188   0.128
 2934SOL    HW1 9701   5.288   1.215   0.045
 2934SOL    HW2 9702   5.140   1.187   0.109
 2935SOL     OW 9703   0.203   2.576   6.665
 2935SOL    HW1 9704   0.211   2.507   6.593
 2935SOL    HW2 9705   0.281   2.568   6.727
 2936SOL     OW 9706   4.314   6.584   0.892
 2936SOL    HW1 9707   4.328   6.633   0.978
 2936SOL    HW2 9708   4.361   6.632   0.819
 2937SOL     OW 9709   5.596   4.451   1.656
 2937SOL    HW1 9710   5.659   4.458   1.733
 2937SOL    HW2 9711   5.640   4.401   1.581
 2938SOL     OW 9712   4.668   5.259   6.891
 2938SOL    HW1 9713   4.624   5.334   6.941
 2938SOL    HW2 9714   4.601   5.213   6.833
 2939SOL     OW 9715   2.259   0.755   2.514
 2939SOL    HW1 9716   2.342   0.701   2.496
 2939SOL    HW2 9717   2.186   0.723   2.454
 2940SOL     OW 9718   5.739   4.774   5.579
 2940SOL    HW1 9719   5.751   4.710   5.655
 2940SOL    HW2 9720   5.828   4.801   5.543
 2941SOL     OW 9721   1.278   2.266   4.349
 2941SOL    HW1 9722   1.284   2.238   4.254
 2941SOL    HW2 9723   1.364   2.247   4.396
 2942SOL     OW 9724   3.547   2.339   0.621
 2942SOL    HW1 9725   3.460   2.324   0.669
 2942SOL    HW2 9726   3.529   2.387   0.535
 2943SOL     OW 9727   5.366   3.771   3.701
 2943SOL    HW1 9728   5.460   3.769   3.734
 2943SOL    HW2 9729   5.304   3.743   3.774
 2944SOL     OW 9730   2.453   6.286   4.168
 2944SOL    HW1 9731   2.382   6.274   4.238
 2944SOL    HW2 9732   2.418   6.253   4.080
 2945SOL     OW 9733   3.402   3.574   3.156
 2945SOL    HW1 9734   3.474   3.639   3.182
 2945SOL    HW2 9735   3.318   3.595   3.205
 2946SOL     OW 9736   1.345   4.840   5.628
 2946SOL    HW1 9737   1.438   4.867   5.605
 2946SOL    HW2 9738   1.280   4.890   5.572
 2947SOL     OW 9739   0.331   4.595   1.465
 2947SOL    HW1 9740   0.341   4.603   1.366
 2947SOL    HW2 9741   0.327   4.686   1.505
 2948SOL     OW 9742   0.701   3.827   4.419
 2948SOL    HW1 9743   0.632   3.863   4.482
 2948SOL    HW2 9744   0.662   3.750   4.367
 2949SOL     OW 9745   2.186   5.172   0.820
 2949SOL    HW1 9746   2.101   5.126   0.794
 2949SOL    HW2 9747   2.243   5.109   0.873
 2950SOL     OW 9748   5.343   5.342   3.688
 2950SOL    HW1 9749   5.315   5.416   3.749
 2950SOL    HW2 9750   5.263   5.289   3.661
 2951SOL     OW 9751   5.322   1.455   2.129
 2951SOL    HW1 9752   5.262   1.503   2.065
 2951SOL    HW2 9753   5.313   1.357   2.117
 2952SOL     OW 9754   6.779   5.228   4.610
 2952SOL    HW1 9755   6.700   5.284   4.636
 2952SOL    HW2 9756   6.833   5.206   4.692
 2953SOL     OW 9757   5.816   3.824   2.405
 2953SOL    HW1 9758   5.909   3.786   2.404
 2953SOL    HW2 9759   5.820   3.919   2.436
 2954SOL     OW 9760   1.103   5.145   2.156
 2954SOL    HW1 9761   1.140   5.196   2.234
 2954SOL    HW2 9762   1.112   5.047   2.174
 2955SOL     OW 9763   0.509   3.754   1.516
 2955SOL    HW1 9764   0.604   3.741   1.547
 2955SOL    HW2 9765   0.463   3.665   1.513
 2956SOL     OW 9766   5.663   5.616   3.056
 2956SOL    HW1 9767   5.574   5.653   3.029
 2956SOL    HW2 9768   5.651   5.559   3.137
 2957SOL     OW 9769   5.802   3.576   1.664
 2957SOL    HW1 9770   5.782   3.628   1.582
 2957SOL    HW2 9771   5.871   3.625   1.718
 2958SOL     OW 9772   2.409   4.396   3.127
 2958SOL    HW1 9773   2.434   4.487   3.159
 2958SOL    HW2 9774   2.393   4.398   3.028
 2959SOL     OW 9775   4.894   3.378   0.621
 2959SOL    HW1 9776   4.926   3.284   0.610
 2959SOL    HW2 9777   4.968   3.434   0.660
 2960SOL     OW 9778   3.046   0.688   0.594
 2960SOL    HW1 9779   2.993   0.670   0.511
 2960SOL    HW2 9780   2.987   0.732   0.662
 2961SOL     OW 9781   5.778   4.023   2.991
 2961SOL    HW1 9782   5.761   3.957   2.918
 2961SOL    HW2 9783   5.737   3.988   3.076
 2962SOL     OW 9784   4.129   6.674   3.293
 2962SOL    HW1 9785   4.210   6.700   3.240
 2962SOL    HW2 9786   4.113   6.576   3.283
 2963SOL     OW 9787   1.960   0.966   5.847
 2963SOL    HW1 9788   1.948   0.965   5.947
 2963SOL    HW2 9789   1.878   1.004   5.805
 2964SOL     OW 9790   0.421   0.996   4.289
 2964SOL    HW1 9791   0.394   0.900   4.296
 2964SOL    HW2 9792   0.378   1.038   4.209
 2965SOL     OW 9793   0.328   0.709   4.374
 2965SOL    HW1 9794   0.399   0.641   4.392
 2965SOL    HW2 9795   0.239   0.664   4.371
 2966SOL     OW 9796   4.407   5.611   3.201
 2966SOL    HW1 9797   4.501   5.643   3.215
 2966SOL    HW2 9798   4.368   5.585   3.290
 2967SOL     OW 9799   6.323   0.788   4.897
 2967SOL    HW1 9800   6.264   0.845   4.953
 2967SOL    HW2 9801   6.268   0.719   4.850
 2968SOL     OW 9802   0.880   2.866   0.523
 2968SOL    HW1 9803   0.947   2.804   0.564
 2968SOL    HW2 9804   0.926   2.922   0.453
 2969SOL     OW 9805   5.173   2.344   4.397
 2969SOL    HW1 9806   5.180   2.297   4.309
 2969SOL    HW2 9807   5.123   2.286   4.461
 2970SOL     OW 9808   2.395   3.200   5.671
 2970SOL    HW1 9809   2.319   3.150   5.711
 2970SOL    HW2 9810   2.379   3.213   5.573
 2971SOL     OW 9811   5.071   4.404   6.766
 2971SOL    HW1 9812   5.168   4.400   6.786
 2971SOL    HW2 9813   5.057   4.440   6.674
 2972SOL     OW 9814   6.723   4.708   6.428
 2972SOL    HW1 9815   6.749   4.619   6.464
 2972SOL    HW2 9816   6.625   4.707   6.407
 2973SOL     OW 9817   5.371   6.120   2.325
 2973SOL    HW1 9818   5.358   6.021   2.330
 2973SOL    HW2 9819   5.443   6.148   2.389
 2974SOL     OW 9820   0.717   4.581   3.917
 2974SOL    HW1 9821   0.778   4.633   3.977
 2974SOL    HW2 9822   0.760   4.568   3.828
 2975SOL     OW 9823   5.287   3.490   3.791
 2975SOL    HW1 9824   5.371   3.462   3.836
 2975SOL    HW2 9825   5.263   3.423   3.721
 2976SOL     OW 9826   3.641   2.120   3.057
 2976SOL    HW1 9827   3.667   2.023   3.050
 2976SOL    HW2 9828   3.556   2.135   3.007
 2977SOL     OW 9829   2.407   0.138   2.625
 2977SOL    HW1 9830   2.411   0.105   2.720
 2977SOL    HW2 9831   2.498   0.135   2.584
 2978SOL     OW 9832   4.247   4.892   0.109
 2978SOL    HW1 9833   4.222   4.799   0.137
 2978SOL    HW2 9834   4.179   4.927   0.046
 2979SOL     OW 9835   3.567   1.004   4.029
 2979SOL    HW1 9836   3.638   0.989   3.961
 2979SOL    HW2 9837   3.505   1.075   3.997
 2980SOL     OW 9838   1.545   5.736   4.608
 2980SOL    HW1 9839   1.536   5.711   4.512
 2980SOL    HW2 9840   1.640   5.758   4.628
 2981SOL     OW 9841   2.598   1.563   6.315
 2981SOL    HW1 9842   2.684   1.587   6.361
 2981SOL    HW2 9843   2.561   1.479   6.354
 2982SOL     OW 9844   3.002   5.498   2.062
 2982SOL    HW1 9845   2.902   5.505   2.064
 2982SOL    HW2 9846   3.041   5.585   2.032
 2983SOL     OW 9847   6.533   1.993   2.601
 2983SOL    HW1 9848   6.584   2.076   2.625
 2983SOL    HW2 9849   6.586   1.938   2.537
 2984SOL     OW 9850   5.627   4.801   0.324
 2984SOL    HW1 9851   5.644   4.856   0.242
 2984SOL    HW2 9852   5.669   4.711   0.313
 2985SOL     OW 9853   1.634   2.525   5.119
 2985SOL    HW1 9854   1.638   2.582   5.036
 2985SOL    HW2 9855   1.647   2.583   5.199
 2986SOL     OW 9856   3.528   4.186   3.556
 2986SOL    HW1 9857   3.627   4.198   3.563
 2986SOL    HW2 9858   3.487   4.194   3.647
 2987SOL     OW 9859   0.739   1.624   3.952
 2987SOL    HW1 9860   0.671   1.626   3.879
 2987SOL    HW2 9861   0.692   1.617   4.040
 2988SOL     OW 9862   1.709   5.785   2.716
 2988SOL    HW1 9863   1.801   5.746   2.725
 2988SOL    HW2 9864   1.644   5.728   2.765
 2989SOL     OW 9865   5.408   5.657   5.712
 2989SOL    HW1 9866   5.407   5.633   5.809
 2989SOL    HW2 9867   5.410   5.757   5.702
 2990SOL     OW 9868   3.515   2.121   4.697
 2990SOL    HW1 9869   3.461   2.172   4.764
 2990SOL    HW2 9870   3.601   2.093   4.739
 2991SOL     OW 9871   6.546   3.857   5.027
 2991SOL    HW1 9872   6.615   3.838   5.097
 2991SOL    HW2 9873   6.556   3.792   4.952
 2992SOL     OW 9874   1.866   5.942   4.358
 2992SOL    HW1 9875   1.930   5.893   4.299
 2992SOL    HW2 9876   1.881   6.041   4.347
 2993SOL     OW 9877   0.867   4.684   1.067
 2993SOL    HW1 9878   0.850   4.781   1.082
 2993SOL    HW2 9879   0.785   4.640   1.031
 2994SOL     OW 9880   4.102   6.819   6.573
 2994SOL    HW1 9881   4.101   6.803   6.672
 2994SOL    HW2 9882   4.079   6.735   6.525
 2995SOL     OW 9883   2.947   1.648   6.331
 2995SOL    HW1 9884   2.961   1.560   6.286
 2995SOL    HW2 9885   2.993   1.720   6.279
 2996SOL     OW 9886   1.369   1.398   4.883
 2996SOL    HW1 9887   1.308   1.339   4.830
 2996SOL    HW2 9888   1.316   1.470   4.928
 2997SOL     OW 9889   5.577   6.832   3.208
 2997SOL    HW1 9890   5.478   6.817   3.201
 2997SOL    HW2 9891   5.595   6.929   3.222
 2998SOL     OW 9892   4.471   0.088   4.057
 2998SOL    HW1 9893   4.559   0.045   4.077
 2998SOL    HW2 9894   4.481   0.150   3.979
 2999SOL     OW 9895   2.531   5.090   5.068
 2999SOL    HW1 9896   2.469   5.019   5.034
 2999SOL    HW2 9897   2.480   5.175   5.080
 3000SOL     OW 9898   3.117   3.612   6.110
 3000SOL    HW1 9899   3.078   3.633   6.200
 3000SOL    HW2 9900   3.070   3.532   6.072
 3001SOL     OW 9901   0.183   0.505   5.905
 3001SOL    HW1 9902   0.194   0.595   5.948
 3001SOL    HW2 9903   0.255   0.444   5.937
 3002SOL     OW 9904   3.266   1.865   7.018
 3002SOL    HW1 9905   3.180   1.859   6.967
 3002SOL    HW2 9906   3.335   1.909   6.961
 3003SOL     OW 9907   1.485   6.931   0.534
 3003SOL    HW1 9908   1.464   6.995   0.460
 3003SOL    HW2 9909   1.468   6.975   0.622
 3004SOL     OW 9910   0.611   4.183   3.242
 3004SOL    HW1 9911   0.634   4.280   3.239
 3004SOL    HW2 9912   0.684   4.132   3.288
 3005SOL     OW 9913   2.055   2.079   0.376
 3005SOL    HW1 9914   1.983   2.130   0.327
 3005SOL    HW2 9915   2.026   1.984   0.388
 3006SOL     OW 9916   5.225   1.320   4.559
 3006SOL    HW1 9917   5.212   1.240   4.501
 3006SOL    HW2 9918   5.268   1.393   4.506
 3007SOL     OW 9919   5.347   4.370   0.502
 3007SOL    HW1 9920   5.250   4.393   0.493
 3007SOL    HW2 9921   5.365   4.284   0.455
 3008SOL     OW 9922   3.792   2.202   6.121
 3008SOL    HW1 9923   3.770   2.270   6.051
 3008SOL    HW2 9924   3.891   2.192   6.129
 3009SOL     OW 9925   6.850   1.941   2.587
 3009SOL    HW1 9926   6.924   1.876   2.607
 3009SOL    HW2 9927   6.786   1.898   2.523
 3010SOL     OW 9928   3.595   5.535   3.653
 3010SOL    HW1 9929   3.575   5.551   3.556
 3010SOL    HW2 9930   3.689   5.503   3.663
 3011SOL     OW 9931   6.330   1.702   2.558
 3011SOL    HW1 9932   6.330   1.724   2.461
 3011SOL    HW2 9933   6.306   1.784   2.611
 3012SOL     OW 9934   2.046   3.325   6.221
 3012SOL    HW1 9935   2.021   3.422   6.228
 3012SOL    HW2 9936   1.997   3.273   6.291
 3013SOL     OW 9937   5.136   5.651   3.675
 3013SOL    HW1 9938   5.205   5.610   3.735
 3013SOL    HW2 9939   5.154   5.625   3.580
 3014SOL     OW 9940   4.399   2.244   4.739
 3014SOL    HW1 9941   4.486   2.267   4.695
 3014SOL    HW2 9942   4.333   2.214   4.670
 3015SOL     OW 9943   3.052   2.085   0.007
 3015SOL    HW1 9944   3.141   2.040   0.019
 3015SOL    HW2 9945   3.025   2.080   6.934
 3016SOL     OW 9946   2.753   6.458   3.721
 3016SOL    HW1 9947   2.755   6.381   3.658
 3016SOL    HW2 9948   2.765   6.543   3.671
 3017SOL     OW 9949   5.829   5.365   2.134
 3017SOL    HW1 9950   5.794   5.274   2.112
 3017SOL    HW2 9951   5.762   5.414   2.190
 3018SOL     OW 9952   2.737   0.537   5.776
 3018SOL    HW1 9953   2.682   0.617   5.752
 3018SOL    HW2 9954   2.689   0.484   5.846
 3019SOL     OW 9955   0.466   6.657   0.189
 3019SOL    HW1 9956   0.393   6.591   0.173
 3019SOL    HW2 9957   0.492   6.700   0.103
 3020SOL     OW 9958   3.881   2.308   1.393
 3020SOL    HW1 9959   3.974   2.313   1.357
 3020SOL    HW2 9960   3.884   2.301   1.493
 3021SOL     OW 9961   2.881   0.156   5.855
 3021SOL    HW1 9962   2.800   0.119   5.901
 3021SOL    HW2 9963   2.931   0.081   5.811
 3022SOL     OW 9964   4.065   5.396   4.731
 3022SOL    HW1 9965   4.000   5.320   4.732
 3022SOL    HW2 9966   4.144   5.373   4.787
 3023SOL     OW 9967   3.968   6.614   2.957
 3023SOL    HW1 9968   3.946   6.683   3.026
 3023SOL    HW2 9969   3.886   6.591   2.905
 3024SOL     OW 9970   4.925   0.044   4.971
 3024SOL    HW1 9971   4.916   0.134   5.014
 3024SOL    HW2 9972   4.896   0.050   4.875
 3025SOL     OW 9973   4.171   6.795   0.702
 3025SOL    HW1 9974   4.166   6.828   0.608
 3025SOL    HW2 9975   4.082   6.762   0.731
 3026SOL     OW 9976   1.588   0.230   6.363
 3026SOL    HW1 9977   1.517   0.229   6.434
 3026SOL    HW2 9978   1.547   0.254   6.275
 3027SOL     OW 9979   4.299   1.264   3.024
 3027SOL    HW1 9980   4.293   1.198   2.949
 3027SOL    HW2 9981   4.295   1.357   2.986
 3028SOL     OW 9982   1.728   3.774   6.157
 3028SOL    HW1 9983   1.805   3.834   6.136
 3028SOL    HW2 9984   1.650   3.828   6.186
 3029SOL     OW 9985   0.277   2.212   5.363
 3029SOL    HW1 9986   0.230   2.242   5.446
 3029SOL    HW2 9987   0.352   2.274   5.343
 3030SOL     OW 9988   0.782   3.324   7.019
 3030SOL    HW1 9989   0.707   3.390   7.019
 3030SOL    HW2 9990   0.865   3.366   0.033
 3031SOL     OW 9991   0.052   4.506   1.572
 3031SOL    HW1 9992   0.149   4.504   1.549
 3031SOL    HW2 9993   0.011   4.417   1.550
 3032SOL     OW 9994   2.705   6.315   1.397
 3032SOL    HW1 9995   2.776   6.327   1.328
 3032SOL    HW2 9996   2.651   6.399   1.404
 3033SOL     OW 9997   5.480   1.750   1.258
 3033SOL    HW1 9998   5.516   1.658   1.276
 3033SOL    HW2 9999   5.381   1.745   1.250
 3034SOL     OW10000   1.596   6.840   2.593
 3034SOL    HW110001   1.597   6.741   2.582
 3034SOL    HW210002   1.620   6.863   2.687
 3035SOL     OW10003   0.201   2.846   6.696
 3035SOL    HW110004   0.136   2.886   6.761
 3035SOL    HW210005   0.208   2.748   6.712
 3036SOL     OW10006   2.386   1.890   6.225
 3036SOL    HW110007   2.436   1.976   6.214
 3036SOL    HW210008   2.317   1.900   6.297
 3037SOL     OW10009   6.236   5.703   6.012
 3037SOL    HW110010   6.165   5.662   6.069
 3037SOL    HW210011   6.326   5.675   6.045
 3038SOL     OW10012   4.679   5.621   5.906
 3038SOL    HW110013   4.609   5.552   5.889
 3038SOL    HW210014   4.768   5.576   5.917
 3039SOL     OW10015   0.256   3.451   0.732
 3039SOL    HW110016   0.176   3.442   0.791
 3039SOL    HW210017   0.226   3.466   0.637
 3040SOL     OW10018   3.683   3.899   5.892
 3040SOL    HW110019   3.612   3.830   5.899
 3040SOL    HW210020   3.691   3.948   5.980
 3041SOL     OW10021   2.160   3.140   4.602
 3041SOL    HW110022   2.101   3.213   4.566
 3041SOL    HW210023   2.165   3.147   4.702
 3042SOL     OW10024   5.491   5.786   2.648
 3042SOL    HW110025   5.526   5.828   2.565
 3042SOL    HW210026   5.523   5.837   2.728
 3043SOL     OW10027   2.992   4.270   1.648
 3043SOL    HW110028   2.989   4.319   1.561
 3043SOL    HW210029   2.966   4.332   1.722
 3044SOL     OW10030   3.374   4.729   5.619
 3044SOL    HW110031   3.393   4.631   5.626
 3044SOL    HW210032   3.365   4.754   5.523
 3045SOL     OW10033   4.811   6.745   3.354
 3045SOL    HW110034   4.711   6.752   3.350
 3045SOL    HW210035   4.838   6.714   3.445
 3046SOL     OW10036   2.151   1.131   5.745
 3046SOL    HW110037   2.092   1.059   5.783
 3046SOL    HW210038   2.162   1.116   5.647
 3047SOL     OW10039   5.727   0.170   2.004
 3047SOL    HW110040   5.815   0.165   2.051
 3047SOL    HW210041   5.724   0.252   1.947
 3048SOL     OW10042   3.900   2.285   1.660
 3048SOL    HW110043   3.861   2.226   1.731
 3048SOL    HW210044   3.909   2.378   1.696
 3049SOL     OW10045   1.315   0.122   2.679
 3049SOL    HW110046   1.360   0.165   2.601
 3049SOL    HW210047   1.217   0.115   2.662
 3050SOL     OW10048   3.233   1.468   1.889
 3050SOL    HW110049   3.142   1.478   1.848
 3050SOL    HW210050   3.292   1.414   1.829
 3051SOL     OW10051   1.756   5.620   6.315
 3051SOL    HW110052   1.688   5.690   6.296
 3051SOL    HW210053   1.755   5.597   6.413
 3052SOL     OW10054   5.101   5.649   2.252
 3052SOL    HW110055   5.087   5.608   2.162
 3052SOL    HW210056   5.062   5.589   2.322
 3053SOL     OW10057   6.777   2.449   0.643
 3053SOL    HW110058   6.732   2.391   0.711
 3053SOL    HW210059   6.796   2.538   0.682
 3054SOL     OW10060   6.529   2.366   1.071
 3054SOL    HW110061   6.459   2.430   1.038
 3054SOL    HW210062   6.508   2.341   1.166
 3055SOL     OW10063   4.828   0.516   4.716
 3055SOL    HW110064   4.822   0.611   4.746
 3055SOL    HW210065   4.834   0.513   4.616
 3056SOL     OW10066   6.474   0.474   5.771
 3056SOL    HW110067   6.493   0.570   5.747
 3056SOL    HW210068   6.560   0.428   5.793
 3057SOL     OW10069   4.462   5.936   3.040
 3057SOL    HW110070   4.471   5.855   3.097
 3057SOL    HW210071   4.455   6.017   3.098
 3058SOL     OW10072   6.821   4.857   1.041
 3058SOL    HW110073   6.786   4.865   1.134
 3058SOL    HW210074   6.748   4.881   0.977
 3059SOL     OW10075   2.912   2.177   4.000
 3059SOL    HW110076   2.822   2.209   3.970
 3059SOL    HW210077   2.931   2.212   4.092
 3060SOL     OW10078   1.433   5.102   0.558
 3060SOL    HW110079   1.335   5.116   0.567
 3060SOL    HW210080   1.470   5.067   0.644
 3061SOL     OW10081   0.117   6.001   5.890
 3061SOL    HW110082   0.200   6.053   5.868
 3061SOL    HW210083   0.047   6.020   5.822
 3062SOL     OW10084   2.220   0.074   0.684
 3062SOL    HW110085   2.240   0.169   0.707
 3062SOL    HW210086   2.123   0.055   0.701
 3063SOL     OW10087   1.999   4.927   2.216
 3063SOL    HW110088   2.021   4.988   2.293
 3063SOL    HW210089   2.024   4.971   2.130
 3064SOL     OW10090   4.989   3.764   1.794
 3064SOL    HW110091   4.913   3.815   1.836
 3064SOL    HW210092   5.076   3.796   1.834
 3065SOL     OW10093   1.867   1.755   0.035
 3065SOL    HW110094   1.927   1.696   0.089
 3065SOL    HW210095   1.919   1.802   6.987
 3066SOL     OW10096   4.997   4.670   0.677
 3066SOL    HW110097   5.085   4.715   0.665
 3066SOL    HW210098   4.934   4.732   0.724
 3067SOL     OW10099   3.860   0.542   5.790
 3067SOL    HW110100   3.836   0.630   5.749
 3067SOL    HW210101   3.959   0.536   5.803
 3068SOL     OW10102   6.791   6.735   0.728
 3068SOL    HW110103   6.798   6.717   0.827
 3068SOL    HW210104   6.754   6.654   0.683
 3069SOL     OW10105   6.567   6.094   1.375
 3069SOL    HW110106   6.631   6.113   1.301
 3069SOL    HW210107   6.523   6.180   1.404
 3070SOL     OW10108   3.370   1.397   0.338
 3070SOL    HW110109   3.319   1.351   0.411
 3070SOL    HW210110   3.465   1.366   0.339
 3071SOL     OW10111   6.708   6.390   3.290
 3071SOL    HW110112   6.645   6.467   3.284
 3071SOL    HW210113   6.797   6.416   3.253
 3072SOL     OW10114   2.272   6.082   6.431
 3072SOL    HW110115   2.241   5.987   6.426
 3072SOL    HW210116   2.362   6.090   6.388
 3073SOL     OW10117   6.441   3.651   4.478
 3073SOL    HW110118   6.404   3.724   4.536
 3073SOL    HW210119   6.403   3.658   4.386
 3074SOL     OW10120   6.138   3.867   1.265
 3074SOL    HW110121   6.132   3.772   1.236
 3074SOL    HW210122   6.125   3.873   1.364
 3075SOL     OW10123   3.016   5.675   1.590
 3075SOL    HW110124   3.059   5.602   1.537
 3075SOL    HW210125   2.920   5.683   1.562
 3076SOL     OW10126   6.559   0.506   3.471
 3076SOL    HW110127   6.598   0.570   3.405
 3076SOL    HW210128   6.488   0.552   3.524
 3077SOL     OW10129   5.909   4.828   1.275
 3077SOL    HW110130   5.964   4.758   1.321
 3077SOL    HW210131   5.955   4.917   1.284
 3078SOL     OW10132   0.470   2.857   2.918
 3078SOL    HW110133   0.529   2.821   2.989
 3078SOL    HW210134   0.374   2.839   2.942
 3079SOL     OW10135   2.508   2.398   2.717
 3079SOL    HW110136   2.448   2.456   2.772
 3079SOL    HW210137   2.482   2.405   2.620
 3080SOL     OW10138   5.207   5.294   2.504
 3080SOL    HW110139   5.206   5.254   2.412
 3080SOL    HW210140   5.218   5.221   2.571
 3081SOL     OW10141   0.990   2.583   5.549
 3081SOL    HW110142   1.026   2.564   5.640
 3081SOL    HW210143   0.975   2.496   5.501
 3082SOL     OW10144   2.061   5.619   4.003
 3082SOL    HW110145   2.128   5.556   4.043
 3082SOL    HW210146   2.096   5.654   3.916
 3083SOL     OW10147   2.812   6.408   3.965
 3083SOL    HW110148   2.813   6.423   3.866
 3083SOL    HW210149   2.826   6.311   3.984
 3084SOL     OW10150   6.767   3.753   4.078
 3084SOL    HW110151   6.852   3.740   4.129
 3084SOL    HW210152   6.704   3.678   4.097
 3085SOL     OW10153   5.337   4.445   6.744
 3085SOL    HW110154   5.367   4.391   6.666
 3085SOL    HW210155   5.416   4.484   6.791
 3086SOL     OW10156   5.365   1.282   1.530
 3086SOL    HW110157   5.357   1.213   1.602
 3086SOL    HW210158   5.276   1.294   1.485
 3087SOL     OW10159   1.597   5.912   4.245
 3087SOL    HW110160   1.658   5.956   4.311
 3087SOL    HW210161   1.637   5.918   4.154
 3088SOL     OW10162   2.121   4.913   5.108
 3088SOL    HW110163   2.092   4.820   5.086
 3088SOL    HW210164   2.219   4.923   5.090
 3089SOL     OW10165   2.358   2.312   5.559
 3089SOL    HW110166   2.289   2.253   5.518
 3089SOL    HW210167   2.314   2.396   5.593
 3090SOL     OW10168   2.332   1.861   1.666
 3090SOL    HW110169   2.289   1.770   1.667
 3090SOL    HW210170   2.308   1.910   1.750
 3091SOL     OW10171   1.903   0.445   1.358
 3091SOL    HW110172   1.994   0.457   1.399
 3091SOL    HW210173   1.842   0.404   1.425
 3092SOL     OW10174   5.651   1.439   0.263
 3092SOL    HW110175   5.638   1.341   0.250
 3092SOL    HW210176   5.566   1.479   0.297
 3093SOL     OW10177   5.444   6.600   6.584
 3093SOL    HW110178   5.465   6.538   6.509
 3093SOL    HW210179   5.352   6.638   6.572
 3094SOL     OW10180   2.288   0.019   4.291
 3094SOL    HW110181   2.375   6.992   4.294
 3094SOL    HW210182   2.215   6.984   4.327
 3095SOL     OW10183   2.343   5.099   5.474
 3095SOL    HW110184   2.329   5.098   5.573
 3095SOL    HW210185   2.356   5.006   5.441
 3096SOL     OW10186   0.657   5.125   5.553
 3096SOL    HW110187   0.643   5.095   5.459
 3096SOL    HW210188   0.656   5.045   5.614
 3097SOL     OW10189   5.598   2.449   6.894
 3097SOL    HW110190   5.529   2.520   6.885
 3097SOL    HW210191   5.605   2.397   6.808
 3098SOL     OW10192   1.974   2.470   1.084
 3098SOL    HW110193   2.022   2.384   1.071
 3098SOL    HW210194   1.932   2.499   0.998
 3099SOL     OW10195   0.578   0.026   3.777
 3099SOL    HW110196   0.586   7.009   3.685
 3099SOL    HW210197   0.661   0.005   3.829
 3100SOL     OW10198   6.599   6.799   3.556
 3100SOL    HW110199   6.624   6.727   3.620
 3100SOL    HW210200   6.520   6.848   3.591
 3101SOL     OW10201   5.878   6.139   0.146
 3101SOL    HW110202   5.895   6.237   0.151
 3101SOL    HW210203   5.838   6.108   0.233
 3102SOL     OW10204   6.551   5.448   2.233
 3102SOL    HW110205   6.573   5.380   2.304
 3102SOL    HW210206   6.524   5.534   2.277
 3103SOL     OW10207   4.291   0.870   2.083
 3103SOL    HW110208   4.246   0.782   2.068
 3103SOL    HW210209   4.390   0.857   2.079
 3104SOL     OW10210   5.261   0.992   5.379
 3104SOL    HW110211   5.333   1.016   5.314
 3104SOL    HW210212   5.300   0.945   5.458
 3105SOL     OW10213   5.586   4.273   1.374
 3105SOL    HW110214   5.494   4.269   1.336
 3105SOL    HW210215   5.650   4.302   1.302
 3106SOL     OW10216   4.969   0.706   3.761
 3106SOL    HW110217   5.037   0.640   3.793
 3106SOL    HW210218   4.928   0.753   3.839
 3107SOL     OW10219   4.210   1.611   5.207
 3107SOL    HW110220   4.173   1.530   5.253
 3107SOL    HW210221   4.137   1.656   5.155
 3108SOL     OW10222   1.771   6.198   4.267
 3108SOL    HW110223   1.675   6.183   4.241
 3108SOL    HW210224   1.829   6.197   4.186
 3109SOL     OW10225   5.409   6.060   4.076
 3109SOL    HW110226   5.490   6.057   4.019
 3109SOL    HW210227   5.328   6.072   4.019
 3110SOL     OW10228   1.216   3.491   2.755
 3110SOL    HW110229   1.205   3.566   2.820
 3110SOL    HW210230   1.246   3.409   2.803
 3111SOL     OW10231   0.446   4.829   3.693
 3111SOL    HW110232   0.355   4.825   3.652
 3111SOL    HW210233   0.444   4.789   3.785
 3112SOL     OW10234   3.993   3.159   0.056
 3112SOL    HW110235   3.910   3.213   0.044
 3112SOL    HW210236   3.984   3.072   0.006
 3113SOL     OW10237   2.646   4.601   3.727
 3113SOL    HW110238   2.568   4.543   3.750
 3113SOL    HW210239   2.656   4.604   3.628
 3114SOL     OW10240   3.693   2.192   0.814
 3114SOL    HW110241   3.641   2.189   0.900
 3114SOL    HW210242   3.632   2.219   0.739
 3115SOL     OW10243   4.141   4.799   6.198
 3115SOL    HW110244   4.154   4.720   6.258
 3115SOL    HW210245   4.222   4.812   6.142
 3116SOL     OW10246   6.821   2.828   0.375
 3116SOL    HW110247   6.916   2.804   0.396
 3116SOL    HW210248   6.762   2.799   0.449
 3117SOL     OW10249   4.893   3.735   5.271
 3117SOL    HW110250   4.854   3.680   5.197
 3117SOL    HW210251   4.992   3.721   5.275
 3118SOL     OW10252   0.470   5.694   2.242
 3118SOL    HW110253   0.534   5.618   2.256
 3118SOL    HW210254   0.513   5.766   2.188
 3119SOL     OW10255   2.337   2.816   6.593
 3119SOL    HW110256   2.379   2.905   6.609
 3119SOL    HW210257   2.284   2.789   6.673
 3120SOL     OW10258   3.316   0.408   5.876
 3120SOL    HW110259   3.275   0.428   5.787
 3120SOL    HW210260   3.256   0.347   5.928
 3121SOL     OW10261   0.118   0.978   3.685
 3121SOL    HW110262   0.091   0.992   3.781
 3121SOL    HW210263   0.039   0.997   3.626
 3122SOL     OW10264   3.921   5.613   6.193
 3122SOL    HW110265   3.831   5.576   6.214
 3122SOL    HW210266   3.960   5.563   6.116
 3123SOL     OW10267   2.012   1.823   3.480
 3123SOL    HW110268   1.916   1.826   3.509
 3123SOL    HW210269   2.060   1.753   3.533
 3124SOL     OW10270   4.805   6.872   4.690
 3124SOL    HW110271   4.835   6.848   4.598
 3124SOL    HW210272   4.846   6.809   4.756
 3125SOL     OW10273   0.944   2.958   5.343
 3125SOL    HW110274   0.974   2.978   5.250
 3125SOL    HW210275   0.846   2.976   5.351
 3126SOL     OW10276   5.657   3.966   5.608
 3126SOL    HW110277   5.586   3.901   5.634
 3126SOL    HW210278   5.745   3.918   5.598
 3127SOL     OW10279   1.413   2.722   5.653
 3127SOL    HW110280   1.341   2.680   5.708
 3127SOL    HW210281   1.375   2.800   5.602
 3128SOL     OW10282   3.253   0.532   6.728
 3128SOL    HW110283   3.312   0.613   6.734
 3128SOL    HW210284   3.285   0.462   6.792
 3129SOL     OW10285   6.197   3.453   6.977
 3129SOL    HW110286   6.165   3.378   6.919
 3129SOL    HW210287   6.242   3.522   6.920
 3130SOL     OW10288   2.111   4.417   1.824
 3130SOL    HW110289   2.088   4.500   1.875
 3130SOL    HW210290   2.196   4.430   1.774
 3131SOL     OW10291   0.468   3.375   2.248
 3131SOL    HW110292   0.442   3.452   2.189
 3131SOL    HW210293   0.567   3.363   2.245
 3132SOL     OW10294   4.069   5.709   6.640
 3132SOL    HW110295   4.090   5.656   6.558
 3132SOL    HW210296   4.108   5.801   6.631
 3133SOL     OW10297   3.244   1.557   3.181
 3133SOL    HW110298   3.283   1.640   3.219
 3133SOL    HW210299   3.186   1.512   3.250
 3134SOL     OW10300   4.966   4.067   1.585
 3134SOL    HW110301   5.041   4.002   1.572
 3134SOL    HW210302   4.895   4.025   1.641
 3135SOL     OW10303   4.345   0.828   5.126
 3135SOL    HW110304   4.299   0.860   5.209
 3135SOL    HW210305   4.276   0.807   5.056
 3136SOL     OW10306   5.327   0.713   2.198
 3136SOL    HW110307   5.262   0.788   2.213
 3136SOL    HW210308   5.308   0.640   2.264
 3137SOL     OW10309   6.472   0.610   2.221
 3137SOL    HW110310   6.459   0.517   2.254
 3137SOL    HW210311   6.505   0.668   2.295
 3138SOL     OW10312   6.261   4.804   3.319
 3138SOL    HW110313   6.305   4.715   3.312
 3138SOL    HW210314   6.312   4.871   3.265
 3139SOL     OW10315   4.821   6.160   0.751
 3139SOL    HW110316   4.772   6.247   0.759
 3139SOL    HW210317   4.848   6.146   0.656
 3140SOL     OW10318   6.768   7.021   0.455
 3140SOL    HW110319   6.847   6.983   0.406
 3140SOL    HW210320   6.708   0.044   0.389
 3141SOL     OW10321   0.678   6.923   6.455
 3141SOL    HW110322   0.621   6.863   6.511
 3141SOL    HW210323   0.744   6.971   6.514
 3142SOL     OW10324   3.343   7.017   2.562
 3142SOL    HW110325   3.411   6.981   2.499
 3142SOL    HW210326   3.389   0.051   2.631
 3143SOL     OW10327   6.435   1.998   0.451
 3143SOL    HW110328   6.408   2.094   0.461
 3143SOL    HW210329   6.483   1.968   0.534
 3144SOL     OW10330   3.602   3.813   1.610
 3144SOL    HW110331   3.649   3.749   1.672
 3144SOL    HW210332   3.505   3.792   1.608
 3145SOL     OW10333   2.281   5.854   1.625
 3145SOL    HW110334   2.211   5.925   1.614
 3145SOL    HW210335   2.291   5.803   1.539
 3146SOL     OW10336   1.409   1.112   4.522
 3146SOL    HW110337   1.393   1.044   4.451
 3146SOL    HW210338   1.467   1.073   4.594
 3147SOL     OW10339   3.084   5.624   0.917
 3147SOL    HW110340   3.031   5.602   0.999
 3147SOL    HW210341   3.071   5.720   0.894
 3148SOL     OW10342   6.042   6.581   3.886
 3148SOL    HW110343   5.989   6.508   3.930
 3148SOL    HW210344   6.003   6.670   3.910
 3149SOL     OW10345   2.654   0.679   5.280
 3149SOL    HW110346   2.734   0.725   5.319
 3149SOL    HW210347   2.683   0.616   5.208
 3150SOL     OW10348   6.101   5.592   4.319
 3150SOL    HW110349   6.068   5.561   4.230
 3150SOL    HW210350   6.060   5.535   4.391
 3151SOL     OW10351   6.865   0.997   5.203
 3151SOL    HW110352   6.878   1.062   5.278
 3151SOL    HW210353   6.788   1.028   5.146
 3152SOL     OW10354   1.050   5.155   1.138
 3152SOL    HW110355   1.098   5.240   1.160
 3152SOL    HW210356   1.032   5.151   1.040
 3153SOL     OW10357   6.058   5.113   0.539
 3153SOL    HW110358   5.963   5.092   0.514
 3153SOL    HW210359   6.060   5.194   0.598
 3154SOL     OW10360   6.964   1.461   6.935
 3154SOL    HW110361   6.892   1.479   7.002
 3154SOL    HW210362   6.938   1.504   6.848
 3155SOL     OW10363   6.472   4.182   0.299
 3155SOL    HW110364   6.566   4.150   0.312
 3155SOL    HW210365   6.426   4.188   0.388
 3156SOL     OW10366   3.542   2.972   3.498
 3156SOL    HW110367   3.501   3.057   3.532
 3156SOL    HW210368   3.485   2.936   3.424
 3157SOL     OW10369   2.717   2.032   5.353
 3157SOL    HW110370   2.671   2.115   5.386
 3157SOL    HW210371   2.798   2.057   5.300
 3158SOL     OW10372   3.413   1.709   3.374
 3158SOL    HW110373   3.466   1.624   3.368
 3158SOL    HW210374   3.434   1.756   3.459
 3159SOL     OW10375   6.381   1.375   0.445
 3159SOL    HW110376   6.470   1.410   0.414
 3159SOL    HW210377   6.383   1.275   0.447
 3160SOL     OW10378   0.644   5.645   5.537
 3160SOL    HW110379   0.552   5.681   5.556
 3160SOL    HW210380   0.712   5.702   5.582
 3161SOL     OW10381   2.331   2.588   2.865
 3161SOL    HW110382   2.366   2.671   2.908
 3161SOL    HW210383   2.264   2.545   2.926
 3162SOL     OW10384   1.450   6.049   1.939
 3162SOL    HW110385   1.383   6.060   2.012
 3162SOL    HW210386   1.409   5.998   1.863
 3163SOL     OW10387   4.844   2.920   6.067
 3163SOL    HW110388   4.872   2.840   6.014
 3163SOL    HW210389   4.919   2.949   6.126
 3164SOL     OW10390   4.333   5.318   1.176
 3164SOL    HW110391   4.274   5.265   1.115
 3164SOL    HW210392   4.428   5.305   1.149
 3165SOL     OW10393   0.885   6.427   0.951
 3165SOL    HW110394   0.949   6.475   0.891
 3165SOL    HW210395   0.936   6.361   1.007
 3166SOL     OW10396   4.074   1.891   4.339
 3166SOL    HW110397   4.008   1.862   4.409
 3166SOL    HW210398   4.158   1.921   4.384
 3167SOL     OW10399   6.411   4.726   1.074
 3167SOL    HW110400   6.463   4.725   0.988
 3167SOL    HW210401   6.475   4.732   1.151
 3168SOL     OW10402   5.022   2.695   6.679
 3168SOL    HW110403   5.015   2.741   6.767
 3168SOL    HW210404   4.935   2.704   6.630
 3169SOL     OW10405   2.123   3.829   4.280
 3169SOL    HW110406   2.140   3.735   4.311
 3169SOL    HW210407   2.049   3.868   4.334
 3170SOL     OW10408   4.656   6.494   1.441
 3170SOL    HW110409   4.598   6.508   1.361
 3170SOL    HW210410   4.600   6.497   1.524
 3171SOL     OW10411   0.296   0.473   2.229
 3171SOL    HW110412   0.238   0.523   2.292
 3171SOL    HW210413   0.240   0.435   2.155
 3172SOL     OW10414   6.880   5.052   0.468
 3172SOL    HW110415   6.978   5.050   0.449
 3172SOL    HW210416   6.857   5.135   0.518
 3173SOL     OW10417   2.693   1.872   0.619
 3173SOL    HW110418   2.633   1.820   0.558
 3173SOL    HW210419   2.665   1.968   0.619
 3174SOL     OW10420   2.670   2.461   0.833
 3174SOL    HW110421   2.616   2.539   0.864
 3174SOL    HW210422   2.631   2.377   0.871
 3175SOL     OW10423   6.353   1.201   1.579
 3175SOL    HW110424   6.326   1.170   1.671
 3175SOL    HW210425   6.291   1.273   1.549
 3176SOL     OW10426   1.808   4.092   5.518
 3176SOL    HW110427   1.726   4.084   5.462
 3176SOL    HW210428   1.874   4.021   5.491
 3177SOL     OW10429   5.168   3.699   3.948
 3177SOL    HW110430   5.082   3.690   3.998
 3177SOL    HW210431   5.186   3.615   3.895
 3178SOL     OW10432   6.297   2.202   0.842
 3178SOL    HW110433   6.301   2.301   0.855
 3178SOL    HW210434   6.206   2.176   0.811
 3179SOL     OW10435   1.147   3.170   1.977
 3179SOL    HW110436   1.074   3.181   1.909
 3179SOL    HW210437   1.214   3.243   1.967
 3180SOL     OW10438   4.738   0.967   0.039
 3180SOL    HW110439   4.719   1.035   6.991
 3180SOL    HW210440   4.837   0.953   0.047
 3181SOL     OW10441   6.814   1.965   3.533
 3181SOL    HW110442   6.859   1.878   3.556
 3181SOL    HW210443   6.876   2.020   3.476
 3182SOL     OW10444   3.158   0.226   6.041
 3182SOL    HW110445   3.080   0.279   6.075
 3182SOL    HW210446   3.124   0.148   5.988
 3183SOL     OW10447   4.130   3.940   1.820
 3183SOL    HW110448   4.099   3.852   1.854
 3183SOL    HW210449   4.207   3.972   1.875
 3184SOL     OW10450   0.697   3.824   2.746
 3184SOL    HW110451   0.693   3.867   2.656
 3184SOL    HW210452   0.732   3.890   2.813
 3185SOL     OW10453   5.341   5.806   6.963
 3185SOL    HW110454   5.286   5.740   6.911
 3185SOL    HW210455   5.429   5.765   6.986
 3186SOL     OW10456   3.544   2.094   1.521
 3186SOL    HW110457   3.542   2.193   1.507
 3186SOL    HW210458   3.581   2.074   1.612
 3187SOL     OW10459   4.617   4.656   0.690
 3187SOL    HW110460   4.690   4.722   0.705
 3187SOL    HW210461   4.647   4.588   0.623
 3188SOL     OW10462   2.174   0.452   4.128
 3188SOL    HW110463   2.254   0.427   4.074
 3188SOL    HW210464   2.167   0.392   4.208
 3189SOL     OW10465   1.249   1.253   1.235
 3189SOL    HW110466   1.308   1.276   1.312
 3189SOL    HW210467   1.303   1.204   1.166
 3190SOL     OW10468   0.173   5.858   0.572
 3190SOL    HW110469   0.124   5.845   0.659
 3190SOL    HW210470   0.255   5.913   0.588
 3191SOL     OW10471   5.030   5.906   0.758
 3191SOL    HW110472   4.967   5.960   0.703
 3191SOL    HW210473   4.999   5.905   0.853
 3192SOL     OW10474   6.766   2.523   1.178
 3192SOL    HW110475   6.832   2.457   1.214
 3192SOL    HW210476   6.688   2.475   1.140
 3193SOL     OW10477   3.750   1.565   6.851
 3193SOL    HW110478   3.735   1.555   6.949
 3193SOL    HW210479   3.837   1.522   6.826
 3194SOL     OW10480   1.824   2.320   6.417
 3194SOL    HW110481   1.843   2.307   6.320
 3194SOL    HW210482   1.740   2.373   6.428
 3195SOL     OW10483   2.916   1.900   3.047
 3195SOL    HW110484   2.833   1.951   3.068
 3195SOL    HW210485   2.892   1.822   2.989
 3196SOL     OW10486   0.341   1.223   6.311
 3196SOL    HW110487   0.247   1.191   6.322
 3196SOL    HW210488   0.379   1.245   6.401
 3197SOL     OW10489   2.642   6.589   3.355
 3197SOL    HW110490   2.731   6.572   3.397
 3197SOL    HW210491   2.628   6.526   3.279
 3198SOL     OW10492   5.552   3.020   4.727
 3198SOL    HW110493   5.536   3.100   4.670
 3198SOL    HW210494   5.467   2.969   4.736
 3199SOL     OW10495   5.174   3.616   2.274
 3199SOL    HW110496   5.088   3.659   2.248
 3199SOL    HW210497   5.215   3.572   2.194
 3200SOL     OW10498   6.160   3.004   1.812
 3200SOL    HW110499   6.093   2.930   1.804
 3200SOL    HW210500   6.245   2.976   1.769
 3201SOL     OW10501   5.702   4.846   4.049
 3201SOL    HW110502   5.745   4.780   3.987
 3201SOL    HW210503   5.758   4.855   4.132
 3202SOL     OW10504   0.012   4.711   1.994
 3202SOL    HW110505   0.107   4.694   2.018
 3202SOL    HW210506   0.007   4.771   1.915
 3203SOL     OW10507   6.402   2.484   0.440
 3203SOL    HW110508   6.499   2.487   0.465
 3203SOL    HW210509   6.392   2.445   0.349
 3204SOL     OW10510   4.602   6.301   2.211
 3204SOL    HW110511   4.630   6.210   2.242
 3204SOL    HW210512   4.569   6.355   2.288
 3205SOL     OW10513   6.632   3.221   6.382
 3205SOL    HW110514   6.684   3.209   6.466
 3205SOL    HW210515   6.690   3.196   6.304
 3206SOL     OW10516   1.074   5.718   6.315
 3206SOL    HW110517   1.003   5.781   6.285
 3206SOL    HW210518   1.145   5.769   6.363
 3207SOL     OW10519   1.051   0.474   5.831
 3207SOL    HW110520   0.988   0.402   5.804
 3207SOL    HW210521   1.030   0.558   5.781
 3208SOL     OW10522   4.752   5.846   5.613
 3208SOL    HW110523   4.683   5.893   5.668
 3208SOL    HW210524   4.707   5.780   5.553
 3209SOL     OW10525   4.930   6.115   3.385
 3209SOL    HW110526   4.838   6.150   3.365
 3209SOL    HW210527   4.927   6.063   3.470
 3210SOL     OW10528   1.061   4.336   1.495
 3210SOL    HW110529   1.000   4.413   1.515
 3210SOL    HW210530   1.036   4.296   1.407
 3211SOL     OW10531   1.422   4.056   0.987
 3211SOL    HW110532   1.347   4.121   0.977
 3211SOL    HW210533   1.505   4.105   1.013
 3212SOL     OW10534   3.441   0.505   1.072
 3212SOL    HW110535   3.450   0.450   0.989
 3212SOL    HW210536   3.346   0.506   1.101
 3213SOL     OW10537   0.771   5.788   1.485
 3213SOL    HW110538   0.686   5.839   1.470
 3213SOL    HW210539   0.832   5.803   1.408
 3214SOL     OW10540   5.042   5.370   0.698
 3214SOL    HW110541   4.978   5.434   0.653
 3214SOL    HW210542   5.064   5.296   0.635
 3215SOL     OW10543   6.872   3.165   0.623
 3215SOL    HW110544   6.935   3.193   0.696
 3215SOL    HW210545   6.793   3.120   0.664
 3216SOL     OW10546   5.772   5.154   0.569
 3216SOL    HW110547   5.771   5.062   0.530
 3216SOL    HW210548   5.748   5.150   0.666
 3217SOL     OW10549   0.086   5.479   2.258
 3217SOL    HW110550   7.012   5.494   2.237
 3217SOL    HW210551   0.142   5.543   2.205
 3218SOL     OW10552   4.353   1.438   3.479
 3218SOL    HW110553   4.269   1.422   3.426
 3218SOL    HW210554   4.371   1.536   3.485
 3219SOL     OW10555   6.920   1.715   3.653
 3219SOL    HW110556   6.868   1.642   3.697
 3219SOL    HW210557   7.007   1.728   3.701
 3220SOL     OW10558   6.210   5.633   6.641
 3220SOL    HW110559   6.221   5.680   6.729
 3220SOL    HW210560   6.294   5.643   6.588
 3221SOL     OW10561   3.966   0.630   1.636
 3221SOL    HW110562   3.915   0.716   1.648
 3221SOL    HW210563   4.062   0.651   1.617
 3222SOL     OW10564   3.624   1.481   2.149
 3222SOL    HW110565   3.598   1.416   2.221
 3222SOL    HW210566   3.563   1.560   2.152
 3223SOL     OW10567   1.904   5.908   6.253
 3223SOL    HW110568   1.990   5.882   6.208
 3223SOL    HW210569   1.900   5.868   6.344
 3224SOL     OW10570   4.240   3.678   6.608
 3224SOL    HW110571   4.299   3.598   6.618
 3224SOL    HW210572   4.234   3.727   6.695
 3225SOL     OW10573   4.772   3.364   6.557
 3225SOL    HW110574   4.708   3.431   6.518
 3225SOL    HW210575   4.720   3.292   6.602
 3226SOL     OW10576   1.887   1.250   3.651
 3226SOL    HW110577   1.807   1.218   3.600
 3226SOL    HW210578   1.916   1.339   3.616
 3227SOL     OW10579   3.799   2.549   0.035
 3227SOL    HW110580   3.814   2.612   0.111
 3227SOL    HW210581   3.880   2.548   7.000
 3228SOL     OW10582   6.651   4.124   2.991
 3228SOL    HW110583   6.746   4.097   3.001
 3228SOL    HW210584   6.593   4.061   3.042
 3229SOL     OW10585   4.403   0.181   5.423
 3229SOL    HW110586   4.463   0.236   5.481
 3229SOL    HW210587   4.371   0.101   5.474
 3230SOL     OW10588   1.872   3.320   4.976
 3230SOL    HW110589   1.820   3.315   4.891
 3230SOL    HW210590   1.842   3.399   5.030
 3231SOL     OW10591   2.192   0.575   0.914
 3231SOL    HW110592   2.287   0.555   0.891
 3231SOL    HW210593   2.183   0.585   1.013
 3232SOL     OW10594   4.976   5.569   4.848
 3232SOL    HW110595   4.949   5.665   4.845
 3232SOL    HW210596   4.894   5.512   4.847
 3233SOL     OW10597   1.073   2.904   1.438
 3233SOL    HW110598   1.025   2.836   1.492
 3233SOL    HW210599   1.146   2.860   1.386
 3234SOL     OW10600   6.980   1.927   6.866
 3234SOL    HW110601   0.035   1.905   6.808
 3234SOL    HW210602   7.011   1.947   6.959
 3235SOL     OW10603   5.703   1.052   1.695
 3235SOL    HW110604   5.793   1.068   1.736
 3235SOL    HW210605   5.676   0.957   1.710
 3236SOL     OW10606   1.649   2.816   0.994
 3236SOL    HW110607   1.648   2.791   1.090
 3236SOL    HW210608   1.706   2.897   0.981
 3237SOL     OW10609   5.011   1.415   4.172
 3237SOL    HW110610   4.958   1.395   4.090
 3237SOL    HW210611   5.027   1.513   4.179
 3238SOL     OW10612   0.386   5.172   0.725
 3238SOL    HW110613   0.449   5.120   0.782
 3238SOL    HW210614   0.332   5.234   0.783
 3239SOL     OW10615   6.261   1.651   1.828
 3239SOL    HW110616   6.336   1.717   1.813
 3239SOL    HW210617   6.176   1.688   1.791
 3240SOL     OW10618   0.899   0.175   6.343
 3240SOL    HW110619   0.884   0.166   6.441
 3240SOL    HW210620   0.948   0.260   6.324
 3241SOL     OW10621   4.390   1.915   5.623
 3241SOL    HW110622   4.377   1.839   5.558
 3241SOL    HW210623   4.317   1.912   5.691
 3242SOL     OW10624   3.178   4.327   6.849
 3242SOL    HW110625   3.165   4.425   6.834
 3242SOL    HW210626   3.230   4.313   6.934
 3243SOL     OW10627   4.256   4.737   0.421
 3243SOL    HW110628   4.273   4.650   0.467
 3243SOL    HW210629   4.343   4.784   0.407
 3244SOL     OW10630   5.292   5.535   0.626
 3244SOL    HW110631   5.210   5.592   0.626
 3244SOL    HW210632   5.274   5.451   0.678
 3245SOL     OW10633   5.002   3.078   5.083
 3245SOL    HW110634   4.957   3.008   5.027
 3245SOL    HW210635   4.933   3.135   5.127
 3246SOL     OW10636   5.837   0.649   2.477
 3246SOL    HW110637   5.902   0.631   2.404
 3246SOL    HW210638   5.885   0.650   2.565
 3247SOL     OW10639   5.967   4.702   2.585
 3247SOL    HW110640   6.045   4.738   2.636
 3247SOL    HW210641   5.885   4.708   2.642
 3248SOL     OW10642   6.762   3.374   0.892
 3248SOL    HW110643   6.674   3.378   0.846
 3248SOL    HW210644   6.766   3.294   0.951
 3249SOL     OW10645   4.139   3.450   4.548
 3249SOL    HW110646   4.204   3.504   4.601
 3249SOL    HW210647   4.047   3.467   4.582
 3250SOL     OW10648   6.028   6.406   2.213
 3250SOL    HW110649   6.006   6.422   2.116
 3250SOL    HW210650   6.112   6.455   2.236
 3251SOL     OW10651   2.805   1.092   3.233
 3251SOL    HW110652   2.790   1.079   3.331
 3251SOL    HW210653   2.848   1.180   3.217
 3252SOL     OW10654   2.136   2.007   2.709
 3252SOL    HW110655   2.103   1.913   2.708
 3252SOL    HW210656   2.211   2.014   2.775
 3253SOL     OW10657   5.386   3.541   2.091
 3253SOL    HW110658   5.444   3.614   2.054
 3253SOL    HW210659   5.313   3.520   2.026
 3254SOL     OW10660   5.539   5.393   4.870
 3254SOL    HW110661   5.615   5.348   4.823
 3254SOL    HW210662   5.455   5.341   4.854
 3255SOL     OW10663   5.292   5.967   0.831
 3255SOL    HW110664   5.335   6.039   0.776
 3255SOL    HW210665   5.195   5.963   0.811
 3256SOL     OW10666   3.324   1.137   0.031
 3256SOL    HW110667   3.296   1.229   0.058
 3256SOL    HW210668   3.268   1.069   0.078
 3257SOL     OW10669   1.867   1.292   1.861
 3257SOL    HW110670   1.845   1.268   1.956
 3257SOL    HW210671   1.958   1.256   1.838
 3258SOL     OW10672   4.191   4.712   1.930
 3258SOL    HW110673   4.252   4.671   1.999
 3258SOL    HW210674   4.226   4.691   1.839
 3259SOL     OW10675   4.524   5.343   3.604
 3259SOL    HW110676   4.439   5.320   3.557
 3259SOL    HW210677   4.602   5.325   3.544
 3260SOL     OW10678   2.091   1.921   0.935
 3260SOL    HW110679   2.013   1.979   0.913
 3260SOL    HW210680   2.107   1.924   1.034
 3261SOL     OW10681   5.417   6.917   1.163
 3261SOL    HW110682   5.359   6.883   1.088
 3261SOL    HW210683   5.397   6.866   1.246
 3262SOL     OW10684   3.140   2.025   2.371
 3262SOL    HW110685   3.067   2.089   2.348
 3262SOL    HW210686   3.185   2.054   2.456
 3263SOL     OW10687   2.308   0.609   3.417
 3263SOL    HW110688   2.262   0.576   3.499
 3263SOL    HW210689   2.364   0.689   3.441
 3264SOL     OW10690   1.668   4.171   0.929
 3264SOL    HW110691   1.709   4.261   0.945
 3264SOL    HW210692   1.666   4.152   0.831
 3265SOL     OW10693   5.030   0.578   6.637
 3265SOL    HW110694   5.054   0.561   6.732
 3265SOL    HW210695   5.103   0.632   6.593
 3266SOL     OW10696   1.590   3.470   0.898
 3266SOL    HW110697   1.546   3.542   0.843
 3266SOL    HW210698   1.520   3.421   0.950
 3267SOL     OW10699   3.524   0.596   0.744
 3267SOL    HW110700   3.514   0.510   0.693
 3267SOL    HW210701   3.618   0.628   0.737
 3268SOL     OW10702   1.334   3.796   0.601
 3268SOL    HW110703   1.388   3.845   0.533
 3268SOL    HW210704   1.285   3.721   0.557
 3269SOL     OW10705   4.359   5.241   2.162
 3269SOL    HW110706   4.441   5.192   2.134
 3269SOL    HW210707   4.324   5.202   2.248
 3270SOL     OW10708   0.414   4.381   5.535
 3270SOL    HW110709   0.389   4.333   5.619
 3270SOL    HW210710   0.360   4.464   5.526
 3271SOL     OW10711   6.172   3.535   2.537
 3271SOL    HW110712   6.255   3.581   2.567
 3271SOL    HW210713   6.131   3.485   2.614
 3272SOL     OW10714   3.666   4.382   6.246
 3272SOL    HW110715   3.685   4.288   6.275
 3272SOL    HW210716   3.751   4.424   6.212
 3273SOL     OW10717   0.534   6.524   1.327
 3273SOL    HW110718   0.611   6.497   1.385
 3273SOL    HW210719   0.569   6.552   1.237
 3274SOL     OW10720   4.748   1.352   1.514
 3274SOL    HW110721   4.826   1.289   1.508
 3274SOL    HW210722   4.760   1.427   1.449
 3275SOL     OW10723   6.841   1.521   6.662
 3275SOL    HW110724   6.883   1.432   6.645
 3275SOL    HW210725   6.799   1.554   6.577
 3276SOL     OW10726   2.213   6.266   0.160
 3276SOL    HW110727   2.198   6.359   0.127
 3276SOL    HW210728   2.128   6.230   0.198
 3277SOL     OW10729   4.353   6.879   0.282
 3277SOL    HW110730   4.400   6.961   0.315
 3277SOL    HW210731   4.299   6.901   0.201
 3278SOL     OW10732   1.085   0.930   6.303
 3278SOL    HW110733   1.175   0.899   6.272
 3278SOL    HW210734   1.032   0.962   6.225
 3279SOL     OW10735   5.543   0.543   6.980
 3279SOL    HW110736   5.550   0.529   6.881
 3279SOL    HW210737   5.518   0.638   6.999
 3280SOL     OW10738   3.649   5.757   4.209
 3280SOL    HW110739   3.572   5.813   4.240
 3280SOL    HW210740   3.620   5.696   4.136
 3281SOL     OW10741   1.850   6.090   1.628
 3281SOL    HW110742   1.935   6.085   1.575
 3281SOL    HW210743   1.858   6.033   1.710
 3282SOL     OW10744   0.413   4.852   5.590
 3282SOL    HW110745   0.508   4.856   5.621
 3282SOL    HW210746   0.392   4.760   5.559
 3283SOL     OW10747   4.287   1.070   1.073
 3283SOL    HW110748   4.339   1.122   1.141
 3283SOL    HW210749   4.295   1.115   0.984
 3284SOL     OW10750   0.042   5.367   6.956
 3284SOL    HW110751   0.003   5.456   6.977
 3284SOL    HW210752   0.123   5.351   7.012
 3285SOL     OW10753   5.139   2.966   3.813
 3285SOL    HW110754   5.137   2.982   3.715
 3285SOL    HW210755   5.053   2.997   3.854
 3286SOL     OW10756   4.058   3.177   2.327
 3286SOL    HW110757   3.962   3.195   2.309
 3286SOL    HW210758   4.066   3.108   2.399
 3287SOL     OW10759   1.055   6.979   0.070
 3287SOL    HW110760   1.149   6.948   0.082
 3287SOL    HW210761   0.995   6.900   0.055
 3288SOL     OW10762   0.547   5.248   6.449
 3288SOL    HW110763   0.485   5.313   6.494
 3288SOL    HW210764   0.496   5.165   6.424
 3289SOL     OW10765   2.832   6.925   5.617
 3289SOL    HW110766   2.736   6.917   5.591
 3289SOL    HW210767   2.844   6.893   5.711
 3290SOL     OW10768   0.342   6.985   2.021
 3290SOL    HW110769   0.353   0.039   1.958
 3290SOL    HW210770   0.305   7.018   2.108
 3291SOL     OW10771   2.003   6.626   1.074
 3291SOL    HW110772   2.020   6.611   0.977
 3291SOL    HW210773   1.973   6.720   1.090
 3292SOL     OW10774   0.535   0.745   1.058
 3292SOL    HW110775   0.468   0.739   0.984
 3292SOL    HW210776   0.626   0.725   1.023
 3293SOL     OW10777   0.502   3.826   3.039
 3293SOL    HW110778   0.434   3.898   3.052
 3293SOL    HW210779   0.582   3.863   2.992
 3294SOL     OW10780   6.471   1.642   6.301
 3294SOL    HW110781   6.487   1.611   6.207
 3294SOL    HW210782   6.374   1.663   6.314
 3295SOL     OW10783   1.737   3.097   1.887
 3295SOL    HW110784   1.814   3.097   1.822
 3295SOL    HW210785   1.740   3.013   1.941
 3296SOL     OW10786   1.481   6.497   2.301
 3296SOL    HW110787   1.518   6.479   2.210
 3296SOL    HW210788   1.389   6.534   2.293
 3297SOL     OW10789   3.327   0.652   4.664
 3297SOL    HW110790   3.421   0.663   4.695
 3297SOL    HW210791   3.308   0.555   4.650
 3298SOL     OW10792   5.475   1.447   4.876
 3298SOL    HW110793   5.453   1.493   4.962
 3298SOL    HW210794   5.487   1.515   4.804
 3299SOL     OW10795   2.650   5.660   3.775
 3299SOL    HW110796   2.698   5.599   3.839
 3299SOL    HW210797   2.711   5.684   3.700
 3300SOL     OW10798   0.210   0.746   5.270
 3300SOL    HW110799   0.215   0.773   5.366
 3300SOL    HW210800   0.161   0.816   5.218
 3301SOL     OW10801   2.150   3.149   3.514
 3301SOL    HW110802   2.141   3.240   3.473
 3301SOL    HW210803   2.109   3.149   3.605
 3302SOL     OW10804   0.261   4.920   5.104
 3302SOL    HW110805   0.297   5.004   5.062
 3302SOL    HW210806   0.161   4.922   5.102
 3303SOL     OW10807   3.489   3.424   1.652
 3303SOL    HW110808   3.543   3.460   1.727
 3303SOL    HW210809   3.542   3.428   1.567
 3304SOL     OW10810   0.929   6.000   4.118
 3304SOL    HW110811   0.832   5.986   4.141
 3304SOL    HW210812   0.966   5.917   4.077
 3305SOL     OW10813   1.815   1.597   3.123
 3305SOL    HW110814   1.848   1.545   3.045
 3305SOL    HW210815   1.871   1.679   3.135
 3306SOL     OW10816   2.251   5.462   4.887
 3306SOL    HW110817   2.151   5.459   4.890
 3306SOL    HW210818   2.289   5.393   4.948
 3307SOL     OW10819   0.080   5.681   0.306
 3307SOL    HW110820   0.167   5.667   0.258
 3307SOL    HW210821   0.096   5.738   0.387
 3308SOL     OW10822   3.657   6.471   6.916
 3308SOL    HW110823   3.678   6.564   6.946
 3308SOL    HW210824   3.694   6.405   6.982
 3309SOL     OW10825   6.805   5.574   2.510
 3309SOL    HW110826   6.731   5.628   2.549
 3309SOL    HW210827   6.840   5.620   2.428
 3310SOL     OW10828   0.161   3.597   5.943
 3310SOL    HW110829   0.075   3.617   5.989
 3310SOL    HW210830   0.149   3.517   5.883
 3311SOL     OW10831   2.596   3.940   1.676
 3311SOL    HW110832   2.678   3.887   1.697
 3311SOL    HW210833   2.623   4.028   1.636
 3312SOL     OW10834   4.331   4.806   5.750
 3312SOL    HW110835   4.386   4.826   5.669
 3312SOL    HW210836   4.290   4.715   5.741
 3313SOL     OW10837   0.308   4.973   3.281
 3313SOL    HW110838   0.355   4.885   3.288
 3313SOL    HW210839   0.375   5.045   3.260
 3314SOL     OW10840   2.670   1.602   3.326
 3314SOL    HW110841   2.621   1.580   3.242
 3314SOL    HW210842   2.750   1.658   3.305
 3315SOL     OW10843   6.455   3.238   5.019
 3315SOL    HW110844   6.553   3.230   5.038
 3315SOL    HW210845   6.422   3.327   5.051
 3316SOL     OW10846   5.085   1.908   5.928
 3316SOL    HW110847   5.049   1.995   5.893
 3316SOL    HW210848   5.104   1.847   5.851
 3317SOL     OW10849   4.263   3.118   1.802
 3317SOL    HW110850   4.258   3.198   1.743
 3317SOL    HW210851   4.359   3.092   1.814
 3318SOL     OW10852   2.905   0.724   0.359
 3318SOL    HW110853   2.954   0.703   0.274
 3318SOL    HW210854   2.808   0.702   0.348
 3319SOL     OW10855   6.345   0.903   4.197
 3319SOL    HW110856   6.415   0.871   4.133
 3319SOL    HW210857   6.313   0.994   4.169
 3320SOL     OW10858   5.613   0.544   4.826
 3320SOL    HW110859   5.607   0.449   4.794
 3320SOL    HW210860   5.544   0.559   4.897
 3321SOL     OW10861   4.318   2.144   0.415
 3321SOL    HW110862   4.371   2.081   0.473
 3321SOL    HW210863   4.359   2.148   0.324
 3322SOL     OW10864   5.774   3.619   0.737
 3322SOL    HW110865   5.707   3.555   0.774
 3322SOL    HW210866   5.835   3.571   0.674
 3323SOL     OW10867   2.969   3.068   0.572
 3323SOL    HW110868   2.966   3.065   0.472
 3323SOL    HW210869   3.001   3.158   0.602
 3324SOL     OW10870   2.536   4.272   6.436
 3324SOL    HW110871   2.550   4.301   6.530
 3324SOL    HW210872   2.448   4.309   6.403
 3325SOL     OW10873   1.934   2.899   6.812
 3325SOL    HW110874   1.890   2.857   6.733
 3325SOL    HW210875   1.922   2.998   6.808
 3326SOL     OW10876   5.122   2.294   2.211
 3326SOL    HW110877   5.030   2.312   2.245
 3326SOL    HW210878   5.166   2.381   2.189
 3327SOL     OW10879   2.458   6.006   1.766
 3327SOL    HW110880   2.405   5.938   1.715
 3327SOL    HW210881   2.546   5.966   1.792
 3328SOL     OW10882   4.228   1.411   0.991
 3328SOL    HW110883   4.235   1.494   0.936
 3328SOL    HW210884   4.282   1.338   0.949
 3329SOL     OW10885   4.888   0.093   4.722
 3329SOL    HW110886   4.842   0.160   4.664
 3329SOL    HW210887   4.846   0.003   4.708
 3330SOL     OW10888   6.321   4.972   1.219
 3330SOL    HW110889   6.321   4.917   1.303
 3330SOL    HW210890   6.345   4.914   1.142
 3331SOL     OW10891   1.485   3.796   1.047
 3331SOL    HW110892   1.456   3.891   1.034
 3331SOL    HW210893   1.561   3.793   1.113
 3332SOL     OW10894   6.730   5.025   0.248
 3332SOL    HW110895   6.756   5.029   0.344
 3332SOL    HW210896   6.697   5.115   0.218
 3333SOL     OW10897   3.330   3.806   6.547
 3333SOL    HW110898   3.292   3.771   6.461
 3333SOL    HW210899   3.337   3.731   6.613
 3334SOL     OW10900   2.313   4.101   1.383
 3334SOL    HW110901   2.295   4.124   1.287
 3334SOL    HW210902   2.232   4.059   1.423
 3335SOL     OW10903   5.038   0.163   5.746
 3335SOL    HW110904   5.105   0.144   5.818
 3335SOL    HW210905   4.955   0.111   5.765
 3336SOL     OW10906   1.731   6.496   4.067
 3336SOL    HW110907   1.766   6.412   4.027
 3336SOL    HW210908   1.783   6.519   4.149
 3337SOL     OW10909   3.155   3.935   1.494
 3337SOL    HW110910   3.066   3.966   1.459
 3337SOL    HW210911   3.228   3.974   1.437
 3338SOL     OW10912   5.980   3.229   2.223
 3338SOL    HW110913   5.943   3.282   2.146
 3338SOL    HW210914   6.034   3.153   2.187
 3339SOL     OW10915   1.012   6.991   6.181
 3339SOL    HW110916   0.999   0.034   6.255
 3339SOL    HW210917   0.932   6.931   6.175
 3340SOL     OW10918   3.466   1.840   3.090
 3340SOL    HW110919   3.444   1.804   3.180
 3340SOL    HW210920   3.381   1.853   3.038
 3341SOL     OW10921   0.703   4.849   3.622
 3341SOL    HW110922   0.605   4.832   3.631
 3341SOL    HW210923   0.742   4.870   3.712
 3342SOL     OW10924   1.496   5.999   3.804
 3342SOL    HW110925   1.500   5.981   3.706
 3342SOL    HW210926   1.407   6.040   3.826
 3343SOL     OW10927   4.718   3.635   0.137
 3343SOL    HW110928   4.683   3.723   0.167
 3343SOL    HW210929   4.795   3.648   0.075
 3344SOL     OW10930   5.844   3.320   3.390
 3344SOL    HW110931   5.837   3.221   3.400
 3344SOL    HW210932   5.917   3.354   3.450
 3345SOL     OW10933   1.651   2.891   6.215
 3345SOL    HW110934   1.604   2.917   6.299
 3345SOL    HW210935   1.592   2.829   6.163
 3346SOL     OW10936   0.959   1.151   6.839
 3346SOL    HW110937   1.038   1.173   6.780
 3346SOL    HW210938   0.918   1.236   6.872
 3347SOL     OW10939   0.944   3.193   5.500
 3347SOL    HW110940   0.881   3.261   5.463
 3347SOL    HW210941   0.938   3.109   5.447
 3348SOL     OW10942   3.753   3.760   4.802
 3348SOL    HW110943   3.842   3.775   4.846
 3348SOL    HW210944   3.720   3.846   4.764
 3349SOL     OW10945   1.710   5.091   3.073
 3349SOL    HW110946   1.730   5.189   3.061
 3349SOL    HW210947   1.628   5.067   3.022
 3350SOL     OW10948   7.007   2.490   5.860
 3350SOL    HW110949   6.915   2.462   5.834
 3350SOL    HW210950   0.005   2.579   5.818
 3351SOL     OW10951   5.027   0.569   2.675
 3351SOL    HW110952   4.961   0.503   2.640
 3351SOL    HW210953   5.051   0.545   2.769
 3352SOL     OW10954   6.549   3.038   0.405
 3352SOL    HW110955   6.579   2.943   0.419
 3352SOL    HW210956   6.629   3.096   0.390
 3353SOL     OW10957   3.054   5.860   1.767
 3353SOL    HW110958   3.077   5.798   1.692
 3353SOL    HW210959   3.091   5.951   1.747
 3354SOL     OW10960   4.716   2.415   5.585
 3354SOL    HW110961   4.792   2.472   5.554
 3354SOL    HW210962   4.718   2.328   5.537
 3355SOL     OW10963   2.560   2.085   6.144
 3355SOL    HW110964   2.658   2.069   6.130
 3355SOL    HW210965   2.523   2.132   6.064
 3356SOL     OW10966   0.298   5.231   5.696
 3356SOL    HW110967   0.215   5.246   5.642
 3356SOL    HW210968   0.299   5.137   5.730
 3357SOL     OW10969   2.115   3.786   2.056
 3357SOL    HW110970   2.090   3.786   1.959
 3357SOL    HW210971   2.142   3.694   2.084
 3358SOL     OW10972   4.590   1.873   1.231
 3358SOL    HW110973   4.582   1.940   1.305
 3358SOL    HW210974   4.511   1.812   1.231
 3359SOL     OW10975   0.419   6.896   2.665
 3359SOL    HW110976   0.339   6.954   2.651
 3359SOL    HW210977   0.445   6.853   2.578
 3360SOL     OW10978   1.435   1.687   6.924
 3360SOL    HW110979   1.457   1.673   6.828
 3360SOL    HW210980   1.478   1.616   6.979
 3361SOL     OW10981   0.491   5.230   4.681
 3361SOL    HW110982   0.487   5.312   4.623
 3361SOL    HW210983   0.465   5.150   4.627
 3362SOL     OW10984   3.434   1.751   2.538
 3362SOL    HW110985   3.418   1.848   2.519
 3362SOL    HW210986   3.393   1.728   2.626
 3363SOL     OW10987   6.551   0.688   2.476
 3363SOL    HW110988   6.570   0.779   2.439
 3363SOL    HW210989   6.637   0.636   2.482
 3364SOL     OW10990   1.259   4.847   3.891
 3364SOL    HW110991   1.226   4.926   3.841
 3364SOL    HW210992   1.352   4.864   3.924
 3365SOL     OW10993   0.223   1.987   4.963
 3365SOL    HW110994   0.129   1.957   4.952
 3365SOL    HW210995   0.245   1.995   5.060
 3366SOL     OW10996   5.907   5.438   4.547
 3366SOL    HW110997   5.968   5.361   4.530
 3366SOL    HW210998   5.938   5.487   4.628
 3367SOL     OW10999   3.840   2.977   2.608
 3367SOL    HW111000   3.842   2.885   2.569
 3367SOL    HW211001   3.792   2.976   2.696
 3368SOL     OW11002   0.457   5.744   6.712
 3368SOL    HW111003   0.539   5.690   6.695
 3368SOL    HW211004   0.376   5.688   6.696
 3369SOL     OW11005   3.450   1.903   0.793
 3369SOL    HW111006   3.490   1.962   0.862
 3369SOL    HW211007   3.351   1.902   0.802
 3370SOL     OW11008   0.013   6.193   0.565
 3370SOL    HW111009   6.964   6.127   0.542
 3370SOL    HW211010   0.066   6.214   0.483
 3371SOL     OW11011   2.143   2.408   1.899
 3371SOL    HW111012   2.194   2.480   1.946
 3371SOL    HW211013   2.065   2.380   1.955
 3372SOL     OW11014   6.632   1.999   0.681
 3372SOL    HW111015   6.730   1.990   0.696
 3372SOL    HW211016   6.590   1.909   0.679
 3373SOL     OW11017   0.518   1.544   3.804
 3373SOL    HW111018   0.420   1.559   3.813
 3373SOL    HW211019   0.535   1.462   3.749
 3374SOL     OW11020   1.218   6.573   4.330
 3374SOL    HW111021   1.179   6.492   4.285
 3374SOL    HW211022   1.317   6.574   4.313
 3375SOL     OW11023   0.310   4.671   6.928
 3375SOL    HW111024   0.210   4.677   6.932
 3375SOL    HW211025   0.337   4.629   6.841
 3376SOL     OW11026   4.089   3.775   4.724
 3376SOL    HW111027   4.011   3.771   4.661
 3376SOL    HW211028   4.072   3.844   4.794
 3377SOL     OW11029   6.377   5.828   6.307
 3377SOL    HW111030   6.345   5.920   6.329
 3377SOL    HW211031   6.393   5.820   6.209
 3378SOL     OW11032   0.995   1.011   0.962
 3378SOL    HW111033   1.052   1.006   1.043
 3378SOL    HW211034   0.979   0.919   0.927
 3379SOL     OW11035   0.719   0.975   5.892
 3379SOL    HW111036   0.661   0.921   5.832
 3379SOL    HW211037   0.692   1.071   5.887
 3380SOL     OW11038   5.541   6.366   5.069
 3380SOL    HW111039   5.578   6.289   5.018
 3380SOL    HW211040   5.596   6.448   5.052
 3381SOL     OW11041   0.523   2.581   1.400
 3381SOL    HW111042   0.610   2.629   1.393
 3381SOL    HW211043   0.535   2.498   1.454
 3382SOL     OW11044   0.646   2.847   0.351
 3382SOL    HW111045   0.563   2.836   0.406
 3382SOL    HW211046   0.726   2.839   0.410
 3383SOL     OW11047   4.305   5.966   1.266
 3383SOL    HW111048   4.320   5.900   1.193
 3383SOL    HW211049   4.308   5.920   1.354
 3384SOL     OW11050   2.677   2.885   6.947
 3384SOL    HW111051   2.726   2.834   6.875
 3384SOL    HW211052   2.584   2.849   6.956
 3385SOL     OW11053   0.093   3.445   5.017
 3385SOL    HW111054   0.133   3.416   4.930
 3385SOL    HW211055   7.016   3.449   5.009
 3386SOL     OW11056   5.344   4.785   6.960
 3386SOL    HW111057   5.416   4.741   6.907
 3386SOL    HW211058   5.298   4.716   7.017
 3387SOL     OW11059   2.461   0.625   2.792
 3387SOL    HW111060   2.452   0.718   2.828
 3387SOL    HW211061   2.504   0.567   2.862
 3388SOL     OW11062   5.371   2.985   2.239
 3388SOL    HW111063   5.294   3.044   2.263
 3388SOL    HW211064   5.456   3.024   2.274
 3389SOL     OW11065   5.733   5.501   6.595
 3389SOL    HW111066   5.685   5.413   6.597
 3389SOL    HW211067   5.831   5.485   6.594
 3390SOL     OW11068   5.799   6.986   6.574
 3390SOL    HW111069   5.717   6.960   6.522
 3390SOL    HW211070   5.777   6.989   6.672
 3391SOL     OW11071   4.603   2.500   4.705
 3391SOL    HW111072   4.634   2.407   4.686
 3391SOL    HW211073   4.611   2.555   4.621
 3392SOL     OW11074   2.355   0.414   3.747
 3392SOL    HW111075   2.273   0.462   3.717
 3392SOL    HW211076   2.431   0.478   3.755
 3393SOL     OW11077   0.251   6.147   0.692
 3393SOL    HW111078   0.161   6.164   0.650
 3393SOL    HW211079   0.269   6.215   0.762
 3394SOL     OW11080   5.806   3.056   1.371
 3394SOL    HW111081   5.867   3.078   1.295
 3394SOL    HW211082   5.819   2.960   1.398
 3395SOL     OW11083   5.348   3.196   3.321
 3395SOL    HW111084   5.290   3.277   3.313
 3395SOL    HW211085   5.359   3.154   3.231
 3396SOL     OW11086   5.324   1.642   3.152
 3396SOL    HW111087   5.419   1.671   3.141
 3396SOL    HW211088   5.284   1.624   3.062
 3397SOL     OW11089   3.083   6.126   5.773
 3397SOL    HW111090   3.179   6.141   5.795
 3397SOL    HW211091   3.069   6.031   5.744
 3398SOL     OW11092   0.857   6.854   4.930
 3398SOL    HW111093   0.921   6.929   4.948
 3398SOL    HW211094   0.851   6.795   5.010
 3399SOL     OW11095   5.506   4.169   3.564
 3399SOL    HW111096   5.502   4.264   3.595
 3399SOL    HW211097   5.463   4.161   3.474
 3400SOL     OW11098   4.599   3.144   6.313
 3400SOL    HW111099   4.685   3.193   6.326
 3400SOL    HW211100   4.586   3.125   6.215
 3401SOL     OW11101   0.459   3.061   0.590
 3401SOL    HW111102   0.552   3.072   0.625
 3401SOL    HW211103   0.444   2.966   0.564
 3402SOL     OW11104   4.653   5.889   0.013
 3402SOL    HW111105   4.680   5.965   6.977
 3402SOL    HW211106   4.594   5.922   0.086
 3403SOL     OW11107   3.075   5.331   5.934
 3403SOL    HW111108   3.172   5.328   5.909
 3403SOL    HW211109   3.035   5.240   5.929
 3404SOL     OW11110   4.790   1.248   0.282
 3404SOL    HW111111   4.727   1.325   0.280
 3404SOL    HW211112   4.859   1.260   0.210
 3405SOL     OW11113   6.413   4.216   5.908
 3405SOL    HW111114   6.510   4.235   5.926
 3405SOL    HW211115   6.398   4.213   5.809
 3406SOL     OW11116   0.954   3.495   1.775
 3406SOL    HW111117   0.992   3.531   1.690
 3406SOL    HW211118   0.964   3.395   1.775
 3407SOL     OW11119   1.312   4.493   6.436
 3407SOL    HW111120   1.390   4.535   6.483
 3407SOL    HW211121   1.332   4.486   6.338
 3408SOL     OW11122   4.914   3.599   4.553
 3408SOL    HW111123   4.906   3.608   4.653
 3408SOL    HW211124   4.949   3.508   4.531
 3409SOL     OW11125   3.581   6.460   6.398
 3409SOL    HW111126   3.583   6.555   6.368
 3409SOL    HW211127   3.640   6.405   6.339
 3410SOL     OW11128   6.508   6.859   1.286
 3410SOL    HW111129   6.552   6.884   1.373
 3410SOL    HW211130   6.436   6.925   1.265
 3411SOL     OW11131   0.677   3.079   1.229
 3411SOL    HW111132   0.619   3.137   1.170
 3411SOL    HW211133   0.770   3.078   1.192
 3412SOL     OW11134   4.747   2.635   0.781
 3412SOL    HW111135   4.681   2.597   0.846
 3412SOL    HW211136   4.833   2.584   0.788
 3413SOL     OW11137   5.863   1.548   0.697
 3413SOL    HW111138   5.800   1.477   0.728
 3413SOL    HW211139   5.867   1.547   0.597
 3414SOL     OW11140   3.706   1.682   6.526
 3414SOL    HW111141   3.619   1.638   6.547
 3414SOL    HW211142   3.781   1.624   6.556
 3415SOL     OW11143   1.952   3.561   4.083
 3415SOL    HW111144   1.857   3.593   4.081
 3415SOL    HW211145   1.993   3.583   4.172
 3416SOL     OW11146   6.343   6.175   1.043
 3416SOL    HW111147   6.246   6.162   1.063
 3416SOL    HW211148   6.354   6.219   0.954
 3417SOL     OW11149   0.254   6.734   3.152
 3417SOL    HW111150   0.225   6.785   3.232
 3417SOL    HW211151   0.177   6.681   3.117
 3418SOL     OW11152   3.450   5.798   3.423
 3418SOL    HW111153   3.461   5.699   3.416
 3418SOL    HW211154   3.352   5.821   3.418
 3419SOL     OW11155   3.010   5.837   5.791
 3419SOL    HW111156   2.980   5.826   5.886
 3419SOL    HW211157   2.933   5.821   5.730
 3420SOL     OW11158   6.099   3.146   3.579
 3420SOL    HW111159   6.071   3.238   3.552
 3420SOL    HW211160   6.149   3.150   3.665
 3421SOL     OW11161   4.714   1.833   4.658
 3421SOL    HW111162   4.748   1.905   4.598
 3421SOL    HW211163   4.749   1.745   4.627
 3422SOL     OW11164   2.082   0.432   0.212
 3422SOL    HW111165   2.156   0.412   0.148
 3422SOL    HW211166   2.025   0.506   0.177
 3423SOL     OW11167   0.264   4.677   6.389
 3423SOL    HW111168   0.224   4.657   6.479
 3423SOL    HW211169   0.361   4.654   6.390
 3424SOL     OW11170   2.423   6.313   0.824
 3424SOL    HW111171   2.335   6.324   0.778
 3424SOL    HW211172   2.495   6.300   0.756
 3425SOL     OW11173   4.990   5.483   2.429
 3425SOL    HW111174   4.929   5.469   2.507
 3425SOL    HW211175   5.051   5.404   2.420
 3426SOL     OW11176   4.502   2.947   0.327
 3426SOL    HW111177   4.599   2.949   0.351
 3426SOL    HW211178   4.491   2.900   0.239
 3427SOL     OW11179   0.109   1.317   0.830
 3427SOL    HW111180   0.094   1.411   0.862
 3427SOL    HW211181   0.044   1.297   0.756
 3428SOL     OW11182   2.397   5.790   7.016
 3428SOL    HW111183   2.407   5.692   0.007
 3428SOL    HW211184   2.364   5.832   0.078
 3429SOL     OW11185   0.644   1.433   0.572
 3429SOL    HW111186   0.620   1.466   0.663
 3429SOL    HW211187   0.610   1.497   0.503
 3430SOL     OW11188   1.779   6.303   5.505
 3430SOL    HW111189   1.857   6.366   5.506
 3430SOL    HW211190   1.735   6.303   5.595
 3431SOL     OW11191   1.757   7.018   1.426
 3431SOL    HW111192   1.813   6.939   1.404
 3431SOL    HW211193   1.683   0.004   1.360
 3432SOL     OW11194   1.517   3.468   6.128
 3432SOL    HW111195   1.616   3.458   6.116
 3432SOL    HW211196   1.480   3.386   6.173
 3433SOL     OW11197   1.263   6.537   5.374
 3433SOL    HW111198   1.326   6.470   5.333
 3433SOL    HW211199   1.312   6.623   5.389
 3434SOL     OW11200   4.420   1.090   2.307
 3434SOL    HW111201   4.356   1.158   2.342
 3434SOL    HW211202   4.398   1.069   2.212
 3435SOL     OW11203   1.985   1.003   0.855
 3435SOL    HW111204   1.895   1.043   0.876
 3435SOL    HW211205   2.056   1.072   0.864
 3436SOL     OW11206   4.190   6.841   6.859
 3436SOL    HW111207   4.253   6.767   6.837
 3436SOL    HW211208   4.225   6.893   6.937
 3437SOL     OW11209   2.279   0.124   5.476
 3437SOL    HW111210   2.352   0.180   5.517
 3437SOL    HW211211   2.319   0.043   5.434
 3438SOL     OW11212   1.337   3.202   0.233
 3438SOL    HW111213   1.340   3.301   0.215
 3438SOL    HW211214   1.415   3.177   0.290
 3439SOL     OW11215   2.175   6.205   4.871
 3439SOL    HW111216   2.156   6.121   4.820
 3439SOL    HW211217   2.189   6.280   4.807
 3440SOL     OW11218   2.821   3.124   1.138
 3440SOL    HW111219   2.785   3.042   1.093
 3440SOL    HW211220   2.801   3.204   1.081
 3441SOL     OW11221   6.343   5.008   5.631
 3441SOL    HW111222   6.391   5.084   5.674
 3441SOL    HW211223   6.350   5.016   5.532
 3442SOL     OW11224   2.074   4.638   2.032
 3442SOL    HW111225   2.119   4.605   2.115
 3442SOL    HW211226   2.140   4.687   1.975
 3443SOL     OW11227   3.817   6.339   1.613
 3443SOL    HW111228   3.854   6.405   1.679
 3443SOL    HW211229   3.878   6.260   1.608
 3444SOL     OW11230   5.308   5.781   6.367
 3444SOL    HW111231   5.347   5.720   6.436
 3444SOL    HW211232   5.323   5.876   6.395
 3445SOL     OW11233   6.110   5.534   2.663
 3445SOL    HW111234   6.190   5.553   2.721
 3445SOL    HW211235   6.038   5.600   2.684
 3446SOL     OW11236   6.473   1.465   1.724
 3446SOL    HW111237   6.397   1.404   1.702
 3446SOL    HW211238   6.437   1.556   1.747
 3447SOL     OW11239   5.178   5.555   0.933
 3447SOL    HW111240   5.131   5.508   0.858
 3447SOL    HW211241   5.277   5.550   0.918
 3448SOL     OW11242   3.993   1.094   6.765
 3448SOL    HW111243   4.092   1.107   6.760
 3448SOL    HW211244   3.952   1.108   6.674
 3449SOL     OW11245   5.790   5.815   4.530
 3449SOL    HW111246   5.810   5.807   4.432
 3449SOL    HW211247   5.692   5.833   4.542
 3450SOL     OW11248   0.223   2.513   6.992
 3450SOL    HW111249   0.289   2.586   6.973
 3450SOL    HW211250   0.222   2.448   6.916
 3451SOL     OW11251   2.452   6.122   0.474
 3451SOL    HW111252   2.543   6.085   0.455
 3451SOL    HW211253   2.431   6.195   0.409
 3452SOL     OW11254   6.039   0.904   6.337
 3452SOL    HW111255   5.959   0.952   6.374
 3452SOL    HW211256   6.030   0.807   6.356
 3453SOL     OW11257   6.634   5.604   6.547
 3453SOL    HW111258   6.547   5.573   6.506
 3453SOL    HW211259   6.656   5.694   6.511
 3454SOL     OW11260   0.638   3.239   5.147
 3454SOL    HW111261   0.545   3.231   5.181
 3454SOL    HW211262   0.637   3.255   5.048
 3455SOL     OW11263   2.611   1.927   4.070
 3455SOL    HW111264   2.656   1.961   4.152
 3455SOL    HW211265   2.552   1.999   4.033
 3456SOL     OW11266   5.440   5.233   1.978
 3456SOL    HW111267   5.373   5.305   1.996
 3456SOL    HW211268   5.477   5.200   2.065
 3457SOL     OW11269   2.905   5.348   3.607
 3457SOL    HW111270   2.836   5.397   3.555
 3457SOL    HW211271   2.986   5.405   3.617
 3458SOL     OW11272   5.033   0.787   2.366
 3458SOL    HW111273   4.935   0.791   2.346
 3458SOL    HW211274   5.050   0.824   2.457
 3459SOL     OW11275   5.785   3.304   2.841
 3459SOL    HW111276   5.712   3.245   2.807
 3459SOL    HW211277   5.750   3.396   2.858
 3460SOL     OW11278   2.500   2.527   0.038
 3460SOL    HW111279   2.500   2.430   0.015
 3460SOL    HW211280   2.476   2.538   0.135
 3461SOL     OW11281   5.365   4.232   5.671
 3461SOL    HW111282   5.465   4.225   5.668
 3461SOL    HW211283   5.338   4.327   5.655
 3462SOL     OW11284   0.172   4.094   4.207
 3462SOL    HW111285   0.236   4.095   4.284
 3462SOL    HW211286   0.202   4.160   4.138
 3463SOL     OW11287   1.032   4.182   2.109
 3463SOL    HW111288   1.037   4.083   2.117
 3463SOL    HW211289   1.118   4.217   2.071
 3464SOL     OW11290   6.868   4.336   5.235
 3464SOL    HW111291   6.801   4.274   5.193
 3464SOL    HW211292   6.914   4.389   5.164
 3465SOL     OW11293   1.091   1.863   1.601
 3465SOL    HW111294   1.163   1.796   1.619
 3465SOL    HW211295   1.001   1.822   1.617
 3466SOL     OW11296   6.700   4.886   6.672
 3466SOL    HW111297   6.668   4.847   6.586
 3466SOL    HW211298   6.780   4.943   6.654
 3467SOL     OW11299   1.826   2.678   0.267
 3467SOL    HW111300   1.915   2.687   0.222
 3467SOL    HW211301   1.793   2.584   0.259
 3468SOL     OW11302   4.549   6.277   3.085
 3468SOL    HW111303   4.475   6.273   3.018
 3468SOL    HW211304   4.637   6.268   3.038
 3469SOL     OW11305   5.071   0.095   3.353
 3469SOL    HW111306   5.081   0.164   3.282
 3469SOL    HW211307   5.027   0.137   3.433
 3470SOL     OW11308   6.632   3.892   1.231
 3470SOL    HW111309   6.671   3.943   1.154
 3470SOL    HW211310   6.641   3.794   1.214
 3471SOL     OW11311   3.986   5.458   4.170
 3471SOL    HW111312   4.047   5.380   4.162
 3471SOL    HW211313   4.035   5.535   4.212
 3472SOL     OW11314   2.310   0.950   2.157
 3472SOL    HW111315   2.354   0.866   2.127
 3472SOL    HW211316   2.371   1.028   2.141
 3473SOL     OW11317   0.411   2.303   0.950
 3473SOL    HW111318   0.323   2.339   0.981
 3473SOL    HW211319   0.484   2.337   1.009
 3474SOL     OW11320   1.550   4.962   2.774
 3474SOL    HW111321   1.485   4.905   2.722
 3474SOL    HW211322   1.631   4.980   2.718
 3475SOL     OW11323   0.934   5.530   4.594
 3475SOL    HW111324   0.887   5.525   4.506
 3475SOL    HW211325   0.876   5.580   4.659
 3476SOL     OW11326   3.169   1.897   2.789
 3476SOL    HW111327   3.137   1.888   2.883
 3476SOL    HW211328   3.197   1.808   2.755
 3477SOL     OW11329   3.178   4.846   0.972
 3477SOL    HW111330   3.192   4.939   1.004
 3477SOL    HW211331   3.155   4.847   0.875
 3478SOL     OW11332   2.405   5.957   4.406
 3478SOL    HW111333   2.339   5.960   4.481
 3478SOL    HW211334   2.490   5.916   4.438
 3479SOL     OW11335   1.602   1.044   2.754
 3479SOL    HW111336   1.561   0.963   2.711
 3479SOL    HW211337   1.530   1.107   2.781
 3480SOL     OW11338   0.356   6.693   5.331
 3480SOL    HW111339   0.452   6.710   5.353
 3480SOL    HW211340   0.344   6.695   5.231
 3481SOL     OW11341   4.896   0.082   0.255
 3481SOL    HW111342   4.953   0.115   0.180
 3481SOL    HW211343   4.935   0.113   0.342
 3482SOL     OW11344   5.919   1.711   1.346
 3482SOL    HW111345   5.974   1.731   1.265
 3482SOL    HW211346   5.887   1.617   1.343
 3483SOL     OW11347   4.838   1.630   1.661
 3483SOL    HW111348   4.905   1.578   1.609
 3483SOL    HW211349   4.756   1.573   1.675
 3484SOL     OW11350   2.438   3.633   1.279
 3484SOL    HW111351   2.414   3.647   1.183
 3484SOL    HW211352   2.355   3.620   1.333
 3485SOL     OW11353   1.488   0.875   3.699
 3485SOL    HW111354   1.559   0.943   3.682
 3485SOL    HW211355   1.404   0.902   3.653
 3486SOL     OW11356   2.945   1.300   2.906
 3486SOL    HW111357   2.856   1.262   2.931
 3486SOL    HW211358   2.958   1.293   2.808
 3487SOL     OW11359   5.638   2.740   5.787
 3487SOL    HW111360   5.573   2.815   5.801
 3487SOL    HW211361   5.589   2.652   5.792
 3488SOL     OW11362   6.096   1.856   5.049
 3488SOL    HW111363   6.007   1.895   5.073
 3488SOL    HW211364   6.122   1.787   5.117
 3489SOL     OW11365   3.325   7.021   0.448
 3489SOL    HW111366   3.243   0.056   0.451
 3489SOL    HW211367   3.395   0.043   0.393
 3490SOL     OW11368   4.146   4.631   0.166
 3490SOL    HW111369   4.203   4.620   0.248
 3490SOL    HW211370   4.056   4.666   0.193
 3491SOL     OW11371   5.698   2.988   5.111
 3491SOL    HW111372   5.744   3.054   5.052
 3491SOL    HW211373   5.603   2.976   5.081
 3492SOL     OW11374   1.169   5.871   1.147
 3492SOL    HW111375   1.119   5.900   1.065
 3492SOL    HW211376   1.247   5.815   1.120
 3493SOL     OW11377   5.804   4.583   6.263
 3493SOL    HW111378   5.735   4.653   6.247
 3493SOL    HW211379   5.786   4.505   6.203
 3494SOL     OW11380   3.890   0.656   1.956
 3494SOL    HW111381   3.828   0.602   1.900
 3494SOL    HW211382   3.889   0.751   1.926
 3495SOL     OW11383   4.508   5.505   1.868
 3495SOL    HW111384   4.575   5.495   1.794
 3495SOL    HW211385   4.460   5.419   1.882
 3496SOL     OW11386   6.753   4.023   0.518
 3496SOL    HW111387   6.797   3.944   0.559
 3496SOL    HW211388   6.773   4.026   0.420
 3497SOL     OW11389   3.080   0.678   3.344
 3497SOL    HW111390   3.026   0.709   3.265
 3497SOL    HW211391   3.169   0.723   3.343
 3498SOL     OW11392   2.159   2.251   1.012
 3498SOL    HW111393   2.140   2.199   0.929
 3498SOL    HW211394   2.257   2.264   1.021
 3499SOL     OW11395   4.700   2.768   4.335
 3499SOL    HW111396   4.654   2.827   4.402
 3499SOL    HW211397   4.775   2.720   4.379
 3500SOL     OW11398   1.269   3.687   5.038
 3500SOL    HW111399   1.276   3.787   5.034
 3500SOL    HW211400   1.305   3.647   4.954
 3501SOL     OW11401   2.221   5.435   4.176
 3501SOL    HW111402   2.267   5.505   4.230
 3501SOL    HW211403   2.198   5.357   4.234
 3502SOL     OW11404   6.108   2.830   2.416
 3502SOL    HW111405   6.170   2.823   2.338
 3502SOL    HW211406   6.054   2.914   2.408
 3503SOL     OW11407   6.448   6.177   4.942
 3503SOL    HW111408   6.454   6.079   4.959
 3503SOL    HW211409   6.374   6.196   4.878
 3504SOL     OW11410   2.451   1.759   1.261
 3504SOL    HW111411   2.507   1.809   1.327
 3504SOL    HW211412   2.354   1.774   1.280
 3505SOL     OW11413   5.376   5.048   4.740
 3505SOL    HW111414   5.459   5.087   4.699
 3505SOL    HW211415   5.374   4.950   4.723
 3506SOL     OW11416   4.916   5.729   6.132
 3506SOL    HW111417   4.875   5.808   6.088
 3506SOL    HW211418   4.924   5.654   6.065
 3507SOL     OW11419   2.469   0.478   0.147
 3507SOL    HW111420   2.434   0.562   0.188
 3507SOL    HW211421   2.495   0.496   0.052
 3508SOL     OW11422   2.982   2.215   6.262
 3508SOL    HW111423   3.065   2.256   6.300
 3508SOL    HW211424   2.919   2.287   6.231
 3509SOL     OW11425   5.745   0.134   5.975
 3509SOL    HW111426   5.688   0.052   5.971
 3509SOL    HW211427   5.689   0.213   5.998
 3510SOL     OW11428   1.677   2.136   1.129
 3510SOL    HW111429   1.642   2.223   1.162
 3510SOL    HW211430   1.763   2.114   1.176
 3511SOL     OW11431   1.872   4.915   0.408
 3511SOL    HW111432   1.831   4.920   0.317
 3511SOL    HW211433   1.964   4.878   0.402
 3512SOL     OW11434   0.027   4.403   0.312
 3512SOL    HW111435   0.067   4.485   0.353
 3512SOL    HW211436   0.006   4.337   0.384
 3513SOL     OW11437   6.145   3.792   0.655
 3513SOL    HW111438   6.105   3.701   0.646
 3513SOL    HW211439   6.210   3.792   0.732
 3514SOL     OW11440   0.120   1.469   1.657
 3514SOL    HW111441   0.116   1.373   1.627
 3514SOL    HW211442   0.201   1.483   1.714
 3515SOL     OW11443   4.604   6.435   3.474
 3515SOL    HW111444   4.640   6.416   3.565
 3515SOL    HW211445   4.570   6.529   3.470
 3516SOL     OW11446   4.559   6.835   0.803
 3516SOL    HW111447   4.498   6.910   0.826
 3516SOL    HW211448   4.601   6.799   0.886
 3517SOL     OW11449   0.731   2.126   0.541
 3517SOL    HW111450   0.686   2.193   0.598
 3517SOL    HW211451   0.798   2.172   0.482
 3518SOL     OW11452   5.570   3.987   4.849
 3518SOL    HW111453   5.642   3.921   4.829
 3518SOL    HW211454   5.481   3.944   4.836
 3519SOL     OW11455   1.483   0.736   6.333
 3519SOL    HW111456   1.443   0.702   6.248
 3519SOL    HW211457   1.573   0.695   6.347
 3520SOL     OW11458   2.787   5.141   6.398
 3520SOL    HW111459   2.743   5.051   6.404
 3520SOL    HW211460   2.852   5.153   6.473
 3521SOL     OW11461   5.399   3.624   0.368
 3521SOL    HW111462   5.314   3.573   0.366
 3521SOL    HW211463   5.455   3.593   0.444
 3522SOL     OW11464   5.757   5.104   2.099
 3522SOL    HW111465   5.723   5.046   2.025
 3522SOL    HW211466   5.851   5.078   2.122
 3523SOL     OW11467   2.774   5.201   5.615
 3523SOL    HW111468   2.753   5.297   5.635
 3523SOL    HW211469   2.722   5.172   5.534
 3524SOL     OW11470   3.174   0.968   0.949
 3524SOL    HW111471   3.188   0.885   1.004
 3524SOL    HW211472   3.083   1.005   0.968
 3525SOL     OW11473   0.678   4.218   1.656
 3525SOL    HW111474   0.626   4.257   1.580
 3525SOL    HW211475   0.750   4.158   1.620
 3526SOL     OW11476   2.863   6.652   3.556
 3526SOL    HW111477   2.944   6.619   3.606
 3526SOL    HW211478   2.809   6.712   3.615
 3527SOL     OW11479   6.283   3.543   6.134
 3527SOL    HW111480   6.268   3.568   6.230
 3527SOL    HW211481   6.379   3.555   6.111
 3528SOL     OW11482   0.997   5.450   3.775
 3528SOL    HW111483   1.022   5.399   3.693
 3528SOL    HW211484   1.032   5.403   3.856
 3529SOL     OW11485   5.073   6.498   6.151
 3529SOL    HW111486   5.147   6.464   6.093
 3529SOL    HW211487   4.989   6.447   6.131
 3530SOL     OW11488   1.609   4.696   3.215
 3530SOL    HW111489   1.538   4.627   3.230
 3530SOL    HW211490   1.625   4.705   3.117
 3531SOL     OW11491   4.718   4.059   1.110
 3531SOL    HW111492   4.777   4.006   1.049
 3531SOL    HW211493   4.697   4.004   1.191
 3532SOL     OW11494   2.691   0.349   0.266
 3532SOL    HW111495   2.608   0.398   0.237
 3532SOL    HW211496   2.771   0.389   0.221
 3533SOL     OW11497   1.151   2.093   2.570
 3533SOL    HW111498   1.180   2.003   2.539
 3533SOL    HW211499   1.206   2.120   2.650
 3534SOL     OW11500   5.779   1.151   5.251
 3534SOL    HW111501   5.862   1.102   5.227
 3534SOL    HW211502   5.727   1.172   5.168
 3535SOL     OW11503   0.740   6.249   0.804
 3535SOL    HW111504   0.744   6.174   0.870
 3535SOL    HW211505   0.785   6.330   0.843
 3536SOL     OW11506   1.993   2.654   4.020
 3536SOL    HW111507   2.045   2.594   4.082
 3536SOL    HW211508   2.046   2.738   4.004
 3537SOL     OW11509   2.529   5.280   0.276
 3537SOL    HW111510   2.569   5.270   0.367
 3537SOL    HW211511   2.600   5.264   0.207
 3538SOL     OW11512   2.012   0.223   4.923
 3538SOL    HW111513   2.068   0.253   5.000
 3538SOL    HW211514   2.015   0.292   4.850
 3539SOL     OW11515   5.806   3.273   6.219
 3539SOL    HW111516   5.876   3.262   6.291
 3539SOL    HW211517   5.772   3.184   6.192
 3540SOL     OW11518   1.849   2.039   4.987
 3540SOL    HW111519   1.789   2.002   4.915
 3540SOL    HW211520   1.822   2.133   5.008
 3541SOL     OW11521   2.536   2.636   6.636
 3541SOL    HW111522   2.494   2.708   6.581
 3541SOL    HW211523   2.476   2.555   6.636
 3542SOL     OW11524   0.754   3.709   1.610
 3542SOL    HW111525   0.803   3.655   1.540
 3542SOL    HW211526   0.749   3.656   1.694
 3543SOL     OW11527   0.774   3.087   5.732
 3543SOL    HW111528   0.834   3.143   5.676
 3543SOL    HW211529   0.681   3.123   5.728
 3544SOL     OW11530   2.242   4.684   6.265
 3544SOL    HW111531   2.257   4.608   6.201
 3544SOL    HW211532   2.296   4.669   6.347
 3545SOL     OW11533   3.752   5.040   6.954
 3545SOL    HW111534   3.662   5.067   6.921
 3545SOL    HW211535   3.743   4.964   7.018
 3546SOL     OW11536   6.869   4.568   3.282
 3546SOL    HW111537   6.794   4.631   3.303
 3546SOL    HW211538   6.940   4.618   3.233
 3547SOL     OW11539   6.107   3.943   4.118
 3547SOL    HW111540   6.037   3.956   4.047
 3547SOL    HW211541   6.168   4.023   4.120
 3548SOL     OW11542   5.339   0.367   5.842
 3548SOL    HW111543   5.394   0.397   5.764
 3548SOL    HW211544   5.285   0.287   5.816
 3549SOL     OW11545   0.715   4.817   6.560
 3549SOL    HW111546   0.755   4.789   6.647
 3549SOL    HW211547   0.756   4.902   6.529
 3550SOL     OW11548   5.586   2.583   4.769
 3550SOL    HW111549   5.633   2.519   4.708
 3550SOL    HW211550   5.623   2.675   4.754
 3551SOL     OW11551   3.857   1.913   3.966
 3551SOL    HW111552   3.858   1.995   3.908
 3551SOL    HW211553   3.775   1.859   3.946
 3552SOL     OW11554   6.157   6.881   1.947
 3552SOL    HW111555   6.068   6.864   1.906
 3552SOL    HW211556   6.184   6.976   1.930
 3553SOL     OW11557   3.541   5.760   0.639
 3553SOL    HW111558   3.510   5.825   0.570
 3553SOL    HW211559   3.628   5.791   0.677
 3554SOL     OW11560   4.514   2.309   0.839
 3554SOL    HW111561   4.547   2.400   0.863
 3554SOL    HW211562   4.466   2.269   0.918
 3555SOL     OW11563   0.806   3.632   4.768
 3555SOL    HW111564   0.779   3.557   4.706
 3555SOL    HW211565   0.855   3.593   4.847
 3556SOL     OW11566   3.799   0.363   4.301
 3556SOL    HW111567   3.803   0.443   4.242
 3556SOL    HW211568   3.857   0.291   4.263
 3557SOL     OW11569   1.254   0.181   3.938
 3557SOL    HW111570   1.319   0.247   3.975
 3557SOL    HW211571   1.161   0.219   3.943
 3558SOL     OW11572   1.387   5.299   2.571
 3558SOL    HW111573   1.463   5.277   2.510
 3558SOL    HW211574   1.408   5.268   2.663
 3559SOL     OW11575   0.603   5.895   5.246
 3559SOL    HW111576   0.702   5.903   5.255
 3559SOL    HW211577   0.574   5.930   5.158
 3560SOL     OW11578   2.577   5.125   2.604
 3560SOL    HW111579   2.589   5.026   2.614
 3560SOL    HW211580   2.568   5.147   2.507
 3561SOL     OW11581   5.010   4.167   5.199
 3561SOL    HW111582   5.103   4.139   5.225
 3561SOL    HW211583   4.947   4.092   5.218
 3562SOL     OW11584   3.415   1.091   2.817
 3562SOL    HW111585   3.443   1.186   2.829
 3562SOL    HW211586   3.319   1.087   2.791
 3563SOL     OW11587   6.755   1.921   6.678
 3563SOL    HW111588   6.790   1.883   6.593
 3563SOL    HW211589   6.831   1.941   6.739
 3564SOL     OW11590   1.029   4.558   2.370
 3564SOL    HW111591   0.986   4.480   2.415
 3564SOL    HW211592   0.977   4.581   2.288
 3565SOL     OW11593   2.778   6.254   4.290
 3565SOL    HW111594   2.705   6.251   4.359
 3565SOL    HW211595   2.739   6.240   4.199
 3566SOL     OW11596   6.607   3.043   6.798
 3566SOL    HW111597   6.530   3.104   6.777
 3566SOL    HW211598   6.572   2.951   6.816
 3567SOL     OW11599   0.753   2.284   6.634
 3567SOL    HW111600   0.844   2.263   6.670
 3567SOL    HW211601   0.732   2.380   6.651
 3568SOL     OW11602   5.394   4.337   4.413
 3568SOL    HW111603   5.485   4.296   4.422
 3568SOL    HW211604   5.334   4.276   4.362
 3569SOL     OW11605   2.298   2.355   6.189
 3569SOL    HW111606   2.309   2.368   6.287
 3569SOL    HW211607   2.382   2.383   6.141
 3570SOL     OW11608   4.928   0.614   6.008
 3570SOL    HW111609   4.910   0.552   5.932
 3570SOL    HW211610   5.004   0.674   5.986
 3571SOL     OW11611   0.730   5.173   5.992
 3571SOL    HW111612   0.682   5.093   5.954
 3571SOL    HW211613   0.826   5.170   5.965
 3572SOL     OW11614   6.030   4.145   3.017
 3572SOL    HW111615   5.941   4.099   3.011
 3572SOL    HW211616   6.101   4.077   3.030
 3573SOL     OW11617   0.424   5.197   3.699
 3573SOL    HW111618   0.488   5.158   3.765
 3573SOL    HW211619   0.380   5.123   3.648
 3574SOL     OW11620   0.012   3.824   0.873
 3574SOL    HW111621   7.018   3.726   0.879
 3574SOL    HW211622   0.099   3.840   0.827
 3575SOL     OW11623   5.182   5.032   3.057
 3575SOL    HW111624   5.101   5.086   3.078
 3575SOL    HW211625   5.176   4.998   2.963
 3576SOL     OW11626   0.063   1.364   5.858
 3576SOL    HW111627   0.120   1.321   5.928
 3576SOL    HW211628   0.104   1.451   5.830
 3577SOL     OW11629   1.622   2.509   6.369
 3577SOL    HW111630   1.610   2.600   6.409
 3577SOL    HW211631   1.640   2.518   6.271
 3578SOL     OW11632   2.483   2.560   1.188
 3578SOL    HW111633   2.569   2.606   1.205
 3578SOL    HW211634   2.493   2.462   1.204
 3579SOL     OW11635   5.902   3.071   4.496
 3579SOL    HW111636   5.954   3.041   4.576
 3579SOL    HW211637   5.840   2.998   4.467
 3580SOL     OW11638   5.971   3.218   1.601
 3580SOL    HW111639   5.874   3.193   1.600
 3580SOL    HW211640   6.007   3.207   1.693
 3581SOL     OW11641   0.458   6.208   3.566
 3581SOL    HW111642   0.523   6.276   3.533
 3581SOL    HW211643   0.454   6.131   3.502
 3582SOL     OW11644   0.905   2.354   5.397
 3582SOL    HW111645   0.916   2.289   5.321
 3582SOL    HW211646   0.861   2.307   5.474
 3583SOL     OW11647   1.485   3.527   6.746
 3583SOL    HW111648   1.449   3.603   6.801
 3583SOL    HW211649   1.507   3.559   6.654
 3584SOL     OW11650   5.826   5.259   6.160
 3584SOL    HW111651   5.774   5.344   6.170
 3584SOL    HW211652   5.923   5.280   6.156
 3585SOL     OW11653   4.169   0.109   4.861
 3585SOL    HW111654   4.172   0.020   4.816
 3585SOL    HW211655   4.249   0.118   4.921
 3586SOL     OW11656   0.190   1.583   4.962
 3586SOL    HW111657   0.142   1.623   4.884
 3586SOL    HW211658   0.124   1.532   5.018
 3587SOL     OW11659   3.463   5.937   6.676
 3587SOL    HW111660   3.472   5.905   6.770
 3587SOL    HW211661   3.376   5.986   6.665
 3588SOL     OW11662   1.784   2.526   5.641
 3588SOL    HW111663   1.686   2.508   5.651
 3588SOL    HW211664   1.797   2.615   5.597
 3589SOL     OW11665   3.515   1.473   5.266
 3589SOL    HW111666   3.589   1.407   5.273
 3589SOL    HW211667   3.484   1.478   5.171
 3590SOL     OW11668   1.181   2.607   6.751
 3590SOL    HW111669   1.248   2.666   6.794
 3590SOL    HW211670   1.146   2.542   6.818
 3591SOL     OW11671   5.523   3.638   6.557
 3591SOL    HW111672   5.557   3.594   6.641
 3591SOL    HW211673   5.431   3.605   6.537
 3592SOL     OW11674   6.772   4.407   1.643
 3592SOL    HW111675   6.695   4.401   1.579
 3592SOL    HW211676   6.809   4.500   1.642
 3593SOL     OW11677   1.187   5.510   5.066
 3593SOL    HW111678   1.174   5.609   5.063
 3593SOL    HW211679   1.106   5.466   5.027
 3594SOL     OW11680   4.585   0.771   3.337
 3594SOL    HW111681   4.541   0.685   3.361
 3594SOL    HW211682   4.650   0.756   3.262
 3595SOL     OW11683   2.829   6.059   0.210
 3595SOL    HW111684   2.790   5.968   0.198
 3595SOL    HW211685   2.803   6.116   0.131
 3596SOL     OW11686   6.768   2.669   3.484
 3596SOL    HW111687   6.843   2.720   3.443
 3596SOL    HW211688   6.756   2.697   3.579
 3597SOL     OW11689   1.616   1.563   4.255
 3597SOL    HW111690   1.578   1.513   4.333
 3597SOL    HW211691   1.677   1.503   4.203
 3598SOL     OW11692   0.712   5.386   5.629
 3598SOL    HW111693   0.693   5.296   5.590
 3598SOL    HW211694   0.724   5.452   5.556
 3599SOL     OW11695   0.017   1.690   5.757
 3599SOL    HW111696   0.021   1.669   5.659
 3599SOL    HW211697   0.102   1.734   5.785
 3600SOL     OW11698   0.888   3.646   0.712
 3600SOL    HW111699   0.932   3.699   0.640
 3600SOL    HW211700   0.930   3.556   0.718
 3601SOL     OW11701   5.126   4.713   6.226
 3601SOL    HW111702   5.135   4.771   6.307
 3601SOL    HW211703   5.037   4.728   6.183
 3602SOL     OW11704   1.814   1.997   0.923
 3602SOL    HW111705   1.764   1.934   0.864
 3602SOL    HW211706   1.750   2.038   0.989
 3603SOL     OW11707   3.179   0.426   3.496
 3603SOL    HW111708   3.158   0.371   3.415
 3603SOL    HW211709   3.124   0.510   3.495
 3604SOL     OW11710   6.991   4.758   3.063
 3604SOL    HW111711   6.996   4.846   3.111
 3604SOL    HW211712   0.061   4.726   3.042
 3605SOL     OW11713   6.274   4.037   5.362
 3605SOL    HW111714   6.345   4.102   5.391
 3605SOL    HW211715   6.317   3.960   5.315
 3606SOL     OW11716   6.859   7.009   4.796
 3606SOL    HW111717   6.874   0.080   4.825
 3606SOL    HW211718   6.779   6.972   4.844
 3607SOL     OW11719   5.481   5.832   2.139
 3607SOL    HW111720   5.394   5.823   2.187
 3607SOL    HW211721   5.476   5.782   2.052
 3608SOL     OW11722   5.669   1.970   3.653
 3608SOL    HW111723   5.766   1.993   3.659
 3608SOL    HW211724   5.620   2.011   3.729
 3609SOL     OW11725   1.047   6.895   4.042
 3609SOL    HW111726   1.079   6.800   4.050
 3609SOL    HW211727   1.124   6.954   4.017
 3610SOL     OW11728   1.481   6.702   5.462
 3610SOL    HW111729   1.570   6.739   5.437
 3610SOL    HW211730   1.479   6.681   5.560
 3611SOL     OW11731   4.541   5.953   5.735
 3611SOL    HW111732   4.463   5.977   5.678
 3611SOL    HW211733   4.510   5.913   5.821
 3612SOL     OW11734   6.385   0.033   0.032
 3612SOL    HW111735   6.383   6.956   0.035
 3612SOL    HW211736   6.404   0.063   6.962
 3613SOL     OW11737   4.448   4.875   1.720
 3613SOL    HW111738   4.425   4.778   1.727
 3613SOL    HW211739   4.542   4.890   1.752
 3614SOL     OW11740   3.790   3.211   1.515
 3614SOL    HW111741   3.814   3.225   1.611
 3614SOL    HW211742   3.714   3.270   1.491
 3615SOL     OW11743   4.920   5.604   0.040
 3615SOL    HW111744   4.988   5.573   0.105
 3615SOL    HW211745   4.952   5.687   7.016
 3616SOL     OW11746   0.736   2.532   6.572
 3616SOL    HW111747   0.763   2.617   6.618
 3616SOL    HW211748   0.721   2.549   6.474
 3617SOL     OW11749   4.131   1.763   6.806
 3617SOL    HW111750   4.163   1.758   6.712
 3617SOL    HW211751   4.031   1.772   6.807
 3618SOL     OW11752   2.358   2.493   5.229
 3618SOL    HW111753   2.351   2.393   5.217
 3618SOL    HW211754   2.287   2.537   5.174
 3619SOL     OW11755   5.230   2.643   4.572
 3619SOL    HW111756   5.185   2.611   4.489
 3619SOL    HW211757   5.250   2.566   4.632
 3620SOL     OW11758   6.006   6.160   6.271
 3620SOL    HW111759   6.054   6.124   6.191
 3620SOL    HW211760   6.048   6.123   6.354
 3621SOL     OW11761   3.336   2.784   5.180
 3621SOL    HW111762   3.329   2.854   5.251
 3621SOL    HW211763   3.331   2.693   5.222
 3622SOL     OW11764   1.964   1.767   5.611
 3622SOL    HW111765   2.029   1.836   5.582
 3622SOL    HW211766   1.926   1.721   5.530
 3623SOL     OW11767   6.312   6.220   4.133
 3623SOL    HW111768   6.399   6.240   4.088
 3623SOL    HW211769   6.241   6.205   4.065
 3624SOL     OW11770   1.481   6.353   2.052
 3624SOL    HW111771   1.443   6.283   2.112
 3624SOL    HW211772   1.536   6.310   1.981
 3625SOL     OW11773   6.269   2.836   6.981
 3625SOL    HW111774   6.218   2.832   0.044
 3625SOL    HW211775   6.205   2.841   6.904
 3626SOL     OW11776   1.549   2.408   5.754
 3626SOL    HW111777   1.495   2.367   5.680
 3626SOL    HW211778   1.573   2.336   5.820
 3627SOL     OW11779   3.609   2.841   3.238
 3627SOL    HW111780   3.608   2.758   3.294
 3627SOL    HW211781   3.519   2.885   3.242
 3628SOL     OW11782   1.747   1.102   1.427
 3628SOL    HW111783   1.820   1.053   1.378
 3628SOL    HW211784   1.788   1.167   1.491
 3629SOL     OW11785   0.075   1.261   5.610
 3629SOL    HW111786   0.053   1.327   5.682
 3629SOL    HW211787   0.113   1.178   5.652
 3630SOL     OW11788   5.535   2.690   3.887
 3630SOL    HW111789   5.634   2.690   3.900
 3630SOL    HW211790   5.511   2.624   3.816
 3631SOL     OW11791   1.664   0.706   3.580
 3631SOL    HW111792   1.608   0.785   3.605
 3631SOL    HW211793   1.627   0.623   3.622
 3632SOL     OW11794   5.241   5.684   1.537
 3632SOL    HW111795   5.331   5.680   1.579
 3632SOL    HW211796   5.250   5.703   1.439
 3633SOL     OW11797   4.122   1.494   6.109
 3633SOL    HW111798   4.191   1.510   6.038
 3633SOL    HW211799   4.050   1.435   6.073
 3634SOL     OW11800   1.164   4.490   4.673
 3634SOL    HW111801   1.151   4.391   4.674
 3634SOL    HW211802   1.188   4.520   4.765
 3635SOL     OW11803   3.661   0.200   6.517
 3635SOL    HW111804   3.702   0.231   6.603
 3635SOL    HW211805   3.632   0.105   6.526
 3636SOL     OW11806   0.678   5.582   0.624
 3636SOL    HW111807   0.758   5.640   0.604
 3636SOL    HW211808   0.641   5.607   0.713
 3637SOL     OW11809   0.081   1.475   2.012
 3637SOL    HW111810   0.137   1.434   1.941
 3637SOL    HW211811   0.077   1.413   2.091
 3638SOL     OW11812   0.416   4.310   3.828
 3638SOL    HW111813   0.470   4.337   3.908
 3638SOL    HW211814   0.370   4.223   3.847
 3639SOL     OW11815   3.115   4.403   1.098
 3639SOL    HW111816   3.146   4.311   1.074
 3639SOL    HW211817   3.160   4.469   1.038
 3640SOL     OW11818   4.047   1.078   0.832
 3640SOL    HW111819   4.103   1.015   0.778
 3640SOL    HW211820   4.102   1.158   0.857
 3641SOL     OW11821   5.547   3.673   3.107
 3641SOL    HW111822   5.547   3.576   3.132
 3641SOL    HW211823   5.497   3.685   3.021
 3642SOL     OW11824   5.530   0.818   0.009
 3642SOL    HW111825   5.584   0.902   0.000
 3642SOL    HW211826   5.468   0.827   0.086
 3643SOL     OW11827   2.909   5.721   4.827
 3643SOL    HW111828   2.829   5.766   4.788
 3643SOL    HW211829   2.879   5.650   4.890
 3644SOL     OW11830   6.888   1.254   1.333
 3644SOL    HW111831   6.890   1.158   1.361
 3644SOL    HW211832   6.802   1.295   1.362
 3645SOL     OW11833   0.551   2.508   3.356
 3645SOL    HW111834   0.613   2.587   3.348
 3645SOL    HW211835   0.549   2.458   3.270
 3646SOL     OW11836   0.760   4.167   6.387
 3646SOL    HW111837   0.678   4.210   6.427
 3646SOL    HW211838   0.763   4.071   6.414
 3647SOL     OW11839   2.357   5.320   5.832
 3647SOL    HW111840   2.438   5.345   5.885
 3647SOL    HW211841   2.320   5.402   5.788
 3648SOL     OW11842   3.848   4.956   2.000
 3648SOL    HW111843   3.774   4.889   2.008
 3648SOL    HW211844   3.812   5.048   2.014
 3649SOL     OW11845   5.343   2.903   1.885
 3649SOL    HW111846   5.292   2.989   1.888
 3649SOL    HW211847   5.288   2.831   1.928
 3650SOL     OW11848   6.855   5.830   1.551
 3650SOL    HW111849   6.838   5.765   1.477
 3650SOL    HW211850   6.771   5.845   1.603
 3651SOL     OW11851   0.570   6.374   5.143
 3651SOL    HW111852   0.497   6.419   5.092
 3651SOL    HW211853   0.587   6.283   5.104
 3652SOL     OW11854   5.536   6.500   3.611
 3652SOL    HW111855   5.441   6.496   3.641
 3652SOL    HW211856   5.542   6.465   3.517
 3653SOL     OW11857   0.853   1.492   3.729
 3653SOL    HW111858   0.850   1.393   3.745
 3653SOL    HW211859   0.813   1.540   3.806
 3654SOL     OW11860   3.225   3.900   0.944
 3654SOL    HW111861   3.160   3.901   0.868
 3654SOL    HW211862   3.190   3.842   1.017
 3655SOL     OW11863   2.064   5.671   4.420
 3655SOL    HW111864   2.133   5.602   4.398
 3655SOL    HW211865   2.098   5.729   4.494
 3656SOL     OW11866   0.441   4.329   1.437
 3656SOL    HW111867   0.407   4.245   1.479
 3656SOL    HW211868   0.377   4.404   1.454
 3657SOL     OW11869   5.195   5.635   5.357
 3657SOL    HW111870   5.234   5.570   5.291
 3657SOL    HW211871   5.170   5.587   5.440
 3658SOL     OW11872   1.946   4.780   5.945
 3658SOL    HW111873   1.959   4.864   5.997
 3658SOL    HW211874   1.960   4.798   5.848
 3659SOL     OW11875   2.151   3.733   5.731
 3659SOL    HW111876   2.125   3.658   5.669
 3659SOL    HW211877   2.100   3.725   5.817
 3660SOL     OW11878   5.833   6.625   4.119
 3660SOL    HW111879   5.747   6.589   4.155
 3660SOL    HW211880   5.815   6.684   4.040
 3661SOL     OW11881   5.470   0.685   5.211
 3661SOL    HW111882   5.496   0.655   5.303
 3661SOL    HW211883   5.470   0.785   5.208
 3662SOL     OW11884   3.189   0.759   4.241
 3662SOL    HW111885   3.144   0.766   4.330
 3662SOL    HW211886   3.215   0.664   4.223
 3663SOL     OW11887   2.192   1.442   6.875
 3663SOL    HW111888   2.269   1.417   6.817
 3663SOL    HW211889   2.200   1.395   6.963
 3664SOL     OW11890   4.595   2.713   1.483
 3664SOL    HW111891   4.531   2.635   1.483
 3664SOL    HW211892   4.544   2.798   1.496
 3665SOL     OW11893   1.275   6.647   4.864
 3665SOL    HW111894   1.330   6.601   4.794
 3665SOL    HW211895   1.312   6.626   4.954
 3666SOL     OW11896   1.054   3.600   3.130
 3666SOL    HW111897   0.990   3.536   3.088
 3666SOL    HW211898   1.116   3.550   3.191
 3667SOL     OW11899   0.979   1.143   2.869
 3667SOL    HW111900   0.893   1.098   2.846
 3667SOL    HW211901   0.988   1.149   2.969
 3668SOL     OW11902   1.639   0.664   1.247
 3668SOL    HW111903   1.736   0.690   1.255
 3668SOL    HW211904   1.627   0.569   1.275
 3669SOL     OW11905   4.888   1.278   3.665
 3669SOL    HW111906   4.937   1.259   3.580
 3669SOL    HW211907   4.792   1.300   3.644
 3670SOL     OW11908   2.093   5.112   0.146
 3670SOL    HW111909   2.149   5.062   0.212
 3670SOL    HW211910   2.036   5.179   0.194
 3671SOL     OW11911   6.653   1.897   4.317
 3671SOL    HW111912   6.675   1.857   4.228
 3671SOL    HW211913   6.560   1.935   4.315
 3672SOL     OW11914   5.200   1.719   1.233
 3672SOL    HW111915   5.148   1.801   1.257
 3672SOL    HW211916   5.150   1.665   1.165
 3673SOL     OW11917   3.903   6.319   6.555
 3673SOL    HW111918   3.951   6.250   6.500
 3673SOL    HW211919   3.804   6.309   6.543
 3674SOL     OW11920   1.357   5.274   5.846
 3674SOL    HW111921   1.420   5.256   5.922
 3674SOL    HW211922   1.390   5.225   5.764
 3675SOL     OW11923   2.164   3.255   4.000
 3675SOL    HW111924   2.132   3.304   3.918
 3675SOL    HW211925   2.222   3.178   3.972
 3676SOL     OW11926   5.311   4.631   2.825
 3676SOL    HW111927   5.248   4.687   2.772
 3676SOL    HW211928   5.299   4.649   2.922
 3677SOL     OW11929   2.287   6.471   3.591
 3677SOL    HW111930   2.356   6.541   3.606
 3677SOL    HW211931   2.324   6.382   3.620
 3678SOL     OW11932   0.267   1.804   4.492
 3678SOL    HW111933   0.329   1.757   4.429
 3678SOL    HW211934   0.270   1.902   4.474
 3679SOL     OW11935   0.996   0.917   3.493
 3679SOL    HW111936   0.942   0.977   3.434
 3679SOL    HW211937   0.937   0.846   3.532
 3680SOL     OW11938   5.020   3.327   3.948
 3680SOL    HW111939   4.959   3.351   4.024
 3680SOL    HW211940   5.114   3.326   3.981
 3681SOL     OW11941   0.635   0.880   6.415
 3681SOL    HW111942   0.695   0.801   6.403
 3681SOL    HW211943   0.670   0.938   6.488
 3682SOL     OW11944   5.402   2.094   6.996
 3682SOL    HW111945   5.384   2.129   6.904
 3682SOL    HW211946   5.494   2.122   0.002
 3683SOL     OW11947   0.027   1.072   3.139
 3683SOL    HW111948   6.950   1.084   3.137
 3683SOL    HW211949   0.052   1.015   3.217
 3684SOL     OW11950   1.752   4.671   0.528
 3684SOL    HW111951   1.819   4.601   0.553
 3684SOL    HW211952   1.796   4.761   0.530
 3685SOL     OW11953   1.114   6.089   7.002
 3685SOL    HW111954   1.150   6.170   6.955
 3685SOL    HW211955   1.129   6.009   6.944
 3686SOL     OW11956   4.842   5.811   4.174
 3686SOL    HW111957   4.848   5.901   4.132
 3686SOL    HW211958   4.840   5.741   4.103
 3687SOL     OW11959   3.307   6.110   5.167
 3687SOL    HW111960   3.284   6.035   5.106
 3687SOL    HW211961   3.388   6.158   5.132
 3688SOL     OW11962   0.478   4.287   6.533
 3688SOL    HW111963   0.434   4.284   6.443
 3688SOL    HW211964   0.409   4.304   6.603
 3689SOL     OW11965   2.129   6.901   5.617
 3689SOL    HW111966   2.032   6.916   5.596
 3689SOL    HW211967   2.176   6.989   5.621
 3690SOL     OW11968   4.514   6.112   0.681
 3690SOL    HW111969   4.500   6.210   0.695
 3690SOL    HW211970   4.563   6.097   0.596
 3691SOL     OW11971   2.306   1.916   6.696
 3691SOL    HW111972   2.400   1.949   6.710
 3691SOL    HW211973   2.300   1.821   6.726
 3692SOL     OW11974   6.547   5.913   4.946
 3692SOL    HW111975   6.563   5.865   5.033
 3692SOL    HW211976   6.499   5.852   4.883
 3693SOL     OW11977   2.097   3.583   3.145
 3693SOL    HW111978   2.058   3.672   3.121
 3693SOL    HW211979   2.068   3.515   3.077
 3694SOL     OW11980   1.726   6.575   2.988
 3694SOL    HW111981   1.681   6.570   3.077
 3694SOL    HW211982   1.745   6.483   2.955
 3695SOL     OW11983   6.417   2.933   1.720
 3695SOL    HW111984   6.424   2.959   1.624
 3695SOL    HW211985   6.508   2.930   1.761
 3696SOL     OW11986   3.504   6.475   4.550
 3696SOL    HW111987   3.572   6.459   4.622
 3696SOL    HW211988   3.495   6.392   4.495
 3697SOL     OW11989   0.217   6.443   2.538
 3697SOL    HW111990   0.313   6.466   2.524
 3697SOL    HW211991   0.193   6.457   2.634
 3698SOL     OW11992   2.949   0.830   4.648
 3698SOL    HW111993   2.916   0.867   4.735
 3698SOL    HW211994   2.982   0.905   4.591
 3699SOL     OW11995   1.015   2.161   3.970
 3699SOL    HW111996   1.014   2.189   4.066
 3699SOL    HW211997   0.966   2.228   3.915
 3700SOL     OW11998   0.616   5.671   4.601
 3700SOL    HW111999   0.622   5.760   4.557
 3700SOL    HW212000   0.552   5.675   4.678
 3701SOL     OW12001   1.321   1.073   4.237
 3701SOL    HW112002   1.263   0.994   4.218
 3701SOL    HW212003   1.395   1.077   4.170
 3702SOL     OW12004   5.773   6.354   3.143
 3702SOL    HW112005   5.730   6.398   3.064
 3702SOL    HW212006   5.764   6.254   3.134
 3703SOL     OW12007   5.424   0.897   5.587
 3703SOL    HW112008   5.509   0.921   5.540
 3703SOL    HW212009   5.440   0.820   5.649
 3704SOL     OW12010   3.568   1.525   1.022
 3704SOL    HW112011   3.548   1.563   0.932
 3704SOL    HW212012   3.635   1.583   1.069
 3705SOL     OW12013   4.341   4.595   4.045
 3705SOL    HW112014   4.251   4.638   4.034
 3705SOL    HW212015   4.379   4.620   4.134
 3706SOL     OW12016   1.644   3.628   0.302
 3706SOL    HW112017   1.646   3.562   0.377
 3706SOL    HW212018   1.708   3.601   0.231
 3707SOL     OW12019   5.336   4.406   3.798
 3707SOL    HW112020   5.427   4.383   3.764
 3707SOL    HW212021   5.342   4.436   3.893
 3708SOL     OW12022   0.035   0.296   6.751
 3708SOL    HW112023   0.075   0.231   6.687
 3708SOL    HW212024   6.974   0.258   6.790
 3709SOL     OW12025   3.741   0.432   0.982
 3709SOL    HW112026   3.713   0.356   1.041
 3709SOL    HW212027   3.684   0.512   1.003
 3710SOL     OW12028   6.001   5.582   5.161
 3710SOL    HW112029   5.933   5.509   5.155
 3710SOL    HW212030   6.019   5.618   5.069
 3711SOL     OW12031   0.708   6.773   4.045
 3711SOL    HW112032   0.781   6.828   4.006
 3711SOL    HW212033   0.636   6.833   4.080
 3712SOL     OW12034   0.123   4.918   6.418
 3712SOL    HW112035   0.176   4.839   6.388
 3712SOL    HW212036   0.065   4.950   6.343
 3713SOL     OW12037   0.703   6.605   5.895
 3713SOL    HW112038   0.682   6.587   5.992
 3713SOL    HW212039   0.778   6.546   5.866
 3714SOL     OW12040   5.601   6.197   6.094
 3714SOL    HW112041   5.677   6.138   6.122
 3714SOL    HW212042   5.528   6.140   6.056
 3715SOL     OW12043   0.658   3.939   2.501
 3715SOL    HW112044   0.661   4.014   2.435
 3715SOL    HW212045   0.603   3.864   2.464
 3716SOL     OW12046   6.438   7.015   4.444
 3716SOL    HW112047   6.405   6.925   4.471
 3716SOL    HW212048   6.535   0.000   4.466
 3717SOL     OW12049   6.696   6.817   6.920
 3717SOL    HW112050   6.613   6.807   6.975
 3717SOL    HW212051   6.734   6.908   6.934
 3718SOL     OW12052   0.945   0.678   6.778
 3718SOL    HW112053   0.932   0.589   6.735
 3718SOL    HW212054   0.971   0.745   6.709
 3719SOL     OW12055   5.273   3.803   1.891
 3719SOL    HW112056   5.261   3.902   1.891
 3719SOL    HW212057   5.360   3.780   1.935
 3720SOL     OW12058   6.459   2.754   6.507
 3720SOL    HW112059   6.550   2.788   6.534
 3720SOL    HW212060   6.417   2.707   6.585
 3721SOL     OW12061   6.292   4.422   1.672
 3721SOL    HW112062   6.374   4.388   1.718
 3721SOL    HW212063   6.286   4.521   1.682
 3722SOL     OW12064   6.228   6.197   0.746
 3722SOL    HW112065   6.318   6.227   0.714
 3722SOL    HW212066   6.192   6.263   0.811
 3723SOL     OW12067   6.001   5.711   1.282
 3723SOL    HW112068   6.034   5.620   1.256
 3723SOL    HW212069   6.002   5.719   1.381
 3724SOL     OW12070   1.985   4.247   4.911
 3724SOL    HW112071   1.956   4.197   4.992
 3724SOL    HW212072   1.906   4.290   4.868
 3725SOL     OW12073   6.863   5.629   0.449
 3725SOL    HW112074   6.786   5.616   0.386
 3725SOL    HW212075   6.945   5.652   0.397
 3726SOL     OW12076   5.888   3.241   0.508
 3726SOL    HW112077   5.912   3.236   0.411
 3726SOL    HW212078   5.893   3.149   0.548
 3727SOL     OW12079   6.626   1.053   5.064
 3727SOL    HW112080   6.621   1.102   4.977
 3727SOL    HW212081   6.537   1.011   5.084
 3728SOL     OW12082   1.701   3.804   7.007
 3728SOL    HW112083   1.744   3.726   0.029
 3728SOL    HW212084   1.755   3.831   6.927
 3729SOL     OW12085   1.379   2.358   3.660
 3729SOL    HW112086   1.322   2.440   3.674
 3729SOL    HW212087   1.331   2.294   3.601
 3730SOL     OW12088   2.221   5.584   5.799
 3730SOL    HW112089   2.276   5.654   5.753
 3730SOL    HW212090   2.161   5.627   5.866
 3731SOL     OW12091   0.301   1.482   0.489
 3731SOL    HW112092   0.305   1.395   0.539
 3731SOL    HW212093   0.327   1.467   0.394
 3732SOL     OW12094   3.076   1.619   0.381
 3732SOL    HW112095   3.008   1.691   0.384
 3732SOL    HW212096   3.157   1.651   0.331
 3733SOL     OW12097   1.532   3.457   2.970
 3733SOL    HW112098   1.524   3.506   3.056
 3733SOL    HW212099   1.452   3.398   2.957
 3734SOL     OW12100   4.879   0.317   1.390
 3734SOL    HW112101   4.886   0.405   1.436
 3734SOL    HW212102   4.963   0.264   1.404
 3735SOL     OW12103   2.175   1.331   3.229
 3735SOL    HW112104   2.118   1.260   3.188
 3735SOL    HW212105   2.182   1.408   3.166
 3736SOL     OW12106   6.903   2.063   0.753
 3736SOL    HW112107   6.870   2.156   0.771
 3736SOL    HW212108   6.966   2.065   0.676
 3737SOL     OW12109   5.546   1.543   3.721
 3737SOL    HW112110   5.473   1.545   3.789
 3737SOL    HW212111   5.618   1.608   3.748
 3738SOL     OW12112   0.429   0.222   2.680
 3738SOL    HW112113   0.489   0.160   2.731
 3738SOL    HW212114   0.378   0.278   2.745
 3739SOL     OW12115   2.362   5.028   0.969
 3739SOL    HW112116   2.409   5.062   1.050
 3739SOL    HW212117   2.320   4.940   0.990
 3740SOL     OW12118   6.011   1.428   1.080
 3740SOL    HW112119   6.060   1.505   1.122
 3740SOL    HW212120   6.060   1.398   0.998
 3741SOL     OW12121   5.376   2.947   6.964
 3741SOL    HW112122   5.359   2.849   6.971
 3741SOL    HW212123   5.291   2.995   6.944
 3742SOL     OW12124   2.208   2.085   6.927
 3742SOL    HW112125   2.274   2.023   6.884
 3742SOL    HW212126   2.234   2.180   6.910
 3743SOL     OW12127   5.892   3.937   0.458
 3743SOL    HW112128   5.979   3.965   0.418
 3743SOL    HW212129   5.877   3.987   0.543
 3744SOL     OW12130   1.701   5.958   1.903
 3744SOL    HW112131   1.603   5.970   1.923
 3744SOL    HW212132   1.746   6.047   1.901
 3745SOL     OW12133   4.269   5.034   1.782
 3745SOL    HW112134   4.255   5.077   1.693
 3745SOL    HW212135   4.329   4.954   1.772
 3746SOL     OW12136   5.651   0.561   3.435
 3746SOL    HW112137   5.678   0.610   3.518
 3746SOL    HW212138   5.669   0.464   3.446
 3747SOL     OW12139   2.301   6.457   5.234
 3747SOL    HW112140   2.214   6.408   5.228
 3747SOL    HW212141   2.366   6.403   5.289
 3748SOL     OW12142   5.676   1.388   1.671
 3748SOL    HW112143   5.594   1.398   1.727
 3748SOL    HW212144   5.653   1.344   1.584
 3749SOL     OW12145   1.816   5.501   4.026
 3749SOL    HW112146   1.899   5.550   4.053
 3749SOL    HW212147   1.826   5.467   3.933
 3750SOL     OW12148   0.219   4.973   1.094
 3750SOL    HW112149   0.144   5.022   1.049
 3750SOL    HW212150   0.182   4.894   1.143
 3751SOL     OW12151   6.433   3.507   1.448
 3751SOL    HW112152   6.527   3.489   1.419
 3751SOL    HW212153   6.407   3.599   1.418
 3752SOL     OW12154   5.850   0.064   1.130
 3752SOL    HW112155   5.865   0.111   1.043
 3752SOL    HW212156   5.755   0.074   1.158
 3753SOL     OW12157   6.482   0.250   3.952
 3753SOL    HW112158   6.382   0.256   3.952
 3753SOL    HW212159   6.511   0.176   3.892
 3754SOL     OW12160   3.530   0.756   1.026
 3754SOL    HW112161   3.528   0.784   1.122
 3754SOL    HW212162   3.492   0.664   1.017
 3755SOL     OW12163   4.761   5.345   4.102
 3755SOL    HW112164   4.676   5.293   4.094
 3755SOL    HW212165   4.802   5.330   4.192
 3756SOL     OW12166   3.206   5.412   7.014
 3756SOL    HW112167   3.160   5.492   0.029
 3756SOL    HW212168   3.143   5.334   7.015
 3757SOL     OW12169   4.731   6.311   6.928
 3757SOL    HW112170   4.728   6.362   6.842
 3757SOL    HW212171   4.695   6.219   6.913
 3758SOL     OW12172   2.211   1.076   4.771
 3758SOL    HW112173   2.179   1.160   4.816
 3758SOL    HW212174   2.307   1.061   4.793
 3759SOL     OW12175   4.799   6.534   6.367
 3759SOL    HW112176   4.816   6.438   6.389
 3759SOL    HW212177   4.799   6.588   6.451
 3760SOL     OW12178   2.254   1.405   4.611
 3760SOL    HW112179   2.328   1.373   4.552
 3760SOL    HW212180   2.285   1.483   4.665
 3761SOL     OW12181   1.287   0.968   4.829
 3761SOL    HW112182   1.231   0.990   4.749
 3761SOL    HW212183   1.379   1.005   4.816
 3762SOL     OW12184   1.478   4.426   1.112
 3762SOL    HW112185   1.402   4.488   1.093
 3762SOL    HW212186   1.533   4.414   1.030
 3763SOL     OW12187   6.888   4.299   0.875
 3763SOL    HW112188   6.824   4.271   0.803
 3763SOL    HW212189   6.981   4.303   0.838
 3764SOL     OW12190   1.702   0.320   2.723
 3764SOL    HW112191   1.647   0.296   2.643
 3764SOL    HW212192   1.797   0.336   2.695
 3765SOL     OW12193   5.049   1.513   1.037
 3765SOL    HW112194   4.956   1.481   1.053
 3765SOL    HW212195   5.114   1.445   1.069
 3766SOL     OW12196   1.774   1.365   4.181
 3766SOL    HW112197   1.868   1.348   4.151
 3766SOL    HW212198   1.743   1.289   4.238
 3767SOL     OW12199   2.164   4.793   6.907
 3767SOL    HW112200   2.243   4.842   6.944
 3767SOL    HW212201   2.080   4.837   6.939
 3768SOL     OW12202   1.334   6.468   3.863
 3768SOL    HW112203   1.291   6.555   3.842
 3768SOL    HW212204   1.352   6.462   3.961
 3769SOL     OW12205   6.290   6.576   4.743
 3769SOL    HW112206   6.277   6.499   4.681
 3769SOL    HW212207   6.281   6.544   4.838
 3770SOL     OW12208   1.364   0.971   6.302
 3770SOL    HW112209   1.423   1.023   6.241
 3770SOL    HW212210   1.408   0.885   6.328
 3771SOL     OW12211   5.142   2.845   0.188
 3771SOL    HW112212   5.203   2.900   0.246
 3771SOL    HW212213   5.191   2.765   0.155
 3772SOL     OW12214   0.208   1.840   6.732
 3772SOL    HW112215   0.170   1.755   6.697
 3772SOL    HW212216   0.262   1.822   6.814
 3773SOL     OW12217   5.781   2.947   6.214
 3773SOL    HW112218   5.876   2.952   6.185
 3773SOL    HW212219   5.777   2.945   6.314
 3774SOL     OW12220   6.596   6.031   0.657
 3774SOL    HW112221   6.529   5.965   0.690
 3774SOL    HW212222   6.603   6.107   0.722
 3775SOL     OW12223   4.242   5.134   2.375
 3775SOL    HW112224   4.300   5.056   2.397
 3775SOL    HW212225   4.154   5.124   2.423
 3776SOL     OW12226   4.391   1.952   6.956
 3776SOL    HW112227   4.366   1.856   6.971
 3776SOL    HW212228   4.324   1.994   6.895
 3777SOL     OW12229   3.335   6.317   3.869
 3777SOL    HW112230   3.435   6.317   3.873
 3777SOL    HW212231   3.305   6.280   3.782
 3778SOL     OW12232   3.493   4.925   2.743
 3778SOL    HW112233   3.399   4.892   2.746
 3778SOL    HW212234   3.519   4.961   2.833
 3779SOL     OW12235   1.549   4.412   0.242
 3779SOL    HW112236   1.502   4.356   0.311
 3779SOL    HW212237   1.612   4.475   0.288
 3780SOL     OW12238   6.077   4.957   5.041
 3780SOL    HW112239   6.133   4.937   4.961
 3780SOL    HW212240   6.081   5.055   5.061
 3781SOL     OW12241   0.482   6.189   4.325
 3781SOL    HW112242   0.527   6.144   4.401
 3781SOL    HW212243   0.545   6.254   4.282
 3782SOL     OW12244   2.124   0.305   3.310
 3782SOL    HW112245   2.196   0.270   3.369
 3782SOL    HW212246   2.055   0.352   3.366
 3783SOL     OW12247   5.878   5.463   3.256
 3783SOL    HW112248   5.920   5.388   3.306
 3783SOL    HW212249   5.825   5.427   3.179
 3784SOL     OW12250   4.691   2.709   3.461
 3784SOL    HW112251   4.659   2.786   3.517
 3784SOL    HW212252   4.790   2.718   3.447
 3785SOL     OW12253   1.692   3.175   6.103
 3785SOL    HW112254   1.613   3.174   6.042
 3785SOL    HW212255   1.696   3.089   6.154
 3786SOL     OW12256   2.024   5.462   3.591
 3786SOL    HW112257   1.988   5.426   3.505
 3786SOL    HW212258   1.988   5.409   3.667
 3787SOL     OW12259   5.650   1.552   2.489
 3787SOL    HW112260   5.741   1.540   2.530
 3787SOL    HW212261   5.634   1.650   2.473
 3788SOL     OW12262   0.043   5.224   4.517
 3788SOL    HW112263   6.988   5.279   4.548
 3788SOL    HW212264   0.099   5.278   4.454
 3789SOL     OW12265   6.822   2.775   4.739
 3789SOL    HW112266   6.832   2.852   4.802
 3789SOL    HW212267   6.733   2.781   4.694
 3790SOL     OW12268   1.220   4.182   5.622
 3790SOL    HW112269   1.169   4.241   5.684
 3790SOL    HW212270   1.224   4.224   5.531
 3791SOL     OW12271   5.377   1.368   6.544
 3791SOL    HW112272   5.318   1.405   6.615
 3791SOL    HW212273   5.327   1.300   6.491
 3792SOL     OW12274   0.885   2.717   4.409
 3792SOL    HW112275   0.856   2.800   4.456
 3792SOL    HW212276   0.910   2.739   4.315
 3793SOL     OW12277   5.324   6.230   1.952
 3793SOL    HW112278   5.315   6.149   2.011
 3793SOL    HW212279   5.237   6.278   1.948
 3794SOL     OW12280   2.330   3.050   1.017
 3794SOL    HW112281   2.342   3.039   1.116
 3794SOL    HW212282   2.265   3.123   0.999
 3795SOL     OW12283   4.251   6.362   0.508
 3795SOL    HW112284   4.192   6.427   0.556
 3795SOL    HW212285   4.195   6.307   0.445
 3796SOL     OW12286   3.355   1.979   2.193
 3796SOL    HW112287   3.431   2.026   2.236
 3796SOL    HW212288   3.279   1.971   2.259
 3797SOL     OW12289   0.169   3.075   1.393
 3797SOL    HW112290   0.269   3.088   1.392
 3797SOL    HW212291   0.145   3.013   1.467
 3798SOL     OW12292   2.693   5.460   3.457
 3798SOL    HW112293   2.701   5.423   3.364
 3798SOL    HW212294   2.598   5.457   3.486
 3799SOL     OW12295   6.853   2.673   4.023
 3799SOL    HW112296   6.755   2.652   4.016
 3799SOL    HW212297   6.900   2.598   4.069
 3800SOL     OW12298   5.895   3.597   3.748
 3800SOL    HW112299   5.894   3.697   3.754
 3800SOL    HW212300   5.804   3.565   3.721
 3801SOL     OW12301   6.068   0.093   2.346
 3801SOL    HW112302   6.105   0.089   2.438
 3801SOL    HW212303   6.128   0.042   2.283
 3802SOL     OW12304   1.290   2.372   2.080
 3802SOL    HW112305   1.194   2.401   2.074
 3802SOL    HW212306   1.346   2.432   2.023
 3803SOL     OW12307   3.523   2.787   2.012
 3803SOL    HW112308   3.593   2.813   2.079
 3803SOL    HW212309   3.475   2.705   2.044
 3804SOL     OW12310   4.684   1.654   3.859
 3804SOL    HW112311   4.591   1.621   3.870
 3804SOL    HW212312   4.710   1.650   3.762
 3805SOL     OW12313   2.588   2.497   1.742
 3805SOL    HW112314   2.586   2.439   1.824
 3805SOL    HW212315   2.683   2.514   1.716
 3806SOL     OW12316   3.228   3.428   6.434
 3806SOL    HW112317   3.230   3.401   6.338
 3806SOL    HW212318   3.321   3.426   6.471
 3807SOL     OW12319   0.947   6.237   2.999
 3807SOL    HW112320   0.876   6.200   2.939
 3807SOL    HW212321   1.028   6.178   2.996
 3808SOL     OW12322   4.692   1.239   1.181
 3808SOL    HW112323   4.726   1.212   1.091
 3808SOL    HW212324   4.744   1.318   1.214
 3809SOL     OW12325   5.396   2.999   1.632
 3809SOL    HW112326   5.491   3.029   1.641
 3809SOL    HW212327   5.372   2.939   1.708
 3810SOL     OW12328   4.319   2.443   3.615
 3810SOL    HW112329   4.382   2.450   3.538
 3810SOL    HW212330   4.310   2.533   3.658
 3811SOL     OW12331   1.303   4.881   4.492
 3811SOL    HW112332   1.266   4.891   4.584
 3811SOL    HW212333   1.255   4.807   4.444
 3812SOL     OW12334   5.498   5.627   5.064
 3812SOL    HW112335   5.516   5.591   4.972
 3812SOL    HW212336   5.462   5.720   5.058
 3813SOL     OW12337   4.647   3.514   0.788
 3813SOL    HW112338   4.634   3.613   0.794
 3813SOL    HW212339   4.677   3.491   0.695
 3814SOL     OW12340   0.405   0.009   6.417
 3814SOL    HW112341   0.498   6.996   6.424
 3814SOL    HW212342   0.355   6.980   6.347
 3815SOL     OW12343   4.349   2.574   0.659
 3815SOL    HW112344   4.251   2.573   0.643
 3815SOL    HW212345   4.392   2.498   0.611
 3816SOL     OW12346   1.264   5.534   0.266
 3816SOL    HW112347   1.221   5.450   0.232
 3816SOL    HW212348   1.364   5.526   0.257
 3817SOL     OW12349   4.963   3.762   2.819
 3817SOL    HW112350   4.976   3.762   2.720
 3817SOL    HW212351   5.024   3.830   2.861
 3818SOL     OW12352   6.429   0.754   6.638
 3818SOL    HW112353   6.359   0.821   6.611
 3818SOL    HW212354   6.397   0.662   6.615
 3819SOL     OW12355   5.044   5.284   2.222
 3819SOL    HW112356   4.950   5.264   2.252
 3819SOL    HW212357   5.053   5.264   2.125
 3820SOL     OW12358   4.743   6.974   4.360
 3820SOL    HW112359   4.757   0.049   4.376
 3820SOL    HW212360   4.725   6.958   4.263
 3821SOL     OW12361   2.434   1.487   1.192
 3821SOL    HW112362   2.528   1.480   1.159
 3821SOL    HW212363   2.417   1.579   1.226
 3822SOL     OW12364   2.009   0.040   1.025
 3822SOL    HW112365   2.105   0.033   1.054
 3822SOL    HW212366   1.971   0.126   1.058
 3823SOL     OW12367   3.552   3.243   5.930
 3823SOL    HW112368   3.608   3.220   5.850
 3823SOL    HW212369   3.553   3.167   5.995
 3824SOL     OW12370   6.738   2.222   0.506
 3824SOL    HW112371   6.679   2.172   0.570
 3824SOL    HW212372   6.752   2.315   0.540
 3825SOL     OW12373   0.757   5.943   0.628
 3825SOL    HW112374   0.775   5.939   0.530
 3825SOL    HW212375   0.668   5.900   0.647
 3826SOL     OW12376   1.009   2.797   6.411
 3826SOL    HW112377   1.099   2.768   6.377
 3826SOL    HW212378   0.945   2.802   6.335
 3827SOL     OW12379   1.238   1.655   1.666
 3827SOL    HW112380   1.246   1.627   1.571
 3827SOL    HW212381   1.328   1.685   1.700
 3828SOL     OW12382   3.625   3.068   2.432
 3828SOL    HW112383   3.574   3.137   2.483
 3828SOL    HW212384   3.698   3.031   2.490
 3829SOL     OW12385   1.925   4.713   3.231
 3829SOL    HW112386   1.865   4.760   3.295
 3829SOL    HW212387   1.871   4.648   3.176
 3830SOL     OW12388   0.803   1.256   4.610
 3830SOL    HW112389   0.745   1.181   4.578
 3830SOL    HW212390   0.762   1.297   4.691
 3831SOL     OW12391   4.620   2.516   2.200
 3831SOL    HW112392   4.628   2.610   2.169
 3831SOL    HW212393   4.544   2.471   2.152
 3832SOL     OW12394   5.713   0.592   2.887
 3832SOL    HW112395   5.620   0.558   2.900
 3832SOL    HW212396   5.726   0.675   2.942
 3833SOL     OW12397   0.296   6.256   6.277
 3833SOL    HW112398   0.381   6.247   6.225
 3833SOL    HW212399   0.256   6.166   6.291
 3834SOL     OW12400   4.685   4.623   1.931
 3834SOL    HW112401   4.667   4.536   1.886
 3834SOL    HW212402   4.683   4.696   1.863
 3835SOL     OW12403   3.516   5.403   4.235
 3835SOL    HW112404   3.613   5.379   4.247
 3835SOL    HW212405   3.485   5.456   4.314
 3836SOL     OW12406   1.866   4.003   6.036
 3836SOL    HW112407   1.844   3.961   5.948
 3836SOL    HW212408   1.882   4.101   6.024
 3837SOL     OW12409   4.399   5.167   6.433
 3837SOL    HW112410   4.339   5.114   6.492
 3837SOL    HW212411   4.419   5.255   6.476
 3838SOL     OW12412   0.116   4.141   4.709
 3838SOL    HW112413   0.116   4.160   4.807
 3838SOL    HW212414   0.152   4.049   4.693
 3839SOL     OW12415   4.933   0.912   3.593
 3839SOL    HW112416   4.934   0.835   3.657
 3839SOL    HW212417   5.007   0.975   3.614
 3840SOL     OW12418   2.267   0.707   6.283
 3840SOL    HW112419   2.211   0.759   6.348
 3840SOL    HW212420   2.236   0.612   6.281
 3841SOL     OW12421   0.009   2.758   4.962
 3841SOL    HW112422   0.069   2.836   4.944
 3841SOL    HW212423   6.966   2.749   4.887
 3842SOL     OW12424   1.906   3.187   6.805
 3842SOL    HW112425   1.839   3.256   6.831
 3842SOL    HW212426   1.985   3.192   6.867
 3843SOL     OW12427   6.128   4.138   2.533
 3843SOL    HW112428   6.095   4.202   2.602
 3843SOL    HW212429   6.216   4.100   2.562
 3844SOL     OW12430   0.701   2.297   6.037
 3844SOL    HW112431   0.615   2.246   6.036
 3844SOL    HW212432   0.704   2.355   6.118
 3845SOL     OW12433   3.962   3.246   4.888
 3845SOL    HW112434   3.951   3.345   4.884
 3845SOL    HW212435   3.922   3.212   4.974
 3846SOL     OW12436   0.940   5.712   3.822
 3846SOL    HW112437   0.952   5.612   3.821
 3846SOL    HW212438   1.002   5.753   3.755
 3847SOL     OW12439   6.060   0.897   4.750
 3847SOL    HW112440   6.014   0.855   4.673
 3847SOL    HW212441   6.139   0.950   4.717
 3848SOL     OW12442   3.870   5.803   2.930
 3848SOL    HW112443   3.886   5.786   2.833
 3848SOL    HW212444   3.933   5.873   2.962
 3849SOL     OW12445   1.266   1.499   5.408
 3849SOL    HW112446   1.348   1.515   5.353
 3849SOL    HW212447   1.278   1.417   5.464
 3850SOL     OW12448   2.741   3.283   0.670
 3850SOL    HW112449   2.672   3.211   0.683
 3850SOL    HW212450   2.784   3.303   0.758
 3851SOL     OW12451   1.216   4.624   2.055
 3851SOL    HW112452   1.201   4.525   2.048
 3851SOL    HW212453   1.160   4.671   1.987
 3852SOL     OW12454   3.848   6.934   3.774
 3852SOL    HW112455   3.753   6.961   3.782
 3852SOL    HW212456   3.903   7.011   3.741
 3853SOL     OW12457   1.090   3.986   3.418
 3853SOL    HW112458   1.156   4.060   3.426
 3853SOL    HW212459   1.052   3.966   3.509
 3854SOL     OW12460   1.411   3.068   2.002
 3854SOL    HW112461   1.464   3.141   1.959
 3854SOL    HW212462   1.316   3.095   2.009
 3855SOL     OW12463   5.187   6.112   6.672
 3855SOL    HW112464   5.161   6.209   6.674
 3855SOL    HW212465   5.222   6.085   6.762
 3856SOL     OW12466   7.002   6.800   5.507
 3856SOL    HW112467   6.964   6.751   5.585
 3856SOL    HW212468   0.049   6.744   5.463
 3857SOL     OW12469   0.361   5.651   6.382
 3857SOL    HW112470   0.329   5.635   6.476
 3857SOL    HW212471   0.343   5.569   6.327
 3858SOL     OW12472   1.497   6.554   5.794
 3858SOL    HW112473   1.577   6.613   5.795
 3858SOL    HW212474   1.523   6.461   5.820
 3859SOL     OW12475   6.645   2.180   3.096
 3859SOL    HW112476   6.598   2.181   3.184
 3859SOL    HW212477   6.588   2.226   3.028
 3860SOL     OW12478   2.475   0.372   5.864
 3860SOL    HW112479   2.444   0.311   5.791
 3860SOL    HW212480   2.418   0.455   5.864
 3861SOL     OW12481   4.428   4.556   3.295
 3861SOL    HW112482   4.485   4.621   3.345
 3861SOL    HW212483   4.486   4.491   3.246
 3862SOL     OW12484   1.392   0.208   4.923
 3862SOL    HW112485   1.320   0.226   4.857
 3862SOL    HW212486   1.479   0.197   4.876
 3863SOL     OW12487   4.320   2.926   6.069
 3863SOL    HW112488   4.274   3.011   6.097
 3863SOL    HW212489   4.411   2.948   6.033
 3864SOL     OW12490   2.309   0.621   5.835
 3864SOL    HW112491   2.271   0.637   5.744
 3864SOL    HW212492   2.368   0.698   5.861
 3865SOL     OW12493   3.762   6.680   7.019
 3865SOL    HW112494   3.808   6.733   6.948
 3865SOL    HW212495   3.708   6.741   0.053
 3866SOL     OW12496   3.889   0.935   1.952
 3866SOL    HW112497   3.953   0.939   2.029
 3866SOL    HW212498   3.804   0.981   1.977
 3867SOL     OW12499   1.397   4.316   4.175
 3867SOL    HW112500   1.346   4.383   4.229
 3867SOL    HW212501   1.453   4.260   4.236
 3868SOL     OW12502   3.540   0.064   0.267
 3868SOL    HW112503   3.541   0.131   0.193
 3868SOL    HW212504   3.590   0.101   0.345
 3869SOL     OW12505   6.334   3.064   5.207
 3869SOL    HW112506   6.237   3.055   5.187
 3869SOL    HW212507   6.378   3.117   5.135
 3870SOL     OW12508   4.240   5.729   0.061
 3870SOL    HW112509   4.276   5.663   7.019
 3870SOL    HW212510   4.281   5.819   0.044
 3871SOL     OW12511   4.004   0.474   2.838
 3871SOL    HW112512   4.065   0.408   2.793
 3871SOL    HW212513   4.058   0.540   2.890
 3872SOL     OW12514   3.856   3.246   2.783
 3872SOL    HW112515   3.832   3.149   2.794
 3872SOL    HW212516   3.776   3.297   2.754
 3873SOL     OW12517   6.586   3.912   1.556
 3873SOL    HW112518   6.511   3.978   1.567
 3873SOL    HW212519   6.593   3.886   1.459
 3874SOL     OW12520   3.902   6.068   6.383
 3874SOL    HW112521   3.910   6.131   6.305
 3874SOL    HW212522   3.807   6.039   6.392
 3875SOL     OW12523   1.806   2.475   1.859
 3875SOL    HW112524   1.847   2.565   1.874
 3875SOL    HW212525   1.794   2.429   1.947
 3876SOL     OW12526   5.237   5.162   0.437
 3876SOL    HW112527   5.302   5.130   0.368
 3876SOL    HW212528   5.182   5.085   0.470
 3877SOL     OW12529   0.000   2.806   0.170
 3877SOL    HW112530   6.953   2.805   0.242
 3877SOL    HW212531   6.979   2.806   0.081
 3878SOL     OW12532   2.510   6.253   4.937
 3878SOL    HW112533   2.415   6.273   4.914
 3878SOL    HW212534   2.515   6.223   5.032
 3879SOL     OW12535   5.162   6.494   1.411
 3879SOL    HW112536   5.113   6.414   1.445
 3879SOL    HW212537   5.110   6.537   1.338
 3880SOL     OW12538   6.317   5.019   3.640
 3880SOL    HW112539   6.262   5.084   3.693
 3880SOL    HW212540   6.261   4.981   3.566
 3881SOL     OW12541   1.026   4.553   0.853
 3881SOL    HW112542   1.105   4.611   0.832
 3881SOL    HW212543   0.978   4.589   0.934
 3882SOL     OW12544   0.405   1.774   4.910
 3882SOL    HW112545   0.336   1.846   4.906
 3882SOL    HW212546   0.363   1.686   4.891
 3883SOL     OW12547   4.508   1.275   3.302
 3883SOL    HW112548   4.452   1.337   3.357
 3883SOL    HW212549   4.528   1.192   3.354
 3884SOL     OW12550   1.042   5.519   3.384
 3884SOL    HW112551   1.134   5.518   3.346
 3884SOL    HW212552   0.979   5.561   3.319
 3885SOL     OW12553   6.261   0.304   2.949
 3885SOL    HW112554   6.326   0.294   2.874
 3885SOL    HW212555   6.193   0.373   2.925
 3886SOL     OW12556   6.425   5.756   4.731
 3886SOL    HW112557   6.342   5.792   4.774
 3886SOL    HW212558   6.458   5.821   4.662
 3887SOL     OW12559   6.536   0.711   5.623
 3887SOL    HW112560   6.599   0.688   5.549
 3887SOL    HW212561   6.470   0.778   5.591
 3888SOL     OW12562   0.964   0.415   6.701
 3888SOL    HW112563   0.899   0.343   6.677
 3888SOL    HW212564   1.057   0.384   6.682
 3889SOL     OW12565   6.709   2.787   6.637
 3889SOL    HW112566   6.769   2.843   6.579
 3889SOL    HW212567   6.736   2.798   6.732
 3890SOL     OW12568   5.735   5.698   2.511
 3890SOL    HW112569   5.713   5.645   2.429
 3890SOL    HW212570   5.686   5.786   2.507
 3891SOL     OW12571   5.458   4.959   4.002
 3891SOL    HW112572   5.493   5.036   3.950
 3891SOL    HW212573   5.532   4.895   4.021
 3892SOL     OW12574   0.266   2.476   1.732
 3892SOL    HW112575   0.177   2.521   1.733
 3892SOL    HW212576   0.292   2.450   1.825
 3893SOL     OW12577   3.165   5.297   1.575
 3893SOL    HW112578   3.113   5.237   1.516
 3893SOL    HW212579   3.191   5.380   1.525
 3894SOL     OW12580   2.648   1.977   1.355
 3894SOL    HW112581   2.714   1.948   1.424
 3894SOL    HW212582   2.694   2.030   1.284
 3895SOL     OW12583   1.713   0.090   5.209
 3895SOL    HW112584   1.614   0.107   5.200
 3895SOL    HW212585   1.756   0.093   5.119
 3896SOL     OW12586   0.330   1.886   6.343
 3896SOL    HW112587   0.297   1.793   6.324
 3896SOL    HW212588   0.309   1.910   6.437
 3897SOL     OW12589   3.666   6.850   2.143
 3897SOL    HW112590   3.757   6.843   2.102
 3897SOL    HW212591   3.609   6.910   2.088
 3898SOL     OW12592   3.365   3.596   3.820
 3898SOL    HW112593   3.333   3.645   3.901
 3898SOL    HW212594   3.455   3.556   3.839
 3899SOL     OW12595   4.974   0.784   4.192
 3899SOL    HW112596   4.954   0.844   4.269
 3899SOL    HW212597   4.914   0.807   4.115
 3900SOL     OW12598   5.111   2.761   3.339
 3900SOL    HW112599   5.051   2.692   3.297
 3900SOL    HW212600   5.106   2.845   3.286
 3901SOL     OW12601   3.134   6.472   5.769
 3901SOL    HW112602   3.149   6.433   5.860
 3901SOL    HW212603   3.038   6.498   5.760
 3902SOL     OW12604   6.176   3.720   1.751
 3902SOL    HW112605   6.261   3.727   1.803
 3902SOL    HW212606   6.143   3.625   1.755
 3903SOL     OW12607   4.620   4.233   6.877
 3903SOL    HW112608   4.617   4.306   6.809
 3903SOL    HW212609   4.712   4.194   6.880
 3904SOL     OW12610   2.355   6.947   5.995
 3904SOL    HW112611   2.369   6.880   5.923
 3904SOL    HW212612   2.354   6.901   6.084
 3905SOL     OW12613   5.433   6.939   6.190
 3905SOL    HW112614   5.412   6.843   6.210
 3905SOL    HW212615   5.455   6.950   6.093
 3906SOL     OW12616   1.796   5.157   5.669
 3906SOL    HW112617   1.759   5.168   5.577
 3906SOL    HW212618   1.726   5.121   5.730
 3907SOL     OW12619   6.347   0.359   3.699
 3907SOL    HW112620   6.291   0.396   3.773
 3907SOL    HW212621   6.444   0.369   3.722
 3908SOL     OW12622   1.888   1.083   6.779
 3908SOL    HW112623   1.970   1.060   6.831
 3908SOL    HW212624   1.847   1.167   6.817
 3909SOL     OW12625   0.094   4.687   6.618
 3909SOL    HW112626   0.029   4.726   6.553
 3909SOL    HW212627   0.133   4.760   6.674
 3910SOL     OW12628   3.655   3.898   2.227
 3910SOL    HW112629   3.721   3.945   2.286
 3910SOL    HW212630   3.703   3.855   2.150
 3911SOL     OW12631   5.090   1.542   0.173
 3911SOL    HW112632   5.150   1.542   0.093
 3911SOL    HW212633   5.138   1.498   0.250
 3912SOL     OW12634   3.730   1.321   6.393
 3912SOL    HW112635   3.791   1.307   6.315
 3912SOL    HW212636   3.640   1.348   6.359
 3913SOL     OW12637   2.829   6.939   6.541
 3913SOL    HW112638   2.757   6.895   6.594
 3913SOL    HW212639   2.844   0.009   6.576
 3914SOL     OW12640   5.340   0.894   1.384
 3914SOL    HW112641   5.385   0.912   1.471
 3914SOL    HW212642   5.323   0.796   1.376
 3915SOL     OW12643   4.415   6.359   0.716
 3915SOL    HW112644   4.377   6.351   0.624
 3915SOL    HW212645   4.372   6.436   0.763
 3916SOL     OW12646   2.487   6.884   2.746
 3916SOL    HW112647   2.420   6.870   2.673
 3916SOL    HW212648   2.455   6.956   2.808
 3917SOL     OW12649   1.274   4.097   1.295
 3917SOL    HW112650   1.364   4.137   1.312
 3917SOL    HW212651   1.239   4.056   1.380
 3918SOL     OW12652   4.415   6.176   1.810
 3918SOL    HW112653   4.468   6.149   1.730
 3918SOL    HW212654   4.410   6.100   1.875
 3919SOL     OW12655   3.269   0.168   6.452
 3919SOL    HW112656   3.319   0.174   6.366
 3919SOL    HW212657   3.171   0.174   6.434
 3920SOL     OW12658   3.033   1.800   6.548
 3920SOL    HW112659   3.011   1.740   6.471
 3920SOL    HW212660   3.129   1.827   6.543
 3921SOL     OW12661   6.809   2.480   0.162
 3921SOL    HW112662   6.904   2.498   0.138
 3921SOL    HW212663   6.751   2.495   0.081
 3922SOL     OW12664   4.293   5.486   0.890
 3922SOL    HW112665   4.204   5.458   0.925
 3922SOL    HW212666   4.355   5.504   0.966
 3923SOL     OW12667   6.170   2.072   0.085
 3923SOL    HW112668   6.223   2.095   0.003
 3923SOL    HW212669   6.139   1.978   0.080
 3924SOL     OW12670   0.550   4.854   2.763
 3924SOL    HW112671   0.496   4.905   2.829
 3924SOL    HW212672   0.489   4.819   2.691
 3925SOL     OW12673   3.902   4.421   0.972
 3925SOL    HW112674   3.953   4.336   0.984
 3925SOL    HW212675   3.805   4.401   0.957
 3926SOL     OW12676   0.145   6.964   4.723
 3926SOL    HW112677   0.067   0.001   4.705
 3926SOL    HW212678   0.227   7.019   4.737
 3927SOL     OW12679   0.049   2.236   4.507
 3927SOL    HW112680   0.050   2.262   4.410
 3927SOL    HW212681   0.054   2.318   4.564
 3928SOL     OW12682   3.589   5.643   3.954
 3928SOL    HW112683   3.688   5.654   3.967
 3928SOL    HW212684   3.572   5.560   3.900
 3929SOL     OW12685   6.994   1.696   6.399
 3929SOL    HW112686   7.010   1.707   6.497
 3929SOL    HW212687   6.991   1.599   6.376
 3930SOL     OW12688   1.170   1.837   3.598
 3930SOL    HW112689   1.239   1.766   3.615
 3930SOL    HW212690   1.087   1.816   3.649
 3931SOL     OW12691   1.476   1.691   1.794
 3931SOL    HW112692   1.525   1.777   1.804
 3931SOL    HW212693   1.541   1.616   1.785
 3932SOL     OW12694   1.803   4.749   3.527
 3932SOL    HW112695   1.714   4.794   3.516
 3932SOL    HW212696   1.854   4.793   3.600
 3933SOL     OW12697   1.626   6.844   0.257
 3933SOL    HW112698   1.619   6.917   0.189
 3933SOL    HW212699   1.670   6.878   0.339
 3934SOL     OW12700   0.126   1.019   2.489
 3934SOL    HW112701   0.186   1.085   2.443
 3934SOL    HW212702   0.088   1.061   2.571
 3935SOL     OW12703   1.427   1.052   5.582
 3935SOL    HW112704   1.444   1.016   5.673
 3935SOL    HW212705   1.435   1.152   5.583
 3936SOL     OW12706   6.750   6.140   5.022
 3936SOL    HW112707   6.690   6.067   5.054
 3936SOL    HW212708   6.699   6.226   5.018
 3937SOL     OW12709   6.531   6.402   1.860
 3937SOL    HW112710   6.549   6.476   1.924
 3937SOL    HW212711   6.594   6.326   1.876
 3938SOL     OW12712   6.128   3.725   4.315
 3938SOL    HW112713   6.168   3.773   4.237
 3938SOL    HW212714   6.113   3.629   4.291
 3939SOL     OW12715   2.373   1.760   3.042
 3939SOL    HW112716   2.455   1.702   3.035
 3939SOL    HW212717   2.292   1.706   3.018
 3940SOL     OW12718   3.010   4.823   1.839
 3940SOL    HW112719   3.104   4.795   1.857
 3940SOL    HW212720   2.948   4.765   1.892
 3941SOL     OW12721   5.884   0.563   4.698
 3941SOL    HW112722   5.815   0.532   4.764
 3941SOL    HW212723   5.880   0.507   4.616
 3942SOL     OW12724   0.979   6.091   5.620
 3942SOL    HW112725   0.947   6.185   5.609
 3942SOL    HW212726   0.981   6.046   5.530
 3943SOL     OW12727   0.616   3.603   2.866
 3943SOL    HW112728   0.590   3.613   2.962
 3943SOL    HW212729   0.646   3.692   2.831
 3944SOL     OW12730   5.938   3.758   6.392
 3944SOL    HW112731   5.985   3.830   6.341
 3944SOL    HW212732   5.842   3.758   6.367
 3945SOL     OW12733   0.955   2.425   3.063
 3945SOL    HW112734   0.936   2.459   2.971
 3945SOL    HW212735   1.054   2.417   3.076
 3946SOL     OW12736   6.980   4.113   6.347
 3946SOL    HW112737   6.963   4.015   6.355
 3946SOL    HW212738   0.055   4.129   6.331
 3947SOL     OW12739   5.603   5.293   0.409
 3947SOL    HW112740   5.657   5.232   0.466
 3947SOL    HW212741   5.541   5.347   0.467
 3948SOL     OW12742   1.406   4.077   6.964
 3948SOL    HW112743   1.334   4.023   7.006
 3948SOL    HW212744   1.413   4.054   6.867
 3949SOL     OW12745   6.279   6.695   3.169
 3949SOL    HW112746   6.195   6.650   3.200
 3949SOL    HW212747   6.263   6.792   3.157
 3950SOL     OW12748   3.452   3.752   1.897
 3950SOL    HW112749   3.414   3.686   1.962
 3950SOL    HW212750   3.547   3.771   1.922
 3951SOL     OW12751   0.446   0.917   0.024
 3951SOL    HW112752   0.398   0.905   0.111
 3951SOL    HW212753   0.380   0.942   6.976
 3952SOL     OW12754   6.209   3.415   4.572
 3952SOL    HW112755   6.241   3.509   4.568
 3952SOL    HW212756   6.270   3.361   4.630
 3953SOL     OW12757   3.918   4.276   6.630
 3953SOL    HW112758   3.826   4.315   6.627
 3953SOL    HW212759   3.932   4.217   6.550
 3954SOL     OW12760   5.653   4.999   5.406
 3954SOL    HW112761   5.651   5.073   5.473
 3954SOL    HW212762   5.659   4.911   5.452
 3955SOL     OW12763   4.719   6.523   0.094
 3955SOL    HW112764   4.631   6.571   0.090
 3955SOL    HW212765   4.729   6.466   0.012
 3956SOL     OW12766   0.741   2.006   4.449
 3956SOL    HW112767   0.658   2.006   4.504
 3956SOL    HW212768   0.799   2.082   4.478
 3957SOL     OW12769   4.344   6.294   3.404
 3957SOL    HW112770   4.362   6.342   3.318
 3957SOL    HW212771   4.394   6.208   3.404
 3958SOL     OW12772   5.984   6.734   6.652
 3958SOL    HW112773   5.928   6.707   6.574
 3958SOL    HW212774   6.035   6.816   6.630
 3959SOL     OW12775   3.353   6.453   1.463
 3959SOL    HW112776   3.403   6.532   1.427
 3959SOL    HW212777   3.348   6.382   1.393
 3960SOL     OW12778   6.337   2.253   6.275
 3960SOL    HW112779   6.435   2.266   6.287
 3960SOL    HW212780   6.288   2.305   6.345
 3961SOL     OW12781   5.590   2.133   2.069
 3961SOL    HW112782   5.532   2.212   2.050
 3961SOL    HW212783   5.651   2.116   1.992
 3962SOL     OW12784   0.993   5.933   0.368
 3962SOL    HW112785   1.063   5.901   0.304
 3962SOL    HW212786   0.996   6.033   0.373
 3963SOL     OW12787   5.246   4.476   3.548
 3963SOL    HW112788   5.290   4.558   3.511
 3963SOL    HW212789   5.285   4.455   3.638
 3964SOL     OW12790   4.280   4.787   4.917
 3964SOL    HW112791   4.317   4.698   4.943
 3964SOL    HW212792   4.202   4.809   4.976
 3965SOL     OW12793   3.909   4.524   6.197
 3965SOL    HW112794   3.937   4.540   6.102
 3965SOL    HW212795   3.990   4.522   6.255
 3966SOL     OW12796   6.831   4.988   6.999
 3966SOL    HW112797   6.792   5.010   0.066
 3966SOL    HW212798   6.865   4.894   7.000
 3967SOL     OW12799   1.127   4.527   2.751
 3967SOL    HW112800   1.120   4.596   2.680
 3967SOL    HW212801   1.044   4.472   2.752
 3968SOL     OW12802   6.194   0.796   1.341
 3968SOL    HW112803   6.163   0.814   1.247
 3968SOL    HW212804   6.272   0.854   1.362
 3969SOL     OW12805   7.000   3.863   2.816
 3969SOL    HW112806   0.071   3.877   2.782
 3969SOL    HW212807   6.982   3.926   2.891
 3970SOL     OW12808   4.732   5.268   3.439
 3970SOL    HW112809   4.795   5.345   3.447
 3970SOL    HW212810   4.765   5.192   3.495
 3971SOL     OW12811   2.341   5.146   2.330
 3971SOL    HW112812   2.415   5.087   2.362
 3971SOL    HW212813   2.332   5.138   2.231
 3972SOL     OW12814   1.338   5.459   1.569
 3972SOL    HW112815   1.426   5.489   1.606
 3972SOL    HW212816   1.344   5.364   1.541
 3973SOL     OW12817   2.728   3.523   5.459
 3973SOL    HW112818   2.786   3.486   5.386
 3973SOL    HW212819   2.779   3.523   5.545
 3974SOL     OW12820   1.431   0.385   5.314
 3974SOL    HW112821   1.353   0.400   5.253
 3974SOL    HW212822   1.449   0.469   5.366
 3975SOL     OW12823   5.971   0.088   6.442
 3975SOL    HW112824   5.963   0.070   6.344
 3975SOL    HW212825   5.905   0.033   6.492
 3976SOL     OW12826   2.030   4.745   0.822
 3976SOL    HW112827   2.029   4.799   0.738
 3976SOL    HW212828   2.122   4.750   0.863
 3977SOL     OW12829   3.304   4.806   5.888
 3977SOL    HW112830   3.307   4.722   5.943
 3977SOL    HW212831   3.352   4.791   5.802
 3978SOL     OW12832   5.518   0.600   4.564
 3978SOL    HW112833   5.524   0.511   4.519
 3978SOL    HW212834   5.513   0.587   4.663
 3979SOL     OW12835   2.286   6.218   1.365
 3979SOL    HW112836   2.319   6.305   1.328
 3979SOL    HW212837   2.328   6.142   1.315
 3980SOL     OW12838   0.037   4.608   5.621
 3980SOL    HW112839   0.034   4.508   5.629
 3980SOL    HW212840   7.022   4.649   5.704
 3981SOL     OW12841   1.552   2.155   6.255
 3981SOL    HW112842   1.507   2.171   6.343
 3981SOL    HW212843   1.624   2.086   6.266
 3982SOL     OW12844   2.915   0.404   4.198
 3982SOL    HW112845   2.900   0.502   4.186
 3982SOL    HW212846   2.939   0.363   4.110
 3983SOL     OW12847   3.022   6.015   4.441
 3983SOL    HW112848   2.993   6.058   4.527
 3983SOL    HW212849   3.053   6.086   4.378
 3984SOL     OW12850   2.409   0.649   1.810
 3984SOL    HW112851   2.381   0.554   1.794
 3984SOL    HW212852   2.328   0.707   1.820
 3985SOL     OW12853   2.681   4.160   0.064
 3985SOL    HW112854   2.591   4.122   0.085
 3985SOL    HW212855   2.751   4.102   0.106
 3986SOL     OW12856   0.311   1.640   3.389
 3986SOL    HW112857   0.358   1.683   3.466
 3986SOL    HW212858   0.229   1.592   3.423
 3987SOL     OW12859   1.415   5.227   4.775
 3987SOL    HW112860   1.326   5.227   4.821
 3987SOL    HW212861   1.451   5.320   4.772
 3988SOL     OW12862   3.608   2.546   5.369
 3988SOL    HW112863   3.641   2.575   5.459
 3988SOL    HW212864   3.605   2.446   5.365
 3989SOL     OW12865   6.136   0.787   6.821
 3989SOL    HW112866   6.158   0.822   6.730
 3989SOL    HW212867   6.205   0.719   6.848
 3990SOL     OW12868   6.193   1.767   3.979
 3990SOL    HW112869   6.117   1.827   4.005
 3990SOL    HW212870   6.162   1.672   3.980
 3991SOL     OW12871   6.930   2.304   3.245
 3991SOL    HW112872   6.854   2.342   3.296
 3991SOL    HW212873   6.897   2.265   3.159
 3992SOL     OW12874   4.398   1.952   6.099
 3992SOL    HW112875   4.486   1.964   6.051
 3992SOL    HW212876   4.413   1.900   6.183
 3993SOL     OW12877   1.353   2.071   3.520
 3993SOL    HW112878   1.332   2.092   3.424
 3993SOL    HW212879   1.323   1.978   3.541
 3994SOL     OW12880   1.334   2.640   5.069
 3994SOL    HW112881   1.365   2.655   5.163
 3994SOL    HW212882   1.236   2.619   5.069
 3995SOL     OW12883   2.172   4.204   3.914
 3995SOL    HW112884   2.166   4.105   3.930
 3995SOL    HW212885   2.170   4.222   3.815
 3996SOL     OW12886   1.344   0.803   5.063
 3996SOL    HW112887   1.427   0.857   5.073
 3996SOL    HW212888   1.287   0.842   4.991
 3997SOL     OW12889   4.857   3.483   3.266
 3997SOL    HW112890   4.841   3.413   3.335
 3997SOL    HW212891   4.926   3.548   3.300
 3998SOL     OW12892   5.002   1.806   1.856
 3998SOL    HW112893   4.931   1.776   1.791
 3998SOL    HW212894   5.039   1.893   1.825
 3999SOL     OW12895   5.858   3.783   3.431
 3999SOL    HW112896   5.819   3.694   3.407
 3999SOL    HW212897   5.862   3.791   3.531
 4000SOL     OW12898   3.152   5.482   2.625
 4000SOL    HW112899   3.169   5.406   2.562
 4000SOL    HW212900   3.235   5.537   2.635
 4001SOL     OW12901   2.389   2.618   4.614
 4001SOL    HW112902   2.290   2.608   4.617
 4001SOL    HW212903   2.427   2.602   4.704
 4002SOL     OW12904   3.617   3.574   6.140
 4002SOL    HW112905   3.678   3.495   6.138
 4002SOL    HW212906   3.623   3.622   6.052
 4003SOL     OW12907   2.431   0.287   6.132
 4003SOL    HW112908   2.440   0.300   6.033
 4003SOL    HW212909   2.466   0.197   6.158
 4004SOL     OW12910   6.182   2.999   4.328
 4004SOL    HW112911   6.186   3.099   4.336
 4004SOL    HW212912   6.087   2.970   4.322
 4005SOL     OW12913   5.237   4.782   1.225
 4005SOL    HW112914   5.243   4.743   1.317
 4005SOL    HW212915   5.311   4.746   1.169
 4006SOL     OW12916   4.657   5.020   2.327
 4006SOL    HW112917   4.575   5.023   2.383
 4006SOL    HW212918   4.658   4.936   2.273
 4007SOL     OW12919   0.712   2.689   2.042
 4007SOL    HW112920   0.790   2.672   1.982
 4007SOL    HW212921   0.656   2.763   2.003
 4008SOL     OW12922   3.842   1.414   5.772
 4008SOL    HW112923   3.932   1.456   5.761
 4008SOL    HW212924   3.852   1.317   5.795
 4009SOL     OW12925   4.906   2.816   0.586
 4009SOL    HW112926   4.820   2.782   0.624
 4009SOL    HW212927   4.959   2.861   0.658
 4010SOL     OW12928   2.200   3.307   1.450
 4010SOL    HW112929   2.220   3.355   1.364
 4010SOL    HW212930   2.219   3.368   1.527
 4011SOL     OW12931   1.259   6.610   2.147
 4011SOL    HW112932   1.250   6.532   2.085
 4011SOL    HW212933   1.179   6.616   2.207
 4012SOL     OW12934   4.999   4.810   1.527
 4012SOL    HW112935   5.015   4.720   1.568
 4012SOL    HW212936   5.087   4.855   1.511
 4013SOL     OW12937   3.148   0.429   1.087
 4013SOL    HW112938   3.102   0.403   1.172
 4013SOL    HW212939   3.120   0.366   1.014
 4014SOL     OW12940   3.867   5.893   3.902
 4014SOL    HW112941   3.874   5.802   3.943
 4014SOL    HW212942   3.897   5.889   3.807
 4015SOL     OW12943   4.198   5.161   6.658
 4015SOL    HW112944   4.135   5.139   6.584
 4015SOL    HW212945   4.201   5.261   6.670
 4016SOL     OW12946   1.442   5.231   6.589
 4016SOL    HW112947   1.524   5.201   6.540
 4016SOL    HW212948   1.385   5.287   6.528
 4017SOL     OW12949   0.691   6.433   6.975
 4017SOL    HW112950   0.720   6.443   0.048
 4017SOL    HW212951   0.717   6.342   6.942
 4018SOL     OW12952   5.784   6.472   1.731
 4018SOL    HW112953   5.763   6.378   1.704
 4018SOL    HW212954   5.726   6.536   1.681
 4019SOL     OW12955   6.241   3.994   2.303
 4019SOL    HW112956   6.206   4.057   2.372
 4019SOL    HW212957   6.341   3.990   2.310
 4020SOL     OW12958   6.875   2.366   5.572
 4020SOL    HW112959   6.811   2.289   5.581
 4020SOL    HW212960   6.826   2.451   5.590
 4021SOL     OW12961   3.210   3.666   5.236
 4021SOL    HW112962   3.202   3.681   5.138
 4021SOL    HW212963   3.210   3.568   5.255
 4022SOL     OW12964   4.774   0.248   6.532
 4022SOL    HW112965   4.855   0.218   6.481
 4022SOL    HW212966   4.796   0.252   6.629
 4023SOL     OW12967   6.897   0.638   3.880
 4023SOL    HW112968   6.867   0.673   3.791
 4023SOL    HW212969   6.834   0.566   3.910
 4024SOL     OW12970   2.696   5.124   4.345
 4024SOL    HW112971   2.636   5.199   4.372
 4024SOL    HW212972   2.655   5.037   4.373
 4025SOL     OW12973   0.329   6.313   4.559
 4025SOL    HW112974   0.428   6.320   4.545
 4025SOL    HW212975   0.292   6.238   4.503
 4026SOL     OW12976   5.939   0.166   2.954
 4026SOL    HW112977   5.864   0.221   2.919
 4026SOL    HW212978   6.023   0.190   2.906
 4027SOL     OW12979   2.681   2.763   1.193
 4027SOL    HW112980   2.746   2.787   1.121
 4027SOL    HW212981   2.721   2.784   1.282
 4028SOL     OW12982   2.506   2.219   2.917
 4028SOL    HW112983   2.492   2.293   2.852
 4028SOL    HW212984   2.512   2.257   3.010
 4029SOL     OW12985   3.225   5.020   6.051
 4029SOL    HW112986   3.126   5.029   6.065
 4029SOL    HW212987   3.244   4.943   5.991
 4030SOL     OW12988   0.971   1.667   1.074
 4030SOL    HW112989   0.891   1.607   1.069
 4030SOL    HW212990   0.940   1.762   1.082
 4031SOL     OW12991   5.014   6.391   3.470
 4031SOL    HW112992   5.102   6.414   3.427
 4031SOL    HW212993   4.980   6.306   3.431
 4032SOL     OW12994   6.404   0.315   2.269
 4032SOL    HW112995   6.490   0.319   2.320
 4032SOL    HW212996   6.417   0.256   2.189
 4033SOL     OW12997   2.812   3.691   1.618
 4033SOL    HW112998   2.786   3.606   1.663
 4033SOL    HW212999   2.908   3.712   1.636
 4034SOL     OW13000   6.952   1.364   4.768
 4034SOL    HW113001   6.917   1.330   4.681
 4034SOL    HW213002   6.882   1.420   4.813
 4035SOL     OW13003   6.316   2.470   0.878
 4035SOL    HW113004   6.292   2.530   0.801
 4035SOL    HW213005   6.304   2.520   0.964
 4036SOL     OW13006   4.548   5.971   2.540
 4036SOL    HW113007   4.565   5.904   2.611
 4036SOL    HW213008   4.519   6.058   2.581
 4037SOL     OW13009   2.357   1.197   0.548
 4037SOL    HW113010   2.434   1.245   0.505
 4037SOL    HW213011   2.368   1.199   0.648
 4038SOL     OW13012   4.496   3.983   1.673
 4038SOL    HW113013   4.407   3.965   1.632
 4038SOL    HW213014   4.491   4.065   1.730
 4039SOL     OW13015   4.635   4.418   1.759
 4039SOL    HW113016   4.626   4.447   1.663
 4039SOL    HW213017   4.582   4.334   1.773
 4040SOL     OW13018   3.606   6.885   5.922
 4040SOL    HW113019   3.569   6.874   5.830
 4040SOL    HW213020   3.704   6.903   5.918
 4041SOL     OW13021   1.853   4.977   1.281
 4041SOL    HW113022   1.759   4.976   1.316
 4041SOL    HW213023   1.917   4.975   1.358
 4042SOL     OW13024   6.466   5.645   3.127
 4042SOL    HW113025   6.465   5.566   3.065
 4042SOL    HW213026   6.396   5.710   3.098
 4043SOL     OW13027   5.352   1.365   3.989
 4043SOL    HW113028   5.375   1.461   4.007
 4043SOL    HW213029   5.275   1.361   3.925
 4044SOL     OW13030   4.822   0.313   3.022
 4044SOL    HW113031   4.809   0.321   3.121
 4044SOL    HW213032   4.740   0.345   2.975
 4045SOL     OW13033   2.771   5.502   5.648
 4045SOL    HW113034   2.685   5.550   5.629
 4045SOL    HW213035   2.838   5.524   5.578
 4046SOL     OW13036   0.915   1.801   3.729
 4046SOL    HW113037   0.902   1.819   3.827
 4046SOL    HW213038   0.920   1.703   3.714
 4047SOL     OW13039   1.111   1.569   0.833
 4047SOL    HW113040   1.068   1.612   0.913
 4047SOL    HW213041   1.193   1.520   0.863
 4048SOL     OW13042   5.383   2.304   2.009
 4048SOL    HW113043   5.334   2.227   2.049
 4048SOL    HW213044   5.351   2.389   2.051
 4049SOL     OW13045   6.369   5.256   6.046
 4049SOL    HW113046   6.376   5.158   6.024
 4049SOL    HW213047   6.365   5.309   5.961
 4050SOL     OW13048   1.553   6.727   1.061
 4050SOL    HW113049   1.573   6.803   0.999
 4050SOL    HW213050   1.614   6.733   1.140
 4051SOL     OW13051   3.984   2.419   6.744
 4051SOL    HW113052   4.044   2.449   6.818
 4051SOL    HW213053   3.948   2.499   6.696
 4052SOL     OW13054   6.890   0.886   2.405
 4052SOL    HW113055   6.980   0.918   2.436
 4052SOL    HW213056   6.846   0.835   2.479
 4053SOL     OW13057   3.332   4.874   4.107
 4053SOL    HW113058   3.244   4.852   4.149
 4053SOL    HW213059   3.326   4.861   4.008
 4054SOL     OW13060   6.795   3.667   2.008
 4054SOL    HW113061   6.732   3.690   1.934
 4054SOL    HW213062   6.838   3.579   1.989
 4055SOL     OW13063   3.188   3.310   6.696
 4055SOL    HW113064   3.152   3.294   6.604
 4055SOL    HW213065   3.144   3.248   6.760
 4056SOL     OW13066   3.640   4.047   0.860
 4056SOL    HW113067   3.646   4.126   0.922
 4056SOL    HW213068   3.712   4.054   0.791
 4057SOL     OW13069   5.364   2.585   1.557
 4057SOL    HW113070   5.385   2.517   1.627
 4057SOL    HW213071   5.264   2.593   1.548
 4058SOL     OW13072   1.764   0.421   4.177
 4058SOL    HW113073   1.750   0.460   4.086
 4058SOL    HW213074   1.723   0.329   4.181
 4059SOL     OW13075   1.191   2.594   3.586
 4059SOL    HW113076   1.229   2.686   3.582
 4059SOL    HW213077   1.132   2.579   3.506
 4060SOL     OW13078   4.768   5.600   4.364
 4060SOL    HW113079   4.787   5.680   4.307
 4060SOL    HW213080   4.690   5.550   4.327
 4061SOL     OW13081   2.908   4.940   1.627
 4061SOL    HW113082   2.949   4.922   1.716
 4061SOL    HW213083   2.918   4.859   1.569
 4062SOL     OW13084   2.286   2.288   2.205
 4062SOL    HW113085   2.325   2.196   2.195
 4062SOL    HW213086   2.360   2.355   2.211
 4063SOL     OW13087   6.195   6.395   5.510
 4063SOL    HW113088   6.137   6.390   5.592
 4063SOL    HW213089   6.275   6.336   5.523
 4064SOL     OW13090   1.599   6.707   3.690
 4064SOL    HW113091   1.671   6.745   3.631
 4064SOL    HW213092   1.573   6.616   3.657
 4065SOL     OW13093   0.182   0.134   0.865
 4065SOL    HW113094   0.085   0.158   0.855
 4065SOL    HW213095   0.197   0.043   0.826
 4066SOL     OW13096   5.374   5.944   2.870
 4066SOL    HW113097   5.318   5.944   2.786
 4066SOL    HW213098   5.341   6.016   2.931
 4067SOL     OW13099   6.587   3.210   3.094
 4067SOL    HW113100   6.488   3.212   3.112
 4067SOL    HW213101   6.626   3.130   3.139
 4068SOL     OW13102   2.989   0.515   4.797
 4068SOL    HW113103   2.947   0.471   4.718
 4068SOL    HW213104   3.088   0.522   4.783
 4069SOL     OW13105   3.688   5.101   6.199
 4069SOL    HW113106   3.727   5.010   6.209
 4069SOL    HW213107   3.738   5.166   6.256
 4070SOL     OW13108   0.734   3.302   2.287
 4070SOL    HW113109   0.830   3.292   2.263
 4070SOL    HW213110   0.710   3.236   2.358
 4071SOL     OW13111   1.539   1.066   5.318
 4071SOL    HW113112   1.487   1.145   5.285
 4071SOL    HW213113   1.516   1.047   5.413
 4072SOL     OW13114   0.465   5.775   3.873
 4072SOL    HW113115   0.403   5.700   3.853
 4072SOL    HW213116   0.413   5.851   3.913
 4073SOL     OW13117   2.349   6.173   6.721
 4073SOL    HW113118   2.364   6.105   6.650
 4073SOL    HW213119   2.379   6.137   6.809
 4074SOL     OW13120   6.848   2.853   2.104
 4074SOL    HW113121   6.878   2.782   2.041
 4074SOL    HW213122   6.838   2.814   2.196
 4075SOL     OW13123   3.995   2.018   2.717
 4075SOL    HW113124   3.918   1.954   2.721
 4075SOL    HW213125   4.081   1.969   2.733
 4076SOL     OW13126   3.134   3.463   5.854
 4076SOL    HW113127   3.093   3.389   5.801
 4076SOL    HW213128   3.074   3.542   5.853
 4077SOL     OW13129   3.431   0.503   0.226
 4077SOL    HW113130   3.519   0.462   0.253
 4077SOL    HW213131   3.445   0.563   0.148
 4078SOL     OW13132   6.318   5.192   2.194
 4078SOL    HW113133   6.284   5.117   2.251
 4078SOL    HW213134   6.409   5.219   2.227
 4079SOL     OW13135   0.646   2.013   3.872
 4079SOL    HW113136   0.713   1.945   3.901
 4079SOL    HW213137   0.665   2.100   3.918
 4080SOL     OW13138   2.956   3.572   0.021
 4080SOL    HW113139   3.024   3.505   0.051
 4080SOL    HW213140   2.902   3.602   0.100
 4081SOL     OW13141   2.280   1.756   4.147
 4081SOL    HW113142   2.236   1.824   4.088
 4081SOL    HW213143   2.369   1.731   4.109
 4082SOL     OW13144   1.472   2.605   0.527
 4082SOL    HW113145   1.449   2.592   0.624
 4082SOL    HW213146   1.432   2.532   0.473
 4083SOL     OW13147   6.587   4.620   2.002
 4083SOL    HW113148   6.670   4.638   2.054
 4083SOL    HW213149   6.523   4.697   2.015
 4084SOL     OW13150   4.303   2.389   3.083
 4084SOL    HW113151   4.341   2.465   3.134
 4084SOL    HW213152   4.350   2.304   3.109
 4085SOL     OW13153   2.936   5.617   0.571
 4085SOL    HW113154   2.897   5.665   0.650
 4085SOL    HW213155   2.955   5.683   0.498
 4086SOL     OW13156   0.608   4.802   1.337
 4086SOL    HW113157   0.561   4.730   1.286
 4086SOL    HW213158   0.550   4.883   1.340
 4087SOL     OW13159   1.727   1.790   3.502
 4087SOL    HW113160   1.742   1.717   3.435
 4087SOL    HW213161   1.643   1.839   3.480
 4088SOL     OW13162   6.700   0.738   6.667
 4088SOL    HW113163   6.607   0.774   6.656
 4088SOL    HW213164   6.740   0.776   6.751
 4089SOL     OW13165   6.197   4.743   3.829
 4089SOL    HW113166   6.174   4.660   3.779
 4089SOL    HW213167   6.191   4.724   3.927
 4090SOL     OW13168   1.189   5.191   4.892
 4090SOL    HW113169   1.198   5.157   4.986
 4090SOL    HW213170   1.095   5.177   4.860
 4091SOL     OW13171   0.815   6.172   6.903
 4091SOL    HW113172   0.901   6.223   6.909
 4091SOL    HW213173   0.818   6.095   6.966
 4092SOL     OW13174   5.813   2.657   4.224
 4092SOL    HW113175   5.829   2.668   4.322
 4092SOL    HW213176   5.879   2.592   4.186
 4093SOL     OW13177   5.136   6.428   1.875
 4093SOL    HW113178   5.089   6.477   1.949
 4093SOL    HW213179   5.202   6.490   1.831
 4094SOL     OW13180   1.619   4.711   5.960
 4094SOL    HW113181   1.680   4.635   5.939
 4094SOL    HW213182   1.647   4.792   5.908
 4095SOL     OW13183   0.661   4.029   0.675
 4095SOL    HW113184   0.641   3.931   0.666
 4095SOL    HW213185   0.658   4.054   0.772
 4096SOL     OW13186   5.011   1.015   6.967
 4096SOL    HW113187   5.086   1.060   7.016
 4096SOL    HW213188   5.047   0.936   6.917
 4097SOL     OW13189   4.524   4.992   4.589
 4097SOL    HW113190   4.486   4.910   4.632
 4097SOL    HW213191   4.455   5.064   4.585
 4098SOL     OW13192   0.611   1.854   2.281
 4098SOL    HW113193   0.653   1.850   2.190
 4098SOL    HW213194   0.678   1.886   2.348
 4099SOL     OW13195   3.821   5.246   1.302
 4099SOL    HW113196   3.725   5.271   1.312
 4099SOL    HW213197   3.853   5.274   1.211
 4100SOL     OW13198   0.286   6.071   4.161
 4100SOL    HW113199   0.351   6.127   4.213
 4100SOL    HW213200   0.206   6.126   4.137
 4101SOL     OW13201   0.041   0.886   0.171
 4101SOL    HW113202   7.000   0.954   0.209
 4101SOL    HW213203   7.013   0.805   0.142
 4102SOL     OW13204   0.925   0.816   0.769
 4102SOL    HW113205   0.982   0.781   0.695
 4102SOL    HW213206   0.901   0.912   0.751
 4103SOL     OW13207   0.416   7.005   0.561
 4103SOL    HW113208   0.353   6.963   0.626
 4103SOL    HW213209   0.421   0.081   0.579
 4104SOL     OW13210   6.760   4.985   2.764
 4104SOL    HW113211   6.833   5.040   2.723
 4104SOL    HW213212   6.799   4.903   2.805
 4105SOL     OW13213   5.659   0.232   2.544
 4105SOL    HW113214   5.638   0.323   2.507
 4105SOL    HW213215   5.703   0.177   2.474
 4106SOL     OW13216   6.677   2.791   3.221
 4106SOL    HW113217   6.685   2.890   3.235
 4106SOL    HW213218   6.640   2.749   3.304
 4107SOL     OW13219   1.162   5.414   1.220
 4107SOL    HW113220   1.167   5.438   1.123
 4107SOL    HW213221   1.243   5.361   1.245
 4108SOL     OW13222   6.649   5.595   4.686
 4108SOL    HW113223   6.717   5.665   4.664
 4108SOL    HW213224   6.562   5.619   4.643
 4109SOL     OW13225   6.725   7.013   4.479
 4109SOL    HW113226   6.743   6.999   4.576
 4109SOL    HW213227   6.757   6.933   4.428
 4110SOL     OW13228   4.314   3.836   5.736
 4110SOL    HW113229   4.227   3.862   5.778
 4110SOL    HW213230   4.386   3.897   5.769
 4111SOL     OW13231   5.325   4.547   6.295
 4111SOL    HW113232   5.332   4.474   6.227
 4111SOL    HW213233   5.265   4.619   6.260
 4112SOL     OW13234   4.769   6.393   5.131
 4112SOL    HW113235   4.846   6.413   5.191
 4112SOL    HW213236   4.789   6.430   5.040
 4113SOL     OW13237   5.779   5.687   4.865
 4113SOL    HW113238   5.859   5.642   4.825
 4113SOL    HW213239   5.721   5.722   4.792
 4114SOL     OW13240   4.277   2.257   4.040
 4114SOL    HW113241   4.251   2.181   4.099
 4114SOL    HW213242   4.332   2.323   4.093
 4115SOL     OW13243   2.818   5.274   2.162
 4115SOL    HW113244   2.806   5.298   2.258
 4115SOL    HW213245   2.915   5.282   2.137
 4116SOL     OW13246   3.620   1.364   2.419
 4116SOL    HW113247   3.532   1.350   2.464
 4116SOL    HW213248   3.651   1.458   2.434
 4117SOL     OW13249   1.411   3.735   2.535
 4117SOL    HW113250   1.463   3.758   2.617
 4117SOL    HW213251   1.464   3.671   2.479
 4118SOL     OW13252   4.985   6.306   0.958
 4118SOL    HW113253   4.906   6.246   0.945
 4118SOL    HW213254   5.026   6.327   0.869
 4119SOL     OW13255   3.336   1.867   3.955
 4119SOL    HW113256   3.327   1.966   3.944
 4119SOL    HW213257   3.339   1.844   4.053
 4120SOL     OW13258   4.324   0.847   6.042
 4120SOL    HW113259   4.290   0.892   6.124
 4120SOL    HW213260   4.408   0.797   6.065
 4121SOL     OW13261   6.295   6.862   3.480
 4121SOL    HW113262   6.283   6.854   3.579
 4121SOL    HW213263   6.209   6.840   3.434
 4122SOL     OW13264   1.227   6.302   4.560
 4122SOL    HW113265   1.164   6.254   4.499
 4122SOL    HW213266   1.185   6.388   4.590
 4123SOL     OW13267   4.225   4.754   5.354
 4123SOL    HW113268   4.221   4.852   5.373
 4123SOL    HW213269   4.151   4.707   5.403
 4124SOL     OW13270   6.364   6.343   0.512
 4124SOL    HW113271   6.333   6.413   0.447
 4124SOL    HW213272   6.394   6.262   0.463
 4125SOL     OW13273   4.530   1.637   2.567
 4125SOL    HW113274   4.485   1.694   2.498
 4125SOL    HW213275   4.629   1.639   2.553
 4126SOL     OW13276   1.912   3.402   3.539
 4126SOL    HW113277   1.852   3.480   3.523
 4126SOL    HW213278   1.931   3.394   3.637
 4127SOL     OW13279   5.445   3.562   5.733
 4127SOL    HW113280   5.447   3.471   5.691
 4127SOL    HW213281   5.375   3.565   5.805
 4128SOL     OW13282   0.971   2.997   1.194
 4128SOL    HW113283   0.984   2.927   1.125
 4128SOL    HW213284   1.024   2.975   1.275
 4129SOL     OW13285   3.738   1.215   6.892
 4129SOL    HW113286   3.679   1.255   6.962
 4129SOL    HW213287   3.699   1.232   6.801
 4130SOL     OW13288   6.661   3.056   0.724
 4130SOL    HW113289   6.579   3.109   0.700
 4130SOL    HW213290   6.638   2.959   0.730
 4131SOL     OW13291   0.108   1.430   3.499
 4131SOL    HW113292   0.158   1.345   3.487
 4131SOL    HW213293   0.014   1.410   3.526
 4132SOL     OW13294   4.793   3.930   3.361
 4132SOL    HW113295   4.861   3.860   3.340
 4132SOL    HW213296   4.809   4.011   3.304
 4133SOL     OW13297   3.276   5.832   1.536
 4133SOL    HW113298   3.244   5.738   1.546
 4133SOL    HW213299   3.358   5.833   1.477
 4134SOL     OW13300   2.579   4.124   1.380
 4134SOL    HW113301   2.605   4.044   1.326
 4134SOL    HW213302   2.480   4.123   1.396
 4135SOL     OW13303   0.376   2.386   1.970
 4135SOL    HW113304   0.472   2.380   1.997
 4135SOL    HW213305   0.333   2.462   2.019
 4136SOL     OW13306   1.298   3.037   3.117
 4136SOL    HW113307   1.222   3.078   3.166
 4136SOL    HW213308   1.384   3.071   3.156
 4137SOL     OW13309   1.196   3.408   1.596
 4137SOL    HW113310   1.260   3.433   1.524
 4137SOL    HW213311   1.224   3.322   1.638
 4138SOL     OW13312   3.861   5.713   2.650
 4138SOL    HW113313   3.931   5.644   2.631
 4138SOL    HW213314   3.773   5.668   2.662
 4139SOL     OW13315   2.045   1.892   5.118
 4139SOL    HW113316   1.972   1.949   5.080
 4139SOL    HW213317   2.006   1.826   5.182
 4140SOL     OW13318   3.083   0.570   5.505
 4140SOL    HW113319   3.011   0.638   5.494
 4140SOL    HW213320   3.152   0.582   5.434
 4141SOL     OW13321   5.002   6.681   1.265
 4141SOL    HW113322   5.075   6.741   1.297
 4141SOL    HW213323   5.036   6.623   1.191
 4142SOL     OW13324   6.567   4.903   0.883
 4142SOL    HW113325   6.526   4.866   0.799
 4142SOL    HW213326   6.501   4.963   0.929
 4143SOL     OW13327   5.309   1.684   0.614
 4143SOL    HW113328   5.315   1.750   0.539
 4143SOL    HW213329   5.389   1.624   0.612
 4144SOL     OW13330   5.395   1.562   0.146
 4144SOL    HW113331   5.448   1.502   0.086
 4144SOL    HW213332   5.435   1.654   0.143
 4145SOL     OW13333   0.158   6.278   1.547
 4145SOL    HW113334   0.064   6.243   1.554
 4145SOL    HW213335   0.156   6.377   1.534
 4146SOL     OW13336   6.560   0.496   3.034
 4146SOL    HW113337   6.526   0.439   2.959
 4146SOL    HW213338   6.598   0.581   2.997
 4147SOL     OW13339   5.037   4.912   5.930
 4147SOL    HW113340   4.979   4.960   5.865
 4147SOL    HW213341   4.980   4.866   5.999
 4148SOL     OW13342   1.997   0.390   4.683
 4148SOL    HW113343   1.938   0.335   4.625
 4148SOL    HW213344   1.994   0.485   4.653
 4149SOL     OW13345   0.223   4.308   1.119
 4149SOL    HW113346   0.266   4.218   1.127
 4149SOL    HW213347   0.282   4.368   1.066
 4150SOL     OW13348   1.398   6.831   5.989
 4150SOL    HW113349   1.373   6.917   6.034
 4150SOL    HW213350   1.315   6.779   5.969
 4151SOL     OW13351   3.383   6.415   5.634
 4151SOL    HW113352   3.291   6.427   5.672
 4151SOL    HW213353   3.378   6.352   5.556
 4152SOL     OW13354   4.618   6.011   1.303
 4152SOL    HW113355   4.680   5.957   1.245
 4152SOL    HW213356   4.524   5.985   1.284
 4153SOL     OW13357   5.368   5.108   0.662
 4153SOL    HW113358   5.392   5.183   0.724
 4153SOL    HW213359   5.315   5.144   0.585
 4154SOL     OW13360   0.066   4.991   3.156
 4154SOL    HW113361   0.150   4.979   3.208
 4154SOL    HW213362   0.081   5.057   3.082
 4155SOL     OW13363   0.007   1.322   2.268
 4155SOL    HW113364   0.070   1.257   2.312
 4155SOL    HW213365   7.020   1.403   2.326
 4156SOL     OW13366   6.015   6.376   4.809
 4156SOL    HW113367   5.937   6.401   4.752
 4156SOL    HW213368   5.984   6.324   4.888
 4157SOL     OW13369   5.083   5.335   3.947
 4157SOL    HW113370   5.121   5.292   4.028
 4157SOL    HW213371   4.985   5.348   3.959
 4158SOL     OW13372   6.986   3.256   1.431
 4158SOL    HW113373   6.989   3.321   1.508
 4158SOL    HW213374   0.049   3.204   1.428
 4159SOL     OW13375   2.189   3.126   3.078
 4159SOL    HW113376   2.097   3.157   3.052
 4159SOL    HW213377   2.187   3.089   3.171
 4160SOL     OW13378   5.793   0.982   0.503
 4160SOL    HW113379   5.873   0.938   0.541
 4160SOL    HW213380   5.710   0.942   0.542
 4161SOL     OW13381   0.847   2.207   0.828
 4161SOL    HW113382   0.887   2.264   0.756
 4161SOL    HW213383   0.908   2.130   0.847
 4162SOL     OW13384   6.684   5.572   0.221
 4162SOL    HW113385   6.758   5.559   0.156
 4162SOL    HW213386   6.604   5.608   0.174
 4163SOL     OW13387   4.654   0.404   2.808
 4163SOL    HW113388   4.564   0.362   2.796
 4163SOL    HW213389   4.643   0.499   2.837
 4164SOL     OW13390   1.889   6.672   5.738
 4164SOL    HW113391   1.926   6.590   5.694
 4164SOL    HW213392   1.872   6.654   5.835
 4165SOL     OW13393   4.515   0.649   6.150
 4165SOL    HW113394   4.501   0.580   6.079
 4165SOL    HW213395   4.604   0.637   6.192
 4166SOL     OW13396   5.515   2.043   0.444
 4166SOL    HW113397   5.587   2.005   0.386
 4166SOL    HW213398   5.511   1.992   0.530
 4167SOL     OW13399   2.071   4.137   0.787
 4167SOL    HW113400   2.120   4.053   0.766
 4167SOL    HW213401   2.010   4.160   0.711
 4168SOL     OW13402   0.164   4.692   1.167
 4168SOL    HW113403   0.117   4.659   1.249
 4168SOL    HW213404   0.130   4.642   1.087
 4169SOL     OW13405   5.824   5.010   4.931
 4169SOL    HW113406   5.739   4.961   4.953
 4169SOL    HW213407   5.901   4.964   4.975
 4170SOL     OW13408   4.297   3.408   6.108
 4170SOL    HW113409   4.382   3.375   6.067
 4170SOL    HW213410   4.304   3.403   6.208
 4171SOL     OW13411   6.527   5.978   1.054
 4171SOL    HW113412   6.478   5.896   1.083
 4171SOL    HW213413   6.465   6.056   1.054
 4172SOL     OW13414   1.353   1.689   6.146
 4172SOL    HW113415   1.366   1.787   6.134
 4172SOL    HW213416   1.272   1.672   6.202
 4173SOL     OW13417   5.270   4.548   4.710
 4173SOL    HW113418   5.208   4.500   4.648
 4173SOL    HW213419   5.266   4.506   4.801
 4174SOL     OW13420   5.059   1.398   2.938
 4174SOL    HW113421   4.989   1.462   2.970
 4174SOL    HW213422   5.084   1.336   3.013
 4175SOL     OW13423   2.068   5.180   4.634
 4175SOL    HW113424   2.032   5.237   4.709
 4175SOL    HW213425   1.992   5.135   4.587
 4176SOL     OW13426   3.351   6.024   1.856
 4176SOL    HW113427   3.380   5.931   1.880
 4176SOL    HW213428   3.314   6.024   1.764
 4177SOL     OW13429   6.264   5.205   5.188
 4177SOL    HW113430   6.276   5.122   5.243
 4177SOL    HW213431   6.233   5.279   5.248
 4178SOL     OW13432   4.443   6.819   4.424
 4178SOL    HW113433   4.447   6.777   4.514
 4178SOL    HW213434   4.493   6.906   4.425
 4179SOL     OW13435   5.725   3.563   3.343
 4179SOL    HW113436   5.753   3.567   3.248
 4179SOL    HW213437   5.747   3.472   3.380
 4180SOL     OW13438   5.292   4.630   1.477
 4180SOL    HW113439   5.285   4.675   1.565
 4180SOL    HW213440   5.258   4.536   1.485
 4181SOL     OW13441   3.225   1.228   0.615
 4181SOL    HW113442   3.249   1.146   0.564
 4181SOL    HW213443   3.306   1.261   0.665
 4182SOL     OW13444   0.987   0.253   3.547
 4182SOL    HW113445   0.957   0.184   3.482
 4182SOL    HW213446   1.085   0.271   3.534
 4183SOL     OW13447   3.245   1.426   0.059
 4183SOL    HW113448   3.149   1.446   0.040
 4183SOL    HW213449   3.265   1.444   0.155
 4184SOL     OW13450   4.341   5.898   1.536
 4184SOL    HW113451   4.350   5.996   1.555
 4184SOL    HW213452   4.386   5.846   1.609
 4185SOL     OW13453   0.839   4.645   2.179
 4185SOL    HW113454   0.851   4.744   2.193
 4185SOL    HW213455   0.742   4.624   2.176
 4186SOL     OW13456   2.834   4.996   0.085
 4186SOL    HW113457   2.745   4.975   0.044
 4186SOL    HW213458   2.821   5.039   0.174
 4187SOL     OW13459   3.659   2.847   5.708
 4187SOL    HW113460   3.574   2.800   5.728
 4187SOL    HW213461   3.647   2.946   5.721
 4188SOL     OW13462   4.898   0.278   5.121
 4188SOL    HW113463   4.946   0.357   5.083
 4188SOL    HW213464   4.918   0.271   5.219
 4189SOL     OW13465   3.018   5.054   5.556
 4189SOL    HW113466   3.026   4.955   5.543
 4189SOL    HW213467   2.926   5.076   5.588
 4190SOL     OW13468   0.986   0.796   0.006
 4190SOL    HW113469   0.945   0.754   6.948
 4190SOL    HW213470   1.080   0.824   7.008
 4191SOL     OW13471   4.694   4.277   3.253
 4191SOL    HW113472   4.742   4.204   3.206
 4191SOL    HW213473   4.747   4.362   3.245
 4192SOL     OW13474   0.706   1.009   4.250
 4192SOL    HW113475   0.723   0.952   4.331
 4192SOL    HW213476   0.607   1.012   4.233
 4193SOL     OW13477   0.453   1.025   1.858
 4193SOL    HW113478   0.427   1.104   1.802
 4193SOL    HW213479   0.521   0.971   1.809
 4194SOL     OW13480   5.665   0.750   4.337
 4194SOL    HW113481   5.751   0.726   4.293
 4194SOL    HW213482   5.641   0.680   4.404
 4195SOL     OW13483   3.878   6.546   1.816
 4195SOL    HW113484   3.779   6.561   1.813
 4195SOL    HW213485   3.905   6.525   1.910
 4196SOL     OW13486   5.824   2.013   3.077
 4196SOL    HW113487   5.897   2.023   3.010
 4196SOL    HW213488   5.817   1.917   3.106
 4197SOL     OW13489   4.947   5.509   5.941
 4197SOL    HW113490   5.028   5.486   5.996
 4197SOL    HW213491   4.940   5.446   5.864
 4198SOL     OW13492   5.948   2.201   0.016
 4198SOL    HW113493   5.992   2.282   7.000
 4198SOL    HW213494   6.017   2.142   0.058
 4199SOL     OW13495   2.054   2.498   5.718
 4199SOL    HW113496   2.078   2.509   5.815
 4199SOL    HW213497   1.954   2.506   5.708
 4200SOL     OW13498   3.848   6.763   5.968
 4200SOL    HW113499   3.928   6.749   5.909
 4200SOL    HW213500   3.878   6.770   6.063
 4201SOL     OW13501   5.813   6.278   3.588
 4201SOL    HW113502   5.755   6.246   3.663
 4201SOL    HW213503   5.865   6.358   3.619
 4202SOL     OW13504   3.904   5.568   5.764
 4202SOL    HW113505   3.985   5.581   5.708
 4202SOL    HW213506   3.931   5.534   5.854
 4203SOL     OW13507   4.326   5.358   0.654
 4203SOL    HW113508   4.254   5.397   0.596
 4203SOL    HW213509   4.314   5.390   0.748
 4204SOL     OW13510   3.874   3.982   2.922
 4204SOL    HW113511   3.814   4.014   2.995
 4204SOL    HW213512   3.968   4.007   2.943
 4205SOL     OW13513   3.895   5.604   3.952
 4205SOL    HW113514   3.971   5.594   3.887
 4205SOL    HW213515   3.922   5.568   4.041
 4206SOL     OW13516   0.063   6.935   5.966
 4206SOL    HW113517   0.093   0.005   5.991
 4206SOL    HW213518   6.986   6.932   5.968
 4207SOL     OW13519   1.510   1.808   0.757
 4207SOL    HW113520   1.596   1.787   0.712
 4207SOL    HW213521   1.484   1.732   0.817
 4208SOL     OW13522   0.585   2.922   5.992
 4208SOL    HW113523   0.570   2.909   6.090
 4208SOL    HW213524   0.517   2.985   5.955
 4209SOL     OW13525   0.260   0.264   4.604
 4209SOL    HW113526   0.323   0.284   4.529
 4209SOL    HW213527   0.167   0.255   4.567
 4210SOL     OW13528   3.009   3.312   2.251
 4210SOL    HW113529   3.107   3.312   2.230
 4210SOL    HW213530   2.958   3.341   2.170
 4211SOL     OW13531   4.269   5.928   5.637
 4211SOL    HW113532   4.221   5.961   5.718
 4211SOL    HW213533   4.275   6.002   5.570
 4212SOL     OW13534   5.921   1.839   2.695
 4212SOL    HW113535   6.008   1.869   2.653
 4212SOL    HW213536   5.893   1.752   2.655
 4213SOL     OW13537   2.060   1.277   1.343
 4213SOL    HW113538   1.985   1.240   1.289
 4213SOL    HW213539   2.024   1.327   1.421
 4214SOL     OW13540   1.481   4.660   5.414
 4214SOL    HW113541   1.528   4.732   5.465
 4214SOL    HW213542   1.546   4.586   5.394
 4215SOL     OW13543   5.825   6.359   5.377
 4215SOL    HW113544   5.860   6.294   5.444
 4215SOL    HW213545   5.807   6.310   5.291
 4216SOL     OW13546   0.853   1.424   2.984
 4216SOL    HW113547   0.775   1.459   3.036
 4216SOL    HW213548   0.909   1.501   2.953
 4217SOL     OW13549   1.128   0.363   2.118
 4217SOL    HW113550   1.104   0.447   2.167
 4217SOL    HW213551   1.049   0.302   2.117
 4218SOL     OW13552   4.540   0.975   1.753
 4218SOL    HW113553   4.470   0.908   1.781
 4218SOL    HW213554   4.595   1.001   1.832
 4219SOL     OW13555   3.123   5.308   4.176
 4219SOL    HW113556   3.082   5.229   4.129
 4219SOL    HW213557   3.157   5.280   4.265
 4220SOL     OW13558   5.295   2.801   3.968
 4220SOL    HW113559   5.385   2.788   3.926
 4220SOL    HW213560   5.237   2.856   3.908
 4221SOL     OW13561   6.037   5.225   6.437
 4221SOL    HW113562   6.035   5.164   6.516
 4221SOL    HW213563   6.049   5.171   6.354
 4222SOL     OW13564   6.243   2.252   2.828
 4222SOL    HW113565   6.328   2.289   2.790
 4222SOL    HW213566   6.166   2.306   2.795
 4223SOL     OW13567   3.764   3.334   6.130
 4223SOL    HW113568   3.821   3.291   6.200
 4223SOL    HW213569   3.704   3.265   6.089
 4224SOL     OW13570   5.538   3.461   3.899
 4224SOL    HW113571   5.535   3.438   3.996
 4224SOL    HW213572   5.576   3.552   3.887
 4225SOL     OW13573   4.081   0.788   6.322
 4225SOL    HW113574   4.004   0.835   6.280
 4225SOL    HW213575   4.048   0.727   6.394
 4226SOL     OW13576   0.902   0.187   2.457
 4226SOL    HW113577   0.803   0.186   2.475
 4226SOL    HW213578   0.919   0.158   2.364
 4227SOL     OW13579   3.745   4.623   1.152
 4227SOL    HW113580   3.709   4.671   1.072
 4227SOL    HW213581   3.745   4.524   1.134
 4228SOL     OW13582   0.732   4.034   5.125
 4228SOL    HW113583   0.634   4.021   5.139
 4228SOL    HW213584   0.775   3.945   5.107
 4229SOL     OW13585   5.185   5.450   5.560
 4229SOL    HW113586   5.218   5.361   5.528
 4229SOL    HW213587   5.260   5.501   5.602
 4230SOL     OW13588   1.294   6.896   2.817
 4230SOL    HW113589   1.328   6.950   2.740
 4230SOL    HW213590   1.353   6.817   2.831
 4231SOL     OW13591   5.550   6.427   5.463
 4231SOL    HW113592   5.644   6.399   5.447
 4231SOL    HW213593   5.527   6.504   5.404
 4232SOL     OW13594   6.612   4.681   2.581
 4232SOL    HW113595   6.617   4.625   2.499
 4232SOL    HW213596   6.704   4.712   2.607
 4233SOL     OW13597   0.263   0.239   6.301
 4233SOL    HW113598   0.337   0.198   6.354
 4233SOL    HW213599   0.280   0.338   6.292
 4234SOL     OW13600   2.553   6.889   5.588
 4234SOL    HW113601   2.473   6.865   5.643
 4234SOL    HW213602   2.531   6.876   5.491
 4235SOL     OW13603   5.835   3.634   6.012
 4235SOL    HW113604   5.921   3.590   5.983
 4235SOL    HW213605   5.788   3.575   6.077
 4236SOL     OW13606   0.201   3.499   2.841
 4236SOL    HW113607   0.116   3.505   2.893
 4236SOL    HW213608   0.185   3.446   2.757
 4237SOL     OW13609   5.670   5.377   2.620
 4237SOL    HW113610   5.600   5.428   2.571
 4237SOL    HW213611   5.713   5.437   2.688
 4238SOL     OW13612   3.178   5.119   2.924
 4238SOL    HW113613   3.228   5.160   2.848
 4238SOL    HW213614   3.086   5.159   2.929
 4239SOL     OW13615   5.563   1.804   3.034
 4239SOL    HW113616   5.527   1.801   2.940
 4239SOL    HW213617   5.530   1.887   3.079
 4240SOL     OW13618   2.473   0.181   0.199
 4240SOL    HW113619   2.536   0.231   0.258
 4240SOL    HW213620   2.497   0.199   0.103
 4241SOL     OW13621   6.189   0.905   0.174
 4241SOL    HW113622   6.095   0.880   0.196
 4241SOL    HW213623   6.197   0.922   0.076
 4242SOL     OW13624   2.156   0.881   3.270
 4242SOL    HW113625   2.081   0.826   3.234
 4242SOL    HW213626   2.125   0.930   3.351
 4243SOL     OW13627   6.699   3.047   3.310
 4243SOL    HW113628   6.758   3.127   3.321
 4243SOL    HW213629   6.623   3.053   3.375
 4244SOL     OW13630   4.969   4.301   1.430
 4244SOL    HW113631   4.890   4.359   1.450
 4244SOL    HW213632   4.964   4.218   1.485
 4245SOL     OW13633   6.911   0.653   5.866
 4245SOL    HW113634   6.925   0.649   5.767
 4245SOL    HW213635   6.816   0.677   5.884
 4246SOL     OW13636   6.577   3.304   2.712
 4246SOL    HW113637   6.672   3.293   2.685
 4246SOL    HW213638   6.568   3.385   2.771
 4247SOL     OW13639   2.620   4.944   3.487
 4247SOL    HW113640   2.546   4.958   3.420
 4247SOL    HW213641   2.689   5.015   3.476
 4248SOL     OW13642   2.006   1.547   3.959
 4248SOL    HW113643   2.058   1.553   3.874
 4248SOL    HW213644   2.049   1.480   4.020
 4249SOL     OW13645   6.061   2.126   4.191
 4249SOL    HW113646   6.026   2.034   4.207
 4249SOL    HW213647   6.043   2.152   4.096
 4250SOL     OW13648   6.957   5.775   3.619
 4250SOL    HW113649   6.893   5.719   3.671
 4250SOL    HW213650   6.941   5.871   3.637
 4251SOL     OW13651   5.614   4.008   1.280
 4251SOL    HW113652   5.579   4.099   1.303
 4251SOL    HW213653   5.584   3.943   1.349
 4252SOL     OW13654   6.348   6.756   6.529
 4252SOL    HW113655   6.421   6.725   6.591
 4252SOL    HW213656   6.303   6.676   6.489
 4253SOL     OW13657   3.227   6.535   0.987
 4253SOL    HW113658   3.230   6.436   0.976
 4253SOL    HW213659   3.181   6.576   0.909
 4254SOL     OW13660   1.288   3.208   2.353
 4254SOL    HW113661   1.315   3.262   2.433
 4254SOL    HW213662   1.362   3.208   2.286
 4255SOL     OW13663   6.903   4.287   4.033
 4255SOL    HW113664   6.924   4.282   4.130
 4255SOL    HW213665   6.860   4.375   4.012
 4256SOL     OW13666   1.637   6.126   0.976
 4256SOL    HW113667   1.721   6.149   1.025
 4256SOL    HW213668   1.568   6.195   0.996
 4257SOL     OW13669   3.333   0.548   4.092
 4257SOL    HW113670   3.433   0.549   4.096
 4257SOL    HW213671   3.297   0.506   4.175
 4258SOL     OW13672   3.417   5.971   1.206
 4258SOL    HW113673   3.468   5.973   1.292
 4258SOL    HW213674   3.365   5.886   1.200
 4259SOL     OW13675   2.123   0.312   0.805
 4259SOL    HW113676   2.133   0.406   0.837
 4259SOL    HW213677   2.027   0.286   0.804
 4260SOL     OW13678   5.862   0.711   1.797
 4260SOL    HW113679   5.854   0.630   1.855
 4260SOL    HW213680   5.776   0.761   1.796
 4261SOL     OW13681   2.224   0.468   2.348
 4261SOL    HW113682   2.258   0.426   2.264
 4261SOL    HW213683   2.301   0.501   2.402
 4262SOL     OW13684   0.785   3.839   6.665
 4262SOL    HW113685   0.871   3.835   6.615
 4262SOL    HW213686   0.765   3.748   6.703
 4263SOL     OW13687   2.942   0.753   2.825
 4263SOL    HW113688   2.972   0.684   2.759
 4263SOL    HW213689   2.891   0.824   2.777
 4264SOL     OW13690   6.217   1.734   3.709
 4264SOL    HW113691   6.226   1.756   3.806
 4264SOL    HW213692   6.287   1.668   3.684
 4265SOL     OW13693   4.175   1.038   0.469
 4265SOL    HW113694   4.113   0.986   0.411
 4265SOL    HW213695   4.171   1.135   0.444
 4266SOL     OW13696   1.590   6.313   6.662
 4266SOL    HW113697   1.635   6.227   6.637
 4266SOL    HW213698   1.619   6.386   6.601
 4267SOL     OW13699   2.166   3.889   3.521
 4267SOL    HW113700   2.189   3.870   3.425
 4267SOL    HW213701   2.153   3.802   3.569
 4268SOL     OW13702   1.183   5.488   6.453
 4268SOL    HW113703   1.113   5.547   6.412
 4268SOL    HW213704   1.274   5.523   6.429
 4269SOL     OW13705   2.765   0.518   1.993
 4269SOL    HW113706   2.781   0.596   1.933
 4269SOL    HW213707   2.853   0.477   2.020
 4270SOL     OW13708   4.113   3.649   3.334
 4270SOL    HW113709   4.196   3.627   3.283
 4270SOL    HW213710   4.046   3.690   3.273
 4271SOL     OW13711   6.512   1.203   6.636
 4271SOL    HW113712   6.553   1.133   6.578
 4271SOL    HW213713   6.416   1.214   6.611
 4272SOL     OW13714   6.531   2.075   4.570
 4272SOL    HW113715   6.450   2.019   4.557
 4272SOL    HW213716   6.613   2.020   4.555
 4273SOL     OW13717   4.094   6.854   5.403
 4273SOL    HW113718   4.050   6.777   5.450
 4273SOL    HW213719   4.030   6.930   5.397
 4274SOL     OW13720   1.042   0.510   1.717
 4274SOL    HW113721   0.997   0.422   1.701
 4274SOL    HW213722   0.992   0.560   1.788
 4275SOL     OW13723   5.909   2.165   4.638
 4275SOL    HW113724   5.855   2.149   4.720
 4275SOL    HW213725   6.006   2.160   4.660
 4276SOL     OW13726   2.442   5.211   4.059
 4276SOL    HW113727   2.449   5.148   3.981
 4276SOL    HW213728   2.402   5.164   4.137
 4277SOL     OW13729   6.053   4.724   3.094
 4277SOL    HW113730   5.957   4.697   3.098
 4277SOL    HW213731   6.086   4.745   3.187
 4278SOL     OW13732   6.988   6.739   4.799
 4278SOL    HW113733   0.033   6.678   4.841
 4278SOL    HW213734   0.009   6.824   4.770
 4279SOL     OW13735   3.642   1.335   3.580
 4279SOL    HW113736   3.720   1.275   3.599
 4279SOL    HW213737   3.576   1.328   3.655
 4280SOL     OW13738   5.375   0.464   6.316
 4280SOL    HW113739   5.426   0.550   6.319
 4280SOL    HW213740   5.327   0.457   6.228
 4281SOL     OW13741   6.544   4.404   3.579
 4281SOL    HW113742   6.550   4.304   3.567
 4281SOL    HW213743   6.630   4.446   3.549
 4282SOL     OW13744   3.553   4.787   6.726
 4282SOL    HW113745   3.453   4.784   6.737
 4282SOL    HW213746   3.581   4.715   6.663
 4283SOL     OW13747   1.592   0.560   3.109
 4283SOL    HW113748   1.582   0.475   3.058
 4283SOL    HW213749   1.510   0.616   3.098
 4284SOL     OW13750   3.638   4.404   0.947
 4284SOL    HW113751   3.574   4.351   1.003
 4284SOL    HW213752   3.589   4.479   0.901
 4285SOL     OW13753   1.658   0.445   5.778
 4285SOL    HW113754   1.643   0.349   5.756
 4285SOL    HW213755   1.752   0.471   5.753
 4286SOL     OW13756   5.219   6.450   5.634
 4286SOL    HW113757   5.152   6.471   5.705
 4286SOL    HW213758   5.208   6.513   5.557
 4287SOL     OW13759   5.726   1.060   6.069
 4287SOL    HW113760   5.682   1.064   5.979
 4287SOL    HW213761   5.801   0.994   6.067
 4288SOL     OW13762   0.928   5.882   2.990
 4288SOL    HW113763   0.917   5.793   2.946
 4288SOL    HW213764   0.841   5.931   2.989
 4289SOL     OW13765   6.711   3.112   6.121
 4289SOL    HW113766   6.653   3.152   6.051
 4289SOL    HW213767   6.689   3.015   6.133
 4290SOL     OW13768   1.552   6.482   3.559
 4290SOL    HW113769   1.598   6.401   3.597
 4290SOL    HW213770   1.453   6.469   3.563
 4291SOL     OW13771   4.735   3.791   0.422
 4291SOL    HW113772   4.816   3.834   0.462
 4291SOL    HW213773   4.718   3.703   0.467
 4292SOL     OW13774   5.310   3.118   0.338
 4292SOL    HW113775   5.318   3.025   0.372
 4292SOL    HW213776   5.274   3.177   0.410
 4293SOL     OW13777   2.539   3.065   0.340
 4293SOL    HW113778   2.596   2.984   0.326
 4293SOL    HW213779   2.478   3.049   0.417
 4294SOL     OW13780   2.251   2.193   6.623
 4294SOL    HW113781   2.152   2.189   6.615
 4294SOL    HW213782   2.290   2.104   6.600
 4295SOL     OW13783   3.468   5.718   4.944
 4295SOL    HW113784   3.398   5.786   4.964
 4295SOL    HW213785   3.428   5.641   4.896
 4296SOL     OW13786   3.500   6.898   0.633
 4296SOL    HW113787   3.417   6.927   0.585
 4296SOL    HW213788   3.515   6.957   0.712
 4297SOL     OW13789   5.044   0.101   1.164
 4297SOL    HW113790   5.053   0.001   1.162
 4297SOL    HW213791   5.103   0.141   1.094
 4298SOL     OW13792   4.133   5.473   0.426
 4298SOL    HW113793   4.048   5.526   0.428
 4298SOL    HW213794   4.114   5.380   0.394
 4299SOL     OW13795   1.478   3.111   6.645
 4299SOL    HW113796   1.409   3.160   6.699
 4299SOL    HW213797   1.544   3.068   6.705
 4300SOL     OW13798   3.270   6.788   0.286
 4300SOL    HW113799   3.318   6.806   0.201
 4300SOL    HW213800   3.277   6.868   0.346
 4301SOL     OW13801   4.274   0.818   1.776
 4301SOL    HW113802   4.218   0.764   1.839
 4301SOL    HW213803   4.274   0.776   1.686
 4302SOL     OW13804   1.106   0.240   5.994
 4302SOL    HW113805   1.041   0.166   5.974
 4302SOL    HW213806   1.057   0.324   6.012
 4303SOL     OW13807   6.959   5.262   3.829
 4303SOL    HW113808   6.955   5.243   3.731
 4303SOL    HW213809   0.025   5.302   3.852
 4304SOL     OW13810   3.001   3.607   2.631
 4304SOL    HW113811   3.084   3.556   2.609
 4304SOL    HW213812   2.924   3.569   2.581
 4305SOL     OW13813   0.707   6.843   5.779
 4305SOL    HW113814   0.768   6.831   5.701
 4305SOL    HW213815   0.699   6.757   5.829
 4306SOL     OW13816   4.680   4.793   4.902
 4306SOL    HW113817   4.771   4.809   4.941
 4306SOL    HW213818   4.685   4.717   4.837
 4307SOL     OW13819   5.616   3.992   6.257
 4307SOL    HW113820   5.571   4.033   6.337
 4307SOL    HW213821   5.617   3.892   6.268
 4308SOL     OW13822   5.986   4.556   1.214
 4308SOL    HW113823   6.035   4.615   1.150
 4308SOL    HW213824   5.897   4.597   1.236
 4309SOL     OW13825   1.116   1.145   0.205
 4309SOL    HW113826   1.152   1.187   0.121
 4309SOL    HW213827   1.039   1.086   0.182
 4310SOL     OW13828   1.956   2.292   2.078
 4310SOL    HW113829   1.874   2.312   2.130
 4310SOL    HW213830   2.036   2.299   2.137
 4311SOL     OW13831   1.724   6.189   2.408
 4311SOL    HW113832   1.738   6.203   2.309
 4311SOL    HW213833   1.747   6.095   2.432
 4312SOL     OW13834   2.110   5.944   1.956
 4312SOL    HW113835   2.113   5.986   2.047
 4312SOL    HW213836   2.182   5.984   1.899
 4313SOL     OW13837   4.514   1.638   1.063
 4313SOL    HW113838   4.445   1.600   1.001
 4313SOL    HW213839   4.479   1.634   1.157
 4314SOL     OW13840   5.740   1.528   4.449
 4314SOL    HW113841   5.768   1.439   4.412
 4314SOL    HW213842   5.821   1.577   4.480
 4315SOL     OW13843   2.732   6.676   2.848
 4315SOL    HW113844   2.774   6.649   2.934
 4315SOL    HW213845   2.729   6.776   2.842
 4316SOL     OW13846   5.148   1.089   1.866
 4316SOL    HW113847   5.137   0.993   1.843
 4316SOL    HW213848   5.092   1.145   1.805
 4317SOL     OW13849   5.321   2.256   5.091
 4317SOL    HW113850   5.406   2.221   5.130
 4317SOL    HW213851   5.261   2.288   5.165
 4318SOL     OW13852   0.122   2.433   4.887
 4318SOL    HW113853   0.217   2.464   4.882
 4318SOL    HW213854   0.120   2.341   4.925
 4319SOL     OW13855   1.814   1.463   0.461
 4319SOL    HW113856   1.860   1.526   0.523
 4319SOL    HW213857   1.769   1.391   0.514
 4320SOL     OW13858   4.793   4.824   0.807
 4320SOL    HW113859   4.809   4.812   0.905
 4320SOL    HW213860   4.813   4.919   0.781
 4321SOL     OW13861   0.199   5.609   5.287
 4321SOL    HW113862   0.256   5.561   5.354
 4321SOL    HW213863   0.155   5.542   5.228
 4322SOL     OW13864   6.018   3.076   7.008
 4322SOL    HW113865   6.059   3.131   6.934
 4322SOL    HW213866   5.964   3.136   0.045
 4323SOL     OW13867   4.547   3.982   0.336
 4323SOL    HW113868   4.618   3.924   0.374
 4323SOL    HW213869   4.583   4.032   0.257
 4324SOL     OW13870   5.922   4.358   6.611
 4324SOL    HW113871   5.915   4.451   6.575
 4324SOL    HW213872   5.932   4.294   6.536
 4325SOL     OW13873   2.481   1.051   1.350
 4325SOL    HW113874   2.577   1.042   1.374
 4325SOL    HW213875   2.458   1.148   1.338
 4326SOL     OW13876   4.655   4.746   3.406
 4326SOL    HW113877   4.695   4.665   3.449
 4326SOL    HW213878   4.727   4.800   3.362
 4327SOL     OW13879   5.804   5.865   1.937
 4327SOL    HW113880   5.817   5.768   1.919
 4327SOL    HW213881   5.708   5.889   1.922
 4328SOL     OW13882   4.475   3.968   5.884
 4328SOL    HW113883   4.522   4.055   5.900
 4328SOL    HW213884   4.422   3.943   5.966
 4329SOL     OW13885   4.657   2.184   5.201
 4329SOL    HW113886   4.572   2.238   5.210
 4329SOL    HW213887   4.702   2.178   5.290
 4330SOL     OW13888   2.020   6.104   4.646
 4330SOL    HW113889   1.940   6.045   4.640
 4330SOL    HW213890   1.990   6.197   4.669
 4331SOL     OW13891   6.180   1.444   1.978
 4331SOL    HW113892   6.229   1.503   1.914
 4331SOL    HW213893   6.084   1.440   1.953
 4332SOL     OW13894   4.894   2.982   2.770
 4332SOL    HW113895   4.985   3.002   2.806
 4332SOL    HW213896   4.902   2.918   2.694
 4333SOL     OW13897   4.271   1.172   5.973
 4333SOL    HW113898   4.340   1.245   5.971
 4333SOL    HW213899   4.242   1.155   6.067
 4334SOL     OW13900   1.506   1.924   2.822
 4334SOL    HW113901   1.492   1.881   2.911
 4334SOL    HW213902   1.440   1.998   2.809
 4335SOL     OW13903   3.344   3.900   2.519
 4335SOL    HW113904   3.289   3.845   2.456
 4335SOL    HW213905   3.283   3.958   2.573
 4336SOL     OW13906   3.482   6.666   6.048
 4336SOL    HW113907   3.480   6.577   6.003
 4336SOL    HW213908   3.530   6.732   5.990
 4337SOL     OW13909   1.096   4.501   0.566
 4337SOL    HW113910   1.126   4.570   0.633
 4337SOL    HW213911   1.116   4.410   0.600
 4338SOL     OW13912   6.096   6.819   6.201
 4338SOL    HW113913   6.085   6.744   6.267
 4338SOL    HW213914   6.070   6.787   6.110
 4339SOL     OW13915   4.496   3.270   5.987
 4339SOL    HW113916   4.513   3.173   5.972
 4339SOL    HW213917   4.559   3.324   5.932
 4340SOL     OW13918   6.192   3.290   1.009
 4340SOL    HW113919   6.123   3.332   0.950
 4340SOL    HW213920   6.147   3.247   1.088
 4341SOL     OW13921   1.216   5.243   1.796
 4341SOL    HW113922   1.281   5.180   1.838
 4341SOL    HW213923   1.207   5.221   1.698
 4342SOL     OW13924   5.116   3.827   3.599
 4342SOL    HW113925   5.211   3.826   3.631
 4342SOL    HW213926   5.081   3.920   3.604
 4343SOL     OW13927   3.022   6.185   5.032
 4343SOL    HW113928   3.093   6.248   5.000
 4343SOL    HW213929   2.954   6.236   5.085
 4344SOL     OW13930   0.325   4.078   1.902
 4344SOL    HW113931   0.287   4.166   1.876
 4344SOL    HW213932   0.261   4.030   1.962
 4345SOL     OW13933   3.631   4.340   5.793
 4345SOL    HW113934   3.543   4.295   5.811
 4345SOL    HW213935   3.654   4.332   5.696
 4346SOL     OW13936   1.841   3.772   2.777
 4346SOL    HW113937   1.756   3.724   2.799
 4346SOL    HW213938   1.912   3.705   2.756
 4347SOL     OW13939   6.251   6.956   2.232
 4347SOL    HW113940   6.238   6.875   2.289
 4347SOL    HW213941   6.226   6.936   2.138
 4348SOL     OW13942   0.476   5.388   3.184
 4348SOL    HW113943   0.510   5.472   3.143
 4348SOL    HW213944   0.486   5.392   3.284
 4349SOL     OW13945   5.463   1.755   2.729
 4349SOL    HW113946   5.398   1.825   2.700
 4349SOL    HW213947   5.531   1.741   2.656
 4350SOL     OW13948   3.351   2.034   3.698
 4350SOL    HW113949   3.435   2.066   3.742
 4350SOL    HW213950   3.272   2.067   3.750
 4351SOL     OW13951   1.661   5.889   1.179
 4351SOL    HW113952   1.616   5.820   1.236
 4351SOL    HW213953   1.592   5.954   1.146
 4352SOL     OW13954   6.406   3.693   2.622
 4352SOL    HW113955   6.473   3.627   2.654
 4352SOL    HW213956   6.419   3.710   2.524
 4353SOL     OW13957   3.891   2.851   6.789
 4353SOL    HW113958   3.988   2.859   6.765
 4353SOL    HW213959   3.852   2.770   6.747
 4354SOL     OW13960   2.009   0.555   5.917
 4354SOL    HW113961   1.953   0.543   5.835
 4354SOL    HW213962   2.106   0.554   5.893
 4355SOL     OW13963   2.811   0.505   2.842
 4355SOL    HW113964   2.748   0.565   2.891
 4355SOL    HW213965   2.812   0.529   2.746
 4356SOL     OW13966   5.280   3.656   0.004
 4356SOL    HW113967   5.326   3.696   0.083
 4356SOL    HW213968   5.312   3.563   7.011
 4357SOL     OW13969   6.358   0.998   1.326
 4357SOL    HW113970   6.377   1.096   1.326
 4357SOL    HW213971   6.363   0.963   1.232
 4358SOL     OW13972   0.041   0.896   0.500
 4358SOL    HW113973   0.138   0.915   0.514
 4358SOL    HW213974   7.010   0.940   0.572
 4359SOL     OW13975   1.477   0.941   5.823
 4359SOL    HW113976   1.492   0.849   5.861
 4359SOL    HW213977   1.417   0.992   5.884
 4360SOL     OW13978   0.893   3.241   3.600
 4360SOL    HW113979   0.982   3.281   3.577
 4360SOL    HW213980   0.821   3.305   3.575
 4361SOL     OW13981   2.733   3.636   1.335
 4361SOL    HW113982   2.760   3.635   1.431
 4361SOL    HW213983   2.634   3.639   1.328
 4362SOL     OW13984   6.729   5.612   3.230
 4362SOL    HW113985   6.638   5.631   3.194
 4362SOL    HW213986   6.770   5.536   3.179
 4363SOL     OW13987   5.163   1.993   0.974
 4363SOL    HW113988   5.122   1.981   1.064
 4363SOL    HW213989   5.159   2.090   0.948
 4364SOL     OW13990   3.241   3.997   4.317
 4364SOL    HW113991   3.231   3.916   4.375
 4364SOL    HW213992   3.284   4.070   4.369
 4365SOL     OW13993   2.808   0.522   1.559
 4365SOL    HW113994   2.887   0.487   1.610
 4365SOL    HW213995   2.833   0.608   1.515
 4366SOL     OW13996   6.231   6.948   6.681
 4366SOL    HW113997   6.295   0.001   6.691
 4366SOL    HW213998   6.267   6.883   6.614
 4367SOL     OW13999   2.327   4.466   4.241
 4367SOL    HW114000   2.344   4.454   4.143
 4367SOL    HW214001   2.230   4.483   4.256
 4368SOL     OW14002   3.855   5.964   0.980
 4368SOL    HW114003   3.933   6.026   0.989
 4368SOL    HW214004   3.885   5.879   0.937
 4369SOL     OW14005   4.487   5.594   2.953
 4369SOL    HW114006   4.438   5.575   3.038
 4369SOL    HW214007   4.445   5.672   2.907
 4370SOL     OW14008   3.712   4.901   1.691
 4370SOL    HW114009   3.685   4.859   1.604
 4370SOL    HW214010   3.653   4.866   1.764
 4371SOL     OW14011   1.066   2.279   2.347
 4371SOL    HW114012   1.066   2.188   2.306
 4371SOL    HW214013   1.098   2.272   2.442
 4372SOL     OW14014   2.262   2.546   3.807
 4372SOL    HW114015   2.183   2.492   3.835
 4372SOL    HW214016   2.327   2.487   3.758
 4373SOL     OW14017   5.344   1.253   6.914
 4373SOL    HW114018   5.425   1.291   6.958
 4373SOL    HW214019   5.298   1.325   6.861
 4374SOL     OW14020   0.884   1.284   0.670
 4374SOL    HW114021   0.788   1.294   0.644
 4374SOL    HW214022   0.942   1.299   0.589
 4375SOL     OW14023   4.299   6.611   3.552
 4375SOL    HW114024   4.348   6.658   3.478
 4375SOL    HW214025   4.204   6.599   3.526
 4376SOL     OW14026   5.898   6.672   2.959
 4376SOL    HW114027   5.839   6.664   3.039
 4376SOL    HW214028   5.915   6.769   2.940
 4377SOL     OW14029   5.694   5.205   6.875
 4377SOL    HW114030   5.612   5.249   6.910
 4377SOL    HW214031   5.775   5.253   6.909
 4378SOL     OW14032   2.265   2.922   2.533
 4378SOL    HW114033   2.241   2.967   2.620
 4378SOL    HW214034   2.332   2.849   2.551
 4379SOL     OW14035   2.136   2.235   2.536
 4379SOL    HW114036   2.125   2.293   2.617
 4379SOL    HW214037   2.108   2.142   2.558
 4380SOL     OW14038   1.104   6.612   3.243
 4380SOL    HW114039   1.103   6.644   3.338
 4380SOL    HW214040   1.128   6.688   3.183
 4381SOL     OW14041   2.228   3.977   5.612
 4381SOL    HW114042   2.210   3.883   5.641
 4381SOL    HW214043   2.240   3.980   5.513
 4382SOL     OW14044   5.944   3.185   6.446
 4382SOL    HW114045   6.031   3.217   6.408
 4382SOL    HW214046   5.905   3.257   6.503
 4383SOL     OW14047   0.638   2.007   5.777
 4383SOL    HW114048   0.732   2.004   5.744
 4383SOL    HW214049   0.580   1.954   5.716
 4384SOL     OW14050   6.112   1.830   6.051
 4384SOL    HW114051   6.090   1.766   6.125
 4384SOL    HW214052   6.030   1.881   6.025
 4385SOL     OW14053   6.111   2.802   5.049
 4385SOL    HW114054   6.013   2.781   5.046
 4385SOL    HW214055   6.158   2.734   5.105
 4386SOL     OW14056   2.204   3.693   0.222
 4386SOL    HW114057   2.256   3.636   0.286
 4386SOL    HW214058   2.216   3.657   0.129
 4387SOL     OW14059   6.726   1.170   1.827
 4387SOL    HW114060   6.732   1.269   1.836
 4387SOL    HW214061   6.817   1.130   1.838
 4388SOL     OW14062   5.348   1.885   6.478
 4388SOL    HW114063   5.341   1.949   6.402
 4388SOL    HW214064   5.333   1.792   6.445
 4389SOL     OW14065   0.273   3.849   0.790
 4389SOL    HW114066   0.347   3.797   0.833
 4389SOL    HW214067   0.300   3.875   0.698
 4390SOL     OW14068   3.617   0.858   1.289
 4390SOL    HW114069   3.570   0.834   1.374
 4390SOL    HW214070   3.710   0.820   1.291
 4391SOL     OW14071   1.525   5.486   0.223
 4391SOL    HW114072   1.512   5.437   0.137
 4391SOL    HW214073   1.622   5.511   0.233
 4392SOL     OW14074   6.923   3.354   6.276
 4392SOL    HW114075   6.869   3.405   6.343
 4392SOL    HW214076   7.020   3.368   6.294
 4393SOL     OW14077   6.038   1.071   2.424
 4393SOL    HW114078   5.959   1.019   2.393
 4393SOL    HW214079   6.108   1.070   2.353
 4394SOL     OW14080   5.623   5.929   2.411
 4394SOL    HW114081   5.567   5.880   2.344
 4394SOL    HW214082   5.693   5.982   2.364
 4395SOL     OW14083   3.543   6.947   1.487
 4395SOL    HW114084   3.628   6.902   1.515
 4395SOL    HW214085   3.547   0.020   1.512
 4396SOL     OW14086   1.991   2.428   3.882
 4396SOL    HW114087   1.987   2.513   3.934
 4396SOL    HW214088   1.947   2.355   3.934
 4397SOL     OW14089   0.345   0.931   4.626
 4397SOL    HW114090   0.330   0.853   4.566
 4397SOL    HW214091   0.430   0.918   4.677
 4398SOL     OW14092   0.737   4.649   5.452
 4398SOL    HW114093   0.656   4.679   5.401
 4398SOL    HW214094   0.736   4.550   5.462
 4399SOL     OW14095   1.944   0.895   1.320
 4399SOL    HW114096   1.918   0.808   1.279
 4399SOL    HW214097   2.041   0.912   1.302
 4400SOL     OW14098   3.569   6.549   5.749
 4400SOL    HW114099   3.494   6.499   5.706
 4400SOL    HW214100   3.589   6.631   5.696
 4401SOL     OW14101   4.771   6.661   6.692
 4401SOL    HW114102   4.833   6.715   6.635
 4401SOL    HW214103   4.728   6.721   6.760
 4402SOL     OW14104   2.905   6.730   1.141
 4402SOL    HW114105   3.003   6.739   1.161
 4402SOL    HW214106   2.858   6.814   1.169
 4403SOL     OW14107   0.678   0.335   3.355
 4403SOL    HW114108   0.722   0.246   3.345
 4403SOL    HW214109   0.715   0.382   3.436
 4404SOL     OW14110   0.347   4.598   5.816
 4404SOL    HW114111   0.436   4.555   5.834
 4404SOL    HW214112   0.362   4.693   5.788
 4405SOL     OW14113   1.749   4.640   1.392
 4405SOL    HW114114   1.665   4.693   1.380
 4405SOL    HW214115   1.779   4.646   1.487
 4406SOL     OW14116   0.132   4.306   0.786
 4406SOL    HW114117   0.177   4.382   0.834
 4406SOL    HW214118   0.190   4.224   0.793
 4407SOL     OW14119   6.673   4.896   0.558
 4407SOL    HW114120   6.758   4.948   0.549
 4407SOL    HW214121   6.694   4.805   0.595
 4408SOL     OW14122   3.139   0.738   1.818
 4408SOL    HW114123   3.212   0.672   1.796
 4408SOL    HW214124   3.169   0.796   1.894
 4409SOL     OW14125   4.824   0.367   2.604
 4409SOL    HW114126   4.865   0.276   2.596
 4409SOL    HW214127   4.760   0.368   2.681
 4410SOL     OW14128   1.238   5.139   6.778
 4410SOL    HW114129   1.225   5.238   6.772
 4410SOL    HW214130   1.316   5.113   6.721
 4411SOL     OW14131   3.650   4.114   4.424
 4411SOL    HW114132   3.656   4.026   4.376
 4411SOL    HW214133   3.723   4.175   4.390
 4412SOL     OW14134   4.316   6.438   5.010
 4412SOL    HW114135   4.404   6.393   5.025
 4412SOL    HW214136   4.275   6.462   5.098
 4413SOL     OW14137   6.371   5.538   4.402
 4413SOL    HW114138   6.439   5.584   4.345
 4413SOL    HW214139   6.279   5.557   4.366
 4414SOL     OW14140   3.778   4.355   1.323
 4414SOL    HW114141   3.834   4.431   1.356
 4414SOL    HW214142   3.743   4.304   1.401
 4415SOL     OW14143   3.972   3.516   0.371
 4415SOL    HW114144   4.051   3.470   0.410
 4415SOL    HW214145   4.002   3.585   0.305
 4416SOL     OW14146   2.622   0.723   3.911
 4416SOL    HW114147   2.559   0.758   3.980
 4416SOL    HW214148   2.709   0.699   3.955
 4417SOL     OW14149   5.820   4.257   3.502
 4417SOL    HW114150   5.750   4.199   3.545
 4417SOL    HW214151   5.882   4.200   3.448
 4418SOL     OW14152   5.947   1.828   1.891
 4418SOL    HW114153   5.863   1.787   1.928
 4418SOL    HW214154   6.018   1.828   1.962
 4419SOL     OW14155   6.035   6.270   6.685
 4419SOL    HW114156   6.091   6.205   6.736
 4419SOL    HW214157   6.018   6.234   6.593
 4420SOL     OW14158   5.281   1.790   1.713
 4420SOL    HW114159   5.196   1.802   1.764
 4420SOL    HW214160   5.305   1.693   1.708
 4421SOL     OW14161   1.691   0.514   5.233
 4421SOL    HW114162   1.721   0.591   5.177
 4421SOL    HW214163   1.607   0.475   5.195
 4422SOL     OW14164   2.600   3.696   6.739
 4422SOL    HW114165   2.549   3.610   6.748
 4422SOL    HW214166   2.539   3.773   6.759
 4423SOL     OW14167   1.495   3.177   5.922
 4423SOL    HW114168   1.498   3.083   5.887
 4423SOL    HW214169   1.545   3.237   5.859
 4424SOL     OW14170   6.006   0.898   4.403
 4424SOL    HW114171   6.074   0.826   4.388
 4424SOL    HW214172   5.926   0.859   4.450
 4425SOL     OW14173   3.211   4.983   0.266
 4425SOL    HW114174   3.237   4.958   0.172
 4425SOL    HW214175   3.160   4.907   0.307
 4426SOL     OW14176   0.132   0.639   4.603
 4426SOL    HW114177   0.139   0.615   4.506
 4426SOL    HW214178   0.067   0.578   4.648
 4427SOL     OW14179   0.570   6.271   2.329
 4427SOL    HW114180   0.600   6.186   2.372
 4427SOL    HW214181   0.623   6.286   2.245
 4428SOL     OW14182   3.163   0.209   2.621
 4428SOL    HW114183   3.193   0.121   2.584
 4428SOL    HW214184   3.240   0.273   2.621
 4429SOL     OW14185   2.752   6.941   2.817
 4429SOL    HW114186   2.659   6.922   2.786
 4429SOL    HW214187   2.759   0.014   2.844
 4430SOL     OW14188   5.139   3.815   4.834
 4430SOL    HW114189   5.153   3.906   4.874
 4430SOL    HW214190   5.046   3.784   4.853
 4431SOL     OW14191   1.822   1.276   2.121
 4431SOL    HW114192   1.920   1.291   2.136
 4431SOL    HW214193   1.770   1.331   2.186
 4432SOL     OW14194   3.533   3.392   4.988
 4432SOL    HW114195   3.506   3.320   4.924
 4432SOL    HW214196   3.515   3.362   5.082
 4433SOL     OW14197   4.390   1.470   4.617
 4433SOL    HW114198   4.335   1.527   4.556
 4433SOL    HW214199   4.394   1.512   4.707
 4434SOL     OW14200   5.112   1.847   3.978
 4434SOL    HW114201   5.097   1.774   4.043
 4434SOL    HW214202   5.056   1.926   4.003
 4435SOL     OW14203   4.548   3.482   1.711
 4435SOL    HW114204   4.468   3.432   1.679
 4435SOL    HW214205   4.627   3.421   1.713
 4436SOL     OW14206   4.598   0.894   1.095
 4436SOL    HW114207   4.676   0.848   1.053
 4436SOL    HW214208   4.625   0.984   1.127
 4437SOL     OW14209   6.051   2.050   2.919
 4437SOL    HW114210   6.102   2.134   2.900
 4437SOL    HW214211   6.064   1.986   2.843
 4438SOL     OW14212   5.675   6.701   0.285
 4438SOL    HW114213   5.621   6.782   0.260
 4438SOL    HW214214   5.689   6.643   0.205
 4439SOL     OW14215   0.144   5.146   1.666
 4439SOL    HW114216   0.100   5.175   1.751
 4439SOL    HW214217   0.241   5.171   1.668
 4440SOL     OW14218   2.321   5.087   0.539
 4440SOL    HW114219   2.376   5.130   0.611
 4440SOL    HW214220   2.245   5.037   0.581
 4441SOL     OW14221   6.933   1.549   2.907
 4441SOL    HW114222   7.017   1.500   2.883
 4441SOL    HW214223   6.955   1.645   2.925
 4442SOL     OW14224   2.625   5.802   4.480
 4442SOL    HW114225   2.621   5.706   4.454
 4442SOL    HW214226   2.693   5.849   4.423
 4443SOL     OW14227   6.965   3.434   0.609
 4443SOL    HW114228   6.927   3.343   0.592
 4443SOL    HW214229   6.898   3.503   0.581
 4444SOL     OW14230   3.078   4.787   5.564
 4444SOL    HW114231   3.059   4.729   5.486
 4444SOL    HW214232   3.175   4.781   5.588
 4445SOL     OW14233   0.653   0.451   0.987
 4445SOL    HW114234   0.627   0.424   1.079
 4445SOL    HW214235   0.716   0.529   0.991
 4446SOL     OW14236   5.601   1.125   2.199
 4446SOL    HW114237   5.677   1.184   2.172
 4446SOL    HW214238   5.585   1.133   2.297
 4447SOL     OW14239   5.587   3.730   6.287
 4447SOL    HW114240   5.583   3.646   6.234
 4447SOL    HW214241   5.588   3.708   6.384
 4448SOL     OW14242   2.872   3.978   1.473
 4448SOL    HW114243   2.927   3.956   1.554
 4448SOL    HW214244   2.803   3.907   1.459
 4449SOL     OW14245   5.078   0.339   6.210
 4449SOL    HW114246   5.134   0.398   6.152
 4449SOL    HW214247   5.011   0.395   6.259
 4450SOL     OW14248   3.763   3.348   4.358
 4450SOL    HW114249   3.803   3.257   4.374
 4450SOL    HW214250   3.728   3.384   4.445
 4451SOL     OW14251   5.952   4.727   3.454
 4451SOL    HW114252   6.005   4.810   3.473
 4451SOL    HW214253   6.009   4.646   3.470
 4452SOL     OW14254   5.307   6.579   4.641
 4452SOL    HW114255   5.209   6.585   4.621
 4452SOL    HW214256   5.321   6.587   4.740
 4453SOL     OW14257   0.391   2.744   1.614
 4453SOL    HW114258   0.347   2.729   1.525
 4453SOL    HW214259   0.399   2.657   1.663
 4454SOL     OW14260   1.361   2.084   0.182
 4454SOL    HW114261   1.411   2.120   0.103
 4454SOL    HW214262   1.356   1.984   0.174
 4455SOL     OW14263   4.277   6.244   6.025
 4455SOL    HW114264   4.353   6.254   5.961
 4455SOL    HW214265   4.307   6.270   6.117
 4456SOL     OW14266   3.753   6.189   1.965
 4456SOL    HW114267   3.731   6.146   1.878
 4456SOL    HW214268   3.766   6.119   2.035
 4457SOL     OW14269   4.761   1.614   1.972
 4457SOL    HW114270   4.801   1.704   1.990
 4457SOL    HW214271   4.772   1.557   2.053
 4458SOL     OW14272   1.467   2.678   6.558
 4458SOL    HW114273   1.392   2.668   6.492
 4458SOL    HW214274   1.470   2.597   6.617
 4459SOL     OW14275   3.820   0.676   5.011
 4459SOL    HW114276   3.851   0.695   4.918
 4459SOL    HW214277   3.900   0.665   5.070
 4460SOL     OW14278   2.644   2.614   5.936
 4460SOL    HW114279   2.625   2.567   5.850
 4460SOL    HW214280   2.741   2.639   5.940
 4461SOL     OW14281   1.093   0.721   1.475
 4461SOL    HW114282   1.040   0.701   1.557
 4461SOL    HW214283   1.094   0.819   1.459
 4462SOL     OW14284   5.952   4.664   1.918
 4462SOL    HW114285   5.981   4.573   1.948
 4462SOL    HW214286   6.016   4.732   1.952
 4463SOL     OW14287   5.388   2.186   6.719
 4463SOL    HW114288   5.344   2.205   6.632
 4463SOL    HW214289   5.483   2.160   6.704
 4464SOL     OW14290   6.465   5.081   0.606
 4464SOL    HW114291   6.394   5.035   0.660
 4464SOL    HW214292   6.527   5.012   0.567
 4465SOL     OW14293   2.875   5.502   1.108
 4465SOL    HW114294   2.786   5.475   1.144
 4465SOL    HW214295   2.903   5.437   1.037
 4466SOL     OW14296   1.515   1.845   3.331
 4466SOL    HW114297   1.416   1.863   3.333
 4466SOL    HW214298   1.544   1.830   3.236
 4467SOL     OW14299   1.905   6.663   2.524
 4467SOL    HW114300   1.944   6.572   2.532
 4467SOL    HW214301   1.903   6.706   2.614
 4468SOL     OW14302   1.998   2.521   0.498
 4468SOL    HW114303   1.906   2.559   0.489
 4468SOL    HW214304   2.024   2.476   0.413
 4469SOL     OW14305   4.008   0.987   1.722
 4469SOL    HW114306   3.956   0.965   1.805
 4469SOL    HW214307   4.092   0.932   1.719
 4470SOL     OW14308   5.965   2.451   2.526
 4470SOL    HW114309   5.961   2.548   2.548
 4470SOL    HW214310   6.060   2.420   2.525
 4471SOL     OW14311   0.554   1.920   6.750
 4471SOL    HW114312   0.545   1.954   6.657
 4471SOL    HW214313   0.494   1.972   6.811
 4472SOL     OW14314   1.534   3.197   3.181
 4472SOL    HW114315   1.550   3.195   3.280
 4472SOL    HW214316   1.617   3.229   3.135
 4473SOL     OW14317   6.338   3.175   4.756
 4473SOL    HW114318   6.270   3.107   4.783
 4473SOL    HW214319   6.379   3.217   4.837
 4474SOL     OW14320   2.850   0.740   1.861
 4474SOL    HW114321   2.925   0.804   1.875
 4474SOL    HW214322   2.861   0.694   1.773
 4475SOL     OW14323   1.875   3.950   2.544
 4475SOL    HW114324   1.879   3.892   2.462
 4475SOL    HW214325   1.856   3.893   2.624
 4476SOL     OW14326   3.567   0.259   3.592
 4476SOL    HW114327   3.615   0.230   3.675
 4476SOL    HW214328   3.503   0.332   3.614
 4477SOL     OW14329   1.761   6.631   5.177
 4477SOL    HW114330   1.822   6.668   5.107
 4477SOL    HW214331   1.750   6.533   5.163
 4478SOL     OW14332   3.750   0.301   2.936
 4478SOL    HW114333   3.841   0.326   2.970
 4478SOL    HW214334   3.736   0.341   2.846
 4479SOL     OW14335   0.863   1.208   1.786
 4479SOL    HW114336   0.957   1.216   1.818
 4479SOL    HW214337   0.858   1.137   1.715
 4480SOL     OW14338   1.995   3.646   5.482
 4480SOL    HW114339   2.078   3.613   5.438
 4480SOL    HW214340   1.956   3.573   5.539
 4481SOL     OW14341   2.789   6.305   5.101
 4481SOL    HW114342   2.733   6.347   5.171
 4481SOL    HW214343   2.736   6.235   5.053
 4482SOL     OW14344   1.057   3.380   4.756
 4482SOL    HW114345   1.110   3.295   4.759
 4482SOL    HW214346   1.119   3.456   4.736
 4483SOL     OW14347   5.585   3.145   2.005
 4483SOL    HW114348   5.659   3.080   1.987
 4483SOL    HW214349   5.498   3.102   1.984
 4484SOL     OW14350   2.683   2.907   6.258
 4484SOL    HW114351   2.708   2.885   6.164
 4484SOL    HW214352   2.728   2.843   6.321
 4485SOL     OW14353   5.589   1.570   5.281
 4485SOL    HW114354   5.651   1.493   5.292
 4485SOL    HW214355   5.584   1.621   5.367
 4486SOL     OW14356   5.297   4.373   5.268
 4486SOL    HW114357   5.394   4.365   5.290
 4486SOL    HW214358   5.283   4.362   5.170
 4487SOL     OW14359   1.914   3.302   5.963
 4487SOL    HW114360   1.821   3.287   5.997
 4487SOL    HW214361   1.980   3.287   6.036
 4488SOL     OW14362   0.127   3.542   6.584
 4488SOL    HW114363   0.119   3.641   6.573
 4488SOL    HW214364   0.165   3.502   6.501
 4489SOL     OW14365   5.495   5.789   3.899
 4489SOL    HW114366   5.557   5.774   3.977
 4489SOL    HW214367   5.520   5.728   3.824
 4490SOL     OW14368   6.570   2.825   2.957
 4490SOL    HW114369   6.486   2.773   2.943
 4490SOL    HW214370   6.602   2.813   3.051
 4491SOL     OW14371   6.989   2.537   4.666
 4491SOL    HW114372   6.949   2.628   4.673
 4491SOL    HW214373   7.019   2.506   4.756
 4492SOL     OW14374   5.595   3.828   1.518
 4492SOL    HW114375   5.685   3.804   1.481
 4492SOL    HW214376   5.604   3.908   1.577
 4493SOL     OW14377   4.249   5.268   4.884
 4493SOL    HW114378   4.242   5.177   4.843
 4493SOL    HW214379   4.345   5.293   4.894
 4494SOL     OW14380   6.964   1.001   6.196
 4494SOL    HW114381   6.991   0.922   6.251
 4494SOL    HW214382   6.928   0.969   6.108
 4495SOL     OW14383   3.623   6.599   4.321
 4495SOL    HW114384   3.653   6.505   4.306
 4495SOL    HW214385   3.583   6.607   4.413
 4496SOL     OW14386   5.684   5.798   1.513
 4496SOL    HW114387   5.601   5.800   1.569
 4496SOL    HW214388   5.754   5.856   1.556
 4497SOL     OW14389   4.965   1.291   0.081
 4497SOL    HW114390   4.895   1.272   0.012
 4497SOL    HW214391   4.976   1.390   0.090
 4498SOL     OW14392   0.377   3.778   0.298
 4498SOL    HW114393   0.350   3.788   0.202
 4498SOL    HW214394   0.351   3.687   0.331
 4499SOL     OW14395   6.359   3.828   5.247
 4499SOL    HW114396   6.438   3.786   5.202
 4499SOL    HW214397   6.276   3.778   5.221
 4500SOL     OW14398   2.947   3.309   4.306
 4500SOL    HW114399   2.998   3.248   4.367
 4500SOL    HW214400   2.897   3.377   4.360
 4501SOL     OW14401   0.483   3.351   3.555
 4501SOL    HW114402   0.504   3.255   3.572
 4501SOL    HW214403   0.391   3.358   3.516
 4502SOL     OW14404   1.065   2.877   6.705
 4502SOL    HW114405   1.050   2.805   6.637
 4502SOL    HW214406   1.163   2.895   6.714
 4503SOL     OW14407   3.360   6.902   1.757
 4503SOL    HW114408   3.390   6.870   1.667
 4503SOL    HW214409   3.269   6.865   1.777
 4504SOL     OW14410   6.485   0.562   4.927
 4504SOL    HW114411   6.429   0.645   4.917
 4504SOL    HW214412   6.431   0.490   4.971
 4505SOL     OW14413   5.588   4.899   2.327
 4505SOL    HW114414   5.665   4.840   2.351
 4505SOL    HW214415   5.553   4.874   2.237
 4506SOL     OW14416   4.508   1.868   3.266
 4506SOL    HW114417   4.425   1.881   3.212
 4506SOL    HW214418   4.516   1.942   3.332
 4507SOL     OW14419   5.247   4.418   2.187
 4507SOL    HW114420   5.267   4.414   2.284
 4507SOL    HW214421   5.302   4.350   2.138
 4508SOL     OW14422   1.053   4.979   6.726
 4508SOL    HW114423   1.109   5.058   6.750
 4508SOL    HW214424   0.998   4.999   6.645
 4509SOL     OW14425   4.208   2.283   2.779
 4509SOL    HW114426   4.116   2.248   2.759
 4509SOL    HW214427   4.214   2.307   2.876
 4510SOL     OW14428   3.899   1.255   4.133
 4510SOL    HW114429   3.916   1.283   4.039
 4510SOL    HW214430   3.818   1.303   4.168
 4511SOL     OW14431   6.463   3.001   0.093
 4511SOL    HW114432   6.399   2.980   0.019
 4511SOL    HW214433   6.417   2.987   0.181
 4512SOL     OW14434   3.128   1.211   5.924
 4512SOL    HW114435   3.184   1.204   5.842
 4512SOL    HW214436   3.137   1.302   5.964
 4513SOL     OW14437   6.075   5.442   0.463
 4513SOL    HW114438   6.007   5.414   0.395
 4513SOL    HW214439   6.164   5.402   0.440
 4514SOL     OW14440   4.471   1.594   6.440
 4514SOL    HW114441   4.415   1.551   6.370
 4514SOL    HW214442   4.474   1.693   6.426
 4515SOL     OW14443   6.642   1.287   5.737
 4515SOL    HW114444   6.651   1.385   5.752
 4515SOL    HW214445   6.683   1.237   5.814
 4516SOL     OW14446   1.873   0.481   6.918
 4516SOL    HW114447   1.928   0.551   6.873
 4516SOL    HW214448   1.866   0.401   6.857
 4517SOL     OW14449   4.089   1.009   0.083
 4517SOL    HW114450   3.992   1.018   0.059
 4517SOL    HW214451   4.098   0.982   0.179
 4518SOL     OW14452   6.959   0.910   2.777
 4518SOL    HW114453   6.982   0.873   2.867
 4518SOL    HW214454   6.891   0.851   2.733
 4519SOL     OW14455   6.633   1.067   1.557
 4519SOL    HW114456   6.670   1.095   1.646
 4519SOL    HW214457   6.534   1.084   1.556
 4520SOL     OW14458   4.355   6.431   4.565
 4520SOL    HW114459   4.379   6.340   4.530
 4520SOL    HW214460   4.437   6.476   4.600
 4521SOL     OW14461   6.132   1.793   4.398
 4521SOL    HW114462   6.044   1.768   4.440
 4521SOL    HW214463   6.143   1.892   4.403
 4522SOL     OW14464   6.001   6.005   3.291
 4522SOL    HW114465   5.929   6.039   3.231
 4522SOL    HW214466   5.963   5.982   3.381
 4523SOL     OW14467   0.860   4.300   0.052
 4523SOL    HW114468   0.800   4.229   0.015
 4523SOL    HW214469   0.917   4.261   0.124
 4524SOL     OW14470   6.325   2.448   3.636
 4524SOL    HW114471   6.279   2.372   3.683
 4524SOL    HW214472   6.314   2.439   3.537
 4525SOL     OW14473   4.827   0.924   5.242
 4525SOL    HW114474   4.813   0.862   5.165
 4525SOL    HW214475   4.747   0.984   5.251
 4526SOL     OW14476   6.703   0.719   1.185
 4526SOL    HW114477   6.694   0.630   1.231
 4526SOL    HW214478   6.744   0.785   1.248
 4527SOL     OW14479   4.936   1.244   3.389
 4527SOL    HW114480   4.862   1.282   3.334
 4527SOL    HW214481   5.008   1.210   3.328
 4528SOL     OW14482   5.290   0.160   0.376
 4528SOL    HW114483   5.275   0.061   0.383
 4528SOL    HW214484   5.387   0.177   0.354
 4529SOL     OW14485   3.186   0.548   5.259
 4529SOL    HW114486   3.113   0.486   5.231
 4529SOL    HW214487   3.274   0.509   5.234
 4530SOL     OW14488   1.977   4.753   5.678
 4530SOL    HW114489   2.024   4.683   5.731
 4530SOL    HW214490   1.976   4.728   5.582
 4531SOL     OW14491   0.182   3.060   5.352
 4531SOL    HW114492   0.134   3.145   5.333
 4531SOL    HW214493   0.199   3.051   5.450
 4532SOL     OW14494   6.311   1.789   3.357
 4532SOL    HW114495   6.392   1.833   3.396
 4532SOL    HW214496   6.286   1.833   3.271
 4533SOL     OW14497   1.143   1.288   1.584
 4533SOL    HW114498   1.126   1.382   1.554
 4533SOL    HW214499   1.106   1.224   1.517
 4534SOL     OW14500   4.861   3.849   3.913
 4534SOL    HW114501   4.857   3.790   3.994
 4534SOL    HW214502   4.947   3.899   3.913
 4535SOL     OW14503   3.855   0.987   2.770
 4535SOL    HW114504   3.766   0.942   2.768
 4535SOL    HW214505   3.914   0.947   2.699
 4536SOL     OW14506   3.802   1.594   4.118
 4536SOL    HW114507   3.890   1.635   4.139
 4536SOL    HW214508   3.728   1.654   4.149
 4537SOL     OW14509   4.492   3.326   6.847
 4537SOL    HW114510   4.436   3.263   6.901
 4537SOL    HW214511   4.560   3.274   6.795
 4538SOL     OW14512   1.742   0.334   3.591
 4538SOL    HW114513   1.664   0.373   3.639
 4538SOL    HW214514   1.722   0.240   3.564
 4539SOL     OW14515   2.697   0.321   4.866
 4539SOL    HW114516   2.752   0.240   4.889
 4539SOL    HW214517   2.667   0.316   4.771
 4540SOL     OW14518   3.238   2.716   5.530
 4540SOL    HW114519   3.236   2.649   5.455
 4540SOL    HW214520   3.148   2.759   5.539
 4541SOL     OW14521   5.653   2.195   0.704
 4541SOL    HW114522   5.630   2.097   0.703
 4541SOL    HW214523   5.689   2.219   0.795
 4542SOL     OW14524   6.749   1.303   2.306
 4542SOL    HW114525   6.755   1.288   2.405
 4542SOL    HW214526   6.838   1.287   2.264
 4543SOL     OW14527   4.385   2.163   1.581
 4543SOL    HW114528   4.431   2.146   1.494
 4543SOL    HW214529   4.287   2.174   1.565
 4544SOL     OW14530   3.050   6.126   6.122
 4544SOL    HW114531   3.066   6.171   6.035
 4544SOL    HW214532   3.137   6.099   6.163
 4545SOL     OW14533   5.036   4.000   4.565
 4545SOL    HW114534   4.937   4.005   4.574
 4545SOL    HW214535   5.077   3.984   4.655
 4546SOL     OW14536   1.402   0.621   5.454
 4546SOL    HW114537   1.484   0.663   5.492
 4546SOL    HW214538   1.350   0.578   5.528
 4547SOL     OW14539   5.640   2.447   2.726
 4547SOL    HW114540   5.675   2.486   2.641
 4547SOL    HW214541   5.709   2.455   2.797
 4548SOL     OW14542   0.952   3.449   4.002
 4548SOL    HW114543   0.972   3.521   3.936
 4548SOL    HW214544   0.854   3.442   4.016
 4549SOL     OW14545   0.152   4.198   1.414
 4549SOL    HW114546   0.175   4.207   1.317
 4549SOL    HW214547   0.056   4.172   1.423
 4550SOL     OW14548   0.759   5.014   2.809
 4550SOL    HW114549   0.847   5.004   2.763
 4550SOL    HW214550   0.693   4.951   2.769
 4551SOL     OW14551   0.521   1.905   5.354
 4551SOL    HW114552   0.572   1.988   5.380
 4551SOL    HW214553   0.556   1.870   5.268
 4552SOL     OW14554   6.556   3.641   1.206
 4552SOL    HW114555   6.627   3.576   1.235
 4552SOL    HW214556   6.473   3.592   1.183
 4553SOL     OW14557   3.210   4.615   6.768
 4553SOL    HW114558   3.261   4.656   6.844
 4553SOL    HW214559   3.197   4.684   6.696
 4554SOL     OW14560   5.933   0.175   1.635
 4554SOL    HW114561   5.893   0.194   1.545
 4554SOL    HW214562   5.998   0.248   1.659
 4555SOL     OW14563   2.883   2.322   5.835
 4555SOL    HW114564   2.944   2.396   5.806
 4555SOL    HW214565   2.817   2.357   5.902
 4556SOL     OW14566   5.273   3.316   4.076
 4556SOL    HW114567   5.331   3.258   4.019
 4556SOL    HW214568   5.234   3.261   4.150
 4557SOL     OW14569   4.721   6.153   5.820
 4557SOL    HW114570   4.785   6.182   5.749
 4557SOL    HW214571   4.679   6.066   5.793
 4558SOL     OW14572   0.828   4.263   5.028
 4558SOL    HW114573   0.841   4.320   5.109
 4558SOL    HW214574   0.786   4.176   5.056
 4559SOL     OW14575   0.120   3.996   1.603
 4559SOL    HW114576   0.094   4.091   1.585
 4559SOL    HW214577   0.089   3.970   1.694
 4560SOL     OW14578   5.040   4.291   1.929
 4560SOL    HW114579   4.951   4.245   1.936
 4560SOL    HW214580   5.027   4.389   1.942
 4561SOL     OW14581   1.833   1.916   2.501
 4561SOL    HW114582   1.905   1.851   2.476
 4561SOL    HW214583   1.752   1.899   2.445
 4562SOL     OW14584   2.439   6.352   5.706
 4562SOL    HW114585   2.393   6.364   5.618
 4562SOL    HW214586   2.518   6.291   5.693
 4563SOL     OW14587   0.323   3.106   1.094
 4563SOL    HW114588   0.244   3.096   1.154
 4563SOL    HW214589   0.318   3.040   1.019
 4564SOL     OW14590   6.730   6.149   1.145
 4564SOL    HW114591   6.650   6.129   1.090
 4564SOL    HW214592   6.732   6.247   1.166
 4565SOL     OW14593   0.823   1.137   5.265
 4565SOL    HW114594   0.776   1.112   5.181
 4565SOL    HW214595   0.849   1.054   5.315
 4566SOL     OW14596   6.596   2.803   0.529
 4566SOL    HW114597   6.584   2.713   0.486
 4566SOL    HW214598   6.581   2.796   0.627
 4567SOL     OW14599   6.293   0.286   0.074
 4567SOL    HW114600   6.349   0.369   0.084
 4567SOL    HW214601   6.349   0.206   0.094
 4568SOL     OW14602   2.465   4.127   6.007
 4568SOL    HW114603   2.460   4.224   6.033
 4568SOL    HW214604   2.449   4.119   5.909
 4569SOL     OW14605   1.832   1.831   2.939
 4569SOL    HW114606   1.764   1.794   2.875
 4569SOL    HW214607   1.921   1.789   2.921
 4570SOL     OW14608   0.434   6.577   3.528
 4570SOL    HW114609   0.383   6.503   3.484
 4570SOL    HW214610   0.513   6.600   3.472
 4571SOL     OW14611   3.954   4.143   6.388
 4571SOL    HW114612   4.016   4.151   6.311
 4571SOL    HW214613   3.866   4.105   6.357
 4572SOL     OW14614   1.562   0.248   0.020
 4572SOL    HW114615   1.598   0.331   7.001
 4572SOL    HW214616   1.462   0.254   0.025
 4573SOL     OW14617   6.369   0.322   0.471
 4573SOL    HW114618   6.330   0.399   0.522
 4573SOL    HW214619   6.335   0.236   0.510
 4574SOL     OW14620   5.971   4.053   0.740
 4574SOL    HW114621   6.030   3.972   0.737
 4574SOL    HW214622   5.985   4.100   0.827
 4575SOL     OW14623   6.309   0.836   6.227
 4575SOL    HW114624   6.311   0.934   6.249
 4575SOL    HW214625   6.240   0.791   6.284
 4576SOL     OW14626   2.746   6.461   6.185
 4576SOL    HW114627   2.844   6.448   6.190
 4576SOL    HW214628   2.722   6.551   6.223
 4577SOL     OW14629   1.324   2.518   4.612
 4577SOL    HW114630   1.311   2.616   4.597
 4577SOL    HW214631   1.388   2.504   4.688
 4578SOL     OW14632   0.580   3.174   5.544
 4578SOL    HW114633   0.630   3.087   5.549
 4578SOL    HW214634   0.635   3.241   5.493
 4579SOL     OW14635   4.248   0.794   3.192
 4579SOL    HW114636   4.182   0.867   3.172
 4579SOL    HW214637   4.338   0.834   3.205
 4580SOL     OW14638   5.437   5.130   0.239
 4580SOL    HW114639   5.509   5.188   0.276
 4580SOL    HW214640   5.470   5.035   0.235
 4581SOL     OW14641   2.362   4.728   2.587
 4581SOL    HW114642   2.426   4.782   2.643
 4581SOL    HW214643   2.280   4.782   2.569
 4582SOL     OW14644   5.406   0.023   5.031
 4582SOL    HW114645   5.448   0.053   4.946
 4582SOL    HW214646   5.310   7.021   5.015
 4583SOL     OW14647   2.810   2.404   6.187
 4583SOL    HW114648   2.734   2.374   6.130
 4583SOL    HW214649   2.777   2.470   6.254
 4584SOL     OW14650   0.500   4.966   5.956
 4584SOL    HW114651   0.402   4.976   5.942
 4584SOL    HW214652   0.521   4.977   6.053
 4585SOL     OW14653   3.106   6.025   3.132
 4585SOL    HW114654   3.197   5.987   3.114
 4585SOL    HW214655   3.112   6.091   3.207
 4586SOL     OW14656   3.205   5.420   0.735
 4586SOL    HW114657   3.185   5.491   0.803
 4586SOL    HW214658   3.300   5.429   0.705
 4587SOL     OW14659   3.548   4.054   2.842
 4587SOL    HW114660   3.532   4.137   2.787
 4587SOL    HW214661   3.474   4.044   2.908
 4588SOL     OW14662   3.231   3.229   5.080
 4588SOL    HW114663   3.225   3.289   5.001
 4588SOL    HW214664   3.195   3.139   5.057
 4589SOL     OW14665   6.237   1.219   2.586
 4589SOL    HW114666   6.170   1.171   2.530
 4589SOL    HW214667   6.299   1.153   2.628
 4590SOL     OW14668   5.323   6.034   1.615
 4590SOL    HW114669   5.247   6.070   1.668
 4590SOL    HW214670   5.400   6.099   1.618
 4591SOL     OW14671   0.605   6.262   4.571
 4591SOL    HW114672   0.607   6.269   4.671
 4591SOL    HW214673   0.692   6.227   4.538
 4592SOL     OW14674   2.735   1.681   2.059
 4592SOL    HW114675   2.748   1.748   2.132
 4592SOL    HW214676   2.783   1.712   1.977
 4593SOL     OW14677   4.750   5.488   2.944
 4593SOL    HW114678   4.785   5.504   3.036
 4593SOL    HW214679   4.660   5.531   2.935
 4594SOL     OW14680   2.607   1.572   3.036
 4594SOL    HW114681   2.677   1.596   2.969
 4594SOL    HW214682   2.583   1.475   3.026
 4595SOL     OW14683   3.993   3.076   6.640
 4595SOL    HW114684   3.912   3.093   6.696
 4595SOL    HW214685   3.967   3.077   6.543
 4596SOL     OW14686   5.778   6.825   2.490
 4596SOL    HW114687   5.872   6.816   2.523
 4596SOL    HW214688   5.776   6.804   2.392
 4597SOL     OW14689   4.037   5.480   5.984
 4597SOL    HW114690   4.017   5.383   5.996
 4597SOL    HW214691   4.134   5.493   5.965
 4598SOL     OW14692   2.445   6.413   6.583
 4598SOL    HW114693   2.425   6.388   6.489
 4598SOL    HW214694   2.444   6.331   6.641
 4599SOL     OW14695   1.255   4.940   0.863
 4599SOL    HW114696   1.339   4.993   0.866
 4599SOL    HW214697   1.177   5.002   0.854
 4600SOL     OW14698   1.162   5.222   5.526
 4600SOL    HW114699   1.096   5.250   5.596
 4600SOL    HW214700   1.168   5.294   5.457
 4601SOL     OW14701   2.234   0.709   5.581
 4601SOL    HW114702   2.279   0.709   5.491
 4601SOL    HW214703   2.140   0.740   5.571
 4602SOL     OW14704   1.842   6.200   1.121
 4602SOL    HW114705   1.824   6.135   1.195
 4602SOL    HW214706   1.930   6.244   1.136
 4603SOL     OW14707   3.146   6.564   0.739
 4603SOL    HW114708   3.192   6.489   0.692
 4603SOL    HW214709   3.086   6.612   0.674
 4604SOL     OW14710   4.548   0.590   0.789
 4604SOL    HW114711   4.505   0.584   0.880
 4604SOL    HW214712   4.638   0.633   0.798
 4605SOL     OW14713   2.564   0.551   3.076
 4605SOL    HW114714   2.587   0.471   3.132
 4605SOL    HW214715   2.468   0.574   3.089
 4606SOL     OW14716   0.950   6.304   2.105
 4606SOL    HW114717   0.980   6.210   2.088
 4606SOL    HW214718   1.017   6.367   2.067
 4607SOL     OW14719   1.843   2.698   1.488
 4607SOL    HW114720   1.841   2.647   1.402
 4607SOL    HW214721   1.807   2.640   1.561
 4608SOL     OW14722   0.320   6.230   3.807
 4608SOL    HW114723   0.365   6.193   3.725
 4608SOL    HW214724   0.348   6.326   3.819
 4609SOL     OW14725   4.272   5.537   6.872
 4609SOL    HW114726   4.323   5.472   6.927
 4609SOL    HW214727   4.220   5.488   6.801
 4610SOL     OW14728   5.026   2.899   0.810
 4610SOL    HW114729   4.928   2.907   0.827
 4610SOL    HW214730   5.064   2.990   0.795
 4611SOL     OW14731   0.669   5.639   6.241
 4611SOL    HW114732   0.700   5.556   6.196
 4611SOL    HW214733   0.600   5.616   6.310
 4612SOL     OW14734   1.792   5.571   0.268
 4612SOL    HW114735   1.853   5.607   0.339
 4612SOL    HW214736   1.794   5.632   0.189
 4613SOL     OW14737   2.637   6.228   1.959
 4613SOL    HW114738   2.585   6.146   1.982
 4613SOL    HW214739   2.643   6.237   1.860
 4614SOL     OW14740   6.852   2.982   4.907
 4614SOL    HW114741   6.859   2.997   5.006
 4614SOL    HW214742   6.942   2.994   4.865
 4615SOL     OW14743   2.001   0.180   0.003
 4615SOL    HW114744   1.921   0.240   7.022
 4615SOL    HW214745   2.074   0.225   0.054
 4616SOL     OW14746   6.618   0.313   5.163
 4616SOL    HW114747   6.619   0.285   5.067
 4616SOL    HW214748   6.580   0.405   5.171
 4617SOL     OW14749   0.450   2.463   2.342
 4617SOL    HW114750   0.469   2.509   2.255
 4617SOL    HW214751   0.522   2.486   2.408
 4618SOL     OW14752   2.162   2.862   4.732
 4618SOL    HW114753   2.250   2.875   4.776
 4618SOL    HW214754   2.132   2.947   4.689
 4619SOL     OW14755   3.343   6.362   3.330
 4619SOL    HW114756   3.334   6.316   3.241
 4619SOL    HW214757   3.269   6.428   3.341
 4620SOL     OW14758   2.340   4.497   0.182
 4620SOL    HW114759   2.288   4.411   0.191
 4620SOL    HW214760   2.323   4.554   0.262
 4621SOL     OW14761   5.550   0.889   2.054
 4621SOL    HW114762   5.479   0.841   2.106
 4621SOL    HW214763   5.572   0.975   2.101
 4622SOL     OW14764   2.585   4.669   0.602
 4622SOL    HW114765   2.582   4.701   0.507
 4622SOL    HW214766   2.679   4.673   0.635
 4623SOL     OW14767   5.044   6.622   0.409
 4623SOL    HW114768   4.988   6.693   0.451
 4623SOL    HW214769   5.123   6.603   0.468
 4624SOL     OW14770   4.405   6.981   3.362
 4624SOL    HW114771   4.328   6.959   3.422
 4624SOL    HW214772   4.443   0.047   3.389
 4625SOL     OW14773   2.489   4.631   0.917
 4625SOL    HW114774   2.577   4.679   0.909
 4625SOL    HW214775   2.479   4.568   0.840
 4626SOL     OW14776   5.132   4.689   2.269
 4626SOL    HW114777   5.035   4.666   2.280
 4626SOL    HW214778   5.180   4.614   2.224
 4627SOL     OW14779   2.460   4.545   4.481
 4627SOL    HW114780   2.421   4.528   4.390
 4627SOL    HW214781   2.431   4.473   4.544
 4628SOL     OW14782   6.220   4.269   4.075
 4628SOL    HW114783   6.222   4.261   4.175
 4628SOL    HW214784   6.282   4.341   4.046
 4629SOL     OW14785   2.219   5.292   5.337
 4629SOL    HW114786   2.162   5.345   5.399
 4629SOL    HW214787   2.281   5.234   5.389
 4630SOL     OW14788   3.372   5.240   2.715
 4630SOL    HW114789   3.402   5.146   2.696
 4630SOL    HW214790   3.321   5.275   2.636
 4631SOL     OW14791   1.800   6.245   2.927
 4631SOL    HW114792   1.762   6.196   3.006
 4631SOL    HW214793   1.741   6.231   2.848
 4632SOL     OW14794   3.503   4.879   2.462
 4632SOL    HW114795   3.522   4.898   2.558
 4632SOL    HW214796   3.408   4.852   2.451
 4633SOL     OW14797   5.221   0.374   4.618
 4633SOL    HW114798   5.217   0.283   4.658
 4633SOL    HW214799   5.216   0.367   4.519
 4634SOL     OW14800   3.581   4.585   5.891
 4634SOL    HW114801   3.611   4.501   5.847
 4634SOL    HW214802   3.611   4.664   5.837
 4635SOL     OW14803   5.131   3.778   1.397
 4635SOL    HW114804   5.034   3.791   1.420
 4635SOL    HW214805   5.179   3.743   1.478
 4636SOL     OW14806   1.948   4.573   6.950
 4636SOL    HW114807   1.947   4.572   6.850
 4636SOL    HW214808   1.889   4.647   6.983
 4637SOL     OW14809   1.018   6.617   0.782
 4637SOL    HW114810   1.113   6.588   0.784
 4637SOL    HW214811   1.004   6.683   0.708
 4638SOL     OW14812   4.615   4.436   6.695
 4638SOL    HW114813   4.681   4.498   6.737
 4638SOL    HW214814   4.625   4.439   6.595
 4639SOL     OW14815   2.996   4.430   6.012
 4639SOL    HW114816   3.008   4.490   5.932
 4639SOL    HW214817   3.085   4.418   6.058
 4640SOL     OW14818   5.112   3.968   3.866
 4640SOL    HW114819   5.133   3.882   3.912
 4640SOL    HW214820   5.195   4.003   3.823
 4641SOL     OW14821   2.400   6.900   4.930
 4641SOL    HW114822   2.327   6.967   4.918
 4641SOL    HW214823   2.475   6.920   4.867
 4642SOL     OW14824   0.904   5.443   4.308
 4642SOL    HW114825   0.976   5.374   4.294
 4642SOL    HW214826   0.827   5.424   4.248
 4643SOL     OW14827   6.255   2.578   1.105
 4643SOL    HW114828   6.278   2.512   1.177
 4643SOL    HW214829   6.166   2.618   1.124
 4644SOL     OW14830   6.559   5.264   4.788
 4644SOL    HW114831   6.479   5.230   4.837
 4644SOL    HW214832   6.583   5.355   4.822
 4645SOL     OW14833   0.783   0.613   4.315
 4645SOL    HW114834   0.750   0.698   4.356
 4645SOL    HW214835   0.882   0.620   4.298
 4646SOL     OW14836   1.879   6.044   3.805
 4646SOL    HW114837   1.971   6.066   3.837
 4646SOL    HW214838   1.878   6.041   3.705
 4647SOL     OW14839   1.359   0.727   3.058
 4647SOL    HW114840   1.288   0.658   3.074
 4647SOL    HW214841   1.384   0.727   2.961
 4648SOL     OW14842   3.408   1.061   2.445
 4648SOL    HW114843   3.503   1.043   2.418
 4648SOL    HW214844   3.403   1.065   2.545
 4649SOL     OW14845   5.506   6.896   0.260
 4649SOL    HW114846   5.418   6.859   0.230
 4649SOL    HW214847   5.508   6.995   0.243
 4650SOL     OW14848   4.602   5.346   2.701
 4650SOL    HW114849   4.659   5.393   2.768
 4650SOL    HW214850   4.509   5.339   2.737
 4651SOL     OW14851   0.128   2.971   0.654
 4651SOL    HW114852   0.080   3.034   0.716
 4651SOL    HW214853   0.215   2.944   0.695
 4652SOL     OW14854   6.279   6.642   3.798
 4652SOL    HW114855   6.190   6.614   3.833
 4652SOL    HW214856   6.284   6.742   3.795
 4653SOL     OW14857   5.315   4.948   0.981
 4653SOL    HW114858   5.329   5.047   0.987
 4653SOL    HW214859   5.401   4.901   0.997
 4654SOL     OW14860   1.077   0.028   0.481
 4654SOL    HW114861   1.151   0.093   0.462
 4654SOL    HW214862   0.999   0.047   0.422
 4655SOL     OW14863   4.916   4.297   1.142
 4655SOL    HW114864   4.845   4.227   1.132
 4655SOL    HW214865   4.958   4.289   1.233
 4656SOL     OW14866   1.355   0.655   2.280
 4656SOL    HW114867   1.421   0.580   2.275
 4656SOL    HW214868   1.404   0.742   2.287
 4657SOL     OW14869   4.872   6.517   1.643
 4657SOL    HW114870   4.943   6.458   1.605
 4657SOL    HW214871   4.785   6.496   1.600
 4658SOL     OW14872   3.560   1.358   2.867
 4658SOL    HW114873   3.659   1.351   2.867
 4658SOL    HW214874   3.533   1.453   2.886
 4659SOL     OW14875   3.358   4.951   4.983
 4659SOL    HW114876   3.294   4.894   5.034
 4659SOL    HW214877   3.397   4.897   4.908
 4660SOL     OW14878   1.216   4.228   6.203
 4660SOL    HW114879   1.172   4.173   6.275
 4660SOL    HW214880   1.282   4.171   6.154
 4661SOL     OW14881   2.947   4.498   5.615
 4661SOL    HW114882   2.862   4.531   5.574
 4661SOL    HW214883   2.986   4.570   5.672
 4662SOL     OW14884   3.184   0.042   5.431
 4662SOL    HW114885   3.121   0.074   5.502
 4662SOL    HW214886   3.186   6.965   5.432
 4663SOL     OW14887   0.105   2.277   1.872
 4663SOL    HW114888   0.198   2.265   1.907
 4663SOL    HW214889   0.084   2.204   1.807
 4664SOL     OW14890   1.641   1.452   0.810
 4664SOL    HW114891   1.681   1.544   0.800
 4664SOL    HW214892   1.661   1.399   0.728
 4665SOL     OW14893   3.510   6.982   6.510
 4665SOL    HW114894   3.447   0.037   6.517
 4665SOL    HW214895   3.524   6.943   6.601
 4666SOL     OW14896   1.426   2.204   0.582
 4666SOL    HW114897   1.333   2.208   0.547
 4666SOL    HW214898   1.456   2.297   0.607
 4667SOL     OW14899   6.357   3.422   2.110
 4667SOL    HW114900   6.371   3.330   2.072
 4667SOL    HW214901   6.277   3.421   2.170
 4668SOL     OW14902   4.216   2.261   2.333
 4668SOL    HW114903   4.138   2.219   2.379
 4668SOL    HW214904   4.260   2.327   2.394
 4669SOL     OW14905   4.959   6.118   6.165
 4669SOL    HW114906   4.952   6.186   6.093
 4669SOL    HW214907   4.881   6.056   6.161
 4670SOL     OW14908   2.681   2.478   5.278
 4670SOL    HW114909   2.655   2.399   5.334
 4670SOL    HW214910   2.619   2.554   5.297
 4671SOL     OW14911   6.650   2.764   1.275
 4671SOL    HW114912   6.563   2.763   1.226
 4671SOL    HW214913   6.710   2.692   1.239
 4672SOL     OW14914   2.556   4.458   6.115
 4672SOL    HW114915   2.593   4.521   6.047
 4672SOL    HW214916   2.631   4.420   6.169
 4673SOL     OW14917   5.313   0.342   1.981
 4673SOL    HW114918   5.236   0.386   1.935
 4673SOL    HW214919   5.300   0.345   2.080
 4674SOL     OW14920   5.284   0.395   6.584
 4674SOL    HW114921   5.365   0.340   6.605
 4674SOL    HW214922   5.273   0.401   6.485
 4675SOL     OW14923   1.864   1.561   6.216
 4675SOL    HW114924   1.862   1.517   6.126
 4675SOL    HW214925   1.953   1.606   6.229
 4676SOL     OW14926   6.898   6.337   3.606
 4676SOL    HW114927   6.799   6.322   3.617
 4676SOL    HW214928   6.937   6.363   3.695
 4677SOL     OW14929   2.482   1.475   6.754
 4677SOL    HW114930   2.415   1.516   6.692
 4677SOL    HW214931   2.565   1.530   6.753
 4678SOL     OW14932   1.833   4.519   3.056
 4678SOL    HW114933   1.793   4.458   3.125
 4678SOL    HW214934   1.759   4.560   3.002
 4679SOL     OW14935   4.138   0.821   0.678
 4679SOL    HW114936   4.232   0.799   0.652
 4679SOL    HW214937   4.104   0.897   0.621
 4680SOL     OW14938   3.303   1.614   0.555
 4680SOL    HW114939   3.387   1.613   0.501
 4680SOL    HW214940   3.224   1.609   0.493
 4681SOL     OW14941   5.147   5.364   6.680
 4681SOL    HW114942   5.131   5.271   6.649
 4681SOL    HW214943   5.069   5.422   6.654
 4682SOL     OW14944   4.477   4.316   5.652
 4682SOL    HW114945   4.475   4.302   5.553
 4682SOL    HW214946   4.539   4.392   5.674
 4683SOL     OW14947   4.443   4.837   2.683
 4683SOL    HW114948   4.347   4.833   2.708
 4683SOL    HW214949   4.497   4.784   2.749
 4684SOL     OW14950   6.334   1.066   5.041
 4684SOL    HW114951   6.377   1.093   4.955
 4684SOL    HW214952   6.358   1.132   5.112
 4685SOL     OW14953   0.846   5.819   5.634
 4685SOL    HW114954   0.852   5.854   5.727
 4685SOL    HW214955   0.836   5.895   5.570
 4686SOL     OW14956   4.041   5.469   0.127
 4686SOL    HW114957   4.120   5.531   0.130
 4686SOL    HW214958   4.019   5.448   0.032
 4687SOL     OW14959   6.240   4.025   4.841
 4687SOL    HW114960   6.290   4.065   4.918
 4687SOL    HW214961   6.146   4.059   4.841
 4688SOL     OW14962   5.837   4.361   4.761
 4688SOL    HW114963   5.858   4.434   4.696
 4688SOL    HW214964   5.795   4.284   4.712
 4689SOL     OW14965   5.569   1.151   0.184
 4689SOL    HW114966   5.470   1.162   0.175
 4689SOL    HW214967   5.594   1.157   0.281
 4690SOL     OW14968   0.959   0.087   6.868
 4690SOL    HW114969   0.991   0.045   6.953
 4690SOL    HW214970   0.927   0.180   6.887
 4691SOL     OW14971   2.655   5.272   1.651
 4691SOL    HW114972   2.656   5.361   1.698
 4691SOL    HW214973   2.713   5.208   1.702
 4692SOL     OW14974   5.802   5.582   1.869
 4692SOL    HW114975   5.866   5.532   1.927
 4692SOL    HW214976   5.828   5.571   1.773
 4693SOL     OW14977   1.034   1.698   3.188
 4693SOL    HW114978   1.037   1.699   3.088
 4693SOL    HW214979   0.962   1.760   3.220
 4694SOL     OW14980   1.521   0.760   6.963
 4694SOL    HW114981   1.523   0.795   0.033
 4694SOL    HW214982   1.493   0.664   6.965
 4695SOL     OW14983   1.594   3.326   1.894
 4695SOL    HW114984   1.644   3.240   1.903
 4695SOL    HW214985   1.655   3.397   1.859
 4696SOL     OW14986   0.353   4.432   0.099
 4696SOL    HW114987   0.285   4.378   0.049
 4696SOL    HW214988   0.331   4.430   0.197
 4697SOL     OW14989   1.718   3.044   0.589
 4697SOL    HW114990   1.727   2.956   0.636
 4697SOL    HW214991   1.705   3.116   0.657
 4698SOL     OW14992   4.691   5.091   2.727
 4698SOL    HW114993   4.626   5.059   2.795
 4698SOL    HW214994   4.658   5.176   2.686
 4699SOL     OW14995   1.759   6.656   2.261
 4699SOL    HW114996   1.799   6.676   2.350
 4699SOL    HW214997   1.674   6.605   2.275
 4700SOL     OW14998   6.873   1.309   3.462
 4700SOL    HW114999   6.803   1.337   3.527
 4700SOL    HW215000   6.857   1.353   3.373
 4701SOL     OW15001   2.568   2.217   0.060
 4701SOL    HW115002   2.527   2.132   0.028
 4701SOL    HW215003   2.533   2.239   0.151
 4702SOL     OW15004   4.572   5.313   0.192
 4702SOL    HW115005   4.512   5.316   0.111
 4702SOL    HW215006   4.619   5.401   0.201
 4703SOL     OW15007   0.596   1.617   1.643
 4703SOL    HW115008   0.571   1.637   1.548
 4703SOL    HW215009   0.661   1.686   1.675
 4704SOL     OW15010   0.713   6.103   0.337
 4704SOL    HW115011   0.680   6.059   0.254
 4704SOL    HW215012   0.654   6.079   0.414
 4705SOL     OW15013   3.579   3.494   2.136
 4705SOL    HW115014   3.554   3.554   2.212
 4705SOL    HW215015   3.533   3.406   2.146
 4706SOL     OW15016   3.097   0.269   0.023
 4706SOL    HW115017   3.084   0.172   0.042
 4706SOL    HW215018   3.186   0.284   7.003
 4707SOL     OW15019   1.764   6.654   1.263
 4707SOL    HW115020   1.836   6.708   1.220
 4707SOL    HW215021   1.759   6.564   1.220
 4708SOL     OW15022   1.134   1.545   6.258
 4708SOL    HW115023   1.067   1.565   6.330
 4708SOL    HW215024   1.155   1.447   6.257
 4709SOL     OW15025   4.583   5.683   5.421
 4709SOL    HW115026   4.490   5.709   5.398
 4709SOL    HW215027   4.630   5.650   5.339
 4710SOL     OW15028   4.553   0.644   5.620
 4710SOL    HW115029   4.650   0.654   5.645
 4710SOL    HW215030   4.496   0.692   5.687
 4711SOL     OW15031   6.144   1.341   1.507
 4711SOL    HW115032   6.107   1.284   1.434
 4711SOL    HW215033   6.072   1.359   1.575
 4712SOL     OW15034   2.812   4.384   0.170
 4712SOL    HW115035   2.903   4.404   0.133
 4712SOL    HW215036   2.773   4.304   0.124
 4713SOL     OW15037   3.718   4.416   0.567
 4713SOL    HW115038   3.626   4.435   0.600
 4713SOL    HW215039   3.757   4.338   0.616
 4714SOL     OW15040   0.611   2.085   6.520
 4714SOL    HW115041   0.676   2.157   6.546
 4714SOL    HW215042   0.660   2.011   6.473
 4715SOL     OW15043   5.651   2.651   2.518
 4715SOL    HW115044   5.598   2.734   2.538
 4715SOL    HW215045   5.669   2.646   2.420
 4716SOL     OW15046   4.514   6.033   6.442
 4716SOL    HW115047   4.456   5.991   6.373
 4716SOL    HW215048   4.600   5.982   6.449
 4717SOL     OW15049   6.962   0.236   3.947
 4717SOL    HW115050   6.874   0.235   3.993
 4717SOL    HW215051   7.002   0.328   3.953
 4718SOL     OW15052   5.568   2.749   1.936
 4718SOL    HW115053   5.491   2.809   1.961
 4718SOL    HW215054   5.621   2.792   1.863
 4719SOL     OW15055   4.689   3.258   1.711
 4719SOL    HW115056   4.740   3.193   1.654
 4719SOL    HW215057   4.617   3.209   1.760
 4720SOL     OW15058   1.924   5.608   6.081
 4720SOL    HW115059   2.023   5.602   6.093
 4720SOL    HW215060   1.882   5.635   6.168
 4721SOL     OW15061   6.696   2.269   2.268
 4721SOL    HW115062   6.614   2.217   2.291
 4721SOL    HW215063   6.696   2.355   2.319
 4722SOL     OW15064   0.838   5.868   6.282
 4722SOL    HW115065   0.799   5.947   6.234
 4722SOL    HW215066   0.781   5.788   6.266
 4723SOL     OW15067   2.475   3.500   6.094
 4723SOL    HW115068   2.497   3.470   6.187
 4723SOL    HW215069   2.396   3.561   6.096
 4724SOL     OW15070   6.206   6.494   2.626
 4724SOL    HW115071   6.144   6.492   2.704
 4724SOL    HW215072   6.153   6.507   2.542
 4725SOL     OW15073   6.244   5.132   1.940
 4725SOL    HW115074   6.275   5.165   2.029
 4725SOL    HW215075   6.205   5.209   1.888
 4726SOL     OW15076   1.780   2.264   5.586
 4726SOL    HW115077   1.682   2.251   5.568
 4726SOL    HW215078   1.797   2.359   5.611
 4727SOL     OW15079   1.486   5.659   1.283
 4727SOL    HW115080   1.493   5.560   1.296
 4727SOL    HW215081   1.430   5.678   1.203
 4728SOL     OW15082   6.275   1.204   1.861
 4728SOL    HW115083   6.249   1.283   1.916
 4728SOL    HW215084   6.350   1.155   1.907
 4729SOL     OW15085   3.183   1.941   0.802
 4729SOL    HW115086   3.090   1.904   0.799
 4729SOL    HW215087   3.185   2.020   0.863
 4730SOL     OW15088   3.391   6.473   5.302
 4730SOL    HW115089   3.366   6.382   5.336
 4730SOL    HW215090   3.323   6.502   5.234
 4731SOL     OW15091   4.214   0.579   6.932
 4731SOL    HW115092   4.177   0.503   6.985
 4731SOL    HW215093   4.145   0.651   6.926
 4732SOL     OW15094   1.300   3.870   5.798
 4732SOL    HW115095   1.303   3.837   5.703
 4732SOL    HW215096   1.385   3.843   5.844
 4733SOL     OW15097   1.202   3.916   3.824
 4733SOL    HW115098   1.243   3.988   3.880
 4733SOL    HW215099   1.272   3.847   3.804
 4734SOL     OW15100   4.237   2.638   0.152
 4734SOL    HW115101   4.313   2.703   0.150
 4734SOL    HW215102   4.190   2.644   0.240
 4735SOL     OW15103   6.268   5.568   3.935
 4735SOL    HW115104   6.286   5.664   3.955
 4735SOL    HW215105   6.330   5.535   3.864
 4736SOL     OW15106   0.023   1.620   5.491
 4736SOL    HW115107   0.057   1.667   5.409
 4736SOL    HW215108   7.000   1.536   5.464
 4737SOL     OW15109   2.577   4.631   2.073
 4737SOL    HW115110   2.652   4.613   2.010
 4737SOL    HW215111   2.614   4.664   2.160
 4738SOL     OW15112   0.316   6.164   2.978
 4738SOL    HW115113   0.385   6.194   2.913
 4738SOL    HW215114   0.225   6.185   2.941
 4739SOL     OW15115   3.947   0.887   3.439
 4739SOL    HW115116   3.977   0.920   3.350
 4739SOL    HW215117   4.025   0.883   3.501
 4740SOL     OW15118   0.971   1.275   1.206
 4740SOL    HW115119   0.950   1.279   1.109
 4740SOL    HW215120   1.070   1.287   1.219
 4741SOL     OW15121   4.432   3.394   0.994
 4741SOL    HW115122   4.455   3.338   1.073
 4741SOL    HW215123   4.466   3.487   1.007
 4742SOL     OW15124   3.367   6.704   6.503
 4742SOL    HW115125   3.434   6.679   6.573
 4742SOL    HW215126   3.391   6.793   6.464
 4743SOL     OW15127   1.638   3.311   3.771
 4743SOL    HW115128   1.708   3.281   3.835
 4743SOL    HW215129   1.599   3.232   3.724
 4744SOL     OW15130   1.807   4.117   0.609
 4744SOL    HW115131   1.803   4.124   0.509
 4744SOL    HW215132   1.715   4.107   0.646
 4745SOL     OW15133   2.886   4.487   6.306
 4745SOL    HW115134   2.924   4.432   6.380
 4745SOL    HW215135   2.919   4.453   6.218
 4746SOL     OW15136   5.258   5.860   2.313
 4746SOL    HW115137   5.221   5.888   2.402
 4746SOL    HW215138   5.206   5.781   2.279
 4747SOL     OW15139   1.845   3.545   0.110
 4747SOL    HW115140   1.884   3.502   0.191
 4747SOL    HW215141   1.831   3.477   0.039
 4748SOL     OW15142   1.886   5.228   0.774
 4748SOL    HW115143   1.902   5.326   0.784
 4748SOL    HW215144   1.865   5.188   0.864
 4749SOL     OW15145   2.217   6.583   5.907
 4749SOL    HW115146   2.168   6.635   5.978
 4749SOL    HW215147   2.152   6.537   5.847
 4750SOL     OW15148   0.549   4.070   4.245
 4750SOL    HW115149   0.515   3.988   4.292
 4750SOL    HW215150   0.627   4.046   4.188
 4751SOL     OW15151   4.030   1.473   2.134
 4751SOL    HW115152   3.979   1.412   2.073
 4751SOL    HW215153   3.993   1.566   2.128
 4752SOL     OW15154   4.503   1.113   6.576
 4752SOL    HW115155   4.469   1.024   6.545
 4752SOL    HW215156   4.538   1.164   6.498
 4753SOL     OW15157   5.311   0.279   4.077
 4753SOL    HW115158   5.325   0.320   3.986
 4753SOL    HW215159   5.280   0.184   4.066
 4754SOL     OW15160   5.792   6.429   4.674
 4754SOL    HW115161   5.783   6.390   4.582
 4754SOL    HW215162   5.732   6.508   4.684
 4755SOL     OW15163   3.031   0.382   0.568
 4755SOL    HW115164   3.097   0.383   0.493
 4755SOL    HW215165   3.039   0.466   0.621
 4756SOL     OW15166   5.489   2.564   0.227
 4756SOL    HW115167   5.549   2.556   0.306
 4756SOL    HW215168   5.408   2.508   0.241
 4757SOL     OW15169   2.814   1.726   0.981
 4757SOL    HW115170   2.853   1.811   0.946
 4757SOL    HW215171   2.864   1.648   0.943
 4758SOL     OW15172   1.888   6.409   3.674
 4758SOL    HW115173   1.800   6.367   3.698
 4758SOL    HW215174   1.957   6.338   3.662
 4759SOL     OW15175   6.358   4.369   5.231
 4759SOL    HW115176   6.292   4.387   5.158
 4759SOL    HW215177   6.393   4.455   5.267
 4760SOL     OW15178   2.415   2.069   0.967
 4760SOL    HW115179   2.476   1.990   0.974
 4760SOL    HW215180   2.322   2.042   0.994
 4761SOL     OW15181   0.854   5.708   0.409
 4761SOL    HW115182   0.763   5.747   0.423
 4761SOL    HW215183   0.917   5.781   0.382
 4762SOL     OW15184   0.920   5.997   2.317
 4762SOL    HW115185   1.005   6.020   2.365
 4762SOL    HW215186   0.942   5.955   2.229
 4763SOL     OW15187   5.783   6.692   3.323
 4763SOL    HW115188   5.766   6.610   3.378
 4763SOL    HW215189   5.695   6.730   3.293
 4764SOL     OW15190   4.788   4.024   4.286
 4764SOL    HW115191   4.791   3.933   4.327
 4764SOL    HW215192   4.791   4.093   4.358
 4765SOL     OW15193   4.699   1.309   4.386
 4765SOL    HW115194   4.794   1.300   4.415
 4765SOL    HW215195   4.695   1.357   4.298
 4766SOL     OW15196   5.358   5.907   4.298
 4766SOL    HW115197   5.279   5.855   4.266
 4766SOL    HW215198   5.390   5.967   4.225
 4767SOL     OW15199   3.349   5.505   5.246
 4767SOL    HW115200   3.447   5.516   5.263
 4767SOL    HW215201   3.307   5.455   5.323
 4768SOL     OW15202   4.694   2.185   6.133
 4768SOL    HW115203   4.671   2.097   6.092
 4768SOL    HW215204   4.694   2.256   6.063
 4769SOL     OW15205   4.482   4.539   0.019
 4769SOL    HW115206   4.467   4.522   0.117
 4769SOL    HW215207   4.394   4.546   6.995
 4770SOL     OW15208   0.582   1.186   3.995
 4770SOL    HW115209   0.552   1.096   3.967
 4770SOL    HW215210   0.503   1.247   4.003
 4771SOL     OW15211   2.879   6.043   5.485
 4771SOL    HW115212   2.932   5.999   5.413
 4771SOL    HW215213   2.925   6.126   5.515
 4772SOL     OW15214   3.963   4.961   1.063
 4772SOL    HW115215   3.905   4.965   1.144
 4772SOL    HW215216   4.053   4.999   1.084
 4773SOL     OW15217   6.825   5.048   3.531
 4773SOL    HW115218   6.870   5.137   3.535
 4773SOL    HW215219   6.886   4.978   3.569
 4774SOL     OW15220   1.582   3.272   1.238
 4774SOL    HW115221   1.568   3.173   1.240
 4774SOL    HW215222   1.559   3.311   1.327
 4775SOL     OW15223   5.105   6.678   2.699
 4775SOL    HW115224   5.075   6.583   2.703
 4775SOL    HW215225   5.034   6.737   2.736
 4776SOL     OW15226   1.289   6.314   5.524
 4776SOL    HW115227   1.275   6.233   5.466
 4776SOL    HW215228   1.266   6.396   5.472
 4777SOL     OW15229   2.150   5.261   1.084
 4777SOL    HW115230   2.138   5.250   0.986
 4777SOL    HW215231   2.148   5.359   1.107
 4778SOL     OW15232   6.309   2.468   3.994
 4778SOL    HW115233   6.379   2.524   3.949
 4778SOL    HW215234   6.311   2.486   4.093
 4779SOL     OW15235   6.310   5.461   2.487
 4779SOL    HW115236   6.227   5.460   2.544
 4779SOL    HW215237   6.284   5.450   2.391
 4780SOL     OW15238   6.080   1.221   0.104
 4780SOL    HW115239   6.066   1.164   0.023
 4780SOL    HW215240   6.050   1.171   0.186
 4781SOL     OW15241   2.390   5.926   2.594
 4781SOL    HW115242   2.435   5.989   2.657
 4781SOL    HW215243   2.341   5.977   2.524
 4782SOL     OW15244   6.004   5.615   0.151
 4782SOL    HW115245   6.096   5.642   0.181
 4782SOL    HW215246   6.006   5.593   0.054
 4783SOL     OW15247   4.971   4.066   0.430
 4783SOL    HW115248   4.900   4.134   0.415
 4783SOL    HW215249   4.969   3.999   0.355
 4784SOL     OW15250   6.097   3.244   6.798
 4784SOL    HW115251   6.038   3.297   6.737
 4784SOL    HW215252   6.166   3.196   6.744
 4785SOL     OW15253   1.468   6.403   2.973
 4785SOL    HW115254   1.424   6.398   2.883
 4785SOL    HW215255   1.399   6.421   3.043
 4786SOL     OW15256   2.566   0.925   0.303
 4786SOL    HW115257   2.624   0.993   0.258
 4786SOL    HW215258   2.474   0.961   0.314
 4787SOL     OW15259   4.096   1.550   2.456
 4787SOL    HW115260   4.015   1.504   2.492
 4787SOL    HW215261   4.076   1.647   2.442
 4788SOL     OW15262   6.761   6.241   6.227
 4788SOL    HW115263   6.718   6.315   6.175
 4788SOL    HW215264   6.861   6.254   6.225
 4789SOL     OW15265   4.519   2.137   1.348
 4789SOL    HW115266   4.456   2.199   1.302
 4789SOL    HW215267   4.602   2.127   1.293
 4790SOL     OW15268   6.284   2.054   5.091
 4790SOL    HW115269   6.213   1.983   5.093
 4790SOL    HW215270   6.255   2.131   5.147
 4791SOL     OW15271   7.011   2.885   1.285
 4791SOL    HW115272   6.926   2.867   1.334
 4791SOL    HW215273   0.038   2.959   1.330
 4792SOL     OW15274   2.370   4.464   3.412
 4792SOL    HW115275   2.273   4.490   3.415
 4792SOL    HW215276   2.387   4.412   3.328
 4793SOL     OW15277   2.139   2.611   5.091
 4793SOL    HW115278   2.064   2.592   5.028
 4793SOL    HW215279   2.105   2.666   5.168
 4794SOL     OW15280   4.877   0.518   4.435
 4794SOL    HW115281   4.967   0.544   4.401
 4794SOL    HW215282   4.821   0.600   4.448
 4795SOL     OW15283   6.226   2.072   4.397
 4795SOL    HW115284   6.294   2.027   4.340
 4795SOL    HW215285   6.166   2.128   4.339
 4796SOL     OW15286   4.711   1.958   4.902
 4796SOL    HW115287   4.720   1.904   4.986
 4796SOL    HW215288   4.708   1.897   4.823
 4797SOL     OW15289   0.827   6.274   5.333
 4797SOL    HW115290   0.780   6.264   5.245
 4797SOL    HW215291   0.800   6.360   5.376
 4798SOL     OW15292   0.310   3.687   5.459
 4798SOL    HW115293   0.244   3.763   5.456
 4798SOL    HW215294   0.366   3.695   5.541
 4799SOL     OW15295   4.673   1.648   0.527
 4799SOL    HW115296   4.736   1.631   0.451
 4799SOL    HW215297   4.580   1.652   0.491
 4800SOL     OW15298   2.953   2.542   6.506
 4800SOL    HW115299   2.947   2.458   6.558
 4800SOL    HW215300   2.865   2.561   6.463
 4801SOL     OW15301   3.310   2.276   6.866
 4801SOL    HW115302   3.401   2.254   6.900
 4801SOL    HW215303   3.317   2.331   6.783
 4802SOL     OW15304   1.073   6.643   1.739
 4802SOL    HW115305   0.997   6.618   1.798
 4802SOL    HW215306   1.092   6.741   1.748
 4803SOL     OW15307   0.134   5.112   0.467
 4803SOL    HW115308   0.104   5.134   0.560
 4803SOL    HW215309   0.161   5.195   0.420
 4804SOL     OW15310   6.433   6.288   1.532
 4804SOL    HW115311   6.352   6.316   1.584
 4804SOL    HW215312   6.419   6.309   1.435
 4805SOL     OW15313   6.446   2.098   2.308
 4805SOL    HW115314   6.484   2.065   2.221
 4805SOL    HW215315   6.474   2.035   2.381
 4806SOL     OW15316   0.731   4.281   2.965
 4806SOL    HW115317   0.686   4.337   3.035
 4806SOL    HW215318   0.779   4.340   2.900
 4807SOL     OW15319   0.816   5.018   0.199
 4807SOL    HW115320   0.793   4.983   0.290
 4807SOL    HW215321   0.852   4.943   0.144
 4808SOL     OW15322   5.040   5.023   0.565
 4808SOL    HW115323   4.966   5.044   0.628
 4808SOL    HW215324   5.009   4.958   0.496
 4809SOL     OW15325   3.293   4.580   0.388
 4809SOL    HW115326   3.365   4.647   0.405
 4809SOL    HW215327   3.303   4.503   0.452
 4810SOL     OW15328   1.712   4.810   2.559
 4810SOL    HW115329   1.713   4.766   2.469
 4810SOL    HW215330   1.696   4.908   2.549
 4811SOL     OW15331   2.728   4.192   1.617
 4811SOL    HW115332   2.828   4.189   1.612
 4811SOL    HW215333   2.690   4.177   1.526
 4812SOL     OW15334   0.057   5.253   1.880
 4812SOL    HW115335   0.025   5.186   1.947
 4812SOL    HW215336   0.138   5.301   1.916
 4813SOL     OW15337   6.298   2.114   6.856
 4813SOL    HW115338   6.279   2.153   6.765
 4813SOL    HW215339   6.368   2.043   6.847
 4814SOL     OW15340   0.155   3.428   1.129
 4814SOL    HW115341   0.133   3.334   1.156
 4814SOL    HW215342   0.160   3.486   1.210
 4815SOL     OW15343   5.340   3.754   2.456
 4815SOL    HW115344   5.293   3.712   2.379
 4815SOL    HW215345   5.404   3.824   2.423
 4816SOL     OW15346   2.283   4.771   1.007
 4816SOL    HW115347   2.253   4.742   1.097
 4816SOL    HW215348   2.358   4.713   0.976
 4817SOL     OW15349   1.576   1.556   6.285
 4817SOL    HW115350   1.508   1.599   6.226
 4817SOL    HW215351   1.665   1.601   6.271
 4818SOL     OW15352   0.758   6.588   4.296
 4818SOL    HW115353   0.810   6.646   4.234
 4818SOL    HW215354   0.755   6.629   4.387
 4819SOL     OW15355   1.611   1.856   0.404
 4819SOL    HW115356   1.664   1.911   0.339
 4819SOL    HW215357   1.515   1.882   0.398
 4820SOL     OW15358   6.291   2.566   2.662
 4820SOL    HW115359   6.315   2.577   2.566
 4820SOL    HW215360   6.216   2.628   2.686
 4821SOL     OW15361   0.723   6.536   2.354
 4821SOL    HW115362   0.695   6.631   2.340
 4821SOL    HW215363   0.703   6.483   2.271
 4822SOL     OW15364   2.134   3.495   4.652
 4822SOL    HW115365   2.161   3.428   4.721
 4822SOL    HW215366   2.148   3.587   4.688
 4823SOL     OW15367   1.998   0.575   4.278
 4823SOL    HW115368   2.055   0.511   4.225
 4823SOL    HW215369   1.905   0.575   4.242
 4824SOL     OW15370   5.216   1.985   4.336
 4824SOL    HW115371   5.256   1.977   4.428
 4824SOL    HW215372   5.276   2.041   4.279
 4825SOL     OW15373   1.522   2.593   3.811
 4825SOL    HW115374   1.606   2.587   3.866
 4825SOL    HW215375   1.501   2.503   3.773
 4826SOL     OW15376   6.243   1.233   6.590
 4826SOL    HW115377   6.155   1.204   6.551
 4826SOL    HW215378   6.228   1.314   6.648
 4827SOL     OW15379   6.465   1.587   1.045
 4827SOL    HW115380   6.540   1.533   1.007
 4827SOL    HW215381   6.389   1.526   1.067
 4828SOL     OW15382   5.299   2.864   0.414
 4828SOL    HW115383   5.386   2.833   0.451
 4828SOL    HW215384   5.233   2.788   0.415
 4829SOL     OW15385   4.362   6.951   6.477
 4829SOL    HW115386   4.348   0.027   6.469
 4829SOL    HW215387   4.282   6.910   6.520
 4830SOL     OW15388   4.233   6.923   3.590
 4830SOL    HW115389   4.163   6.851   3.588
 4830SOL    HW215390   4.239   6.961   3.682
 4831SOL     OW15391   7.002   4.597   6.242
 4831SOL    HW115392   6.958   4.687   6.242
 4831SOL    HW215393   0.061   4.599   6.184
 4832SOL     OW15394   3.667   3.454   4.588
 4832SOL    HW115395   3.570   3.477   4.593
 4832SOL    HW215396   3.688   3.383   4.655
 4833SOL     OW15397   4.479   2.206   3.144
 4833SOL    HW115398   4.531   2.160   3.072
 4833SOL    HW215399   4.515   2.180   3.234
 4834SOL     OW15400   3.678   6.525   0.990
 4834SOL    HW115401   3.678   6.510   0.891
 4834SOL    HW215402   3.698   6.440   1.037
 4835SOL     OW15403   6.245   1.445   6.775
 4835SOL    HW115404   6.267   1.375   6.843
 4835SOL    HW215405   6.327   1.466   6.721
 4836SOL     OW15406   5.412   3.018   4.353
 4836SOL    HW115407   5.383   2.946   4.416
 4836SOL    HW215408   5.458   3.090   4.403
 4837SOL     OW15409   6.303   3.659   2.897
 4837SOL    HW115410   6.367   3.672   2.820
 4837SOL    HW215411   6.354   3.661   2.982
 4838SOL     OW15412   0.948   5.203   0.060
 4838SOL    HW115413   0.930   5.193   6.985
 4838SOL    HW215414   0.890   5.140   0.111
 4839SOL     OW15415   2.038   3.536   6.569
 4839SOL    HW115416   2.135   3.511   6.564
 4839SOL    HW215417   2.018   3.604   6.499
 4840SOL     OW15418   6.899   4.633   5.882
 4840SOL    HW115419   6.942   4.721   5.902
 4840SOL    HW215420   6.952   4.559   5.922
 4841SOL     OW15421   2.813   5.632   1.821
 4841SOL    HW115422   2.801   5.547   1.873
 4841SOL    HW215423   2.899   5.628   1.771
 4842SOL     OW15424   3.720   5.233   2.969
 4842SOL    HW115425   3.705   5.142   2.932
 4842SOL    HW215426   3.818   5.254   2.969
 4843SOL     OW15427   7.013   3.177   1.144
 4843SOL    HW115428   6.920   3.158   1.112
 4843SOL    HW215429   7.010   3.197   1.242
 4844SOL     OW15430   1.183   3.266   6.303
 4844SOL    HW115431   1.178   3.366   6.294
 4844SOL    HW215432   1.264   3.232   6.256
 4845SOL     OW15433   4.977   5.424   6.281
 4845SOL    HW115434   5.060   5.371   6.264
 4845SOL    HW215435   4.981   5.464   6.372
 4846SOL     OW15436   0.138   2.952   4.163
 4846SOL    HW115437   0.196   2.871   4.156
 4846SOL    HW215438   0.046   2.926   4.191
 4847SOL     OW15439   2.810   0.969   6.564
 4847SOL    HW115440   2.851   0.943   6.476
 4847SOL    HW215441   2.882   0.989   6.630
 4848SOL     OW15442   1.517   0.687   4.002
 4848SOL    HW115443   1.616   0.695   4.007
 4848SOL    HW215444   1.479   0.770   3.959
 4849SOL     OW15445   1.298   5.436   6.791
 4849SOL    HW115446   1.371   5.461   6.728
 4849SOL    HW215447   1.228   5.508   6.790
 4850SOL     OW15448   3.666   1.262   1.995
 4850SOL    HW115449   3.754   1.280   1.951
 4850SOL    HW215450   3.650   1.331   2.066
 4851SOL     OW15451   4.297   0.172   5.811
 4851SOL    HW115452   4.332   0.174   5.904
 4851SOL    HW215453   4.368   0.136   5.750
 4852SOL     OW15454   1.599   5.752   4.909
 4852SOL    HW115455   1.550   5.839   4.909
 4852SOL    HW215456   1.552   5.687   4.849
 4853SOL     OW15457   3.481   1.198   3.290
 4853SOL    HW115458   3.391   1.184   3.247
 4853SOL    HW215459   3.472   1.264   3.364
 4854SOL     OW15460   4.438   6.738   1.376
 4854SOL    HW115461   4.393   6.705   1.293
 4854SOL    HW215462   4.499   6.815   1.353
 4855SOL     OW15463   6.168   2.814   3.880
 4855SOL    HW115464   6.087   2.763   3.851
 4855SOL    HW215465   6.151   2.855   3.970
 4856SOL     OW15466   1.292   3.300   2.926
 4856SOL    HW115467   1.350   3.221   2.905
 4856SOL    HW215468   1.244   3.284   3.012
 4857SOL     OW15469   2.922   1.851   4.870
 4857SOL    HW115470   2.872   1.764   4.868
 4857SOL    HW215471   2.882   1.911   4.939
 4858SOL     OW15472   1.157   0.255   4.224
 4858SOL    HW115473   1.104   0.206   4.155
 4858SOL    HW215474   1.096   0.312   4.279
 4859SOL     OW15475   0.808   6.971   4.326
 4859SOL    HW115476   0.801   6.939   4.232
 4859SOL    HW215477   0.886   6.927   4.370
 4860SOL     OW15478   4.372   4.340   1.632
 4860SOL    HW115479   4.403   4.301   1.719
 4860SOL    HW215480   4.336   4.268   1.573
 4861SOL     OW15481   6.011   5.553   6.880
 4861SOL    HW115482   6.015   5.533   6.782
 4861SOL    HW215483   5.971   5.475   6.928
 4862SOL     OW15484   2.281   4.492   5.129
 4862SOL    HW115485   2.289   4.408   5.075
 4862SOL    HW215486   2.364   4.505   5.183
 4863SOL     OW15487   5.278   3.891   0.904
 4863SOL    HW115488   5.288   3.947   0.821
 4863SOL    HW215489   5.368   3.875   0.944
 4864SOL     OW15490   4.149   1.114   2.572
 4864SOL    HW115491   4.162   1.181   2.645
 4864SOL    HW215492   4.231   1.058   2.562
 4865SOL     OW15493   2.156   6.512   3.982
 4865SOL    HW115494   2.250   6.493   3.954
 4865SOL    HW215495   2.108   6.426   3.998
 4866SOL     OW15496   6.418   4.105   1.618
 4866SOL    HW115497   6.468   4.159   1.686
 4866SOL    HW215498   6.325   4.141   1.609
 4867SOL     OW15499   3.967   5.276   2.007
 4867SOL    HW115500   4.055   5.316   2.033
 4867SOL    HW215501   3.979   5.220   1.924
 4868SOL     OW15502   6.517   4.887   2.758
 4868SOL    HW115503   6.525   4.842   2.669
 4868SOL    HW215504   6.602   4.936   2.778
 4869SOL     OW15505   1.118   1.062   1.399
 4869SOL    HW115506   1.178   1.115   1.339
 4869SOL    HW215507   1.028   1.052   1.357
 4870SOL     OW15508   0.102   5.872   1.935
 4870SOL    HW115509   0.095   5.827   1.846
 4870SOL    HW215510   0.138   5.807   2.002
 4871SOL     OW15511   0.927   0.739   4.653
 4871SOL    HW115512   0.954   0.835   4.658
 4871SOL    HW215513   0.889   0.710   4.741
 4872SOL     OW15514   6.545   6.314   4.011
 4872SOL    HW115515   6.517   6.409   4.022
 4872SOL    HW215516   6.523   6.284   3.918
 4873SOL     OW15517   6.523   5.124   3.488
 4873SOL    HW115518   6.615   5.104   3.521
 4873SOL    HW215519   6.456   5.090   3.553
 4874SOL     OW15520   6.368   2.881   3.271
 4874SOL    HW115521   6.344   2.963   3.220
 4874SOL    HW215522   6.422   2.821   3.212
 4875SOL     OW15523   5.849   2.797   1.399
 4875SOL    HW115524   5.821   2.782   1.304
 4875SOL    HW215525   5.794   2.738   1.458
 4876SOL     OW15526   5.685   1.631   4.202
 4876SOL    HW115527   5.739   1.595   4.125
 4876SOL    HW215528   5.717   1.589   4.287
 4877SOL     OW15529   1.056   2.187   6.572
 4877SOL    HW115530   1.133   2.173   6.635
 4877SOL    HW215531   1.054   2.282   6.543
 4878SOL     OW15532   6.539   0.181   3.133
 4878SOL    HW115533   6.559   0.276   3.158
 4878SOL    HW215534   6.482   0.140   3.205
 4879SOL     OW15535   4.192   5.741   3.102
 4879SOL    HW115536   4.273   5.689   3.130
 4879SOL    HW215537   4.183   5.822   3.161
 4880SOL     OW15538   5.627   3.479   0.266
 4880SOL    HW115539   5.554   3.544   0.287
 4880SOL    HW215540   5.628   3.406   0.334
 4881SOL     OW15541   1.678   0.969   6.226
 4881SOL    HW115542   1.707   0.928   6.312
 4881SOL    HW215543   1.682   0.901   6.153
 4882SOL     OW15544   4.868   1.503   4.810
 4882SOL    HW115545   4.832   1.410   4.814
 4882SOL    HW215546   4.887   1.535   4.902
 4883SOL     OW15547   5.613   4.140   1.842
 4883SOL    HW115548   5.630   4.096   1.754
 4883SOL    HW215549   5.515   4.142   1.860
 4884SOL     OW15550   3.070   0.035   1.252
 4884SOL    HW115551   3.133   0.080   1.316
 4884SOL    HW215552   3.123   7.006   1.185
 4885SOL     OW15553   1.529   5.251   2.786
 4885SOL    HW115554   1.612   5.294   2.753
 4885SOL    HW215555   1.539   5.151   2.782
 4886SOL     OW15556   0.650   5.735   0.861
 4886SOL    HW115557   0.587   5.812   0.877
 4886SOL    HW215558   0.683   5.701   0.949
 4887SOL     OW15559   0.629   0.633   2.546
 4887SOL    HW115560   0.709   0.692   2.557
 4887SOL    HW215561   0.617   0.610   2.450
 4888SOL     OW15562   2.186   6.547   4.284
 4888SOL    HW115563   2.215   6.592   4.369
 4888SOL    HW215564   2.243   6.580   4.208
 4889SOL     OW15565   6.531   1.194   6.240
 4889SOL    HW115566   6.580   1.149   6.165
 4889SOL    HW215567   6.437   1.160   6.243
 4890SOL     OW15568   1.107   2.072   6.847
 4890SOL    HW115569   1.021   2.117   6.823
 4890SOL    HW215570   1.092   2.014   6.928
 4891SOL     OW15571   1.799   5.058   6.747
 4891SOL    HW115572   1.833   4.976   6.701
 4891SOL    HW215573   1.716   5.037   6.797
 4892SOL     OW15574   3.548   6.353   1.963
 4892SOL    HW115575   3.527   6.406   1.881
 4892SOL    HW215576   3.642   6.319   1.958
 4893SOL     OW15577   6.809   4.053   1.592
 4893SOL    HW115578   6.735   3.996   1.557
 4893SOL    HW215579   6.852   4.101   1.515
 4894SOL     OW15580   2.162   1.541   3.054
 4894SOL    HW115581   2.109   1.619   3.086
 4894SOL    HW215582   2.110   1.492   2.984
 4895SOL     OW15583   0.628   5.066   3.429
 4895SOL    HW115584   0.613   4.967   3.435
 4895SOL    HW215585   0.690   5.095   3.502
 4896SOL     OW15586   1.762   5.634   2.156
 4896SOL    HW115587   1.664   5.616   2.166
 4896SOL    HW215588   1.776   5.731   2.135
 4897SOL     OW15589   3.062   4.020   6.368
 4897SOL    HW115590   2.999   4.093   6.342
 4897SOL    HW215591   3.085   4.031   6.465
 4898SOL     OW15592   3.274   1.025   4.334
 4898SOL    HW115593   3.373   1.010   4.338
 4898SOL    HW215594   3.229   0.938   4.314
 4899SOL     OW15595   6.424   5.132   2.867
 4899SOL    HW115596   6.337   5.159   2.825
 4899SOL    HW215597   6.470   5.065   2.808
 4900SOL     OW15598   2.195   5.886   4.574
 4900SOL    HW115599   2.127   5.954   4.603
 4900SOL    HW215600   2.226   5.833   4.653
 4901SOL     OW15601   3.175   6.345   6.008
 4901SOL    HW115602   3.110   6.405   6.056
 4901SOL    HW215603   3.248   6.319   6.071
 4902SOL     OW15604   2.753   1.979   4.338
 4902SOL    HW115605   2.801   2.054   4.383
 4902SOL    HW215606   2.792   1.892   4.368
 4903SOL     OW15607   3.648   6.142   6.550
 4903SOL    HW115608   3.687   6.134   6.641
 4903SOL    HW215609   3.605   6.056   6.525
 4904SOL     OW15610   1.827   0.126   4.222
 4904SOL    HW115611   1.865   0.049   4.170
 4904SOL    HW215612   1.732   0.141   4.195
 4905SOL     OW15613   3.924   0.335   2.263
 4905SOL    HW115614   3.993   0.366   2.329
 4905SOL    HW215615   3.869   0.413   2.234
 4906SOL     OW15616   4.847   1.927   5.572
 4906SOL    HW115617   4.940   1.905   5.604
 4906SOL    HW215618   4.842   1.912   5.473
 4907SOL     OW15619   4.421   6.255   1.044
 4907SOL    HW115620   4.349   6.299   0.990
 4907SOL    HW215621   4.440   6.164   1.007
 4908SOL     OW15622   5.263   5.068   6.931
 4908SOL    HW115623   5.271   4.968   6.941
 4908SOL    HW215624   5.200   5.104   7.000
 4909SOL     OW15625   6.619   0.432   4.340
 4909SOL    HW115626   6.523   0.406   4.353
 4909SOL    HW215627   6.677   0.369   4.392
 4910SOL     OW15628   4.990   6.611   4.564
 4910SOL    HW115629   4.950   6.522   4.588
 4910SOL    HW215630   4.925   6.662   4.508
 4911SOL     OW15631   1.161   3.318   4.133
 4911SOL    HW115632   1.113   3.265   4.202
 4911SOL    HW215633   1.096   3.375   4.082
 4912SOL     OW15634   5.552   1.415   6.990
 4912SOL    HW115635   5.544   1.451   6.897
 4912SOL    HW215636   5.639   1.446   0.007
 4913SOL     OW15637   4.080   3.185   5.326
 4913SOL    HW115638   4.062   3.248   5.402
 4913SOL    HW215639   4.163   3.133   5.345
 4914SOL     OW15640   3.515   0.102   4.845
 4914SOL    HW115641   3.535   0.165   4.769
 4914SOL    HW215642   3.437   0.136   4.896
 4915SOL     OW15643   4.440   0.539   4.508
 4915SOL    HW115644   4.405   0.457   4.553
 4915SOL    HW215645   4.363   0.595   4.477
 4916SOL     OW15646   1.448   0.374   3.986
 4916SOL    HW115647   1.491   0.422   3.909
 4916SOL    HW215648   1.409   0.441   4.049
 4917SOL     OW15649   2.187   4.787   1.281
 4917SOL    HW115650   2.094   4.759   1.258
 4917SOL    HW215651   2.194   4.799   1.380
 4918SOL     OW15652   3.857   5.844   2.187
 4918SOL    HW115653   3.864   5.758   2.136
 4918SOL    HW215654   3.760   5.869   2.197
 4919SOL     OW15655   2.970   2.037   6.737
 4919SOL    HW115656   2.940   1.972   6.667
 4919SOL    HW215657   2.936   2.128   6.715
 4920SOL     OW15658   5.663   0.846   4.977
 4920SOL    HW115659   5.588   0.874   5.036
 4920SOL    HW215660   5.644   0.755   4.939
 4921SOL     OW15661   1.482   4.300   0.506
 4921SOL    HW115662   1.479   4.387   0.556
 4921SOL    HW215663   1.497   4.225   0.571
 4922SOL     OW15664   2.121   2.603   4.652
 4922SOL    HW115665   2.062   2.596   4.572
 4922SOL    HW215666   2.137   2.700   4.673
 4923SOL     OW15667   3.671   1.815   1.329
 4923SOL    HW115668   3.740   1.886   1.337
 4923SOL    HW215669   3.646   1.803   1.233
 4924SOL     OW15670   2.693   2.020   5.774
 4924SOL    HW115671   2.718   1.929   5.742
 4924SOL    HW215672   2.773   2.065   5.813
 4925SOL     OW15673   5.890   6.388   1.967
 4925SOL    HW115674   5.859   6.431   1.882
 4925SOL    HW215675   5.916   6.293   1.949
 4926SOL     OW15676   5.608   1.727   0.321
 4926SOL    HW115677   5.664   1.678   0.254
 4926SOL    HW215678   5.657   1.810   0.350
 4927SOL     OW15679   4.004   3.694   4.287
 4927SOL    HW115680   3.993   3.603   4.249
 4927SOL    HW215681   4.023   3.759   4.214
 4928SOL     OW15682   1.362   0.222   6.557
 4928SOL    HW115683   1.306   0.212   6.638
 4928SOL    HW215684   1.305   0.213   6.475
 4929SOL     OW15685   0.795   5.087   4.656
 4929SOL    HW115686   0.743   5.044   4.729
 4929SOL    HW215687   0.851   5.161   4.693
 4930SOL     OW15688   4.866   0.929   3.333
 4930SOL    HW115689   4.804   0.850   3.336
 4930SOL    HW215690   4.906   0.943   3.424
 4931SOL     OW15691   6.881   0.221   0.701
 4931SOL    HW115692   6.806   0.163   0.668
 4931SOL    HW215693   6.851   0.316   0.703
 4932SOL     OW15694   2.495   3.288   1.703
 4932SOL    HW115695   2.440   3.338   1.770
 4932SOL    HW215696   2.469   3.316   1.611
 4933SOL     OW15697   1.973   0.028   3.323
 4933SOL    HW115698   2.039   7.003   3.266
 4933SOL    HW215699   2.012   0.041   3.415
 4934SOL     OW15700   2.490   5.600   3.104
 4934SOL    HW115701   2.481   5.610   3.203
 4934SOL    HW215702   2.514   5.505   3.082
 4935SOL     OW15703   1.461   1.282   6.305
 4935SOL    HW115704   1.364   1.290   6.282
 4935SOL    HW215705   1.507   1.368   6.282
 4936SOL     OW15706   2.415   5.088   1.821
 4936SOL    HW115707   2.488   5.155   1.837
 4936SOL    HW215708   2.446   4.997   1.849
 4937SOL     OW15709   6.913   2.705   6.346
 4937SOL    HW115710   6.927   2.788   6.400
 4937SOL    HW215711   6.999   2.654   6.340
 4938SOL     OW15712   2.347   6.398   6.106
 4938SOL    HW115713   2.440   6.427   6.129
 4938SOL    HW215714   2.295   6.476   6.073
 4939SOL     OW15715   6.390   1.963   4.212
 4939SOL    HW115716   6.412   2.056   4.181
 4939SOL    HW215717   6.361   1.908   4.134
 4940SOL     OW15718   0.588   0.899   4.760
 4940SOL    HW115719   0.621   0.991   4.780
 4940SOL    HW215720   0.542   0.862   4.840
 4941SOL     OW15721   4.965   2.565   5.238
 4941SOL    HW115722   4.983   2.472   5.206
 4941SOL    HW215723   4.969   2.629   5.161
 4942SOL     OW15724   5.646   3.490   6.135
 4942SOL    HW115725   5.707   3.426   6.181
 4942SOL    HW215726   5.660   3.483   6.036
 4943SOL     OW15727   4.231   3.594   5.902
 4943SOL    HW115728   4.275   3.528   5.963
 4943SOL    HW215729   4.291   3.611   5.824
 4944SOL     OW15730   2.580   4.388   1.737
 4944SOL    HW115731   2.640   4.320   1.695
 4944SOL    HW215732   2.628   4.476   1.742
 4945SOL     OW15733   1.427   0.268   4.594
 4945SOL    HW115734   1.422   0.241   4.498
 4945SOL    HW215735   1.356   0.219   4.646
 4946SOL     OW15736   1.375   5.156   0.181
 4946SOL    HW115737   1.425   5.176   0.266
 4946SOL    HW215738   1.419   5.204   0.105
 4947SOL     OW15739   2.437   0.424   0.616
 4947SOL    HW115740   2.373   0.443   0.541
 4947SOL    HW215741   2.386   0.393   0.696
 4948SOL     OW15742   1.481   3.154   2.697
 4948SOL    HW115743   1.456   3.086   2.628
 4948SOL    HW215744   1.459   3.245   2.664
 4949SOL     OW15745   5.901   5.101   5.638
 4949SOL    HW115746   5.995   5.091   5.672
 4949SOL    HW215747   5.850   5.017   5.655
 4950SOL     OW15748   2.127   5.355   4.434
 4950SOL    HW115749   2.113   5.279   4.497
 4950SOL    HW215750   2.051   5.361   4.370
 4951SOL     OW15751   5.954   0.901   5.017
 4951SOL    HW115752   5.979   0.922   4.923
 4951SOL    HW215753   5.856   0.880   5.022
 4952SOL     OW15754   0.542   0.788   5.803
 4952SOL    HW115755   0.457   0.792   5.854
 4952SOL    HW215756   0.541   0.710   5.741
 4953SOL     OW15757   1.869   6.865   3.101
 4953SOL    HW115758   1.804   6.941   3.109
 4953SOL    HW215759   1.961   6.902   3.088
 4954SOL     OW15760   3.679   3.108   0.213
 4954SOL    HW115761   3.746   3.059   0.157
 4954SOL    HW215762   3.605   3.142   0.154
 4955SOL     OW15763   3.267   6.618   6.900
 4955SOL    HW115764   3.235   6.578   6.814
 4955SOL    HW215765   3.317   6.549   6.952
 4956SOL     OW15766   2.034   6.727   5.136
 4956SOL    HW115767   2.053   6.734   5.234
 4956SOL    HW215768   2.115   6.689   5.089
 4957SOL     OW15769   5.485   2.388   1.740
 4957SOL    HW115770   5.442   2.355   1.824
 4957SOL    HW215771   5.502   2.310   1.679
 4958SOL     OW15772   0.246   4.967   5.762
 4958SOL    HW115773   0.153   4.968   5.725
 4958SOL    HW215774   0.308   4.926   5.696
 4959SOL     OW15775   6.073   1.825   0.133
 4959SOL    HW115776   6.051   1.728   0.122
 4959SOL    HW215777   6.141   1.835   0.205
 4960SOL     OW15778   3.484   4.989   3.320
 4960SOL    HW115779   3.421   4.965   3.245
 4960SOL    HW215780   3.444   5.062   3.375
 4961SOL     OW15781   4.103   1.026   5.782
 4961SOL    HW115782   4.141   0.973   5.707
 4961SOL    HW215783   4.177   1.063   5.839
 4962SOL     OW15784   5.817   2.373   0.244
 4962SOL    HW115785   5.802   2.338   0.336
 4962SOL    HW215786   5.855   2.301   0.186
 4963SOL     OW15787   6.836   6.000   0.520
 4963SOL    HW115788   6.764   5.966   0.581
 4963SOL    HW215789   6.921   5.952   0.540
 4964SOL     OW15790   2.870   0.625   3.961
 4964SOL    HW115791   2.815   0.546   3.933
 4964SOL    HW215792   2.952   0.630   3.904
 4965SOL     OW15793   0.410   1.087   2.137
 4965SOL    HW115794   0.473   1.162   2.118
 4965SOL    HW215795   0.437   1.006   2.085
 4966SOL     OW15796   2.173   6.762   5.353
 4966SOL    HW115797   2.159   6.806   5.442
 4966SOL    HW215798   2.235   6.817   5.298
 4967SOL     OW15799   4.020   5.150   5.327
 4967SOL    HW115800   3.967   5.165   5.243
 4967SOL    HW215801   4.028   5.236   5.377
 4968SOL     OW15802   6.631   1.799   4.083
 4968SOL    HW115803   6.659   1.703   4.077
 4968SOL    HW215804   6.645   1.843   3.995
 4969SOL     OW15805   2.685   5.789   3.094
 4969SOL    HW115806   2.622   5.712   3.085
 4969SOL    HW215807   2.651   5.867   3.041
 4970SOL     OW15808   2.383   2.705   2.595
 4970SOL    HW115809   2.379   2.617   2.548
 4970SOL    HW215810   2.381   2.691   2.694
 4971SOL     OW15811   6.211   5.717   3.385
 4971SOL    HW115812   6.161   5.678   3.307
 4971SOL    HW215813   6.159   5.701   3.469
 4972SOL     OW15814   1.163   3.771   0.881
 4972SOL    HW115815   1.161   3.847   0.947
 4972SOL    HW215816   1.173   3.808   0.789
 4973SOL     OW15817   1.810   6.393   2.594
 4973SOL    HW115818   1.745   6.469   2.591
 4973SOL    HW215819   1.790   6.330   2.520
 4974SOL     OW15820   6.300   4.422   1.122
 4974SOL    HW115821   6.201   4.410   1.134
 4974SOL    HW215822   6.319   4.518   1.101
 4975SOL     OW15823   5.935   3.838   5.557
 4975SOL    HW115824   5.959   3.824   5.461
 4975SOL    HW215825   5.942   3.750   5.605
 4976SOL     OW15826   1.740   1.046   3.870
 4976SOL    HW115827   1.837   1.066   3.883
 4976SOL    HW215828   1.713   1.068   3.777
 4977SOL     OW15829   3.974   5.046   0.208
 4977SOL    HW115830   4.007   5.114   0.273
 4977SOL    HW215831   4.037   5.042   0.130
 4978SOL     OW15832   6.809   3.814   4.878
 4978SOL    HW115833   6.849   3.847   4.793
 4978SOL    HW215834   6.725   3.763   4.858
 4979SOL     OW15835   6.992   0.019   6.613
 4979SOL    HW115836   6.941   6.959   6.639
 4979SOL    HW215837   6.966   0.046   6.520
 4980SOL     OW15838   5.291   6.203   3.394
 4980SOL    HW115839   5.256   6.251   3.314
 4980SOL    HW215840   5.280   6.104   3.382
 4981SOL     OW15841   4.761   5.732   0.203
 4981SOL    HW115842   4.713   5.779   0.128
 4981SOL    HW215843   4.830   5.671   0.164
 4982SOL     OW15844   2.667   1.026   5.522
 4982SOL    HW115845   2.591   1.080   5.558
 4982SOL    HW215846   2.753   1.070   5.546
 4983SOL     OW15847   5.952   3.423   4.739
 4983SOL    HW115848   6.050   3.403   4.736
 4983SOL    HW215849   5.938   3.521   4.748
 4984SOL     OW15850   5.709   3.861   3.217
 4984SOL    HW115851   5.756   3.833   3.301
 4984SOL    HW215852   5.659   3.783   3.179
 4985SOL     OW15853   6.051   6.741   3.368
 4985SOL    HW115854   5.958   6.717   3.340
 4985SOL    HW215855   6.100   6.658   3.395
 4986SOL     OW15856   6.990   4.262   1.667
 4986SOL    HW115857   6.951   4.172   1.688
 4986SOL    HW215858   6.917   4.323   1.636
 4987SOL     OW15859   1.480   0.893   2.248
 4987SOL    HW115860   1.501   0.888   2.151
 4987SOL    HW215861   1.538   0.962   2.292
 4988SOL     OW15862   5.399   0.708   2.586
 4988SOL    HW115863   5.410   0.803   2.557
 4988SOL    HW215864   5.356   0.705   2.676
 4989SOL     OW15865   5.102   0.156   1.421
 4989SOL    HW115866   5.088   0.145   1.323
 4989SOL    HW215867   5.197   0.179   1.439
 4990SOL     OW15868   2.395   1.845   5.793
 4990SOL    HW115869   2.495   1.852   5.797
 4990SOL    HW215870   2.369   1.749   5.784
 4991SOL     OW15871   6.084   5.200   4.007
 4991SOL    HW115872   6.134   5.119   4.035
 4991SOL    HW215873   6.100   5.218   3.910
 4992SOL     OW15874   5.153   1.065   3.631
 4992SOL    HW115875   5.196   1.113   3.555
 4992SOL    HW215876   5.207   1.079   3.714
 4993SOL     OW15877   2.440   5.724   4.064
 4993SOL    HW115878   2.483   5.641   4.030
 4993SOL    HW215879   2.386   5.703   4.146
 4994SOL     OW15880   1.543   0.515   3.714
 4994SOL    HW115881   1.504   0.423   3.712
 4994SOL    HW215882   1.480   0.577   3.762
 4995SOL     OW15883   0.264   2.043   5.639
 4995SOL    HW115884   0.216   2.044   5.551
 4995SOL    HW215885   0.224   1.972   5.697
 4996SOL     OW15886   0.961   1.381   2.699
 4996SOL    HW115887   0.916   1.362   2.786
 4996SOL    HW215888   1.060   1.379   2.712
 4997SOL     OW15889   5.459   2.675   2.786
 4997SOL    HW115890   5.529   2.604   2.774
 4997SOL    HW215891   5.410   2.660   2.871
 4998SOL     OW15892   2.253   4.270   4.908
 4998SOL    HW115893   2.273   4.180   4.948
 4998SOL    HW215894   2.155   4.279   4.892
 4999SOL     OW15895   6.476   3.491   0.440
 4999SOL    HW115896   6.540   3.420   0.470
 4999SOL    HW215897   6.421   3.455   0.365
 5000SOL     OW15898   2.781   7.019   3.283
 5000SOL    HW115899   2.746   0.012   3.191
 5000SOL    HW215900   2.829   6.931   3.286
 5001SOL     OW15901   0.293   4.082   0.915
 5001SOL    HW115902   0.298   4.053   1.011
 5001SOL    HW215903   0.294   4.002   0.855
 5002SOL     OW15904   0.728   3.667   3.335
 5002SOL    HW115905   0.663   3.717   3.392
 5002SOL    HW215906   0.810   3.722   3.321
 5003SOL     OW15907   2.788   6.238   2.521
 5003SOL    HW115908   2.757   6.250   2.426
 5003SOL    HW215909   2.730   6.292   2.582
 5004SOL     OW15910   3.474   5.332   6.315
 5004SOL    HW115911   3.381   5.294   6.320
 5004SOL    HW215912   3.520   5.297   6.234
 5005SOL     OW15913   3.291   2.750   0.808
 5005SOL    HW115914   3.390   2.739   0.822
 5005SOL    HW215915   3.268   2.723   0.715
 5006SOL     OW15916   5.357   0.644   0.525
 5006SOL    HW115917   5.436   0.635   0.586
 5006SOL    HW215918   5.279   0.677   0.577
 5007SOL     OW15919   1.245   6.824   0.444
 5007SOL    HW115920   1.187   6.906   0.448
 5007SOL    HW215921   1.340   6.851   0.458
 5008SOL     OW15922   6.492   6.708   2.606
 5008SOL    HW115923   6.449   6.642   2.544
 5008SOL    HW215924   6.577   6.671   2.642
 5009SOL     OW15925   0.762   0.152   1.141
 5009SOL    HW115926   0.674   0.104   1.137
 5009SOL    HW215927   0.746   0.250   1.152
 5010SOL     OW15928   3.900   3.752   2.695
 5010SOL    HW115929   3.903   3.692   2.775
 5010SOL    HW215930   3.978   3.733   2.636
 5011SOL     OW15931   1.879   3.880   2.281
 5011SOL    HW115932   1.885   3.790   2.324
 5011SOL    HW215933   1.964   3.900   2.233
 5012SOL     OW15934   5.872   4.343   5.758
 5012SOL    HW115935   5.902   4.287   5.836
 5012SOL    HW215936   5.952   4.377   5.709
 5013SOL     OW15937   5.325   1.610   6.409
 5013SOL    HW115938   5.227   1.626   6.419
 5013SOL    HW215939   5.352   1.532   6.465
 5014SOL     OW15940   5.446   4.163   0.371
 5014SOL    HW115941   5.367   4.106   0.344
 5014SOL    HW215942   5.522   4.146   0.308
 5015SOL     OW15943   4.886   1.747   4.441
 5015SOL    HW115944   4.959   1.728   4.506
 5015SOL    HW215945   4.805   1.694   4.465
 5016SOL     OW15946   2.251   1.944   0.569
 5016SOL    HW115947   2.210   2.009   0.505
 5016SOL    HW215948   2.283   1.864   0.518
 5017SOL     OW15949   2.030   2.560   0.050
 5017SOL    HW115950   2.031   2.512   6.986
 5017SOL    HW215951   2.054   2.656   0.036
 5018SOL     OW15952   0.138   3.996   2.081
 5018SOL    HW115953   0.081   4.073   2.108
 5018SOL    HW215954   0.136   3.927   2.153
 5019SOL     OW15955   1.468   4.799   6.620
 5019SOL    HW115956   1.465   4.869   6.550
 5019SOL    HW215957   1.503   4.714   6.581
 5020SOL     OW15958   5.079   0.290   6.762
 5020SOL    HW115959   5.154   0.327   6.707
 5020SOL    HW215960   5.044   0.362   6.822
 5021SOL     OW15961   1.087   1.600   5.997
 5021SOL    HW115962   1.119   1.585   6.090
 5021SOL    HW215963   1.122   1.528   5.937
 5022SOL     OW15964   0.907   1.940   6.585
 5022SOL    HW115965   0.927   2.037   6.601
 5022SOL    HW215966   0.902   1.893   6.673
 5023SOL     OW15967   6.470   2.748   1.478
 5023SOL    HW115968   6.429   2.839   1.474
 5023SOL    HW215969   6.545   2.742   1.412
 5024SOL     OW15970   5.498   5.627   1.915
 5024SOL    HW115971   5.476   5.653   1.821
 5024SOL    HW215972   5.574   5.563   1.915
 5025SOL     OW15973   3.182   1.708   2.007
 5025SOL    HW115974   3.238   1.658   1.941
 5025SOL    HW215975   3.086   1.701   1.981
 5026SOL     OW15976   6.233   5.643   5.751
 5026SOL    HW115977   6.248   5.722   5.693
 5026SOL    HW215978   6.263   5.663   5.844
 5027SOL     OW15979   0.230   6.077   2.400
 5027SOL    HW115980   0.281   6.154   2.439
 5027SOL    HW215981   0.282   5.993   2.412
 5028SOL     OW15982   0.595   1.520   3.038
 5028SOL    HW115983   0.644   1.601   3.004
 5028SOL    HW215984   0.584   1.527   3.137
 5029SOL     OW15985   0.042   2.678   2.814
 5029SOL    HW115986   7.001   2.749   2.783
 5029SOL    HW215987   0.005   2.588   2.792
 5030SOL     OW15988   0.115   6.641   6.874
 5030SOL    HW115989   0.021   6.614   6.895
 5030SOL    HW215990   0.156   6.575   6.811
 5031SOL     OW15991   5.975   0.169   5.278
 5031SOL    HW115992   5.923   0.244   5.317
 5031SOL    HW215993   5.913   0.098   5.244
 5032SOL     OW15994   1.606   2.808   1.311
 5032SOL    HW115995   1.542   2.773   1.380
 5032SOL    HW215996   1.697   2.816   1.350
 5033SOL     OW15997   2.863   6.252   5.877
 5033SOL    HW115998   2.936   6.199   5.833
 5033SOL    HW215999   2.893   6.347   5.888
 5034SOL     OW16000   4.731   0.772   3.103
 5034SOL    HW116001   4.728   0.872   3.093
 5034SOL    HW216002   4.710   0.730   3.014
 5035SOL     OW16003   0.607   4.525   0.303
 5035SOL    HW116004   0.613   4.427   0.287
 5035SOL    HW216005   0.685   4.554   0.358
 5036SOL     OW16006   0.103   4.808   0.169
 5036SOL    HW116007   0.140   4.882   0.113
 5036SOL    HW216008   0.085   4.728   0.112
 5037SOL     OW16009   5.397   2.752   3.320
 5037SOL    HW116010   5.310   2.703   3.311
 5037SOL    HW216011   5.458   2.701   3.381
 5038SOL     OW16012   1.919   3.973   6.303
 5038SOL    HW116013   1.853   3.996   6.232
 5038SOL    HW216014   1.993   4.041   6.302
 5039SOL     OW16015   3.015   4.261   5.307
 5039SOL    HW116016   2.981   4.345   5.264
 5039SOL    HW216017   2.978   4.182   5.259
 5040SOL     OW16018   2.256   5.329   6.281
 5040SOL    HW116019   2.158   5.310   6.277
 5040SOL    HW216020   2.306   5.244   6.297
 5041SOL     OW16021   1.622   1.441   1.712
 5041SOL    HW116022   1.557   1.369   1.734
 5041SOL    HW216023   1.634   1.446   1.613
 5042SOL     OW16024   6.446   3.217   0.611
 5042SOL    HW116025   6.347   3.228   0.600
 5042SOL    HW216026   6.485   3.182   0.525
 5043SOL     OW16027   3.430   0.576   6.031
 5043SOL    HW116028   3.379   0.561   6.116
 5043SOL    HW216029   3.391   0.519   5.958
 5044SOL     OW16030   0.485   6.588   0.831
 5044SOL    HW116031   0.415   6.652   0.864
 5044SOL    HW216032   0.527   6.624   0.748
 5045SOL     OW16033   5.543   1.800   6.717
 5045SOL    HW116034   5.538   1.703   6.742
 5045SOL    HW216035   5.451   1.833   6.695
 5046SOL     OW16036   3.242   4.147   3.266
 5046SOL    HW116037   3.271   4.082   3.337
 5046SOL    HW216038   3.181   4.215   3.307
 5047SOL     OW16039   6.873   3.274   2.636
 5047SOL    HW116040   6.825   3.345   2.585
 5047SOL    HW216041   6.886   3.194   2.577
 5048SOL     OW16042   0.675   0.819   2.337
 5048SOL    HW116043   0.692   0.891   2.269
 5048SOL    HW216044   0.761   0.796   2.383
 5049SOL     OW16045   6.178   1.755   5.305
 5049SOL    HW116046   6.103   1.739   5.369
 5049SOL    HW216047   6.265   1.747   5.353
 5050SOL     OW16048   1.554   0.376   1.301
 5050SOL    HW116049   1.465   0.395   1.341
 5050SOL    HW216050   1.618   0.348   1.373
 5051SOL     OW16051   4.853   4.842   1.092
 5051SOL    HW116052   4.885   4.752   1.121
 5051SOL    HW216053   4.772   4.867   1.145
 5052SOL     OW16054   2.217   6.826   6.408
 5052SOL    HW116055   2.224   6.918   6.446
 5052SOL    HW216056   2.141   6.777   6.450
 5053SOL     OW16057   2.183   3.998   2.706
 5053SOL    HW116058   2.215   3.918   2.757
 5053SOL    HW216059   2.203   4.081   2.758
 5054SOL     OW16060   3.204   6.360   4.840
 5054SOL    HW116061   3.275   6.305   4.798
 5054SOL    HW216062   3.135   6.384   4.771
 5055SOL     OW16063   1.743   0.687   5.508
 5055SOL    HW116064   1.781   0.599   5.537
 5055SOL    HW216065   1.705   0.679   5.416
 5056SOL     OW16066   6.588   4.554   0.808
 5056SOL    HW116067   6.622   4.518   0.895
 5056SOL    HW216068   6.522   4.489   0.770
 5057SOL     OW16069   6.436   6.173   5.357
 5057SOL    HW116070   6.424   6.163   5.456
 5057SOL    HW216071   6.346   6.177   5.313
 5058SOL     OW16072   2.630   3.033   5.422
 5058SOL    HW116073   2.563   3.022   5.348
 5058SOL    HW216074   2.620   3.124   5.463
 5059SOL     OW16075   6.017   2.152   3.351
 5059SOL    HW116076   5.955   2.144   3.273
 5059SOL    HW216077   5.964   2.156   3.435
 5060SOL     OW16078   0.988   1.593   5.259
 5060SOL    HW116079   0.986   1.572   5.161
 5060SOL    HW216080   1.080   1.580   5.294
 5061SOL     OW16081   3.784   3.477   3.132
 5061SOL    HW116082   3.881   3.452   3.121
 5061SOL    HW216083   3.734   3.401   3.172
 5062SOL     OW16084   5.412   0.708   3.273
 5062SOL    HW116085   5.390   0.658   3.357
 5062SOL    HW216086   5.487   0.662   3.226
 5063SOL     OW16087   1.220   6.945   2.312
 5063SOL    HW116088   1.303   6.997   2.333
 5063SOL    HW216089   1.225   6.912   2.218
 5064SOL     OW16090   4.770   3.956   1.746
 5064SOL    HW116091   4.671   3.960   1.736
 5064SOL    HW216092   4.793   3.941   1.842
 5065SOL     OW16093   1.522   2.011   3.995
 5065SOL    HW116094   1.593   1.992   3.929
 5065SOL    HW216095   1.475   2.096   3.971
 5066SOL     OW16096   4.009   4.653   1.022
 5066SOL    HW116097   3.991   4.557   1.000
 5066SOL    HW216098   3.954   4.681   1.100
 5067SOL     OW16099   3.167   1.118   2.674
 5067SOL    HW116100   3.087   1.128   2.616
 5067SOL    HW216101   3.144   1.062   2.754
 5068SOL     OW16102   2.955   5.171   6.630
 5068SOL    HW116103   2.948   5.259   6.676
 5068SOL    HW216104   3.024   5.115   6.676
 5069SOL     OW16105   2.096   3.150   5.346
 5069SOL    HW116106   2.131   3.064   5.308
 5069SOL    HW216107   2.159   3.181   5.417
 5070SOL     OW16108   4.696   4.265   4.163
 5070SOL    HW116109   4.651   4.339   4.213
 5070SOL    HW216110   4.644   4.180   4.174
 5071SOL     OW16111   4.146   1.216   3.252
 5071SOL    HW116112   4.063   1.265   3.226
 5071SOL    HW216113   4.218   1.236   3.186
 5072SOL     OW16114   1.188   0.956   1.656
 5072SOL    HW116115   1.186   1.007   1.570
 5072SOL    HW216116   1.257   0.995   1.716
 5073SOL     OW16117   1.126   4.817   1.390
 5073SOL    HW116118   1.028   4.828   1.411
 5073SOL    HW216119   1.138   4.739   1.329
 5074SOL     OW16120   3.295   2.392   1.028
 5074SOL    HW116121   3.235   2.472   1.021
 5074SOL    HW216122   3.332   2.387   1.121
 5075SOL     OW16123   1.304   2.535   6.058
 5075SOL    HW116124   1.260   2.503   6.142
 5075SOL    HW216125   1.325   2.457   5.999
 5076SOL     OW16126   5.226   0.650   0.899
 5076SOL    HW116127   5.181   0.600   0.973
 5076SOL    HW216128   5.325   0.651   0.915
 5077SOL     OW16129   2.279   4.379   5.641
 5077SOL    HW116130   2.373   4.407   5.655
 5077SOL    HW216131   2.268   4.342   5.549
 5078SOL     OW16132   0.290   1.088   4.063
 5078SOL    HW116133   0.297   1.186   4.043
 5078SOL    HW216134   0.343   1.037   3.995
 5079SOL     OW16135   2.122   3.415   4.911
 5079SOL    HW116136   2.024   3.397   4.909
 5079SOL    HW216137   2.172   3.328   4.910
 5080SOL     OW16138   5.808   6.635   6.473
 5080SOL    HW116139   5.734   6.702   6.476
 5080SOL    HW216140   5.788   6.565   6.405
 5081SOL     OW16141   3.502   3.229   5.206
 5081SOL    HW116142   3.537   3.143   5.242
 5081SOL    HW216143   3.420   3.210   5.150
 5082SOL     OW16144   5.165   5.411   1.612
 5082SOL    HW116145   5.183   5.507   1.593
 5082SOL    HW216146   5.069   5.400   1.640
 5083SOL     OW16147   2.476   0.349   2.898
 5083SOL    HW116148   2.449   0.370   2.804
 5083SOL    HW216149   2.394   0.343   2.955
 5084SOL     OW16150   0.368   4.392   4.257
 5084SOL    HW116151   0.394   4.341   4.175
 5084SOL    HW216152   0.376   4.333   4.337
 5085SOL     OW16153   6.249   2.472   6.428
 5085SOL    HW116154   6.215   2.523   6.507
 5085SOL    HW216155   6.311   2.529   6.374
 5086SOL     OW16156   1.206   5.431   3.061
 5086SOL    HW116157   1.151   5.396   3.137
 5086SOL    HW216158   1.302   5.432   3.087
 5087SOL     OW16159   1.782   5.532   3.280
 5087SOL    HW116160   1.810   5.625   3.257
 5087SOL    HW216161   1.694   5.535   3.328
 5088SOL     OW16162   5.954   0.323   4.114
 5088SOL    HW116163   5.912   0.234   4.131
 5088SOL    HW216164   6.036   0.310   4.057
 5089SOL     OW16165   5.733   3.747   4.057
 5089SOL    HW116166   5.702   3.808   4.130
 5089SOL    HW216167   5.791   3.675   4.096
 5090SOL     OW16168   2.160   3.718   2.372
 5090SOL    HW116169   2.167   3.765   2.460
 5090SOL    HW216170   2.218   3.763   2.305
 5091SOL     OW16171   0.133   1.368   1.223
 5091SOL    HW116172   0.181   1.282   1.239
 5091SOL    HW216173   0.042   1.363   1.264
 5092SOL     OW16174   3.547   3.828   3.235
 5092SOL    HW116175   3.480   3.901   3.227
 5092SOL    HW216176   3.612   3.850   3.309
 5093SOL     OW16177   3.024   1.393   0.523
 5093SOL    HW116178   3.042   1.483   0.484
 5093SOL    HW216179   3.109   1.354   0.559
 5094SOL     OW16180   2.136   5.862   5.913
 5094SOL    HW116181   2.212   5.907   5.960
 5094SOL    HW216182   2.053   5.918   5.923
 5095SOL     OW16183   6.375   2.049   3.885
 5095SOL    HW116184   6.469   2.015   3.883
 5095SOL    HW216185   6.317   1.983   3.933
 5096SOL     OW16186   3.902   5.247   6.861
 5096SOL    HW116187   3.860   5.335   6.881
 5096SOL    HW216188   3.860   5.176   6.918
 5097SOL     OW16189   1.217   0.130   6.344
 5097SOL    HW116190   1.205   0.066   6.420
 5097SOL    HW216191   1.235   0.078   6.260
 5098SOL     OW16192   2.750   0.329   1.807
 5098SOL    HW116193   2.745   0.381   1.893
 5098SOL    HW216194   2.660   0.330   1.763
 5099SOL     OW16195   1.021   0.330   0.397
 5099SOL    HW116196   0.990   0.417   0.436
 5099SOL    HW216197   0.944   0.267   0.393
 5100SOL     OW16198   3.355   5.470   4.844
 5100SOL    HW116199   3.352   5.375   4.875
 5100SOL    HW216200   3.274   5.490   4.790
 5101SOL     OW16201   4.943   0.473   0.345
 5101SOL    HW116202   5.039   0.455   0.323
 5101SOL    HW216203   4.887   0.456   0.265
 5102SOL     OW16204   5.330   0.097   4.431
 5102SOL    HW116205   5.258   0.071   4.366
 5102SOL    HW216206   5.351   0.194   4.421
 5103SOL     OW16207   0.442   0.453   4.170
 5103SOL    HW116208   0.507   0.388   4.132
 5103SOL    HW216209   0.362   0.459   4.110
 5104SOL     OW16210   1.800   6.206   2.141
 5104SOL    HW116211   1.788   6.210   2.042
 5104SOL    HW216212   1.846   6.289   2.172
 5105SOL     OW16213   2.455   2.632   0.935
 5105SOL    HW116214   2.447   2.665   1.029
 5105SOL    HW216215   2.370   2.587   0.908
 5106SOL     OW16216   4.154   2.389   0.435
 5106SOL    HW116217   4.192   2.307   0.393
 5106SOL    HW216218   4.056   2.376   0.451
 5107SOL     OW16219   3.544   1.625   0.764
 5107SOL    HW116220   3.501   1.585   0.683
 5107SOL    HW216221   3.509   1.718   0.777
 5108SOL     OW16222   3.838   4.123   5.181
 5108SOL    HW116223   3.923   4.174   5.190
 5108SOL    HW216224   3.794   4.146   5.094
 5109SOL     OW16225   0.941   1.671   0.156
 5109SOL    HW116226   0.958   1.676   0.254
 5109SOL    HW216227   0.993   1.596   0.116
 5110SOL     OW16228   1.012   0.665   5.627
 5110SOL    HW116229   1.054   0.753   5.650
 5110SOL    HW216230   0.914   0.677   5.616
 5111SOL     OW16231   1.477   0.517   5.024
 5111SOL    HW116232   1.405   0.448   5.019
 5111SOL    HW216233   1.436   0.608   5.017
 5112SOL     OW16234   1.726   1.246   3.283
 5112SOL    HW116235   1.724   1.266   3.185
 5112SOL    HW216236   1.778   1.163   3.299
 5113SOL     OW16237   1.949   6.869   1.188
 5113SOL    HW116238   2.001   6.908   1.264
 5113SOL    HW216239   1.933   6.940   1.119
 5114SOL     OW16240   3.407   1.178   6.408
 5114SOL    HW116241   3.375   1.192   6.502
 5114SOL    HW216242   3.329   1.159   6.348
 5115SOL     OW16243   2.020   5.123   4.139
 5115SOL    HW116244   2.073   5.073   4.070
 5115SOL    HW216245   1.950   5.063   4.178
 5116SOL     OW16246   0.457   0.088   5.923
 5116SOL    HW116247   0.461   0.057   5.828
 5116SOL    HW216248   0.543   0.064   5.969
 5117SOL     OW16249   2.259   4.425   4.663
 5117SOL    HW116250   2.258   4.358   4.737
 5117SOL    HW216251   2.214   4.386   4.582
 5118SOL     OW16252   5.039   0.224   0.043
 5118SOL    HW116253   5.069   0.292   0.109
 5118SOL    HW216254   5.091   0.235   6.981
 5119SOL     OW16255   5.162   0.959   2.178
 5119SOL    HW116256   5.114   0.919   2.256
 5119SOL    HW216257   5.112   1.041   2.148
 5120SOL     OW16258   3.850   0.225   3.885
 5120SOL    HW116259   3.761   0.181   3.871
 5120SOL    HW216260   3.869   0.230   3.983
 5121SOL     OW16261   2.589   2.237   6.354
 5121SOL    HW116262   2.583   2.186   6.268
 5121SOL    HW216263   2.612   2.332   6.335
 5122SOL     OW16264   3.254   6.627   3.428
 5122SOL    HW116265   3.280   6.712   3.383
 5122SOL    HW216266   3.328   6.598   3.490
 5123SOL     OW16267   4.116   2.183   4.596
 5123SOL    HW116268   4.168   2.228   4.523
 5123SOL    HW216269   4.022   2.218   4.596
 5124SOL     OW16270   2.476   5.314   4.473
 5124SOL    HW116271   2.476   5.319   4.573
 5124SOL    HW216272   2.395   5.264   4.443
 5125SOL     OW16273   5.808   3.545   4.378
 5125SOL    HW116274   5.817   3.504   4.288
 5125SOL    HW216275   5.809   3.645   4.369
 5126SOL     OW16276   6.337   4.955   5.351
 5126SOL    HW116277   6.435   4.962   5.330
 5126SOL    HW216278   6.299   4.875   5.304
 5127SOL     OW16279   1.360   4.362   6.844
 5127SOL    HW116280   1.363   4.287   6.909
 5127SOL    HW216281   1.298   4.339   6.769
 5128SOL     OW16282   6.830   0.264   6.474
 5128SOL    HW116283   6.887   0.240   6.396
 5128SOL    HW216284   6.845   0.360   6.498
 5129SOL     OW16285   5.545   0.037   2.694
 5129SOL    HW116286   5.594   0.115   2.655
 5129SOL    HW216287   5.599   7.020   2.767
 5130SOL     OW16288   0.834   5.961   3.471
 5130SOL    HW116289   0.790   5.888   3.525
 5130SOL    HW216290   0.929   5.970   3.500
 5131SOL     OW16291   2.749   5.007   3.772
 5131SOL    HW116292   2.824   5.071   3.792
 5131SOL    HW216293   2.666   5.057   3.753
 5132SOL     OW16294   3.251   2.281   6.403
 5132SOL    HW116295   3.232   2.263   6.500
 5132SOL    HW216296   3.319   2.353   6.396
 5133SOL     OW16297   1.460   5.347   7.013
 5133SOL    HW116298   1.401   5.393   6.946
 5133SOL    HW216299   1.545   5.319   6.968
 5134SOL     OW16300   6.920   2.086   2.209
 5134SOL    HW116301   6.849   2.119   2.270
 5134SOL    HW216302   7.000   2.146   2.216
 5135SOL     OW16303   5.859   3.483   4.105
 5135SOL    HW116304   5.819   3.419   4.040
 5135SOL    HW216305   5.953   3.457   4.124
 5136SOL     OW16306   5.169   0.374   0.237
 5136SOL    HW116307   5.215   0.305   0.293
 5136SOL    HW216308   5.218   0.384   0.150
 5137SOL     OW16309   5.226   4.055   5.836
 5137SOL    HW116310   5.151   4.121   5.841
 5137SOL    HW216311   5.298   4.091   5.778
 5138SOL     OW16312   4.026   2.875   5.513
 5138SOL    HW116313   3.933   2.883   5.475
 5138SOL    HW216314   4.084   2.825   5.450
 5139SOL     OW16315   1.342   1.370   3.419
 5139SOL    HW116316   1.349   1.379   3.518
 5139SOL    HW216317   1.267   1.428   3.386
 5140SOL     OW16318   4.064   2.508   6.210
 5140SOL    HW116319   4.062   2.470   6.117
 5140SOL    HW216320   4.104   2.600   6.207
 5141SOL     OW16321   6.157   3.940   0.986
 5141SOL    HW116322   6.210   3.881   0.925
 5141SOL    HW216323   6.171   3.911   1.080
 5142SOL     OW16324   6.121   6.764   2.404
 5142SOL    HW116325   6.124   6.812   2.492
 5142SOL    HW216326   6.038   6.709   2.399
 5143SOL     OW16327   6.457   4.804   4.284
 5143SOL    HW116328   6.548   4.763   4.282
 5143SOL    HW216329   6.455   4.882   4.221
 5144SOL     OW16330   0.647   4.850   5.752
 5144SOL    HW116331   0.738   4.823   5.781
 5144SOL    HW216332   0.591   4.871   5.833
 5145SOL     OW16333   3.625   5.849   5.681
 5145SOL    HW116334   3.636   5.763   5.631
 5145SOL    HW216335   3.544   5.896   5.648
 5146SOL     OW16336   3.176   4.045   5.738
 5146SOL    HW116337   3.110   4.046   5.813
 5146SOL    HW216338   3.197   3.951   5.713
 5147SOL     OW16339   6.483   5.369   2.984
 5147SOL    HW116340   6.560   5.410   2.935
 5147SOL    HW216341   6.477   5.272   2.961
 5148SOL     OW16342   6.498   0.080   1.725
 5148SOL    HW116343   6.593   0.068   1.755
 5148SOL    HW216344   6.468   7.022   1.674
 5149SOL     OW16345   6.248   5.965   3.177
 5149SOL    HW116346   6.168   5.953   3.236
 5149SOL    HW216347   6.277   6.061   3.180
 5150SOL     OW16348   2.208   5.746   3.269
 5150SOL    HW116349   2.284   5.696   3.311
 5150SOL    HW216350   2.244   5.810   3.201
 5151SOL     OW16351   6.766   3.298   2.018
 5151SOL    HW116352   6.742   3.308   2.115
 5151SOL    HW216353   6.687   3.265   1.967
 5152SOL     OW16354   1.943   4.910   7.013
 5152SOL    HW116355   1.981   4.988   0.041
 5152SOL    HW216356   1.847   4.898   0.014
 5153SOL     OW16357   1.438   1.374   6.778
 5153SOL    HW116358   1.439   1.285   6.731
 5153SOL    HW216359   1.360   1.377   6.841
 5154SOL     OW16360   1.198   2.571   5.773
 5154SOL    HW116361   1.247   2.498   5.724
 5154SOL    HW216362   1.215   2.562   5.871
 5155SOL     OW16363   4.322   0.684   2.365
 5155SOL    HW116364   4.361   0.652   2.279
 5155SOL    HW216365   4.223   0.674   2.362
 5156SOL     OW16366   5.248   4.060   6.350
 5156SOL    HW116367   5.252   4.029   6.256
 5156SOL    HW216368   5.338   4.093   6.379
 5157SOL     OW16369   3.641   2.120   3.371
 5157SOL    HW116370   3.644   2.022   3.387
 5157SOL    HW216371   3.679   2.141   3.281
 5158SOL     OW16372   3.406   1.881   1.396
 5158SOL    HW116373   3.492   1.832   1.386
 5158SOL    HW216374   3.424   1.979   1.407
 5159SOL     OW16375   5.918   3.874   5.163
 5159SOL    HW116376   5.965   3.961   5.178
 5159SOL    HW216377   5.956   3.805   5.226
 5160SOL     OW16378   0.164   4.589   3.372
 5160SOL    HW116379   0.160   4.641   3.458
 5160SOL    HW216380   0.099   4.513   3.377
 5161SOL     OW16381   1.743   3.530   6.005
 5161SOL    HW116382   1.735   3.592   6.083
 5161SOL    HW216383   1.837   3.530   5.971
 5162SOL     OW16384   0.685   4.650   2.494
 5162SOL    HW116385   0.627   4.596   2.432
 5162SOL    HW216386   0.747   4.707   2.440
 5163SOL     OW16387   3.385   6.393   0.003
 5163SOL    HW116388   3.362   6.298   0.024
 5163SOL    HW216389   3.484   6.402   7.018
 5164SOL     OW16390   4.675   2.245   6.694
 5164SOL    HW116391   4.725   2.329   6.716
 5164SOL    HW216392   4.682   2.227   6.596
 5165SOL     OW16393   6.608   3.765   5.659
 5165SOL    HW116394   6.576   3.737   5.569
 5165SOL    HW216395   6.700   3.805   5.651
 5166SOL     OW16396   0.634   5.472   2.222
 5166SOL    HW116397   0.614   5.451   2.126
 5166SOL    HW216398   0.726   5.441   2.245
 5167SOL     OW16399   6.876   5.757   5.797
 5167SOL    HW116400   6.927   5.724   5.876
 5167SOL    HW216401   6.794   5.806   5.828
 5168SOL     OW16402   4.912   3.495   1.734
 5168SOL    HW116403   4.940   3.591   1.735
 5168SOL    HW216404   4.938   3.454   1.647
 5169SOL     OW16405   4.150   2.006   4.117
 5169SOL    HW116406   4.070   1.986   4.060
 5169SOL    HW216407   4.128   1.985   4.213
 5170SOL     OW16408   0.201   4.414   5.170
 5170SOL    HW116409   0.189   4.404   5.071
 5170SOL    HW216410   0.296   4.396   5.194
 5171SOL     OW16411   0.669   5.120   5.260
 5171SOL    HW116412   0.765   5.130   5.282
 5171SOL    HW216413   0.626   5.210   5.253
 5172SOL     OW16414   1.390   2.984   2.496
 5172SOL    HW116415   1.382   2.889   2.464
 5172SOL    HW216416   1.320   3.040   2.451
 5173SOL     OW16417   5.173   5.110   4.910
 5173SOL    HW116418   5.220   5.082   4.827
 5173SOL    HW216419   5.153   5.208   4.906
 5174SOL     OW16420   2.133   5.038   2.986
 5174SOL    HW116421   2.047   4.999   2.954
 5174SOL    HW216422   2.142   5.022   3.085
 5175SOL     OW16423   2.302   3.594   7.004
 5175SOL    HW116424   2.318   3.541   6.921
 5175SOL    HW216425   2.389   3.635   0.011
 5176SOL     OW16426   5.316   3.291   6.728
 5176SOL    HW116427   5.317   3.390   6.739
 5176SOL    HW216428   5.333   3.247   6.816
 5177SOL     OW16429   5.902   0.577   0.542
 5177SOL    HW116430   5.868   0.619   0.626
 5177SOL    HW216431   5.931   0.483   0.562
 5178SOL     OW16432   1.068   3.462   2.041
 5178SOL    HW116433   1.162   3.433   2.023
 5178SOL    HW216434   1.023   3.487   1.955
 5179SOL     OW16435   4.103   5.202   4.171
 5179SOL    HW116436   4.152   5.118   4.145
 5179SOL    HW216437   4.060   5.188   4.260
 5180SOL     OW16438   2.601   2.255   0.969
 5180SOL    HW116439   2.615   2.248   1.067
 5180SOL    HW216440   2.519   2.204   0.943
 5181SOL     OW16441   5.673   0.940   2.749
 5181SOL    HW116442   5.580   0.951   2.716
 5181SOL    HW216443   5.673   0.926   2.848
 5182SOL     OW16444   3.949   4.160   1.756
 5182SOL    HW116445   4.022   4.126   1.816
 5182SOL    HW216446   3.923   4.088   1.692
 5183SOL     OW16447   3.661   1.612   2.499
 5183SOL    HW116448   3.710   1.669   2.433
 5183SOL    HW216449   3.571   1.652   2.517
 5184SOL     OW16450   0.641   1.487   4.944
 5184SOL    HW116451   0.606   1.563   4.889
 5184SOL    HW216452   0.633   1.508   5.041
 5185SOL     OW16453   5.947   0.665   2.718
 5185SOL    HW116454   5.861   0.675   2.768
 5185SOL    HW216455   6.004   0.597   2.764
 5186SOL     OW16456   6.244   2.629   0.615
 5186SOL    HW116457   6.306   2.588   0.548
 5186SOL    HW216458   6.263   2.726   0.624
 5187SOL     OW16459   1.109   6.630   4.056
 5187SOL    HW116460   1.018   6.615   4.017
 5187SOL    HW216461   1.118   6.578   4.141
 5188SOL     OW16462   0.900   5.835   1.237
 5188SOL    HW116463   0.842   5.800   1.164
 5188SOL    HW216464   0.992   5.797   1.228
 5189SOL     OW16465   3.726   5.278   0.980
 5189SOL    HW116466   3.711   5.362   0.927
 5189SOL    HW216467   3.638   5.244   1.014
 5190SOL     OW16468   0.852   1.765   4.362
 5190SOL    HW116469   0.814   1.849   4.401
 5190SOL    HW216470   0.824   1.687   4.419
 5191SOL     OW16471   4.215   0.030   2.054
 5191SOL    HW116472   4.188   0.098   1.987
 5191SOL    HW216473   4.280   6.989   2.013
 5192SOL     OW16474   2.415   5.722   2.260
 5192SOL    HW116475   2.433   5.770   2.346
 5192SOL    HW216476   2.415   5.623   2.276
 5193SOL     OW16477   4.845   4.566   4.381
 5193SOL    HW116478   4.844   4.626   4.461
 5193SOL    HW216479   4.834   4.620   4.298
 5194SOL     OW16480   4.642   1.807   0.171
 5194SOL    HW116481   4.580   1.809   0.093
 5194SOL    HW216482   4.735   1.785   0.140
 5195SOL     OW16483   0.010   6.170   3.983
 5195SOL    HW116484   0.062   6.240   4.032
 5195SOL    HW216485   0.072   6.118   3.924
 5196SOL     OW16486   3.542   6.194   0.952
 5196SOL    HW116487   3.532   6.241   0.865
 5196SOL    HW216488   3.498   6.104   0.947
 5197SOL     OW16489   2.035   5.013   5.621
 5197SOL    HW116490   2.027   4.920   5.655
 5197SOL    HW216491   1.948   5.061   5.634
 5198SOL     OW16492   4.525   6.742   3.451
 5198SOL    HW116493   4.538   6.749   3.550
 5198SOL    HW216494   4.465   6.815   3.420
 5199SOL     OW16495   1.886   5.719   0.641
 5199SOL    HW116496   1.942   5.792   0.682
 5199SOL    HW216497   1.819   5.760   0.580
 5200SOL     OW16498   1.196   2.916   5.488
 5200SOL    HW116499   1.250   2.998   5.511
 5200SOL    HW216500   1.118   2.942   5.432
 5201SOL     OW16501   0.205   6.967   2.915
 5201SOL    HW116502   0.186   6.993   2.821
 5201SOL    HW216503   0.296   6.998   2.941
 5202SOL     OW16504   5.968   3.561   5.667
 5202SOL    HW116505   6.010   3.557   5.758
 5202SOL    HW216506   5.870   3.541   5.675
 5203SOL     OW16507   2.268   1.698   6.882
 5203SOL    HW116508   2.251   1.600   6.880
 5203SOL    HW216509   2.183   1.747   6.865
 5204SOL     OW16510   4.016   5.763   6.905
 5204SOL    HW116511   4.036   5.745   6.809
 5204SOL    HW216512   4.101   5.779   6.955
 5205SOL     OW16513   1.077   6.046   0.953
 5205SOL    HW116514   1.166   6.088   0.936
 5205SOL    HW216515   1.024   6.104   1.015
 5206SOL     OW16516   0.928   4.844   6.159
 5206SOL    HW116517   0.947   4.771   6.225
 5206SOL    HW216518   0.997   4.916   6.168
 5207SOL     OW16519   0.828   6.206   3.676
 5207SOL    HW116520   0.859   6.113   3.694
 5207SOL    HW216521   0.766   6.235   3.749
 5208SOL     OW16522   4.591   2.518   6.163
 5208SOL    HW116523   4.558   2.476   6.078
 5208SOL    HW216524   4.549   2.472   6.241
 5209SOL     OW16525   5.556   6.348   2.453
 5209SOL    HW116526   5.487   6.391   2.394
 5209SOL    HW216527   5.640   6.334   2.402
 5210SOL     OW16528   4.654   3.155   6.688
 5210SOL    HW116529   4.573   3.123   6.638
 5210SOL    HW216530   4.713   3.077   6.708
 5211SOL     OW16531   3.768   2.626   5.576
 5211SOL    HW116532   3.742   2.699   5.638
 5211SOL    HW216533   3.863   2.599   5.594
 5212SOL     OW16534   0.038   3.149   0.835
 5212SOL    HW116535   0.104   3.221   0.819
 5212SOL    HW216536   7.018   3.163   0.924
 5213SOL     OW16537   4.812   4.097   6.257
 5213SOL    HW116538   4.836   4.124   6.164
 5213SOL    HW216539   4.718   4.063   6.258
 5214SOL     OW16540   5.430   1.541   6.160
 5214SOL    HW116541   5.395   1.573   6.248
 5214SOL    HW216542   5.393   1.450   6.140
 5215SOL     OW16543   0.010   4.824   3.978
 5215SOL    HW116544   0.022   4.729   4.007
 5215SOL    HW216545   6.990   4.876   4.052
 5216SOL     OW16546   5.070   5.042   2.408
 5216SOL    HW116547   5.164   5.012   2.394
 5216SOL    HW216548   5.036   5.084   2.323
 5217SOL     OW16549   4.380   5.240   4.485
 5217SOL    HW116550   4.315   5.212   4.414
 5217SOL    HW216551   4.374   5.339   4.499
 5218SOL     OW16552   1.084   0.612   2.715
 5218SOL    HW116553   1.006   0.673   2.728
 5218SOL    HW216554   1.163   0.647   2.766
 5219SOL     OW16555   4.383   1.595   4.856
 5219SOL    HW116556   4.307   1.542   4.892
 5219SOL    HW216557   4.358   1.692   4.855
 5220SOL     OW16558   0.682   6.064   2.441
 5220SOL    HW116559   0.671   5.984   2.501
 5220SOL    HW216560   0.773   6.063   2.400
 5221SOL     OW16561   5.577   2.335   3.934
 5221SOL    HW116562   5.676   2.350   3.928
 5221SOL    HW216563   5.558   2.237   3.932
 5222SOL     OW16564   3.643   6.380   3.062
 5222SOL    HW116565   3.742   6.363   3.056
 5222SOL    HW216566   3.605   6.329   3.139
 5223SOL     OW16567   5.972   2.511   0.622
 5223SOL    HW116568   6.064   2.543   0.600
 5223SOL    HW216569   5.908   2.538   0.549
 5224SOL     OW16570   6.727   2.428   4.652
 5224SOL    HW116571   6.662   2.499   4.681
 5224SOL    HW216572   6.815   2.471   4.630
 5225SOL     OW16573   0.302   0.722   3.707
 5225SOL    HW116574   0.250   0.792   3.658
 5225SOL    HW216575   0.239   0.653   3.744
 5226SOL     OW16576   6.980   6.126   4.851
 5226SOL    HW116577   6.894   6.124   4.904
 5226SOL    HW216578   6.960   6.155   4.758
 5227SOL     OW16579   0.508   3.517   5.147
 5227SOL    HW116580   0.597   3.537   5.187
 5227SOL    HW216581   0.442   3.498   5.220
 5228SOL     OW16582   6.107   2.265   1.097
 5228SOL    HW116583   6.079   2.171   1.080
 5228SOL    HW216584   6.089   2.321   1.016
 5229SOL     OW16585   1.656   6.040   6.971
 5229SOL    HW116586   1.740   6.086   6.999
 5229SOL    HW216587   1.585   6.054   0.017
 5230SOL     OW16588   0.778   5.398   1.857
 5230SOL    HW116589   0.804   5.438   1.769
 5230SOL    HW216590   0.860   5.361   1.901
 5231SOL     OW16591   4.667   2.466   4.379
 5231SOL    HW116592   4.754   2.425   4.403
 5231SOL    HW216593   4.681   2.562   4.354
 5232SOL     OW16594   2.684   3.206   5.923
 5232SOL    HW116595   2.666   3.111   5.899
 5232SOL    HW216596   2.718   3.255   5.842
 5233SOL     OW16597   5.087   1.185   2.441
 5233SOL    HW116598   5.008   1.126   2.457
 5233SOL    HW216599   5.128   1.210   2.529
 5234SOL     OW16600   2.827   1.287   6.008
 5234SOL    HW116601   2.806   1.201   6.055
 5234SOL    HW216602   2.922   1.284   5.975
 5235SOL     OW16603   2.141   2.160   0.720
 5235SOL    HW116604   2.052   2.180   0.680
 5235SOL    HW216605   2.167   2.066   0.697
 5236SOL     OW16606   5.291   4.922   2.272
 5236SOL    HW116607   5.221   4.850   2.268
 5236SOL    HW216608   5.358   4.900   2.342
 5237SOL     OW16609   1.903   1.182   4.990
 5237SOL    HW116610   1.937   1.090   4.970
 5237SOL    HW216611   1.976   1.249   4.977
 5238SOL     OW16612   0.687   4.546   7.006
 5238SOL    HW116613   0.749   4.478   0.021
 5238SOL    HW216614   0.734   4.634   6.999
 5239SOL     OW16615   3.673   2.935   4.511
 5239SOL    HW116616   3.749   2.974   4.459
 5239SOL    HW216617   3.587   2.959   4.468
 5240SOL     OW16618   3.023   1.770   5.908
 5240SOL    HW116619   3.032   1.832   5.830
 5240SOL    HW216620   3.010   1.824   5.991
 5241SOL     OW16621   0.446   5.391   4.903
 5241SOL    HW116622   0.472   5.482   4.871
 5241SOL    HW216623   0.437   5.329   4.825
 5242SOL     OW16624   0.021   6.280   6.222
 5242SOL    HW116625   6.996   6.349   6.168
 5242SOL    HW216626   0.112   6.315   6.247
 5243SOL     OW16627   0.857   4.948   1.191
 5243SOL    HW116628   0.813   4.995   1.267
 5243SOL    HW216629   0.946   4.989   1.174
 5244SOL     OW16630   3.455   5.485   6.956
 5244SOL    HW116631   3.357   5.470   6.974
 5244SOL    HW216632   3.509   5.422   7.012
 5245SOL     OW16633   3.926   4.775   0.234
 5245SOL    HW116634   3.937   4.870   0.264
 5245SOL    HW216635   3.847   4.768   0.173
 5246SOL     OW16636   5.956   3.842   1.930
 5246SOL    HW116637   6.014   3.835   1.849
 5246SOL    HW216638   6.014   3.856   2.011
 5247SOL     OW16639   1.722   1.154   0.295
 5247SOL    HW116640   1.822   1.161   0.301
 5247SOL    HW216641   1.688   1.221   0.229
 5248SOL     OW16642   5.826   1.409   3.472
 5248SOL    HW116643   5.786   1.457   3.394
 5248SOL    HW216644   5.754   1.364   3.524
 5249SOL     OW16645   6.999   4.969   5.677
 5249SOL    HW116646   6.976   5.032   5.751
 5249SOL    HW216647   6.916   4.947   5.626
 5250SOL     OW16648   1.986   6.422   5.780
 5250SOL    HW116649   2.003   6.324   5.770
 5250SOL    HW216650   1.931   6.438   5.862
 5251SOL     OW16651   0.669   3.584   0.007
 5251SOL    HW116652   0.605   3.656   7.002
 5251SOL    HW216653   0.683   3.589   0.106
 5252SOL     OW16654   1.795   6.588   0.379
 5252SOL    HW116655   1.882   6.593   0.428
 5252SOL    HW216656   1.732   6.657   0.416
 5253SOL     OW16657   5.407   4.610   4.321
 5253SOL    HW116658   5.375   4.696   4.360
 5253SOL    HW216659   5.371   4.534   4.374
 5254SOL     OW16660   4.461   1.032   3.114
 5254SOL    HW116661   4.443   1.126   3.142
 5254SOL    HW216662   4.406   1.011   3.033
 5255SOL     OW16663   5.994   1.117   5.889
 5255SOL    HW116664   6.078   1.079   5.850
 5255SOL    HW216665   5.949   1.048   5.946
 5256SOL     OW16666   4.310   1.222   3.753
 5256SOL    HW116667   4.314   1.321   3.764
 5256SOL    HW216668   4.279   1.200   3.660
 5257SOL     OW16669   5.512   6.435   2.121
 5257SOL    HW116670   5.518   6.528   2.087
 5257SOL    HW216671   5.420   6.400   2.108
 5258SOL     OW16672   6.184   3.876   2.056
 5258SOL    HW116673   6.269   3.843   2.015
 5258SOL    HW216674   6.202   3.903   2.151
 5259SOL     OW16675   5.885   6.029   1.520
 5259SOL    HW116676   5.968   6.085   1.511
 5259SOL    HW216677   5.807   6.088   1.541
 5260SOL     OW16678   5.002   3.563   1.137
 5260SOL    HW116679   5.054   3.628   1.081
 5260SOL    HW216680   4.935   3.516   1.080
 5261SOL     OW16681   1.135   4.027   0.082
 5261SOL    HW116682   1.122   4.126   0.072
 5261SOL    HW216683   1.062   3.989   0.138
 5262SOL     OW16684   2.834   0.987   2.715
 5262SOL    HW116685   2.790   1.045   2.784
 5262SOL    HW216686   2.790   1.002   2.627
 5263SOL     OW16687   1.760   1.794   4.364
 5263SOL    HW116688   1.806   1.772   4.450
 5263SOL    HW216689   1.735   1.709   4.317
 5264SOL     OW16690   5.972   2.354   2.795
 5264SOL    HW116691   5.890   2.318   2.839
 5264SOL    HW216692   5.994   2.298   2.716
 5265SOL     OW16693   6.241   4.171   4.324
 5265SOL    HW116694   6.165   4.167   4.389
 5265SOL    HW216695   6.309   4.237   4.356
 5266SOL     OW16696   2.440   5.748   0.644
 5266SOL    HW116697   2.426   5.831   0.698
 5266SOL    HW216698   2.475   5.676   0.703
 5267SOL     OW16699   4.895   3.711   4.861
 5267SOL    HW116700   4.848   3.657   4.930
 5267SOL    HW216701   4.859   3.804   4.860
 5268SOL     OW16702   5.739   7.019   6.867
 5268SOL    HW116703   5.659   6.986   6.916
 5268SOL    HW216704   5.767   0.085   6.902
 5269SOL     OW16705   1.118   6.681   3.504
 5269SOL    HW116706   1.112   6.593   3.550
 5269SOL    HW216707   1.055   6.746   3.547
 5270SOL     OW16708   5.723   1.354   1.096
 5270SOL    HW116709   5.733   1.263   1.136
 5270SOL    HW216710   5.741   1.423   1.165
 5271SOL     OW16711   6.065   5.801   4.547
 5271SOL    HW116712   6.065   5.745   4.464
 5271SOL    HW216713   5.972   5.807   4.583
 5272SOL     OW16714   2.735   5.411   1.940
 5272SOL    HW116715   2.770   5.343   2.005
 5272SOL    HW216716   2.636   5.421   1.952
 5273SOL     OW16717   0.115   3.140   3.951
 5273SOL    HW116718   0.146   3.075   4.021
 5273SOL    HW216719   0.174   3.133   3.871
 5274SOL     OW16720   6.345   6.928   2.667
 5274SOL    HW116721   6.383   6.983   2.741
 5274SOL    HW216722   6.397   6.844   2.658
 5275SOL     OW16723   3.559   1.991   0.564
 5275SOL    HW116724   3.522   1.958   0.651
 5275SOL    HW216725   3.493   2.053   0.521
 5276SOL     OW16726   1.638   0.155   0.709
 5276SOL    HW116727   1.561   0.194   0.759
 5276SOL    HW216728   1.607   0.124   0.619
 5277SOL     OW16729   1.365   1.624   2.967
 5277SOL    HW116730   1.325   1.672   2.889
 5277SOL    HW216731   1.294   1.604   3.034
 5278SOL     OW16732   5.636   0.282   3.426
 5278SOL    HW116733   5.562   0.286   3.493
 5278SOL    HW216734   5.611   0.222   3.351
 5279SOL     OW16735   1.993   5.041   6.058
 5279SOL    HW116736   2.042   5.114   6.011
 5279SOL    HW216737   2.015   5.043   6.156
 5280SOL     OW16738   2.699   6.192   4.730
 5280SOL    HW116739   2.639   6.218   4.654
 5280SOL    HW216740   2.654   6.209   4.817
 5281SOL     OW16741   0.714   1.418   2.228
 5281SOL    HW116742   0.790   1.455   2.282
 5281SOL    HW216743   0.641   1.486   2.224
 5282SOL     OW16744   2.323   2.017   2.899
 5282SOL    HW116745   2.401   2.080   2.898
 5282SOL    HW216746   2.348   1.933   2.947
 5283SOL     OW16747   4.518   6.540   1.673
 5283SOL    HW116748   4.525   6.501   1.764
 5283SOL    HW216749   4.431   6.589   1.664
 5284SOL     OW16750   5.083   3.539   3.500
 5284SOL    HW116751   5.089   3.636   3.521
 5284SOL    HW216752   5.077   3.487   3.585
 5285SOL     OW16753   2.404   4.756   3.524
 5285SOL    HW116754   2.413   4.675   3.466
 5285SOL    HW216755   2.492   4.805   3.527
 5286SOL     OW16756   1.489   4.093   0.683
 5286SOL    HW116757   1.495   4.023   0.612
 5286SOL    HW216758   1.437   4.057   0.761
 5287SOL     OW16759   2.439   6.450   1.272
 5287SOL    HW116760   2.367   6.506   1.231
 5287SOL    HW216761   2.493   6.407   1.200
 5288SOL     OW16762   4.009   0.099   1.869
 5288SOL    HW116763   3.934   0.114   1.804
 5288SOL    HW216764   3.971   0.083   1.960
 5289SOL     OW16765   1.687   4.366   6.334
 5289SOL    HW116766   1.651   4.343   6.244
 5289SOL    HW216767   1.786   4.379   6.328
 5290SOL     OW16768   1.482   4.780   5.164
 5290SOL    HW116769   1.484   4.719   5.243
 5290SOL    HW216770   1.543   4.857   5.180
 5291SOL     OW16771   2.559   5.690   5.519
 5291SOL    HW116772   2.471   5.725   5.550
 5291SOL    HW216773   2.545   5.618   5.451
 5292SOL     OW16774   6.974   3.886   0.001
 5292SOL    HW116775   6.920   3.917   6.945
 5292SOL    HW216776   6.936   3.801   0.035
 5293SOL     OW16777   1.335   0.493   4.203
 5293SOL    HW116778   1.252   0.441   4.221
 5293SOL    HW216779   1.370   0.531   4.289
 5294SOL     OW16780   4.657   3.582   5.638
 5294SOL    HW116781   4.673   3.537   5.725
 5294SOL    HW216782   4.559   3.600   5.627
 5295SOL     OW16783   5.303   0.129   2.664
 5295SOL    HW116784   5.390   0.090   2.696
 5295SOL    HW216785   5.301   0.124   2.564
 5296SOL     OW16786   2.235   4.954   0.315
 5296SOL    HW116787   2.303   4.973   0.386
 5296SOL    HW216788   2.208   4.858   0.321
 5297SOL     OW16789   3.209   2.119   1.001
 5297SOL    HW116790   3.225   2.217   1.013
 5297SOL    HW216791   3.169   2.081   1.084
 5298SOL     OW16792   1.110   5.652   6.733
 5298SOL    HW116793   1.123   5.598   6.650
 5298SOL    HW216794   1.023   5.627   6.776
 5299SOL     OW16795   2.246   2.575   1.586
 5299SOL    HW116796   2.258   2.570   1.685
 5299SOL    HW216797   2.323   2.530   1.540
 5300SOL     OW16798   0.385   5.953   1.861
 5300SOL    HW116799   0.305   5.924   1.913
 5300SOL    HW216800   0.389   5.902   1.775
 5301SOL     OW16801   4.744   2.964   0.810
 5301SOL    HW116802   4.675   2.896   0.837
 5301SOL    HW216803   4.724   2.996   0.717
 5302SOL     OW16804   6.406   4.343   3.055
 5302SOL    HW116805   6.399   4.271   2.986
 5302SOL    HW216806   6.494   4.337   3.101
 5303SOL     OW16807   6.843   6.087   2.916
 5303SOL    HW116808   6.773   6.144   2.957
 5303SOL    HW216809   6.832   5.992   2.948
 5304SOL     OW16810   6.682   1.609   5.885
 5304SOL    HW116811   6.726   1.698   5.869
 5304SOL    HW216812   6.742   1.552   5.941
 5305SOL     OW16813   1.294   5.996   4.337
 5305SOL    HW116814   1.358   6.032   4.405
 5305SOL    HW216815   1.343   5.933   4.276
 5306SOL     OW16816   0.474   5.677   5.147
 5306SOL    HW116817   0.513   5.761   5.184
 5306SOL    HW216818   0.397   5.649   5.203
 5307SOL     OW16819   4.492   0.325   6.823
 5307SOL    HW116820   4.497   0.365   6.731
 5307SOL    HW216821   4.515   0.395   6.891
 5308SOL     OW16822   1.062   6.137   4.351
 5308SOL    HW116823   0.979   6.113   4.299
 5308SOL    HW216824   1.128   6.062   4.343
 5309SOL     OW16825   3.392   4.076   1.895
 5309SOL    HW116826   3.294   4.087   1.908
 5309SOL    HW216827   3.423   3.989   1.934
 5310SOL     OW16828   5.697   2.513   1.902
 5310SOL    HW116829   5.635   2.459   1.847
 5310SOL    HW216830   5.655   2.601   1.924
 5311SOL     OW16831   0.051   5.977   1.275
 5311SOL    HW116832   0.009   5.889   1.257
 5311SOL    HW216833   0.151   5.967   1.276
 5312SOL     OW16834   0.444   3.963   2.301
 5312SOL    HW116835   0.355   4.009   2.306
 5312SOL    HW216836   0.440   3.878   2.353
 5313SOL     OW16837   1.225   4.304   0.123
 5313SOL    HW116838   1.301   4.356   0.083
 5313SOL    HW216839   1.164   4.366   0.172
 5314SOL     OW16840   3.086   5.281   0.501
 5314SOL    HW116841   3.142   5.269   0.419
 5314SOL    HW216842   3.129   5.348   0.561
 5315SOL     OW16843   3.858   3.982   1.577
 5315SOL    HW116844   3.779   3.921   1.578
 5315SOL    HW216845   3.858   4.036   1.492
 5316SOL     OW16846   6.742   4.804   4.584
 5316SOL    HW116847   6.731   4.836   4.678
 5316SOL    HW216848   6.733   4.881   4.521
 5317SOL     OW16849   6.933   0.276   4.844
 5317SOL    HW116850   7.014   0.295   4.900
 5317SOL    HW216851   6.942   0.322   4.755
 5318SOL     OW16852   0.532   1.645   5.826
 5318SOL    HW116853   0.618   1.620   5.782
 5318SOL    HW216854   0.484   1.713   5.771
 5319SOL     OW16855   4.613   6.415   6.682
 5319SOL    HW116856   4.655   6.502   6.653
 5319SOL    HW216857   4.611   6.352   6.604
 5320SOL     OW16858   5.570   5.247   6.546
 5320SOL    HW116859   5.514   5.210   6.620
 5320SOL    HW216860   5.662   5.207   6.551
 5321SOL     OW16861   0.751   3.998   2.962
 5321SOL    HW116862   0.767   3.975   3.058
 5321SOL    HW216863   0.729   4.096   2.955
 5322SOL     OW16864   3.944   6.031   6.001
 5322SOL    HW116865   3.899   6.041   5.913
 5322SOL    HW216866   3.898   5.960   6.054
 5323SOL     OW16867   4.281   3.493   0.773
 5323SOL    HW116868   4.355   3.555   0.745
 5323SOL    HW216869   4.307   3.445   0.857
 5324SOL     OW16870   3.727   2.556   1.675
 5324SOL    HW116871   3.826   2.570   1.672
 5324SOL    HW216872   3.707   2.476   1.732
 5325SOL     OW16873   5.303   6.920   3.668
 5325SOL    HW116874   5.297   6.842   3.606
 5325SOL    HW216875   5.214   6.965   3.674
 5326SOL     OW16876   0.118   5.338   3.453
 5326SOL    HW116877   0.131   5.433   3.483
 5326SOL    HW216878   0.154   5.328   3.360
 5327SOL     OW16879   6.424   5.337   5.409
 5327SOL    HW116880   6.473   5.311   5.492
 5327SOL    HW216881   6.326   5.342   5.427
 5328SOL     OW16882   4.698   2.579   5.279
 5328SOL    HW116883   4.798   2.585   5.271
 5328SOL    HW216884   4.656   2.634   5.206
 5329SOL     OW16885   0.744   3.572   6.756
 5329SOL    HW116886   0.747   3.562   6.856
 5329SOL    HW216887   0.828   3.534   6.717
 5330SOL     OW16888   3.652   4.384   6.688
 5330SOL    HW116889   3.593   4.322   6.636
 5330SOL    HW216890   3.648   4.475   6.647
 5331SOL     OW16891   5.586   1.129   1.451
 5331SOL    HW116892   5.646   1.102   1.527
 5331SOL    HW216893   5.498   1.157   1.487
 5332SOL     OW16894   6.791   4.559   0.328
 5332SOL    HW116895   6.876   4.508   0.330
 5332SOL    HW216896   6.788   4.616   0.246
 5333SOL     OW16897   0.999   1.005   3.948
 5333SOL    HW116898   1.084   1.055   3.965
 5333SOL    HW216899   0.952   1.046   3.870
 5334SOL     OW16900   3.425   5.124   5.428
 5334SOL    HW116901   3.351   5.125   5.361
 5334SOL    HW216902   3.410   5.194   5.497
 5335SOL     OW16903   0.272   4.921   2.049
 5335SOL    HW116904   0.177   4.933   2.078
 5335SOL    HW216905   0.281   4.837   1.995
 5336SOL     OW16906   2.167   2.000   3.362
 5336SOL    HW116907   2.085   1.958   3.401
 5336SOL    HW216908   2.141   2.071   3.297
 5337SOL     OW16909   5.262   4.563   1.942
 5337SOL    HW116910   5.276   4.494   1.871
 5337SOL    HW216911   5.251   4.518   2.031
 5338SOL     OW16912   5.952   1.203   6.226
 5338SOL    HW116913   5.987   1.280   6.174
 5338SOL    HW216914   5.887   1.152   6.170
 5339SOL     OW16915   5.516   1.335   3.066
 5339SOL    HW116916   5.509   1.365   3.161
 5339SOL    HW216917   5.612   1.318   3.043
 5340SOL     OW16918   5.916   4.038   1.153
 5340SOL    HW116919   5.977   3.977   1.204
 5340SOL    HW216920   5.823   4.002   1.156
 5341SOL     OW16921   3.156   4.827   5.125
 5341SOL    HW116922   3.089   4.857   5.058
 5341SOL    HW216923   3.118   4.838   5.217
 5342SOL     OW16924   5.421   6.581   4.908
 5342SOL    HW116925   5.444   6.486   4.933
 5342SOL    HW216926   5.417   6.636   4.991
 5343SOL     OW16927   4.160   3.465   5.182
 5343SOL    HW116928   4.142   3.367   5.174
 5343SOL    HW216929   4.180   3.503   5.092
 5344SOL     OW16930   0.647   1.824   0.758
 5344SOL    HW116931   0.560   1.783   0.731
 5344SOL    HW216932   0.657   1.913   0.714
 5345SOL     OW16933   5.129   6.733   0.159
 5345SOL    HW116934   5.045   6.771   0.120
 5345SOL    HW216935   5.108   6.683   0.243
 5346SOL     OW16936   3.022   5.876   3.868
 5346SOL    HW116937   3.002   5.835   3.779
 5346SOL    HW216938   3.115   5.914   3.867
 5347SOL     OW16939   0.267   3.715   2.630
 5347SOL    HW116940   0.358   3.680   2.609
 5347SOL    HW216941   0.241   3.684   2.722
 5348SOL     OW16942   6.841   1.100   6.687
 5348SOL    HW116943   6.776   1.113   6.612
 5348SOL    HW216944   6.931   1.080   6.650
 5349SOL     OW16945   2.486   3.651   0.613
 5349SOL    HW116946   2.433   3.611   0.539
 5349SOL    HW216947   2.581   3.663   0.583
 5350SOL     OW16948   2.194   0.298   5.119
 5350SOL    HW116949   2.188   0.382   5.065
 5350SOL    HW216950   2.283   0.255   5.105
 5351SOL     OW16951   0.305   5.442   1.923
 5351SOL    HW116952   0.323   5.482   1.833
 5351SOL    HW216953   0.391   5.417   1.967
 5352SOL     OW16954   2.107   4.860   2.663
 5352SOL    HW116955   2.018   4.863   2.707
 5352SOL    HW216956   2.177   4.835   2.730
 5353SOL     OW16957   3.849   6.472   4.203
 5353SOL    HW116958   3.896   6.542   4.256
 5353SOL    HW216959   3.915   6.402   4.174
 5354SOL     OW16960   1.935   4.395   0.512
 5354SOL    HW116961   1.850   4.343   0.513
 5354SOL    HW216962   1.958   4.419   0.417
 5355SOL     OW16963   6.048   4.952   3.744
 5355SOL    HW116964   6.130   4.897   3.758
 5355SOL    HW216965   6.033   4.966   3.646
 5356SOL     OW16966   6.982   3.298   2.930
 5356SOL    HW116967   6.951   3.329   3.020
 5356SOL    HW216968   6.948   3.360   2.860
 5357SOL     OW16969   3.612   4.936   0.847
 5357SOL    HW116970   3.593   5.002   0.919
 5357SOL    HW216971   3.698   4.960   0.801
 5358SOL     OW16972   4.279   2.230   0.990
 5358SOL    HW116973   4.209   2.188   1.048
 5358SOL    HW216974   4.237   2.303   0.936
 5359SOL     OW16975   2.261   1.560   6.588
 5359SOL    HW116976   2.286   1.574   6.493
 5359SOL    HW216977   2.168   1.594   6.604
 5360SOL     OW16978   4.497   6.054   3.739
 5360SOL    HW116979   4.542   5.996   3.807
 5360SOL    HW216980   4.490   6.147   3.773
 5361SOL     OW16981   2.443   6.664   4.164
 5361SOL    HW116982   2.512   6.592   4.154
 5361SOL    HW216983   2.418   6.699   4.074
 5362SOL     OW16984   6.534   5.867   2.531
 5362SOL    HW116985   6.471   5.839   2.603
 5362SOL    HW216986   6.604   5.927   2.568
 5363SOL     OW16987   5.959   5.786   5.844
 5363SOL    HW116988   5.866   5.770   5.811
 5363SOL    HW216989   6.022   5.725   5.796
 5364SOL     OW16990   5.999   6.709   1.603
 5364SOL    HW116991   6.031   6.617   1.624
 5364SOL    HW216992   5.928   6.704   1.532
 5365SOL     OW16993   3.096   3.133   2.457
 5365SOL    HW116994   3.125   3.046   2.418
 5365SOL    HW216995   3.043   3.184   2.389
 5366SOL     OW16996   6.682   6.375   1.499
 5366SOL    HW116997   6.710   6.449   1.561
 5366SOL    HW216998   6.586   6.353   1.515
 5367SOL     OW16999   0.392   0.260   1.874
 5367SOL    HW117000   0.318   0.251   1.807
 5367SOL    HW217001   0.426   0.354   1.873
 5368SOL     OW17002   6.049   6.883   2.655
 5368SOL    HW117003   6.149   6.884   2.651
 5368SOL    HW217004   6.019   6.886   2.750
 5369SOL     OW17005   2.596   6.601   0.851
 5369SOL    HW117006   2.660   6.569   0.921
 5369SOL    HW217007   2.546   6.523   0.813
 5370SOL     OW17008   4.464   3.734   0.987
 5370SOL    HW117009   4.452   3.816   0.931
 5370SOL    HW217010   4.562   3.711   0.992
 5371SOL     OW17011   0.640   4.888   5.117
 5371SOL    HW117012   0.668   4.892   5.021
 5371SOL    HW217013   0.625   4.980   5.151
 5372SOL     OW17014   0.866   6.522   3.048
 5372SOL    HW117015   0.903   6.574   3.125
 5372SOL    HW217016   0.910   6.432   3.044
 5373SOL     OW17017   4.188   6.539   5.465
 5373SOL    HW117018   4.113   6.586   5.511
 5373SOL    HW217019   4.156   6.501   5.378
 5374SOL     OW17020   2.674   5.003   0.618
 5374SOL    HW117021   2.604   4.935   0.637
 5374SOL    HW217022   2.738   5.008   0.694
 5375SOL     OW17023   0.426   5.754   5.713
 5375SOL    HW117024   0.383   5.664   5.721
 5375SOL    HW217025   0.498   5.764   5.781
 5376SOL     OW17026   1.071   2.687   1.755
 5376SOL    HW117027   1.095   2.606   1.809
 5376SOL    HW217028   1.108   2.677   1.662
 5377SOL     OW17029   0.846   7.022   2.862
 5377SOL    HW117030   0.849   6.929   2.824
 5377SOL    HW217031   0.752   0.033   2.857
 5378SOL     OW17032   6.861   0.000   2.525
 5378SOL    HW117033   6.782   6.965   2.505
 5378SOL    HW217034   6.902   6.994   2.612
 5379SOL     OW17035   0.967   3.531   4.965
 5379SOL    HW117036   0.955   3.476   5.048
 5379SOL    HW217037   1.015   3.476   4.896
 5380SOL     OW17038   3.285   6.885   1.429
 5380SOL    HW117039   3.376   6.894   1.468
 5380SOL    HW217040   3.260   6.970   1.383
 5381SOL     OW17041   6.654   5.918   1.954
 5381SOL    HW117042   6.564   5.952   1.982
 5381SOL    HW217043   6.708   5.994   1.917
 5382SOL     OW17044   2.949   2.203   2.357
 5382SOL    HW117045   2.945   2.252   2.270
 5382SOL    HW217046   2.872   2.231   2.415
 5383SOL     OW17047   1.504   2.987   4.664
 5383SOL    HW117048   1.421   3.032   4.630
 5383SOL    HW217049   1.478   2.916   4.730
 5384SOL     OW17050   4.912   6.423   4.905
 5384SOL    HW117051   5.011   6.433   4.919
 5384SOL    HW217052   4.895   6.362   4.828
 5385SOL     OW17053   4.658   3.046   5.403
 5385SOL    HW117054   4.564   3.056   5.368
 5385SOL    HW217055   4.666   3.091   5.492
 5386SOL     OW17056   5.362   1.849   3.862
 5386SOL    HW117057   5.343   1.831   3.765
 5386SOL    HW217058   5.276   1.864   3.911
 5387SOL     OW17059   2.521   6.426   2.905
 5387SOL    HW117060   2.465   6.507   2.925
 5387SOL    HW217061   2.574   6.402   2.987
 5388SOL     OW17062   1.323   0.565   2.544
 5388SOL    HW117063   1.308   0.596   2.450
 5388SOL    HW217064   1.235   0.539   2.584
 5389SOL     OW17065   3.666   1.360   4.239
 5389SOL    HW117066   3.575   1.351   4.198
 5389SOL    HW217067   3.705   1.449   4.213
 5390SOL     OW17068   6.003   4.093   3.387
 5390SOL    HW117069   6.102   4.091   3.372
 5390SOL    HW217070   5.959   4.024   3.330
 5391SOL     OW17071   2.526   1.788   0.961
 5391SOL    HW117072   2.494   1.796   1.055
 5391SOL    HW217073   2.626   1.785   0.959
 5392SOL     OW17074   5.637   3.842   0.639
 5392SOL    HW117075   5.669   3.764   0.693
 5392SOL    HW217076   5.691   3.850   0.556
 5393SOL     OW17077   4.961   0.874   4.956
 5393SOL    HW117078   4.992   0.785   4.990
 5393SOL    HW217079   5.026   0.945   4.985
 5394SOL     OW17080   1.122   5.523   0.991
 5394SOL    HW117081   1.111   5.550   0.895
 5394SOL    HW217082   1.032   5.508   1.031
 5395SOL     OW17083   5.178   0.644   1.401
 5395SOL    HW117084   5.161   0.571   1.335
 5395SOL    HW217085   5.110   0.716   1.389
 5396SOL     OW17086   5.561   4.596   1.917
 5396SOL    HW117087   5.485   4.588   1.852
 5396SOL    HW217088   5.633   4.530   1.891
 5397SOL     OW17089   6.791   1.736   1.819
 5397SOL    HW117090   6.838   1.682   1.749
 5397SOL    HW217091   6.796   1.688   1.907
 5398SOL     OW17092   3.094   2.074   4.286
 5398SOL    HW117093   3.039   2.154   4.261
 5398SOL    HW217094   3.045   1.990   4.263
 5399SOL     OW17095   2.769   6.874   6.173
 5399SOL    HW117096   2.867   6.883   6.191
 5399SOL    HW217097   2.720   6.866   6.259
 5400SOL     OW17098   3.417   3.455   0.379
 5400SOL    HW117099   3.504   3.503   0.365
 5400SOL    HW217100   3.398   3.396   0.300
 5401SOL     OW17101   5.953   4.149   2.205
 5401SOL    HW117102   6.026   4.080   2.209
 5401SOL    HW217103   5.994   4.240   2.195
 5402SOL     OW17104   3.001   6.272   1.154
 5402SOL    HW117105   2.962   6.316   1.235
 5402SOL    HW217106   3.095   6.244   1.173
 5403SOL     OW17107   4.975   3.284   6.140
 5403SOL    HW117108   5.020   3.373   6.150
 5403SOL    HW217109   4.876   3.298   6.132
 5404SOL     OW17110   0.837   0.312   1.720
 5404SOL    HW117111   0.790   0.357   1.644
 5404SOL    HW217112   0.769   0.267   1.779
 5405SOL     OW17113   5.096   4.832   6.467
 5405SOL    HW117114   5.134   4.802   6.555
 5405SOL    HW217115   5.116   4.929   6.454
 5406SOL     OW17116   1.983   0.885   5.204
 5406SOL    HW117117   1.952   0.957   5.266
 5406SOL    HW217118   1.906   0.826   5.179
 5407SOL     OW17119   3.301   1.735   1.007
 5407SOL    HW117120   3.344   1.663   1.062
 5407SOL    HW217121   3.215   1.763   1.050
 5408SOL     OW17122   4.158   0.629   4.753
 5408SOL    HW117123   4.146   0.712   4.699
 5408SOL    HW217124   4.253   0.624   4.785
 5409SOL     OW17125   6.315   1.665   2.926
 5409SOL    HW117126   6.376   1.701   2.996
 5409SOL    HW217127   6.363   1.597   2.871
 5410SOL     OW17128   0.887   2.142   6.342
 5410SOL    HW117129   0.897   2.052   6.301
 5410SOL    HW217130   0.950   2.151   6.419
 5411SOL     OW17131   5.548   5.536   6.205
 5411SOL    HW117132   5.544   5.448   6.252
 5411SOL    HW217133   5.457   5.577   6.202
 5412SOL     OW17134   2.926   1.446   6.581
 5412SOL    HW117135   2.858   1.375   6.560
 5412SOL    HW217136   2.945   1.499   6.499
 5413SOL     OW17137   0.848   0.120   6.612
 5413SOL    HW117138   0.864   0.127   6.710
 5413SOL    HW217139   0.767   0.174   6.587
 5414SOL     OW17140   6.371   5.092   4.937
 5414SOL    HW117141   6.354   4.995   4.948
 5414SOL    HW217142   6.322   5.143   5.008
 5415SOL     OW17143   2.236   6.613   1.195
 5415SOL    HW117144   2.222   6.628   1.293
 5415SOL    HW217145   2.150   6.623   1.147
 5416SOL     OW17146   2.886   4.854   5.054
 5416SOL    HW117147   2.876   4.755   5.053
 5416SOL    HW217148   2.822   4.894   5.120
 5417SOL     OW17149   4.319   6.677   4.903
 5417SOL    HW117150   4.272   6.739   4.966
 5417SOL    HW217151   4.313   6.583   4.938
 5418SOL     OW17152   5.572   6.212   4.815
 5418SOL    HW117153   5.553   6.113   4.820
 5418SOL    HW217154   5.660   6.227   4.770
 5419SOL     OW17155   2.960   6.100   0.954
 5419SOL    HW117156   2.878   6.051   0.982
 5419SOL    HW217157   2.975   6.179   1.014
 5420SOL     OW17158   1.758   1.795   1.336
 5420SOL    HW117159   1.668   1.813   1.376
 5420SOL    HW217160   1.821   1.867   1.362
 5421SOL     OW17161   3.360   5.154   1.923
 5421SOL    HW117162   3.418   5.080   1.959
 5421SOL    HW217163   3.283   5.167   1.985
 5422SOL     OW17164   0.762   4.453   4.279
 5422SOL    HW117165   0.768   4.469   4.377
 5422SOL    HW217166   0.714   4.529   4.235
 5423SOL     OW17167   5.385   5.173   6.706
 5423SOL    HW117168   5.344   5.117   6.778
 5423SOL    HW217169   5.315   5.228   6.662
 5424SOL     OW17170   5.796   3.872   4.540
 5424SOL    HW117171   5.856   3.863   4.461
 5424SOL    HW217172   5.706   3.902   4.510
 5425SOL     OW17173   5.662   1.798   5.149
 5425SOL    HW117174   5.727   1.751   5.090
 5425SOL    HW217175   5.615   1.731   5.206
 5426SOL     OW17176   5.920   5.732   2.717
 5426SOL    HW117177   5.971   5.816   2.729
 5426SOL    HW217178   5.868   5.736   2.631
 5427SOL     OW17179   5.041   3.066   0.306
 5427SOL    HW117180   5.139   3.082   0.290
 5427SOL    HW217181   5.009   2.993   0.247
 5428SOL     OW17182   5.609   6.675   1.646
 5428SOL    HW117183   5.524   6.629   1.621
 5428SOL    HW217184   5.610   6.767   1.606
 5429SOL     OW17185   2.252   0.382   5.376
 5429SOL    HW117186   2.270   0.291   5.413
 5429SOL    HW217187   2.235   0.376   5.278
 5430SOL     OW17188   1.868   2.774   5.566
 5430SOL    HW117189   1.966   2.772   5.547
 5430SOL    HW217190   1.841   2.866   5.594
 5431SOL     OW17191   2.987   3.716   6.338
 5431SOL    HW117192   2.977   3.641   6.404
 5431SOL    HW217193   2.987   3.804   6.386
 5432SOL     OW17194   3.676   5.488   6.527
 5432SOL    HW117195   3.636   5.415   6.472
 5432SOL    HW217196   3.726   5.551   6.467
 5433SOL     OW17197   1.037   0.909   1.906
 5433SOL    HW117198   0.940   0.885   1.898
 5433SOL    HW217199   1.076   0.920   1.814
 5434SOL     OW17200   3.899   0.963   4.644
 5434SOL    HW117201   3.857   0.979   4.555
 5434SOL    HW217202   3.851   1.015   4.715
 5435SOL     OW17203   6.517   3.415   0.787
 5435SOL    HW117204   6.453   3.484   0.753
 5435SOL    HW217205   6.508   3.331   0.733
 5436SOL     OW17206   5.837   4.651   3.921
 5436SOL    HW117207   5.778   4.571   3.915
 5436SOL    HW217208   5.845   4.693   3.830
 5437SOL     OW17209   3.117   4.861   4.630
 5437SOL    HW117210   3.075   4.807   4.557
 5437SOL    HW217211   3.105   4.815   4.718
 5438SOL     OW17212   5.885   4.091   2.464
 5438SOL    HW117213   5.886   4.131   2.373
 5438SOL    HW217214   5.978   4.085   2.499
 5439SOL     OW17215   0.537   3.214   0.126
 5439SOL    HW117216   0.564   3.138   0.066
 5439SOL    HW217217   0.618   3.248   0.174
 5440SOL     OW17218   6.448   6.478   3.466
 5440SOL    HW117219   6.492   6.558   3.425
 5440SOL    HW217220   6.517   6.423   3.513
 5441SOL     OW17221   5.060   3.332   3.677
 5441SOL    HW117222   5.021   3.327   3.769
 5441SOL    HW217223   5.018   3.263   3.618
 5442SOL     OW17224   3.444   0.509   3.178
 5442SOL    HW117225   3.476   0.417   3.157
 5442SOL    HW217226   3.354   0.504   3.222
 5443SOL     OW17227   3.613   5.877   3.781
 5443SOL    HW117228   3.582   5.786   3.807
 5443SOL    HW217229   3.699   5.897   3.828
 5444SOL     OW17230   0.224   0.499   4.034
 5444SOL    HW117231   0.196   0.484   3.939
 5444SOL    HW217232   0.178   0.581   4.069
 5445SOL     OW17233   5.764   4.341   3.868
 5445SOL    HW117234   5.856   4.310   3.894
 5445SOL    HW217235   5.720   4.384   3.947
 5446SOL     OW17236   5.814   5.484   3.970
 5446SOL    HW117237   5.897   5.496   4.024
 5446SOL    HW217238   5.789   5.387   3.969
 5447SOL     OW17239   1.421   1.330   0.447
 5447SOL    HW117240   1.359   1.361   0.520
 5447SOL    HW217241   1.458   1.410   0.400
 5448SOL     OW17242   4.459   4.571   3.794
 5448SOL    HW117243   4.421   4.646   3.741
 5448SOL    HW217244   4.405   4.559   3.878
 5449SOL     OW17245   2.398   1.653   0.748
 5449SOL    HW117246   2.463   1.644   0.672
 5449SOL    HW217247   2.447   1.682   0.830
 5450SOL     OW17248   3.271   0.138   1.396
 5450SOL    HW117249   3.296   0.129   1.492
 5450SOL    HW217250   3.331   0.206   1.352
 5451SOL     OW17251   1.917   6.271   3.315
 5451SOL    HW117252   2.003   6.300   3.357
 5451SOL    HW217253   1.851   6.345   3.319
 5452SOL     OW17254   2.681   4.288   0.961
 5452SOL    HW117255   2.638   4.352   0.897
 5452SOL    HW217256   2.628   4.203   0.963
 5453SOL     OW17257   5.316   4.027   2.268
 5453SOL    HW117258   5.409   3.997   2.286
 5453SOL    HW217259   5.276   4.063   2.352
 5454SOL     OW17260   5.683   5.776   0.708
 5454SOL    HW117261   5.609   5.820   0.656
 5454SOL    HW217262   5.644   5.701   0.763
 5455SOL     OW17263   0.180   2.408   3.673
 5455SOL    HW117264   0.248   2.402   3.600
 5455SOL    HW217265   0.134   2.497   3.667
 5456SOL     OW17266   3.538   1.852   6.711
 5456SOL    HW117267   3.613   1.817   6.656
 5456SOL    HW217268   3.490   1.776   6.755
 5457SOL     OW17269   6.419   2.056   1.059
 5457SOL    HW117270   6.369   2.141   1.042
 5457SOL    HW217271   6.405   1.994   0.982
 5458SOL     OW17272   6.968   5.381   0.263
 5458SOL    HW117273   6.933   5.353   0.173
 5458SOL    HW217274   6.961   5.480   0.272
 5459SOL     OW17275   2.143   4.562   5.802
 5459SOL    HW117276   2.209   4.602   5.866
 5459SOL    HW217277   2.185   4.485   5.755
 5460SOL     OW17278   2.768   0.197   2.875
 5460SOL    HW117279   2.709   0.251   2.815
 5460SOL    HW217280   2.853   0.247   2.892
 5461SOL     OW17281   0.370   6.827   4.239
 5461SOL    HW117282   0.430   6.880   4.298
 5461SOL    HW217283   0.378   6.730   4.261
 5462SOL     OW17284   5.509   6.024   0.274
 5462SOL    HW117285   5.553   5.999   0.188
 5462SOL    HW217286   5.494   5.941   0.329
 5463SOL     OW17287   0.420   2.012   0.132
 5463SOL    HW117288   0.441   1.914   0.135
 5463SOL    HW217289   0.447   2.055   0.218
 5464SOL     OW17290   5.885   6.818   4.918
 5464SOL    HW117291   5.858   6.876   4.996
 5464SOL    HW217292   5.983   6.823   4.905
 5465SOL     OW17293   6.026   0.882   3.594
 5465SOL    HW117294   6.019   0.783   3.585
 5465SOL    HW217295   5.954   0.926   3.540
 5466SOL     OW17296   5.137   2.652   5.748
 5466SOL    HW117297   5.083   2.615   5.673
 5466SOL    HW217298   5.219   2.596   5.762
 5467SOL     OW17299   6.285   3.496   3.344
 5467SOL    HW117300   6.229   3.421   3.309
 5467SOL    HW217301   6.226   3.571   3.372
 5468SOL     OW17302   6.587   1.633   5.152
 5468SOL    HW117303   6.577   1.569   5.229
 5468SOL    HW217304   6.516   1.615   5.084
 5469SOL     OW17305   3.318   6.209   5.423
 5469SOL    HW117306   3.282   6.182   5.333
 5469SOL    HW217307   3.357   6.129   5.468
 5470SOL     OW17308   3.538   5.344   3.956
 5470SOL    HW117309   3.629   5.303   3.960
 5470SOL    HW217310   3.512   5.378   4.046
 5471SOL     OW17311   6.684   0.730   2.990
 5471SOL    HW117312   6.764   0.756   2.935
 5471SOL    HW217313   6.608   0.792   2.970
 5472SOL     OW17314   2.966   3.475   6.521
 5472SOL    HW117315   3.060   3.462   6.492
 5472SOL    HW217316   2.919   3.386   6.522
 5473SOL     OW17317   1.904   3.414   0.715
 5473SOL    HW117318   1.984   3.414   0.655
 5473SOL    HW217319   1.888   3.506   0.749
 5474SOL     OW17320   1.006   4.247   4.772
 5474SOL    HW117321   1.024   4.186   4.849
 5474SOL    HW217322   0.932   4.310   4.796
 5475SOL     OW17323   1.356   1.892   0.547
 5475SOL    HW117324   1.431   1.866   0.608
 5475SOL    HW217325   1.320   1.981   0.575
 5476SOL     OW17326   2.074   4.648   5.058
 5476SOL    HW117327   2.138   4.582   5.099
 5476SOL    HW217328   2.008   4.599   5.001
 5477SOL     OW17329   1.856   4.223   2.618
 5477SOL    HW117330   1.871   4.126   2.600
 5477SOL    HW217331   1.895   4.247   2.707
 5478SOL     OW17332   4.036   0.173   5.707
 5478SOL    HW117333   4.131   0.159   5.734
 5478SOL    HW217334   3.976   0.126   5.772
 5479SOL     OW17335   4.988   2.017   5.122
 5479SOL    HW117336   4.959   2.112   5.135
 5479SOL    HW217337   4.983   1.993   5.025
 5480SOL     OW17338   5.350   5.628   4.143
 5480SOL    HW117339   5.268   5.676   4.174
 5480SOL    HW217340   5.418   5.694   4.112
 5481SOL     OW17341   4.683   1.604   4.506
 5481SOL    HW117342   4.642   1.524   4.550
 5481SOL    HW217343   4.644   1.615   4.414
 5482SOL     OW17344   3.641   3.499   2.461
 5482SOL    HW117345   3.588   3.564   2.406
 5482SOL    HW217346   3.738   3.508   2.438
 5483SOL     OW17347   0.633   2.192   5.135
 5483SOL    HW117348   0.645   2.131   5.213
 5483SOL    HW217349   0.579   2.146   5.064
 5484SOL     OW17350   4.773   0.435   3.838
 5484SOL    HW117351   4.778   0.447   3.937
 5484SOL    HW217352   4.762   0.524   3.793
 5485SOL     OW17353   3.496   6.980   5.362
 5485SOL    HW117354   3.482   6.882   5.373
 5485SOL    HW217355   3.522   7.000   5.267
 5486SOL     OW17356   1.847   5.414   5.493
 5486SOL    HW117357   1.927   5.400   5.552
 5486SOL    HW217358   1.878   5.434   5.400
 5487SOL     OW17359   5.045   3.036   6.220
 5487SOL    HW117360   5.018   2.985   6.302
 5487SOL    HW217361   5.006   3.128   6.223
 5488SOL     OW17362   5.588   0.688   1.441
 5488SOL    HW117363   5.554   0.696   1.535
 5488SOL    HW217364   5.667   0.627   1.439
 5489SOL     OW17365   1.459   4.878   1.219
 5489SOL    HW117366   1.401   4.890   1.300
 5489SOL    HW217367   1.424   4.804   1.163
 5490SOL     OW17368   3.910   6.995   0.102
 5490SOL    HW117369   3.964   6.917   0.134
 5490SOL    HW217370   3.816   6.987   0.137
 5491SOL     OW17371   1.951   3.667   0.818
 5491SOL    HW117372   1.944   3.715   0.905
 5491SOL    HW217373   2.046   3.667   0.787
 5492SOL     OW17374   0.642   2.017   6.236
 5492SOL    HW117375   0.663   1.935   6.183
 5492SOL    HW217376   0.723   2.075   6.242
 5493SOL     OW17377   3.932   3.958   4.520
 5493SOL    HW117378   3.884   3.943   4.433
 5493SOL    HW217379   4.004   3.890   4.530
 5494SOL     OW17380   6.569   2.387   6.292
 5494SOL    HW117381   6.515   2.460   6.248
 5494SOL    HW217382   6.663   2.418   6.303
 5495SOL     OW17383   4.184   2.054   1.298
 5495SOL    HW117384   4.173   2.096   1.388
 5495SOL    HW217385   4.213   1.959   1.308
 5496SOL     OW17386   2.512   0.278   3.231
 5496SOL    HW117387   2.435   0.263   3.169
 5496SOL    HW217388   2.596   0.242   3.190
 5497SOL     OW17389   0.118   1.765   3.825
 5497SOL    HW117390   0.186   1.837   3.837
 5497SOL    HW217391   0.074   1.745   3.912
 5498SOL     OW17392   6.126   6.363   0.934
 5498SOL    HW117393   6.126   6.463   0.924
 5498SOL    HW217394   6.102   6.340   1.028
 5499SOL     OW17395   0.112   0.842   4.796
 5499SOL    HW117396   0.204   0.830   4.833
 5499SOL    HW217397   0.104   0.791   4.710
 5500SOL     OW17398   1.678   0.411   0.325
 5500SOL    HW117399   1.674   0.313   0.340
 5500SOL    HW217400   1.736   0.454   0.395
 5501SOL     OW17401   4.019   6.554   0.582
 5501SOL    HW117402   3.947   6.560   0.513
 5501SOL    HW217403   3.982   6.576   0.672
 5502SOL     OW17404   5.778   3.845   6.938
 5502SOL    HW117405   5.860   3.891   6.972
 5502SOL    HW217406   5.762   3.762   6.990
 5503SOL     OW17407   6.963   5.239   2.799
 5503SOL    HW117408   0.004   5.239   2.723
 5503SOL    HW217409   7.007   5.277   2.880
 5504SOL     OW17410   4.007   0.991   5.143
 5504SOL    HW117411   4.081   1.014   5.080
 5504SOL    HW217412   3.965   0.905   5.115
 5505SOL     OW17413   1.945   5.361   4.233
 5505SOL    HW117414   1.973   5.270   4.203
 5505SOL    HW217415   1.865   5.391   4.180
 5506SOL     OW17416   1.319   2.250   6.060
 5506SOL    HW117417   1.401   2.209   6.022
 5506SOL    HW217418   1.313   2.228   6.158
 5507SOL     OW17419   2.686   0.416   3.937
 5507SOL    HW117420   2.699   0.359   3.856
 5507SOL    HW217421   2.676   0.357   4.017
 5508SOL     OW17422   1.103   0.708   5.974
 5508SOL    HW117423   1.087   0.616   5.939
 5508SOL    HW217424   1.055   0.774   5.916
 5509SOL     OW17425   0.801   6.496   0.203
 5509SOL    HW117426   0.890   6.477   0.163
 5509SOL    HW217427   0.803   6.583   0.251
 5510SOL     OW17428   5.067   5.781   1.093
 5510SOL    HW117429   5.079   5.730   1.008
 5510SOL    HW217430   5.046   5.876   1.072
 5511SOL     OW17431   2.046   1.315   4.099
 5511SOL    HW117432   2.007   1.254   4.030
 5511SOL    HW217433   2.128   1.273   4.138
 5512SOL     OW17434   5.898   2.006   1.462
 5512SOL    HW117435   5.833   1.930   1.462
 5512SOL    HW217436   5.991   1.971   1.466
 5513SOL     OW17437   4.336   5.221   0.030
 5513SOL    HW117438   4.244   5.189   0.011
 5513SOL    HW217439   4.399   5.144   0.032
 5514SOL     OW17440   3.929   6.848   3.398
 5514SOL    HW117441   3.976   6.937   3.393
 5514SOL    HW217442   3.990   6.777   3.364
 5515SOL     OW17443   0.388   5.010   1.303
 5515SOL    HW117444   0.331   4.996   1.223
 5515SOL    HW217445   0.423   5.104   1.304
 5516SOL     OW17446   2.015   3.995   6.786
 5516SOL    HW117447   2.074   3.924   6.823
 5516SOL    HW217448   2.071   4.065   6.741
 5517SOL     OW17449   1.850   3.416   1.860
 5517SOL    HW117450   1.874   3.382   1.951
 5517SOL    HW217451   1.828   3.513   1.866
 5518SOL     OW17452   6.312   6.305   6.478
 5518SOL    HW117453   6.243   6.377   6.469
 5518SOL    HW217454   6.384   6.336   6.540
 5519SOL     OW17455   5.532   3.235   2.773
 5519SOL    HW117456   5.479   3.203   2.851
 5519SOL    HW217457   5.538   3.335   2.776
 5520SOL     OW17458   6.349   5.855   1.864
 5520SOL    HW117459   6.404   5.787   1.912
 5520SOL    HW217460   6.353   5.942   1.912
 5521SOL     OW17461   5.331   0.013   1.736
 5521SOL    HW117462   5.255   0.056   1.687
 5521SOL    HW217463   5.295   6.971   1.803
 5522SOL     OW17464   0.213   5.345   0.326
 5522SOL    HW117465   0.114   5.352   0.321
 5522SOL    HW217466   0.249   5.424   0.376
 5523SOL     OW17467   3.568   6.956   2.377
 5523SOL    HW117468   3.615   0.021   2.385
 5523SOL    HW217469   3.603   6.906   2.298
 5524SOL     OW17470   5.192   5.364   4.835
 5524SOL    HW117471   5.099   5.380   4.866
 5524SOL    HW217472   5.209   5.419   4.753
 5525SOL     OW17473   0.309   2.669   0.701
 5525SOL    HW117474   0.254   2.705   0.776
 5525SOL    HW217475   0.254   2.606   0.646
 5526SOL     OW17476   4.835   4.817   4.241
 5526SOL    HW117477   4.873   4.872   4.167
 5526SOL    HW217478   4.749   4.858   4.272
 5527SOL     OW17479   5.634   3.741   3.797
 5527SOL    HW117480   5.651   3.659   3.743
 5527SOL    HW217481   5.700   3.744   3.873
 5528SOL     OW17482   0.881   1.424   6.867
 5528SOL    HW117483   0.959   1.470   6.825
 5528SOL    HW217484   0.852   1.476   6.948
 5529SOL     OW17485   2.259   0.273   3.064
 5529SOL    HW117486   2.221   0.328   3.139
 5529SOL    HW217487   2.194   0.272   2.988
 5530SOL     OW17488   6.074   2.532   2.142
 5530SOL    HW117489   5.989   2.479   2.143
 5530SOL    HW217490   6.141   2.487   2.201
 5531SOL     OW17491   3.235   2.909   2.300
 5531SOL    HW117492   3.251   2.974   2.226
 5531SOL    HW217493   3.192   2.826   2.263
 5532SOL     OW17494   0.927   2.603   0.658
 5532SOL    HW117495   0.830   2.621   0.647
 5532SOL    HW217496   0.949   2.514   0.619
 5533SOL     OW17497   3.648   1.359   3.135
 5533SOL    HW117498   3.601   1.306   3.205
 5533SOL    HW217499   3.589   1.370   3.055
 5534SOL     OW17500   1.016   2.156   5.915
 5534SOL    HW117501   1.028   2.060   5.940
 5534SOL    HW217502   1.059   2.214   5.983
 5535SOL     OW17503   0.246   3.102   3.706
 5535SOL    HW117504   0.203   3.012   3.716
 5535SOL    HW217505   0.338   3.090   3.668
 5536SOL     OW17506   2.894   1.480   4.228
 5536SOL    HW117507   2.845   1.400   4.195
 5536SOL    HW217508   2.977   1.493   4.174
 5537SOL     OW17509   2.492   0.964   2.637
 5537SOL    HW117510   2.425   0.914   2.584
 5537SOL    HW217511   2.557   1.009   2.576
 5538SOL     OW17512   2.603   6.560   5.838
 5538SOL    HW117513   2.547   6.479   5.856
 5538SOL    HW217514   2.543   6.636   5.811
 5539SOL     OW17515   1.265   3.357   1.159
 5539SOL    HW117516   1.310   3.281   1.111
 5539SOL    HW217517   1.272   3.440   1.104
 5540SOL     OW17518   5.921   3.889   3.712
 5540SOL    HW117519   6.013   3.926   3.695
 5540SOL    HW217520   5.864   3.961   3.751
 5541SOL     OW17521   6.132   0.516   6.241
 5541SOL    HW117522   6.225   0.506   6.277
 5541SOL    HW217523   6.089   0.425   6.234
 5542SOL     OW17524   5.572   4.483   5.841
 5542SOL    HW117525   5.560   4.581   5.830
 5542SOL    HW217526   5.520   4.435   5.771
 5543SOL     OW17527   3.361   5.364   5.876
 5543SOL    HW117528   3.412   5.352   5.791
 5543SOL    HW217529   3.389   5.293   5.941
 5544SOL     OW17530   5.779   5.935   5.968
 5544SOL    HW117531   5.796   5.977   6.057
 5544SOL    HW217532   5.856   5.876   5.944
 5545SOL     OW17533   3.716   1.627   1.927
 5545SOL    HW117534   3.682   1.553   1.985
 5545SOL    HW217535   3.643   1.657   1.866
 5546SOL     OW17536   1.253   5.797   4.577
 5546SOL    HW117537   1.229   5.838   4.489
 5546SOL    HW217538   1.349   5.816   4.597
 5547SOL     OW17539   2.788   0.061   4.429
 5547SOL    HW117540   2.872   0.061   4.483
 5547SOL    HW217541   2.800   0.003   4.349
 5548SOL     OW17542   5.488   3.865   6.015
 5548SOL    HW117543   5.534   3.819   5.939
 5548SOL    HW217544   5.554   3.887   6.086
 5549SOL     OW17545   4.169   3.835   6.830
 5549SOL    HW117546   4.106   3.767   6.867
 5549SOL    HW217547   4.124   3.924   6.825
 5550SOL     OW17548   2.403   4.435   1.991
 5550SOL    HW117549   2.429   4.420   1.896
 5550SOL    HW217550   2.453   4.515   2.026
 5551SOL     OW17551   1.887   0.264   3.161
 5551SOL    HW117552   1.955   0.267   3.234
 5551SOL    HW217553   1.885   0.352   3.114
 5552SOL     OW17554   0.168   0.334   0.012
 5552SOL    HW117555   0.078   0.303   0.043
 5552SOL    HW217556   0.169   0.335   6.934
 5553SOL     OW17557   5.279   6.071   6.925
 5553SOL    HW117558   5.292   6.112   7.015
 5553SOL    HW217559   5.278   5.971   6.934
 5554SOL     OW17560   4.062   1.714   5.505
 5554SOL    HW117561   4.140   1.755   5.457
 5554SOL    HW217562   4.033   1.776   5.578
 5555SOL     OW17563   2.033   4.548   3.842
 5555SOL    HW117564   1.997   4.485   3.773
 5555SOL    HW217565   2.109   4.600   3.802
 5556SOL     OW17566   6.405   1.527   3.316
 5556SOL    HW117567   6.354   1.612   3.324
 5556SOL    HW217568   6.373   1.462   3.385
 5557SOL     OW17569   3.486   6.813   2.838
 5557SOL    HW117570   3.423   6.752   2.790
 5557SOL    HW217571   3.564   6.834   2.779
 5558SOL     OW17572   4.738   3.410   6.235
 5558SOL    HW117573   4.639   3.420   6.243
 5558SOL    HW217574   4.775   3.488   6.184
 5559SOL     OW17575   2.669   0.661   2.259
 5559SOL    HW117576   2.651   0.576   2.210
 5559SOL    HW217577   2.764   0.689   2.243
 5560SOL     OW17578   1.031   0.093   3.313
 5560SOL    HW117579   1.035   0.085   3.213
 5560SOL    HW217580   1.118   0.063   3.352
 5561SOL     OW17581   1.351   2.344   4.083
 5561SOL    HW117582   1.337   2.287   4.002
 5561SOL    HW217583   1.274   2.407   4.094
 5562SOL     OW17584   3.350   2.102   0.400
 5562SOL    HW117585   3.311   2.024   0.451
 5562SOL    HW217586   3.278   2.145   0.345
 5563SOL     OW17587   4.170   5.467   2.161
 5563SOL    HW117588   4.242   5.407   2.195
 5563SOL    HW217589   4.162   5.547   2.220
 5564SOL     OW17590   4.675   1.294   1.822
 5564SOL    HW117591   4.706   1.270   1.914
 5564SOL    HW217592   4.662   1.393   1.816
 5565SOL     OW17593   4.825   1.435   6.285
 5565SOL    HW117594   4.786   1.524   6.264
 5565SOL    HW217595   4.884   1.405   6.210
 5566SOL     OW17596   2.063   5.609   6.925
 5566SOL    HW117597   2.105   5.577   7.009
 5566SOL    HW217598   2.119   5.681   6.884
 5567SOL     OW17599   0.396   4.032   1.515
 5567SOL    HW117600   0.297   4.014   1.522
 5567SOL    HW217601   0.446   3.946   1.523
 5568SOL     OW17602   4.143   2.247   3.388
 5568SOL    HW117603   4.124   2.204   3.300
 5568SOL    HW217604   4.217   2.313   3.377
 5569SOL     OW17605   1.994   1.378   2.636
 5569SOL    HW117606   2.015   1.389   2.733
 5569SOL    HW217607   1.901   1.343   2.625
 5570SOL     OW17608   5.388   4.498   4.982
 5570SOL    HW117609   5.411   4.401   4.991
 5570SOL    HW217610   5.470   4.553   4.998
 5571SOL     OW17611   0.332   5.895   0.834
 5571SOL    HW117612   0.281   5.979   0.816
 5571SOL    HW217613   0.269   5.818   0.843
 5572SOL     OW17614   1.054   2.630   5.039
 5572SOL    HW117615   0.979   2.630   5.104
 5572SOL    HW217616   1.020   2.604   4.949
 5573SOL     OW17617   1.753   3.501   6.529
 5573SOL    HW117618   1.717   3.409   6.544
 5573SOL    HW217619   1.831   3.516   6.589
 5574SOL     OW17620   5.926   2.039   3.646
 5574SOL    HW117621   5.994   1.997   3.586
 5574SOL    HW217622   5.964   2.050   3.738
 5575SOL     OW17623   6.653   1.398   0.947
 5575SOL    HW117624   6.595   1.318   0.928
 5575SOL    HW217625   6.740   1.367   0.985
 5576SOL     OW17626   1.119   5.830   2.536
 5576SOL    HW117627   1.071   5.798   2.455
 5576SOL    HW217628   1.057   5.882   2.594
 5577SOL     OW17629   2.602   2.785   5.581
 5577SOL    HW117630   2.645   2.778   5.491
 5577SOL    HW217631   2.577   2.880   5.600
 5578SOL     OW17632   4.090   4.333   0.254
 5578SOL    HW117633   4.035   4.409   0.288
 5578SOL    HW217634   4.094   4.261   0.324
 5579SOL     OW17635   0.318   3.849   6.353
 5579SOL    HW117636   0.402   3.801   6.375
 5579SOL    HW217637   0.299   3.840   6.255
 5580SOL     OW17638   4.877   3.266   5.757
 5580SOL    HW117639   4.809   3.214   5.704
 5580SOL    HW217640   4.950   3.296   5.696
 5581SOL     OW17641   2.803   6.512   1.703
 5581SOL    HW117642   2.759   6.588   1.655
 5581SOL    HW217643   2.898   6.504   1.674
 5582SOL     OW17644   3.860   3.255   4.082
 5582SOL    HW117645   3.848   3.279   4.178
 5582SOL    HW217646   3.783   3.197   4.052
 5583SOL     OW17647   4.164   0.621   2.971
 5583SOL    HW117648   4.162   0.650   3.067
 5583SOL    HW217649   4.219   0.686   2.918
 5584SOL     OW17650   5.329   4.089   3.761
 5584SOL    HW117651   5.385   4.097   3.678
 5584SOL    HW217652   5.272   4.171   3.770
 5585SOL     OW17653   4.480   6.517   4.164
 5585SOL    HW117654   4.435   6.428   4.158
 5585SOL    HW217655   4.425   6.579   4.219
 5586SOL     OW17656   0.052   2.206   7.001
 5586SOL    HW117657   0.040   2.239   6.908
 5586SOL    HW217658   0.127   2.139   7.003
 5587SOL     OW17659   3.973   6.048   2.336
 5587SOL    HW117660   3.992   6.131   2.284
 5587SOL    HW217661   3.957   5.972   2.273
 5588SOL     OW17662   1.584   6.997   2.940
 5588SOL    HW117663   1.666   0.029   2.924
 5588SOL    HW217664   1.503   0.033   2.934
 5589SOL     OW17665   6.025   2.488   6.212
 5589SOL    HW117666   5.991   2.452   6.299
 5589SOL    HW217667   6.109   2.540   6.228
 5590SOL     OW17668   6.561   5.915   2.836
 5590SOL    HW117669   6.629   5.958   2.777
 5590SOL    HW217670   6.576   5.816   2.838
 5591SOL     OW17671   5.989   0.624   6.465
 5591SOL    HW117672   5.956   0.565   6.539
 5591SOL    HW217673   6.055   0.574   6.410
 5592SOL     OW17674   0.647   4.302   2.391
 5592SOL    HW117675   0.744   4.284   2.377
 5592SOL    HW217676   0.599   4.299   2.303
 5593SOL     OW17677   0.033   2.243   6.053
 5593SOL    HW117678   0.095   2.235   5.975
 5593SOL    HW217679   7.012   2.332   6.051
 5594SOL     OW17680   2.770   1.088   0.209
 5594SOL    HW117681   2.782   1.183   0.237
 5594SOL    HW217682   2.840   1.031   0.253
 5595SOL     OW17683   5.826   0.378   5.383
 5595SOL    HW117684   5.870   0.445   5.442
 5595SOL    HW217685   5.727   0.391   5.386
 5596SOL     OW17686   5.208   0.072   2.951
 5596SOL    HW117687   5.258   0.108   2.872
 5596SOL    HW217688   5.267   0.009   3.002
 5597SOL     OW17689   6.562   1.476   5.427
 5597SOL    HW117690   6.539   1.471   5.524
 5597SOL    HW217691   6.657   1.450   5.413
 5598SOL     OW17692   6.132   2.680   4.574
 5598SOL    HW117693   6.160   2.605   4.634
 5598SOL    HW217694   6.039   2.662   4.541
 5599SOL     OW17695   0.216   2.678   1.966
 5599SOL    HW117696   0.239   2.763   1.918
 5599SOL    HW217697   0.280   2.664   2.042
 5600SOL     OW17698   2.247   0.239   2.135
 5600SOL    HW117699   2.149   0.232   2.153
 5600SOL    HW217700   2.264   0.223   2.038
 5601SOL     OW17701   3.385   1.557   6.353
 5601SOL    HW117702   3.460   1.597   6.301
 5601SOL    HW217703   3.298   1.585   6.313
 5602SOL     OW17704   0.651   0.248   2.517
 5602SOL    HW117705   0.574   0.263   2.579
 5602SOL    HW217706   0.666   0.330   2.461
 5603SOL     OW17707   5.491   2.226   6.394
 5603SOL    HW117708   5.524   2.160   6.461
 5603SOL    HW217709   5.569   2.268   6.348
 5604SOL     OW17710   6.847   2.221   5.215
 5604SOL    HW117711   6.876   2.185   5.303
 5604SOL    HW217712   6.761   2.178   5.188
 5605SOL     OW17713   1.801   0.020   4.660
 5605SOL    HW117714   1.709   7.011   4.683
 5605SOL    HW217715   1.867   6.972   4.682
 5606SOL     OW17716   5.820   0.800   0.954
 5606SOL    HW117717   5.802   0.749   1.038
 5606SOL    HW217718   5.750   0.870   0.941
 5607SOL     OW17719   5.816   1.523   4.002
 5607SOL    HW117720   5.914   1.518   4.021
 5607SOL    HW217721   5.802   1.560   3.910
 5608SOL     OW17722   6.009   1.714   2.949
 5608SOL    HW117723   5.972   1.762   2.869
 5608SOL    HW217724   6.106   1.693   2.933
 5609SOL     OW17725   4.769   6.257   1.397
 5609SOL    HW117726   4.708   6.189   1.356
 5609SOL    HW217727   4.722   6.344   1.405
 5610SOL     OW17728   5.266   4.041   1.547
 5610SOL    HW117729   5.289   3.962   1.490
 5610SOL    HW217730   5.264   4.123   1.490
 5611SOL     OW17731   0.994   4.928   2.683
 5611SOL    HW117732   1.080   4.883   2.658
 5611SOL    HW217733   0.990   5.018   2.639
 5612SOL     OW17734   3.682   3.566   0.305
 5612SOL    HW117735   3.649   3.657   0.277
 5612SOL    HW217736   3.774   3.574   0.344
 5613SOL     OW17737   6.035   5.256   4.945
 5613SOL    HW117738   5.990   5.270   5.033
 5613SOL    HW217739   5.989   5.183   4.895
 5614SOL     OW17740   5.209   3.537   4.961
 5614SOL    HW117741   5.123   3.489   4.977
 5614SOL    HW217742   5.193   3.617   4.903
 5615SOL     OW17743   6.363   1.489   4.254
 5615SOL    HW117744   6.319   1.445   4.333
 5615SOL    HW217745   6.354   1.588   4.262
 5616SOL     OW17746   1.971   2.884   4.356
 5616SOL    HW117747   1.965   2.941   4.438
 5616SOL    HW217748   1.886   2.892   4.304
 5617SOL     OW17749   1.405   3.917   5.312
 5617SOL    HW117750   1.317   3.956   5.341
 5617SOL    HW217751   1.401   3.892   5.216
 5618SOL     OW17752   6.412   4.574   3.365
 5618SOL    HW117753   6.403   4.519   3.448
 5618SOL    HW217754   6.496   4.628   3.370
 5619SOL     OW17755   3.322   4.029   3.488
 5619SOL    HW117756   3.382   4.105   3.513
 5619SOL    HW217757   3.299   3.977   3.570
 5620SOL     OW17758   4.566   3.815   6.629
 5620SOL    HW117759   4.523   3.900   6.658
 5620SOL    HW217760   4.524   3.739   6.679
 5621SOL     OW17761   1.321   2.965   6.468
 5621SOL    HW117762   1.376   3.006   6.542
 5621SOL    HW217763   1.272   3.038   6.420
 5622SOL     OW17764   5.226   6.925   5.688
 5622SOL    HW117765   5.166   6.941   5.609
 5622SOL    HW217766   5.234   7.008   5.742
 5623SOL     OW17767   4.511   6.396   5.243
 5623SOL    HW117768   4.518   6.354   5.334
 5623SOL    HW217769   4.586   6.364   5.186
 5624SOL     OW17770   0.247   4.995   4.063
 5624SOL    HW117771   0.170   4.935   4.043
 5624SOL    HW217772   0.220   5.062   4.132
 5625SOL     OW17773   6.786   6.087   5.444
 5625SOL    HW117774   6.884   6.083   5.464
 5625SOL    HW217775   6.765   6.028   5.365
 5626SOL     OW17776   2.733   5.243   4.094
 5626SOL    HW117777   2.744   5.208   4.187
 5626SOL    HW217778   2.636   5.238   4.068
 5627SOL     OW17779   6.878   4.853   6.272
 5627SOL    HW117780   6.824   4.859   6.188
 5627SOL    HW217781   6.826   4.803   6.341
 5628SOL     OW17782   1.630   2.335   1.352
 5628SOL    HW117783   1.559   2.266   1.361
 5628SOL    HW217784   1.679   2.345   1.439
 5629SOL     OW17785   5.106   2.964   2.029
 5629SOL    HW117786   5.059   2.996   2.110
 5629SOL    HW217787   5.070   3.011   1.948
 5630SOL     OW17788   1.835   4.259   6.766
 5630SOL    HW117789   1.932   4.276   6.745
 5630SOL    HW217790   1.828   4.190   6.838
 5631SOL     OW17791   5.102   1.283   1.418
 5631SOL    HW117792   5.071   1.190   1.399
 5631SOL    HW217793   5.026   1.347   1.405
 5632SOL     OW17794   3.078   2.232   5.416
 5632SOL    HW117795   3.151   2.182   5.462
 5632SOL    HW217796   3.113   2.276   5.333
 5633SOL     OW17797   6.188   4.767   4.786
 5633SOL    HW117798   6.263   4.766   4.852
 5633SOL    HW217799   6.206   4.838   4.717
 5634SOL     OW17800   2.049   4.675   4.697
 5634SOL    HW117801   2.083   4.620   4.621
 5634SOL    HW217802   2.103   4.656   4.779
 5635SOL     OW17803   1.938   6.102   6.972
 5635SOL    HW117804   1.992   6.054   0.018
 5635SOL    HW217805   2.000   6.136   6.900
 5636SOL     OW17806   6.273   0.129   5.247
 5636SOL    HW117807   6.183   0.170   5.260
 5636SOL    HW217808   6.302   0.141   5.152
 5637SOL     OW17809   3.421   0.496   3.636
 5637SOL    HW117810   3.481   0.571   3.609
 5637SOL    HW217811   3.353   0.480   3.564
 5638SOL     OW17812   6.416   4.332   0.760
 5638SOL    HW117813   6.399   4.287   0.848
 5638SOL    HW217814   6.343   4.309   0.696
 5639SOL     OW17815   2.508   0.442   2.101
 5639SOL    HW117816   2.431   0.380   2.089
 5639SOL    HW217817   2.550   0.462   2.012
 5640SOL     OW17818   2.777   0.666   2.541
 5640SOL    HW117819   2.728   0.652   2.455
 5640SOL    HW217820   2.841   0.742   2.531
 5641SOL     OW17821   0.899   4.830   5.867
 5641SOL    HW117822   0.884   4.798   5.960
 5641SOL    HW217823   0.967   4.904   5.868
 5642SOL     OW17824   0.954   5.385   4.998
 5642SOL    HW117825   0.974   5.292   5.030
 5642SOL    HW217826   0.870   5.417   5.041
 5643SOL     OW17827   3.125   0.711   4.504
 5643SOL    HW117828   3.204   0.684   4.560
 5643SOL    HW217829   3.052   0.744   4.564
 5644SOL     OW17830   3.565   0.302   4.655
 5644SOL    HW117831   3.573   0.396   4.621
 5644SOL    HW217832   3.498   0.253   4.600
 5645SOL     OW17833   5.764   4.694   2.862
 5645SOL    HW117834   5.790   4.609   2.817
 5645SOL    HW217835   5.760   4.768   2.795
 5646SOL     OW17836   0.646   5.539   3.494
 5646SOL    HW117837   0.613   5.445   3.483
 5646SOL    HW217838   0.702   5.545   3.577
 5647SOL     OW17839   5.961   6.823   0.842
 5647SOL    HW117840   6.036   6.889   0.848
 5647SOL    HW217841   5.902   6.833   0.923
 5648SOL     OW17842   1.668   1.046   3.607
 5648SOL    HW117843   1.607   1.090   3.541
 5648SOL    HW217844   1.739   0.996   3.558
 5649SOL     OW17845   6.688   0.055   5.246
 5649SOL    HW117846   6.681   0.141   5.195
 5649SOL    HW217847   6.612   7.018   5.221
 5650SOL     OW17848   1.394   5.255   1.096
 5650SOL    HW117849   1.438   5.304   1.172
 5650SOL    HW217850   1.455   5.257   1.016
 5651SOL     OW17851   0.382   1.216   1.628
 5651SOL    HW117852   0.414   1.308   1.652
 5651SOL    HW217853   0.282   1.217   1.621
 5652SOL     OW17854   6.427   0.096   2.109
 5652SOL    HW117855   6.376   0.042   2.175
 5652SOL    HW217856   6.512   0.049   2.086
 5653SOL     OW17857   0.708   6.077   6.656
 5653SOL    HW117858   0.750   5.987   6.644
 5653SOL    HW217859   0.731   6.113   6.746
 5654SOL     OW17860   6.546   6.698   5.594
 5654SOL    HW117861   6.582   6.617   5.641
 5654SOL    HW217862   6.619   6.739   5.539
 5655SOL     OW17863   2.160   3.684   5.031
 5655SOL    HW117864   2.153   3.586   5.011
 5655SOL    HW217865   2.198   3.732   4.952
 5656SOL     OW17866   0.198   3.512   0.455
 5656SOL    HW117867   0.123   3.454   0.486
 5656SOL    HW217868   0.267   3.456   0.410
 5657SOL     OW17869   5.746   1.015   0.046
 5657SOL    HW117870   5.676   1.071   0.089
 5657SOL    HW217871   5.820   0.997   0.111
 5658SOL     OW17872   3.685   5.086   5.721
 5658SOL    HW117873   3.670   5.179   5.754
 5658SOL    HW217874   3.752   5.087   5.648
 5659SOL     OW17875   4.040   3.681   3.857
 5659SOL    HW117876   4.000   3.601   3.902
 5659SOL    HW217877   4.069   3.656   3.764
 5660SOL     OW17878   5.896   0.325   6.189
 5660SOL    HW117879   5.820   0.333   6.125
 5660SOL    HW217880   5.926   0.230   6.193
 5661SOL     OW17881   1.494   4.736   4.911
 5661SOL    HW117882   1.423   4.794   4.871
 5661SOL    HW217883   1.490   4.743   5.011
 5662SOL     OW17884   3.448   5.528   3.385
 5662SOL    HW117885   3.409   5.435   3.388
 5662SOL    HW217886   3.449   5.560   3.291
 5663SOL     OW17887   2.131   3.298   6.908
 5663SOL    HW117888   2.132   3.272   7.004
 5663SOL    HW217889   2.218   3.271   6.866
 5664SOL     OW17890   6.363   3.888   4.605
 5664SOL    HW117891   6.329   3.927   4.691
 5664SOL    HW217892   6.458   3.914   4.591
 5665SOL     OW17893   1.761   2.033   0.223
 5665SOL    HW117894   1.698   1.980   0.167
 5665SOL    HW217895   1.836   2.067   0.165
 5666SOL     OW17896   6.008   5.773   1.555
 5666SOL    HW117897   6.008   5.872   1.542
 5666SOL    HW217898   6.102   5.742   1.573
 5667SOL     OW17899   0.986   5.011   4.124
 5667SOL    HW117900   0.977   5.035   4.221
 5667SOL    HW217901   0.960   4.915   4.111
 5668SOL     OW17902   5.336   1.636   5.230
 5668SOL    HW117903   5.342   1.733   5.204
 5668SOL    HW217904   5.427   1.602   5.251
 5669SOL     OW17905   0.561   2.992   6.960
 5669SOL    HW117906   0.646   2.952   6.924
 5669SOL    HW217907   0.485   2.966   6.901
 5670SOL     OW17908   6.590   2.653   3.949
 5670SOL    HW117909   6.536   2.735   3.931
 5670SOL    HW217910   6.595   2.598   3.865
 5671SOL     OW17911   0.369   5.846   6.970
 5671SOL    HW117912   0.356   5.756   7.012
 5671SOL    HW217913   0.444   5.842   6.905
 5672SOL     OW17914   4.107   5.072   6.376
 5672SOL    HW117915   4.155   5.149   6.334
 5672SOL    HW217916   4.103   4.996   6.310
 5673SOL     OW17917   0.638   6.626   2.064
 5673SOL    HW117918   0.632   6.528   2.044
 5673SOL    HW217919   0.577   6.677   2.003
 5674SOL     OW17920   6.992   5.086   5.156
 5674SOL    HW117921   6.928   5.151   5.115
 5674SOL    HW217922   0.028   5.133   5.221
 5675SOL     OW17923   4.258   1.831   5.865
 5675SOL    HW117924   4.310   1.888   5.929
 5675SOL    HW217925   4.161   1.835   5.889
 5676SOL     OW17926   2.051   2.739   2.478
 5676SOL    HW117927   2.116   2.797   2.528
 5676SOL    HW217928   2.102   2.680   2.415
 5677SOL     OW17929   0.097   1.195   1.607
 5677SOL    HW117930   0.062   1.150   1.689
 5677SOL    HW217931   0.077   1.139   1.527
 5678SOL     OW17932   3.752   6.595   2.769
 5678SOL    HW117933   3.683   6.529   2.738
 5678SOL    HW217934   3.752   6.675   2.709
 5679SOL     OW17935   1.164   1.314   4.200
 5679SOL    HW117936   1.189   1.340   4.107
 5679SOL    HW217937   1.211   1.229   4.224
 5680SOL     OW17938   1.560   4.904   6.864
 5680SOL    HW117939   1.513   4.856   6.790
 5680SOL    HW217940   1.497   4.966   6.910
 5681SOL     OW17941   0.356   4.490   0.369
 5681SOL    HW117942   0.317   4.527   0.454
 5681SOL    HW217943   0.450   4.523   0.359
 5682SOL     OW17944   2.544   4.404   5.664
 5682SOL    HW117945   2.611   4.343   5.707
 5682SOL    HW217946   2.587   4.492   5.645
 5683SOL     OW17947   3.798   0.721   0.160
 5683SOL    HW117948   3.755   0.710   0.250
 5683SOL    HW217949   3.727   0.740   0.092
 5684SOL     OW17950   3.126   3.897   5.359
 5684SOL    HW117951   3.157   3.811   5.319
 5684SOL    HW217952   3.040   3.925   5.314
 5685SOL     OW17953   1.653   2.990   2.368
 5685SOL    HW117954   1.664   3.070   2.309
 5685SOL    HW217955   1.559   2.986   2.401
 5686SOL     OW17956   3.143   0.912   6.648
 5686SOL    HW117957   3.110   0.837   6.590
 5686SOL    HW217958   3.070   0.940   6.710
 5687SOL     OW17959   0.233   4.653   6.122
 5687SOL    HW117960   0.314   4.642   6.064
 5687SOL    HW217961   0.261   4.655   6.218
 5688SOL     OW17962   0.466   2.317   0.341
 5688SOL    HW117963   0.372   2.293   0.363
 5688SOL    HW217964   0.512   2.349   0.424
 5689SOL     OW17965   4.340   1.208   0.827
 5689SOL    HW117966   4.341   1.281   0.760
 5689SOL    HW217967   4.415   1.144   0.807
 5690SOL     OW17968   2.545   6.041   0.747
 5690SOL    HW117969   2.643   6.024   0.736
 5690SOL    HW217970   2.510   6.087   0.666
 5691SOL     OW17971   2.881   6.872   2.145
 5691SOL    HW117972   2.892   6.948   2.210
 5691SOL    HW217973   2.816   6.806   2.183
 5692SOL     OW17974   6.082   2.979   0.615
 5692SOL    HW117975   6.120   2.962   0.706
 5692SOL    HW217976   6.137   2.931   0.546
 5693SOL     OW17977   5.780   2.235   2.568
 5693SOL    HW117978   5.825   2.310   2.521
 5693SOL    HW217979   5.724   2.271   2.643
 5694SOL     OW17980   0.398   1.880   3.717
 5694SOL    HW117981   0.476   1.869   3.778
 5694SOL    HW217982   0.405   1.814   3.642
 5695SOL     OW17983   1.009   2.746   2.851
 5695SOL    HW117984   0.918   2.740   2.810
 5695SOL    HW217985   1.034   2.842   2.864
 5696SOL     OW17986   1.331   1.161   2.788
 5696SOL    HW117987   1.343   1.253   2.752
 5696SOL    HW217988   1.266   1.163   2.864
 5697SOL     OW17989   5.960   2.501   1.552
 5697SOL    HW117990   5.950   2.529   1.647
 5697SOL    HW217991   6.021   2.421   1.547
 5698SOL     OW17992   0.946   3.822   3.264
 5698SOL    HW117993   1.011   3.874   3.319
 5698SOL    HW217994   0.994   3.754   3.209
 5699SOL     OW17995   6.993   2.816   3.428
 5699SOL    HW117996   0.063   2.843   3.454
 5699SOL    HW217997   6.954   2.885   3.368
 5700SOL     OW17998   0.181   6.703   3.912
 5700SOL    HW117999   0.259   6.765   3.923
 5700SOL    HW218000   0.158   6.695   3.815
 5701SOL     OW18001   1.378   0.926   2.599
 5701SOL    HW118002   1.385   0.945   2.697
 5701SOL    HW218003   1.464   0.889   2.565
 5702SOL     OW18004   2.539   6.166   5.180
 5702SOL    HW118005   2.601   6.094   5.212
 5702SOL    HW218006   2.478   6.193   5.255
 5703SOL     OW18007   6.087   4.703   1.451
 5703SOL    HW118008   6.036   4.689   1.536
 5703SOL    HW218009   6.081   4.620   1.395
 5704SOL     OW18010   4.417   4.909   2.425
 5704SOL    HW118011   4.367   4.830   2.387
 5704SOL    HW218012   4.437   4.892   2.521
 5705SOL     OW18013   5.018   0.785   1.210
 5705SOL    HW118014   5.081   0.716   1.176
 5705SOL    HW218015   5.049   0.876   1.181
 5706SOL     OW18016   6.316   3.730   0.894
 5706SOL    HW118017   6.323   3.666   0.970
 5706SOL    HW218018   6.343   3.684   0.809
 5707SOL     OW18019   0.004   6.844   0.630
 5707SOL    HW118020   0.027   6.843   0.533
 5707SOL    HW218021   6.943   6.791   0.645
 5708SOL     OW18022   5.199   6.237   1.164
 5708SOL    HW118023   5.110   6.241   1.118
 5708SOL    HW218024   5.197   6.163   1.232
 5709SOL     OW18025   1.481   0.023   2.409
 5709SOL    HW118026   1.507   6.972   2.471
 5709SOL    HW218027   1.522   0.006   2.319
 5710SOL     OW18028   2.433   3.155   0.099
 5710SOL    HW118029   2.488   3.077   0.129
 5710SOL    HW218030   2.397   3.204   0.179
 5711SOL     OW18031   5.192   1.221   2.701
 5711SOL    HW118032   5.140   1.183   2.777
 5711SOL    HW218033   5.263   1.281   2.735
 5712SOL     OW18034   0.637   6.060   6.388
 5712SOL    HW118035   0.601   5.973   6.356
 5712SOL    HW218036   0.634   6.062   6.488
 5713SOL     OW18037   2.496   2.943   1.612
 5713SOL    HW118038   2.407   2.989   1.612
 5713SOL    HW218039   2.495   2.869   1.545
 5714SOL     OW18040   0.700   5.612   6.625
 5714SOL    HW118041   0.621   5.554   6.645
 5714SOL    HW218042   0.771   5.558   6.580
 5715SOL     OW18043   0.834   6.534   3.388
 5715SOL    HW118044   0.871   6.529   3.481
 5715SOL    HW218045   0.876   6.462   3.333
 5716SOL     OW18046   1.403   3.774   6.866
 5716SOL    HW118047   1.412   3.846   6.797
 5716SOL    HW218048   1.493   3.755   6.906
 5717SOL     OW18049   2.031   5.930   0.761
 5717SOL    HW118050   2.102   5.987   0.719
 5717SOL    HW218051   1.942   5.975   0.750
 5718SOL     OW18052   0.685   2.281   5.578
 5718SOL    HW118053   0.688   2.236   5.667
 5718SOL    HW218054   0.644   2.372   5.588
 5719SOL     OW18055   3.464   1.574   6.618
 5719SOL    HW118056   3.421   1.547   6.531
 5719SOL    HW218057   3.426   1.518   6.692
 5720SOL     OW18058   1.556   5.102   4.589
 5720SOL    HW118059   1.487   5.144   4.649
 5720SOL    HW218060   1.546   5.003   4.592
 5721SOL     OW18061   0.557   4.248   1.200
 5721SOL    HW118062   0.508   4.245   1.113
 5721SOL    HW218063   0.495   4.281   1.272
 5722SOL     OW18064   6.343   1.330   5.708
 5722SOL    HW118065   6.395   1.415   5.699
 5722SOL    HW218066   6.257   1.338   5.658
 5723SOL     OW18067   4.887   3.333   0.001
 5723SOL    HW118068   4.906   3.411   0.062
 5723SOL    HW218069   4.902   3.361   6.929
 5724SOL     OW18070   4.815   2.949   4.921
 5724SOL    HW118071   4.729   2.999   4.920
 5724SOL    HW218072   4.799   2.855   4.891
 5725SOL     OW18073   5.375   4.970   3.554
 5725SOL    HW118074   5.428   5.022   3.621
 5725SOL    HW218075   5.278   4.990   3.565
 5726SOL     OW18076   0.008   4.790   5.101
 5726SOL    HW118077   7.015   4.755   5.193
 5726SOL    HW218078   6.987   4.879   5.091
 5727SOL     OW18079   6.743   1.549   4.090
 5727SOL    HW118080   6.729   1.498   4.174
 5727SOL    HW218081   6.834   1.530   4.054
 5728SOL     OW18082   3.882   1.015   6.271
 5728SOL    HW118083   3.783   1.022   6.286
 5728SOL    HW218084   3.908   1.077   6.197
 5729SOL     OW18085   0.871   1.111   0.407
 5729SOL    HW118086   0.942   1.181   0.406
 5729SOL    HW218087   0.894   1.040   0.339
 5730SOL     OW18088   4.581   5.659   6.373
 5730SOL    HW118089   4.640   5.682   6.450
 5730SOL    HW218090   4.634   5.609   6.304
 5731SOL     OW18091   0.604   6.690   3.768
 5731SOL    HW118092   0.550   6.738   3.837
 5731SOL    HW218093   0.606   6.592   3.788
 5732SOL     OW18094   6.240   5.307   4.746
 5732SOL    HW118095   6.237   5.403   4.773
 5732SOL    HW218096   6.203   5.251   4.821
 5733SOL     OW18097   3.824   6.817   4.933
 5733SOL    HW118098   3.867   6.736   4.971
 5733SOL    HW218099   3.745   6.843   4.989
 5734SOL     OW18100   1.121   6.823   5.865
 5734SOL    HW118101   1.154   6.759   5.796
 5734SOL    HW218102   1.081   6.772   5.941
 5735SOL     OW18103   3.918   2.092   1.917
 5735SOL    HW118104   3.980   2.171   1.918
 5735SOL    HW218105   3.835   2.115   1.967
 5736SOL     OW18106   6.025   4.194   0.329
 5736SOL    HW118107   6.092   4.126   0.361
 5736SOL    HW218108   6.074   4.274   0.294
 5737SOL     OW18109   4.947   6.109   0.509
 5737SOL    HW118110   4.979   6.032   0.453
 5737SOL    HW218111   4.964   6.195   0.460
 5738SOL     OW18112   3.005   3.197   6.229
 5738SOL    HW118113   3.083   3.258   6.213
 5738SOL    HW218114   2.920   3.248   6.213
 5739SOL     OW18115   1.156   0.262   5.508
 5739SOL    HW118116   1.120   0.210   5.586
 5739SOL    HW218117   1.255   0.266   5.514
 5740SOL     OW18118   4.235   3.725   1.392
 5740SOL    HW118119   4.180   3.747   1.312
 5740SOL    HW218120   4.284   3.639   1.376
 5741SOL     OW18121   6.734   4.364   4.536
 5741SOL    HW118122   6.646   4.357   4.489
 5741SOL    HW218123   6.778   4.274   4.539
 5742SOL     OW18124   4.400   6.731   3.092
 5742SOL    HW118125   4.444   6.719   3.003
 5742SOL    HW218126   4.397   6.829   3.115
 5743SOL     OW18127   2.929   5.595   5.396
 5743SOL    HW118128   2.864   5.608   5.320
 5743SOL    HW218129   2.983   5.513   5.379
 5744SOL     OW18130   5.162   1.655   2.015
 5744SOL    HW118131   5.087   1.683   1.955
 5744SOL    HW218132   5.236   1.722   2.009
 5745SOL     OW18133   2.036   1.017   4.314
 5745SOL    HW118134   1.991   0.969   4.389
 5745SOL    HW218135   1.991   1.104   4.297
 5746SOL     OW18136   5.643   6.437   1.430
 5746SOL    HW118137   5.619   6.516   1.487
 5746SOL    HW218138   5.561   6.407   1.380
 5747SOL     OW18139   0.646   4.327   2.656
 5747SOL    HW118140   0.644   4.318   2.556
 5747SOL    HW218141   0.627   4.422   2.681
 5748SOL     OW18142   1.633   6.188   0.575
 5748SOL    HW118143   1.566   6.263   0.578
 5748SOL    HW218144   1.627   6.141   0.487
 5749SOL     OW18145   1.119   6.374   4.182
 5749SOL    HW118146   1.079   6.312   4.249
 5749SOL    HW218147   1.080   6.355   4.092
 5750SOL     OW18148   0.006   6.011   4.278
 5750SOL    HW118149   0.086   6.036   4.333
 5750SOL    HW218150   6.987   6.093   4.240
 5751SOL     OW18151   2.619   2.404   4.212
 5751SOL    HW118152   2.584   2.323   4.258
 5751SOL    HW218153   2.614   2.482   4.275
 5752SOL     OW18154   6.462   0.552   0.117
 5752SOL    HW118155   6.536   0.583   0.056
 5752SOL    HW218156   6.495   0.477   0.174
 5753SOL     OW18157   3.966   3.162   4.599
 5753SOL    HW118158   3.911   3.079   4.602
 5753SOL    HW218159   3.983   3.195   4.692
 5754SOL     OW18160   6.608   4.710   1.271
 5754SOL    HW118161   6.561   4.715   1.358
 5754SOL    HW218162   6.649   4.620   1.260
 5755SOL     OW18163   1.951   2.899   6.279
 5755SOL    HW118164   2.002   2.934   6.201
 5755SOL    HW218165   1.864   2.861   6.246
 5756SOL     OW18166   5.930   6.975   3.465
 5756SOL    HW118167   5.923   0.008   3.382
 5756SOL    HW218168   5.985   6.894   3.447
 5757SOL     OW18169   6.633   6.793   2.992
 5757SOL    HW118170   6.676   6.735   3.061
 5757SOL    HW218171   6.569   6.857   3.035
 5758SOL     OW18172   2.447   0.794   4.651
 5758SOL    HW118173   2.506   0.875   4.650
 5758SOL    HW218174   2.503   0.712   4.663
 5759SOL     OW18175   5.420   1.817   0.029
 5759SOL    HW118176   5.348   1.882   0.007
 5759SOL    HW218177   5.503   1.840   7.001
 5760SOL     OW18178   0.286   4.180   0.387
 5760SOL    HW118179   0.190   4.181   0.363
 5760SOL    HW218180   0.335   4.251   0.337
 5761SOL     OW18181   5.780   5.675   6.185
 5761SOL    HW118182   5.707   5.609   6.205
 5761SOL    HW218183   5.749   5.737   6.113
 5762SOL     OW18184   4.660   5.303   0.820
 5762SOL    HW118185   4.637   5.280   0.726
 5762SOL    HW218186   4.645   5.400   0.836
 5763SOL     OW18187   0.384   6.995   0.173
 5763SOL    HW118188   0.417   6.983   0.079
 5763SOL    HW218189   0.375   6.906   0.217
 5764SOL     OW18190   5.338   5.441   5.195
 5764SOL    HW118191   5.398   5.505   5.147
 5764SOL    HW218192   5.380   5.350   5.197
 5765SOL     OW18193   6.277   2.948   0.423
 5765SOL    HW118194   6.223   3.010   0.365
 5765SOL    HW218195   6.365   2.991   0.444
 5766SOL     OW18196   2.000   2.349   6.626
 5766SOL    HW118197   1.997   2.429   6.686
 5766SOL    HW218198   1.938   2.362   6.549
 5767SOL     OW18199   1.612   1.593   0.327
 5767SOL    HW118200   1.611   1.690   0.351
 5767SOL    HW218201   1.683   1.546   0.379
 5768SOL     OW18202   0.939   6.300   3.285
 5768SOL    HW118203   0.979   6.288   3.194
 5768SOL    HW218204   0.996   6.254   3.353
 5769SOL     OW18205   2.325   5.709   4.319
 5769SOL    HW118206   2.339   5.805   4.344
 5769SOL    HW218207   2.338   5.652   4.400
 5770SOL     OW18208   6.103   6.691   0.538
 5770SOL    HW118209   6.149   6.643   0.613
 5770SOL    HW218210   6.046   6.764   0.576
 5771SOL     OW18211   1.303   0.198   3.465
 5771SOL    HW118212   1.338   0.218   3.557
 5771SOL    HW218213   1.363   0.131   3.420
 5772SOL     OW18214   5.865   1.937   0.953
 5772SOL    HW118215   5.859   1.998   1.032
 5772SOL    HW218216   5.777   1.891   0.940
 5773SOL     OW18217   4.669   0.999   3.643
 5773SOL    HW118218   4.658   1.089   3.684
 5773SOL    HW218219   4.765   0.986   3.617
 5774SOL     OW18220   3.049   5.727   3.637
 5774SOL    HW118221   2.960   5.718   3.594
 5774SOL    HW218222   3.104   5.645   3.620
 5775SOL     OW18223   1.245   1.357   2.082
 5775SOL    HW118224   1.271   1.261   2.072
 5775SOL    HW218225   1.199   1.389   1.999
 5776SOL     OW18226   0.202   0.460   5.273
 5776SOL    HW118227   0.193   0.560   5.268
 5776SOL    HW218228   0.179   0.420   5.184
 5777SOL     OW18229   6.318   6.939   4.994
 5777SOL    HW118230   6.362   6.937   5.084
 5777SOL    HW218231   6.251   7.013   4.991
 5778SOL     OW18232   1.430   0.706   1.650
 5778SOL    HW118233   1.383   0.698   1.738
 5778SOL    HW218234   1.379   0.766   1.590
 5779SOL     OW18235   5.021   2.018   0.296
 5779SOL    HW118236   5.009   1.936   0.351
 5779SOL    HW218237   5.115   2.052   0.306
 5780SOL     OW18238   6.212   5.335   3.120
 5780SOL    HW118239   6.299   5.346   3.169
 5780SOL    HW218240   6.229   5.301   3.028
 5781SOL     OW18241   0.065   4.388   4.584
 5781SOL    HW118242   0.099   4.481   4.594
 5781SOL    HW218243   0.008   4.364   4.663
 5782SOL     OW18244   0.752   0.997   0.610
 5782SOL    HW118245   0.813   1.045   0.546
 5782SOL    HW218246   0.704   0.924   0.562
 5783SOL     OW18247   1.823   0.819   1.595
 5783SOL    HW118248   1.857   0.866   1.676
 5783SOL    HW218249   1.890   0.828   1.521
 5784SOL     OW18250   6.899   6.132   0.064
 5784SOL    HW118251   6.885   6.122   6.988
 5784SOL    HW218252   6.920   6.043   0.103
 5785SOL     OW18253   1.854   1.882   0.622
 5785SOL    HW118254   1.861   1.982   0.621
 5785SOL    HW218255   1.889   1.845   0.536
 5786SOL     OW18256   0.686   4.459   1.384
 5786SOL    HW118257   0.609   4.397   1.400
 5786SOL    HW218258   0.652   4.553   1.380
 5787SOL     OW18259   4.057   2.084   5.565
 5787SOL    HW118260   4.086   2.179   5.550
 5787SOL    HW218261   4.035   2.042   5.477
 5788SOL     OW18262   3.016   1.052   1.318
 5788SOL    HW118263   2.995   1.069   1.222
 5788SOL    HW218264   3.051   1.136   1.360
 5789SOL     OW18265   2.885   4.258   0.422
 5789SOL    HW118266   2.867   4.308   0.338
 5789SOL    HW218267   2.807   4.197   0.442
 5790SOL     OW18268   0.335   4.898   4.743
 5790SOL    HW118269   0.406   4.873   4.810
 5790SOL    HW218270   0.378   4.918   4.655
 5791SOL     OW18271   3.005   1.508   2.398
 5791SOL    HW118272   3.067   1.506   2.320
 5791SOL    HW218273   3.000   1.602   2.433
 5792SOL     OW18274   5.372   2.735   2.307
 5792SOL    HW118275   5.369   2.829   2.273
 5792SOL    HW218276   5.412   2.735   2.399
 5793SOL     OW18277   6.154   0.715   4.249
 5793SOL    HW118278   6.166   0.621   4.215
 5793SOL    HW218279   6.241   0.764   4.241
 5794SOL     OW18280   2.529   0.758   6.299
 5794SOL    HW118281   2.567   0.800   6.216
 5794SOL    HW218282   2.430   0.747   6.289
 5795SOL     OW18283   0.311   6.497   0.426
 5795SOL    HW118284   0.319   6.597   0.421
 5795SOL    HW218285   0.399   6.456   0.401
 5796SOL     OW18286   4.766   0.936   6.636
 5796SOL    HW118287   4.775   0.838   6.616
 5796SOL    HW218288   4.689   0.973   6.583
 5797SOL     OW18289   4.945   2.192   0.094
 5797SOL    HW118290   4.991   2.148   0.170
 5797SOL    HW218291   4.969   2.290   0.093
 5798SOL     OW18292   6.929   5.325   4.113
 5798SOL    HW118293   6.887   5.267   4.183
 5798SOL    HW218294   6.894   5.299   4.023
 5799SOL     OW18295   0.091   0.561   4.336
 5799SOL    HW118296   0.033   0.486   4.367
 5799SOL    HW218297   0.062   0.591   4.245
 5800SOL     OW18298   0.055   6.653   1.943
 5800SOL    HW118299   0.134   6.600   1.915
 5800SOL    HW218300   0.073   6.751   1.928
 5801SOL     OW18301   1.647   2.210   3.662
 5801SOL    HW118302   1.616   2.115   3.668
 5801SOL    HW218303   1.575   2.266   3.620
 5802SOL     OW18304   6.762   3.030   2.941
 5802SOL    HW118305   6.694   2.957   2.936
 5802SOL    HW218306   6.721   3.110   2.986
 5803SOL     OW18307   2.217   5.879   2.808
 5803SOL    HW118308   2.264   5.877   2.719
 5803SOL    HW218309   2.152   5.955   2.809
 5804SOL     OW18310   0.431   4.918   3.008
 5804SOL    HW118311   0.493   4.965   3.070
 5804SOL    HW218312   0.456   4.821   3.003
 5805SOL     OW18313   1.770   2.811   0.737
 5805SOL    HW118314   1.748   2.808   0.834
 5805SOL    HW218315   1.856   2.763   0.721
 5806SOL     OW18316   6.616   5.882   4.295
 5806SOL    HW118317   6.577   5.802   4.249
 5806SOL    HW218318   6.715   5.882   4.282
 5807SOL     OW18319   0.953   4.723   0.411
 5807SOL    HW118320   0.981   4.627   0.414
 5807SOL    HW218321   1.026   4.780   0.448
 5808SOL     OW18322   6.881   5.801   4.274
 5808SOL    HW118323   6.933   5.886   4.279
 5808SOL    HW218324   6.907   5.751   4.192
 5809SOL     OW18325   6.348   1.301   5.279
 5809SOL    HW118326   6.423   1.362   5.306
 5809SOL    HW218327   6.272   1.356   5.243
 5810SOL     OW18328   5.006   1.078   5.996
 5810SOL    HW118329   4.917   1.056   6.036
 5810SOL    HW218330   4.994   1.114   5.904
 5811SOL     OW18331   3.577   0.850   4.943
 5811SOL    HW118332   3.520   0.931   4.957
 5811SOL    HW218333   3.565   0.787   5.020
 5812SOL     OW18334   5.275   3.290   5.810
 5812SOL    HW118335   5.210   3.334   5.749
 5812SOL    HW218336   5.231   3.268   5.897
 5813SOL     OW18337   2.047   1.262   0.613
 5813SOL    HW118338   2.050   1.243   0.711
 5813SOL    HW218339   2.138   1.250   0.574
 5814SOL     OW18340   6.650   3.376   2.271
 5814SOL    HW118341   6.689   3.432   2.344
 5814SOL    HW218342   6.566   3.419   2.237
 5815SOL     OW18343   3.959   1.878   3.655
 5815SOL    HW118344   3.868   1.849   3.625
 5815SOL    HW218345   3.978   1.970   3.621
 5816SOL     OW18346   4.782   4.527   0.474
 5816SOL    HW118347   4.759   4.575   0.390
 5816SOL    HW218348   4.851   4.579   0.524
 5817SOL     OW18349   6.344   4.711   5.616
 5817SOL    HW118350   6.255   4.669   5.598
 5817SOL    HW218351   6.341   4.808   5.593
 5818SOL     OW18352   6.580   5.143   5.635
 5818SOL    HW118353   6.663   5.131   5.581
 5818SOL    HW218354   6.600   5.124   5.732
 5819SOL     OW18355   3.950   0.125   6.763
 5819SOL    HW118356   4.046   0.101   6.749
 5819SOL    HW218357   3.916   0.079   6.845
 5820SOL     OW18358   4.272   4.690   3.498
 5820SOL    HW118359   4.305   4.598   3.482
 5820SOL    HW218360   4.230   4.726   3.415
 5821SOL     OW18361   0.012   0.777   1.794
 5821SOL    HW118362   0.080   0.729   1.849
 5821SOL    HW218363   0.048   0.793   1.702
 5822SOL     OW18364   1.671   2.418   1.627
 5822SOL    HW118365   1.719   2.425   1.714
 5822SOL    HW218366   1.574   2.440   1.641
 5823SOL     OW18367   2.790   0.650   4.513
 5823SOL    HW118368   2.742   0.692   4.436
 5823SOL    HW218369   2.851   0.718   4.555
 5824SOL     OW18370   0.060   6.151   2.831
 5824SOL    HW118371   0.048   6.224   2.763
 5824SOL    HW218372   6.993   6.120   2.862
 5825SOL     OW18373   0.075   6.859   4.454
 5825SOL    HW118374   0.088   6.900   4.544
 5825SOL    HW218375   0.142   6.787   4.440
 5826SOL     OW18376   0.035   5.285   6.413
 5826SOL    HW118377   0.040   5.219   6.488
 5826SOL    HW218378   7.003   5.364   6.441
 5827SOL     OW18379   1.902   3.594   5.126
 5827SOL    HW118380   1.946   3.668   5.076
 5827SOL    HW218381   1.972   3.539   5.172
 5828SOL     OW18382   5.279   1.893   2.221
 5828SOL    HW118383   5.292   1.807   2.271
 5828SOL    HW218384   5.341   1.896   2.143
 5829SOL     OW18385   1.928   0.157   4.465
 5829SOL    HW118386   1.877   0.114   4.540
 5829SOL    HW218387   1.892   0.125   4.377
 5830SOL     OW18388   5.571   6.949   5.921
 5830SOL    HW118389   5.513   6.985   5.848
 5830SOL    HW218390   5.594   6.854   5.902
 5831SOL     OW18391   0.987   0.889   5.801
 5831SOL    HW118392   1.030   0.977   5.819
 5831SOL    HW218393   0.889   0.895   5.816
 5832SOL     OW18394   3.096   4.970   6.834
 5832SOL    HW118395   3.132   4.965   6.927
 5832SOL    HW218396   3.152   4.913   6.773
 5833SOL     OW18397   4.268   3.760   5.278
 5833SOL    HW118398   4.233   3.677   5.234
 5833SOL    HW218399   4.193   3.810   5.321
 5834SOL     OW18400   0.150   3.338   0.115
 5834SOL    HW118401   0.110   3.246   0.121
 5834SOL    HW218402   0.195   3.361   0.202
 5835SOL     OW18403   5.595   2.548   3.063
 5835SOL    HW118404   5.499   2.545   3.088
 5835SOL    HW218405   5.642   2.615   3.120
 5836SOL     OW18406   3.304   0.123   1.658
 5836SOL    HW118407   3.253   0.183   1.721
 5836SOL    HW218408   3.307   0.031   1.697
 5837SOL     OW18409   3.489   3.789   6.993
 5837SOL    HW118410   3.405   3.833   6.961
 5837SOL    HW218411   3.472   3.692   7.010
 5838SOL     OW18412   2.787   2.058   1.151
 5838SOL    HW118413   2.830   2.078   1.063
 5838SOL    HW218414   2.843   2.097   1.224
 5839SOL     OW18415   0.662   2.380   1.920
 5839SOL    HW118416   0.722   2.387   2.000
 5839SOL    HW218417   0.657   2.469   1.874
 5840SOL     OW18418   1.583   4.740   6.265
 5840SOL    HW118419   1.601   4.783   6.176
 5840SOL    HW218420   1.559   4.644   6.251
 5841SOL     OW18421   4.818   1.089   2.510
 5841SOL    HW118422   4.787   1.124   2.598
 5841SOL    HW218423   4.768   1.135   2.437
 5842SOL     OW18424   4.500   2.970   1.580
 5842SOL    HW118425   4.508   3.001   1.675
 5842SOL    HW218426   4.407   2.983   1.547
 5843SOL     OW18427   1.369   4.395   2.422
 5843SOL    HW118428   1.379   4.462   2.349
 5843SOL    HW218429   1.288   4.416   2.477
 5844SOL     OW18430   1.500   6.115   5.124
 5844SOL    HW118431   1.568   6.181   5.094
 5844SOL    HW218432   1.539   6.056   5.195
 5845SOL     OW18433   0.720   0.419   2.300
 5845SOL    HW118434   0.650   0.481   2.264
 5845SOL    HW218435   0.796   0.473   2.337
 5846SOL     OW18436   6.180   3.620   6.378
 5846SOL    HW118437   6.226   3.659   6.458
 5846SOL    HW218438   6.085   3.649   6.377
 5847SOL     OW18439   2.684   2.353   2.325
 5847SOL    HW118440   2.767   2.354   2.268
 5847SOL    HW218441   2.634   2.268   2.309
 5848SOL     OW18442   1.370   5.638   3.248
 5848SOL    HW118443   1.441   5.572   3.272
 5848SOL    HW218444   1.400   5.692   3.170
 5849SOL     OW18445   1.913   0.180   5.396
 5849SOL    HW118446   1.848   0.144   5.329
 5849SOL    HW218447   2.006   0.161   5.365
 5850SOL     OW18448   6.726   3.473   1.664
 5850SOL    HW118449   6.691   3.397   1.718
 5850SOL    HW218450   6.825   3.463   1.653
 5851SOL     OW18451   5.391   2.935   3.103
 5851SOL    HW118452   5.364   2.875   3.028
 5851SOL    HW218453   5.360   2.896   3.190
 5852SOL     OW18454   5.741   6.085   3.158
 5852SOL    HW118455   5.725   6.010   3.093
 5852SOL    HW218456   5.675   6.080   3.232
 5853SOL     OW18457   3.846   5.307   5.086
 5853SOL    HW118458   3.825   5.388   5.031
 5853SOL    HW218459   3.765   5.280   5.139
 5854SOL     OW18460   4.345   4.813   6.011
 5854SOL    HW118461   4.336   4.806   5.911
 5854SOL    HW218462   4.441   4.828   6.035
 5855SOL     OW18463   1.643   0.869   4.658
 5855SOL    HW118464   1.726   0.916   4.627
 5855SOL    HW218465   1.650   0.772   4.639
 5856SOL     OW18466   2.010   5.723   3.489
 5856SOL    HW118467   2.085   5.743   3.426
 5856SOL    HW218468   2.016   5.628   3.519
 5857SOL     OW18469   6.336   2.515   5.943
 5857SOL    HW118470   6.243   2.542   5.971
 5857SOL    HW218471   6.330   2.444   5.872
 5858SOL     OW18472   2.753   2.348   2.597
 5858SOL    HW118473   2.742   2.381   2.503
 5858SOL    HW218474   2.671   2.372   2.650
 5859SOL     OW18475   6.264   6.305   1.921
 5859SOL    HW118476   6.269   6.295   2.021
 5859SOL    HW218477   6.353   6.332   1.885
 5860SOL     OW18478   0.047   4.339   3.337
 5860SOL    HW118479   0.084   4.253   3.302
 5860SOL    HW218480   6.978   4.354   3.300
 5861SOL     OW18481   5.453   1.640   4.002
 5861SOL    HW118482   5.442   1.705   3.927
 5861SOL    HW218483   5.502   1.684   4.077
 5862SOL     OW18484   5.977   5.682   0.875
 5862SOL    HW118485   6.041   5.711   0.947
 5862SOL    HW218486   6.027   5.632   0.805
 5863SOL     OW18487   2.939   2.105   5.166
 5863SOL    HW118488   2.997   2.168   5.113
 5863SOL    HW218489   2.966   2.108   5.262
 5864SOL     OW18490   3.289   4.016   3.002
 5864SOL    HW118491   3.306   3.918   3.007
 5864SOL    HW218492   3.274   4.051   3.095
 5865SOL     OW18493   6.158   6.936   5.881
 5865SOL    HW118494   6.080   6.883   5.913
 5865SOL    HW218495   6.205   6.887   5.808
 5866SOL     OW18496   3.422   4.341   0.448
 5866SOL    HW118497   3.495   4.339   0.380
 5866SOL    HW218498   3.459   4.313   0.537
 5867SOL     OW18499   2.438   3.352   1.106
 5867SOL    HW118500   2.411   3.446   1.087
 5867SOL    HW218501   2.372   3.289   1.063
 5868SOL     OW18502   1.710   1.796   5.070
 5868SOL    HW118503   1.737   1.836   4.982
 5868SOL    HW218504   1.745   1.703   5.076
 5869SOL     OW18505   2.201   6.720   3.368
 5869SOL    HW118506   2.247   6.803   3.337
 5869SOL    HW218507   2.267   6.661   3.415
 5870SOL     OW18508   4.578   6.829   5.030
 5870SOL    HW118509   4.521   6.769   4.975
 5870SOL    HW218510   4.567   6.924   4.998
 5871SOL     OW18511   3.240   3.255   1.532
 5871SOL    HW118512   3.268   3.160   1.516
 5871SOL    HW218513   3.173   3.281   1.462
 5872SOL     OW18514   4.649   6.719   1.029
 5872SOL    HW118515   4.725   6.668   0.988
 5872SOL    HW218516   4.686   6.792   1.087
 5873SOL     OW18517   3.655   1.003   2.110
 5873SOL    HW118518   3.640   1.098   2.081
 5873SOL    HW218519   3.662   0.999   2.210
 5874SOL     OW18520   2.682   4.667   5.962
 5874SOL    HW118521   2.766   4.630   5.923
 5874SOL    HW218522   2.649   4.743   5.906
 5875SOL     OW18523   4.136   1.529   0.265
 5875SOL    HW118524   4.091   1.587   0.332
 5875SOL    HW218525   4.075   1.514   0.187
 5876SOL     OW18526   3.825   3.240   1.186
 5876SOL    HW118527   3.914   3.215   1.147
 5876SOL    HW218528   3.764   3.271   1.113
 5877SOL     OW18529   0.704   0.121   1.451
 5877SOL    HW118530   0.692   0.058   1.374
 5877SOL    HW218531   0.664   0.081   1.533
 5878SOL     OW18532   6.541   5.621   4.191
 5878SOL    HW118533   6.535   5.579   4.101
 5878SOL    HW218534   6.610   5.573   4.245
 5879SOL     OW18535   1.455   4.016   6.713
 5879SOL    HW118536   1.539   4.069   6.710
 5879SOL    HW218537   1.391   4.051   6.644
 5880SOL     OW18538   4.449   4.497   6.355
 5880SOL    HW118539   4.468   4.469   6.261
 5880SOL    HW218540   4.520   4.559   6.386
 5881SOL     OW18541   1.017   6.863   2.689
 5881SOL    HW118542   0.969   6.788   2.733
 5881SOL    HW218543   1.104   6.879   2.736
 5882SOL     OW18544   0.175   5.329   0.874
 5882SOL    HW118545   0.154   5.308   0.969
 5882SOL    HW218546   0.234   5.409   0.870
 5883SOL     OW18547   0.820   1.404   6.267
 5883SOL    HW118548   0.753   1.340   6.228
 5883SOL    HW218549   0.774   1.465   6.332
 5884SOL     OW18550   3.599   1.367   4.688
 5884SOL    HW118551   3.650   1.299   4.740
 5884SOL    HW218552   3.658   1.405   4.617
 5885SOL     OW18553   0.589   0.060   2.820
 5885SOL    HW118554   0.549   7.009   2.765
 5885SOL    HW218555   0.544   0.063   2.909
 5886SOL     OW18556   0.496   2.076   4.585
 5886SOL    HW118557   0.508   2.175   4.586
 5886SOL    HW218558   0.399   2.053   4.593
 5887SOL     OW18559   2.547   2.126   2.268
 5887SOL    HW118560   2.570   2.053   2.203
 5887SOL    HW218561   2.473   2.094   2.328
 5888SOL     OW18562   2.987   0.784   1.578
 5888SOL    HW118563   3.036   0.783   1.491
 5888SOL    HW218564   3.053   0.776   1.653
 5889SOL     OW18565   0.837   0.009   0.898
 5889SOL    HW118566   0.803   0.095   0.934
 5889SOL    HW218567   0.865   6.972   0.974
 5890SOL     OW18568   1.837   1.005   3.353
 5890SOL    HW118569   1.846   0.919   3.303
 5890SOL    HW218570   1.913   1.015   3.417
 5891SOL     OW18571   3.382   3.131   6.776
 5891SOL    HW118572   3.332   3.213   6.748
 5891SOL    HW218573   3.357   3.054   6.717
 5892SOL     OW18574   0.863   5.530   1.632
 5892SOL    HW118575   0.936   5.525   1.564
 5892SOL    HW218576   0.794   5.596   1.601
 5893SOL     OW18577   2.334   4.409   3.969
 5893SOL    HW118578   2.272   4.331   3.966
 5893SOL    HW218579   2.377   4.421   3.879
 5894SOL     OW18580   6.446   5.240   3.982
 5894SOL    HW118581   6.389   5.303   3.930
 5894SOL    HW218582   6.537   5.234   3.940
 5895SOL     OW18583   5.585   3.894   4.233
 5895SOL    HW118584   5.515   3.933   4.172
 5895SOL    HW218585   5.556   3.804   4.264
 5896SOL     OW18586   3.447   0.820   0.222
 5896SOL    HW118587   3.379   0.804   0.294
 5896SOL    HW218588   3.404   0.810   0.133
 5897SOL     OW18589   4.215   0.692   1.547
 5897SOL    HW118590   4.274   0.624   1.504
 5897SOL    HW218591   4.187   0.760   1.479
 5898SOL     OW18592   2.237   6.827   3.630
 5898SOL    HW118593   2.169   6.755   3.618
 5898SOL    HW218594   2.328   6.790   3.617
 5899SOL     OW18595   5.804   5.764   6.881
 5899SOL    HW118596   5.876   5.732   6.820
 5899SOL    HW218597   5.754   5.686   6.918
 5900SOL     OW18598   6.146   5.281   3.746
 5900SOL    HW118599   6.107   5.287   3.654
 5900SOL    HW218600   6.199   5.364   3.764
 5901SOL     OW18601   2.319   0.703   0.229
 5901SOL    HW118602   2.267   0.727   0.148
 5901SOL    HW218603   2.289   0.760   0.306
 5902SOL     OW18604   6.380   2.042   5.433
 5902SOL    HW118605   6.457   2.107   5.428
 5902SOL    HW218606   6.299   2.086   5.395
 5903SOL     OW18607   4.781   4.906   0.028
 5903SOL    HW118608   4.853   4.953   6.999
 5903SOL    HW218609   4.733   4.842   6.991
 5904SOL     OW18610   1.200   4.262   1.766
 5904SOL    HW118611   1.135   4.192   1.737
 5904SOL    HW218612   1.167   4.352   1.738
 5905SOL     OW18613   6.181   6.503   3.454
 5905SOL    HW118614   6.280   6.488   3.464
 5905SOL    HW218615   6.151   6.468   3.366
 5906SOL     OW18616   3.626   2.017   4.115
 5906SOL    HW118617   3.710   1.975   4.080
 5906SOL    HW218618   3.648   2.072   4.196
 5907SOL     OW18619   1.645   4.903   0.994
 5907SOL    HW118620   1.584   4.896   1.073
 5907SOL    HW218621   1.693   4.816   0.981
 5908SOL     OW18622   0.263   3.059   6.989
 5908SOL    HW118623   0.173   3.048   6.947
 5908SOL    HW218624   0.309   3.138   6.949
 5909SOL     OW18625   6.605   5.267   0.747
 5909SOL    HW118626   6.622   5.263   0.845
 5909SOL    HW218627   6.552   5.187   0.719
 5910SOL     OW18628   0.297   4.063   3.914
 5910SOL    HW118629   0.199   4.043   3.913
 5910SOL    HW218630   0.343   4.001   3.850
 5911SOL     OW18631   6.974   5.786   6.795
 5911SOL    HW118632   7.007   5.749   6.708
 5911SOL    HW218633   6.874   5.775   6.800
 5912SOL     OW18634   6.101   1.495   6.330
 5912SOL    HW118635   6.021   1.441   6.302
 5912SOL    HW218636   6.182   1.462   6.282
 5913SOL     OW18637   5.171   3.054   6.577
 5913SOL    HW118638   5.168   3.148   6.612
 5913SOL    HW218639   5.230   2.999   6.636
 5914SOL     OW18640   1.311   4.604   5.782
 5914SOL    HW118641   1.307   4.676   5.713
 5914SOL    HW218642   1.244   4.533   5.762
 5915SOL     OW18643   4.728   5.792   1.136
 5915SOL    HW118644   4.733   5.842   1.049
 5915SOL    HW218645   4.751   5.696   1.121
 5916SOL     OW18646   4.889   6.950   4.020
 5916SOL    HW118647   4.914   6.909   3.932
 5916SOL    HW218648   4.936   0.015   4.030
 5917SOL     OW18649   2.988   3.724   4.015
 5917SOL    HW118650   2.964   3.633   3.982
 5917SOL    HW218651   2.968   3.730   4.113
 5918SOL     OW18652   1.909   3.562   6.290
 5918SOL    HW118653   1.861   3.641   6.252
 5918SOL    HW218654   1.860   3.530   6.371
 5919SOL     OW18655   3.592   3.192   2.926
 5919SOL    HW118656   3.607   3.260   2.854
 5919SOL    HW218657   3.517   3.222   2.985
 5920SOL     OW18658   4.550   0.534   6.997
 5920SOL    HW118659   4.582   0.593   6.923
 5920SOL    HW218660   4.473   0.578   0.020
 5921SOL     OW18661   3.650   5.592   6.772
 5921SOL    HW118662   3.578   5.552   6.829
 5921SOL    HW218663   3.670   5.531   6.695
 5922SOL     OW18664   5.430   5.099   2.900
 5922SOL    HW118665   5.449   5.196   2.914
 5922SOL    HW218666   5.346   5.075   2.950
 5923SOL     OW18667   6.308   1.384   1.123
 5923SOL    HW118668   6.393   1.362   1.173
 5923SOL    HW218669   6.259   1.300   1.102
 5924SOL     OW18670   6.134   0.533   2.870
 5924SOL    HW118671   6.221   0.556   2.827
 5924SOL    HW218672   6.122   0.586   2.953
 5925SOL     OW18673   4.097   0.047   2.438
 5925SOL    HW118674   4.055   0.020   2.351
 5925SOL    HW218675   4.160   0.124   2.422
 5926SOL     OW18676   4.004   5.472   1.014
 5926SOL    HW118677   3.949   5.388   1.015
 5926SOL    HW218678   3.977   5.528   0.936
 5927SOL     OW18679   1.367   3.510   2.245
 5927SOL    HW118680   1.406   3.601   2.258
 5927SOL    HW218681   1.327   3.478   2.331
 5928SOL     OW18682   4.272   0.372   0.781
 5928SOL    HW118683   4.214   0.371   0.862
 5928SOL    HW218684   4.342   0.443   0.790
 5929SOL     OW18685   6.906   6.774   6.656
 5929SOL    HW118686   6.813   6.792   6.686
 5929SOL    HW218687   6.906   6.747   6.560
 5930SOL     OW18688   6.986   3.407   3.225
 5930SOL    HW118689   6.966   3.332   3.289
 5930SOL    HW218690   0.061   3.405   3.201
 5931SOL     OW18691   0.181   5.548   2.499
 5931SOL    HW118692   0.206   5.470   2.556
 5931SOL    HW218693   0.148   5.515   2.410
 5932SOL     OW18694   3.413   0.278   0.596
 5932SOL    HW118695   3.477   0.228   0.537
 5932SOL    HW218696   3.336   0.310   0.541
 5933SOL     OW18697   6.768   6.005   2.662
 5933SOL    HW118698   6.852   5.995   2.609
 5933SOL    HW218699   6.789   6.046   2.751
 5934SOL     OW18700   3.603   2.826   4.784
 5934SOL    HW118701   3.619   2.859   4.691
 5934SOL    HW218702   3.691   2.815   4.831
 5935SOL     OW18703   5.193   5.224   6.292
 5935SOL    HW118704   5.172   5.143   6.237
 5935SOL    HW218705   5.163   5.209   6.386
 5936SOL     OW18706   3.591   2.673   1.449
 5936SOL    HW118707   3.653   2.669   1.371
 5936SOL    HW218708   3.639   2.645   1.532
 5937SOL     OW18709   6.789   4.205   2.608
 5937SOL    HW118710   6.702   4.173   2.645
 5937SOL    HW218711   6.773   4.254   2.522
 5938SOL     OW18712   0.138   5.638   2.866
 5938SOL    HW118713   0.097   5.710   2.923
 5938SOL    HW218714   0.120   5.657   2.770
 5939SOL     OW18715   2.639   6.824   3.086
 5939SOL    HW118716   2.736   6.803   3.099
 5939SOL    HW218717   2.591   6.741   3.057
 5940SOL     OW18718   4.761   5.396   1.340
 5940SOL    HW118719   4.685   5.424   1.398
 5940SOL    HW218720   4.830   5.468   1.338
 5941SOL     OW18721   5.963   3.041   2.427
 5941SOL    HW118722   5.962   3.122   2.369
 5941SOL    HW218723   5.896   3.051   2.501
 5942SOL     OW18724   4.947   3.902   0.214
 5942SOL    HW118725   4.850   3.900   0.187
 5942SOL    HW218726   4.995   3.825   0.170
 5943SOL     OW18727   3.235   4.593   6.090
 5943SOL    HW118728   3.206   4.645   6.170
 5943SOL    HW218729   3.289   4.514   6.119
 5944SOL     OW18730   6.644   2.758   0.800
 5944SOL    HW118731   6.732   2.725   0.835
 5944SOL    HW218732   6.572   2.733   0.864
 5945SOL     OW18733   6.416   5.317   4.546
 5945SOL    HW118734   6.386   5.407   4.514
 5945SOL    HW218735   6.381   5.300   4.638
 5946SOL     OW18736   3.990   3.236   6.313
 5946SOL    HW118737   3.962   3.324   6.353
 5946SOL    HW218738   3.948   3.161   6.365
 5947SOL     OW18739   2.850   3.492   2.407
 5947SOL    HW118740   2.899   3.413   2.369
 5947SOL    HW218741   2.753   3.482   2.388
 5948SOL     OW18742   4.054   5.020   3.631
 5948SOL    HW118743   4.088   5.027   3.537
 5948SOL    HW218744   3.956   4.998   3.629
 5949SOL     OW18745   5.208   3.444   1.917
 5949SOL    HW118746   5.273   3.427   1.842
 5949SOL    HW218747   5.116   3.420   1.888
 5950SOL     OW18748   4.632   1.363   5.593
 5950SOL    HW118749   4.688   1.288   5.557
 5950SOL    HW218750   4.547   1.370   5.541
 5951SOL     OW18751   1.701   5.886   3.971
 5951SOL    HW118752   1.645   5.928   3.899
 5951SOL    HW218753   1.796   5.916   3.961
 5952SOL     OW18754   5.538   4.760   3.511
 5952SOL    HW118755   5.492   4.849   3.518
 5952SOL    HW218756   5.600   4.760   3.433
 5953SOL     OW18757   6.964   3.035   6.064
 5953SOL    HW118758   6.964   3.072   5.971
 5953SOL    HW218759   6.880   3.062   6.111
 5954SOL     OW18760   6.739   4.553   5.442
 5954SOL    HW118761   6.783   4.631   5.487
 5954SOL    HW218762   6.802   4.513   5.376
 5955SOL     OW18763   4.393   5.608   2.627
 5955SOL    HW118764   4.315   5.554   2.658
 5955SOL    HW218765   4.394   5.696   2.673
 5956SOL     OW18766   4.344   1.859   4.839
 5956SOL    HW118767   4.389   1.942   4.870
 5956SOL    HW218768   4.262   1.884   4.786
 5957SOL     OW18769   4.178   0.741   5.581
 5957SOL    HW118770   4.245   0.780   5.644
 5957SOL    HW218771   4.204   0.647   5.559
 5958SOL     OW18772   5.334   6.594   2.898
 5958SOL    HW118773   5.248   6.574   2.851
 5958SOL    HW218774   5.408   6.604   2.831
 5959SOL     OW18775   4.173   2.749   5.332
 5959SOL    HW118776   4.268   2.781   5.329
 5959SOL    HW218777   4.164   2.667   5.276
 5960SOL     OW18778   3.960   5.661   4.772
 5960SOL    HW118779   3.962   5.565   4.743
 5960SOL    HW218780   4.052   5.700   4.763
 5961SOL     OW18781   5.106   1.552   2.681
 5961SOL    HW118782   5.067   1.644   2.692
 5961SOL    HW218783   5.071   1.493   2.754
 5962SOL     OW18784   5.512   6.518   0.415
 5962SOL    HW118785   5.529   6.427   0.378
 5962SOL    HW218786   5.555   6.587   0.356
 5963SOL     OW18787   4.281   3.825   6.077
 5963SOL    HW118788   4.282   3.787   6.170
 5963SOL    HW218789   4.262   3.752   6.011
 5964SOL     OW18790   0.381   5.491   5.452
 5964SOL    HW118791   0.323   5.502   5.532
 5964SOL    HW218792   0.474   5.522   5.474
 5965SOL     OW18793   1.929   1.847   6.621
 5965SOL    HW118794   1.851   1.788   6.598
 5965SOL    HW218795   1.931   1.926   6.560
 5966SOL     OW18796   2.268   5.838   5.248
 5966SOL    HW118797   2.180   5.797   5.273
 5966SOL    HW218798   2.252   5.926   5.203
 5967SOL     OW18799   4.031   7.019   6.379
 5967SOL    HW118800   4.052   6.952   6.450
 5967SOL    HW218801   3.932   0.013   6.377
 5968SOL     OW18802   4.827   2.250   0.512
 5968SOL    HW118803   4.823   2.188   0.434
 5968SOL    HW218804   4.775   2.333   0.492
 5969SOL     OW18805   6.675   6.931   6.612
 5969SOL    HW118806   6.736   6.933   6.533
 5969SOL    HW218807   6.632   7.020   6.622
 5970SOL     OW18808   0.264   4.162   2.401
 5970SOL    HW118809   0.197   4.197   2.336
 5970SOL    HW218810   0.219   4.141   2.488
 5971SOL     OW18811   0.693   1.189   2.423
 5971SOL    HW118812   0.770   1.249   2.403
 5971SOL    HW218813   0.657   1.151   2.337
 5972SOL     OW18814   5.967   5.428   5.923
 5972SOL    HW118815   5.995   5.467   5.835
 5972SOL    HW218816   5.871   5.450   5.939
 5973SOL     OW18817   1.607   3.646   2.766
 5973SOL    HW118818   1.559   3.732   2.783
 5973SOL    HW218819   1.589   3.582   2.841
 5974SOL     OW18820   5.961   5.760   6.615
 5974SOL    HW118821   6.043   5.715   6.580
 5974SOL    HW218822   5.880   5.720   6.572
 5975SOL     OW18823   4.903   0.279   0.528
 5975SOL    HW118824   4.901   0.320   0.620
 5975SOL    HW218825   4.895   0.351   0.460
 5976SOL     OW18826   3.750   2.332   5.836
 5976SOL    HW118827   3.719   2.267   5.767
 5976SOL    HW218828   3.709   2.422   5.817
 5977SOL     OW18829   1.546   5.565   6.636
 5977SOL    HW118830   1.606   5.632   6.679
 5977SOL    HW218831   1.599   5.487   6.605
 5978SOL     OW18832   4.471   5.394   1.509
 5978SOL    HW118833   4.467   5.294   1.499
 5978SOL    HW218834   4.378   5.431   1.506
 5979SOL     OW18835   5.720   0.845   3.026
 5979SOL    HW118836   5.764   0.821   3.112
 5979SOL    HW218837   5.654   0.919   3.042
 5980SOL     OW18838   3.517   3.959   1.152
 5980SOL    HW118839   3.500   3.902   1.072
 5980SOL    HW218840   3.585   4.029   1.130
 5981SOL     OW18841   5.069   2.270   1.200
 5981SOL    HW118842   5.052   2.278   1.298
 5981SOL    HW218843   5.161   2.235   1.184
 5982SOL     OW18844   6.427   3.178   2.487
 5982SOL    HW118845   6.368   3.230   2.425
 5982SOL    HW218846   6.483   3.241   2.540
 5983SOL     OW18847   1.157   1.534   3.850
 5983SOL    HW118848   1.172   1.620   3.899
 5983SOL    HW218849   1.070   1.493   3.880
 5984SOL     OW18850   6.601   5.688   3.590
 5984SOL    HW118851   6.557   5.728   3.509
 5984SOL    HW218852   6.613   5.759   3.659
 5985SOL     OW18853   6.881   2.875   4.212
 5985SOL    HW118854   6.809   2.889   4.280
 5985SOL    HW218855   6.849   2.811   4.142
 5986SOL     OW18856   3.188   3.702   4.412
 5986SOL    HW118857   3.166   3.667   4.503
 5986SOL    HW218858   3.106   3.705   4.356
 5987SOL     OW18859   5.210   0.032   3.980
 5987SOL    HW118860   5.183   0.050   3.885
 5987SOL    HW218861   5.263   6.970   3.983
 5988SOL     OW18862   4.664   0.158   5.960
 5988SOL    HW118863   4.628   0.068   5.985
 5988SOL    HW218864   4.758   0.166   5.993
 5989SOL     OW18865   2.075   6.224   6.764
 5989SOL    HW118866   2.030   6.311   6.785
 5989SOL    HW218867   2.171   6.241   6.742
 5990SOL     OW18868   3.769   4.050   0.443
 5990SOL    HW118869   3.699   3.986   0.474
 5990SOL    HW218870   3.738   4.096   0.360
 5991SOL     OW18871   3.463   5.173   6.914
 5991SOL    HW118872   3.398   5.227   6.862
 5991SOL    HW218873   3.488   5.222   6.997
 5992SOL     OW18874   3.633   0.231   1.947
 5992SOL    HW118875   3.543   0.274   1.960
 5992SOL    HW218876   3.686   0.285   1.881
 5993SOL     OW18877   3.466   5.162   6.055
 5993SOL    HW118878   3.386   5.102   6.046
 5993SOL    HW218879   3.542   5.110   6.094
 5994SOL     OW18880   5.733   2.955   2.259
 5994SOL    HW118881   5.830   2.978   2.261
 5994SOL    HW218882   5.679   3.035   2.285
 5995SOL     OW18883   4.884   3.855   2.304
 5995SOL    HW118884   4.867   3.950   2.329
 5995SOL    HW218885   4.848   3.837   2.213
 5996SOL     OW18886   1.162   6.514   1.221
 5996SOL    HW118887   1.203   6.538   1.133
 5996SOL    HW218888   1.081   6.571   1.236
 5997SOL     OW18889   0.090   5.769   2.623
 5997SOL    HW118890   0.020   5.827   2.581
 5997SOL    HW218891   0.105   5.689   2.566
 5998SOL     OW18892   5.783   1.027   3.579
 5998SOL    HW118893   5.691   1.057   3.605
 5998SOL    HW218894   5.813   1.080   3.500
 5999SOL     OW18895   1.814   1.653   1.930
 5999SOL    HW118896   1.785   1.564   1.894
 5999SOL    HW218897   1.889   1.688   1.874
 6000SOL     OW18898   3.900   6.872   0.758
 6000SOL    HW118899   3.863   6.864   0.666
 6000SOL    HW218900   3.899   6.968   0.786
 6001SOL     OW18901   0.716   4.004   0.008
 6001SOL    HW118902   0.656   3.928   7.008
 6001SOL    HW218903   0.670   4.091   7.012
 6002SOL     OW18904   5.555   0.917   0.637
 6002SOL    HW118905   5.538   0.861   0.718
 6002SOL    HW218906   5.472   0.966   0.611
 6003SOL     OW18907   5.803   2.141   4.889
 6003SOL    HW118908   5.711   2.176   4.904
 6003SOL    HW218909   5.845   2.117   4.977
 6004SOL     OW18910   6.774   3.749   2.694
 6004SOL    HW118911   6.737   3.786   2.609
 6004SOL    HW218912   6.864   3.788   2.712
 6005SOL     OW18913   4.472   5.881   4.306
 6005SOL    HW118914   4.561   5.926   4.298
 6005SOL    HW218915   4.410   5.916   4.235
 6006SOL     OW18916   2.611   1.438   5.495
 6006SOL    HW118917   2.680   1.509   5.476
 6006SOL    HW218918   2.544   1.436   5.421
 6007SOL     OW18919   4.949   4.050   5.510
 6007SOL    HW118920   4.900   3.964   5.522
 6007SOL    HW218921   5.030   4.035   5.455
 6008SOL     OW18922   2.428   4.540   5.384
 6008SOL    HW118923   2.477   4.580   5.461
 6008SOL    HW218924   2.463   4.448   5.366
 6009SOL     OW18925   2.075   0.694   2.950
 6009SOL    HW118926   2.114   0.782   2.922
 6009SOL    HW218927   2.110   0.621   2.891
 6010SOL     OW18928   1.450   5.189   4.107
 6010SOL    HW118929   1.500   5.211   4.191
 6010SOL    HW218930   1.373   5.128   4.129
 6011SOL     OW18931   4.840   2.942   3.215
 6011SOL    HW118932   4.789   2.904   3.138
 6011SOL    HW218933   4.926   2.981   3.183
 6012SOL     OW18934   5.576   0.826   0.350
 6012SOL    HW118935   5.485   0.801   0.316
 6012SOL    HW218936   5.567   0.878   0.435
 6013SOL     OW18937   4.849   2.145   2.483
 6013SOL    HW118938   4.755   2.143   2.514
 6013SOL    HW218939   4.860   2.086   2.403
 6014SOL     OW18940   3.979   3.357   2.571
 6014SOL    HW118941   4.002   3.293   2.498
 6014SOL    HW218942   3.960   3.307   2.656
 6015SOL     OW18943   6.027   4.266   3.877
 6015SOL    HW118944   6.069   4.219   3.799
 6015SOL    HW218945   6.095   4.278   3.949
 6016SOL     OW18946   6.728   1.910   5.081
 6016SOL    HW118947   6.685   1.845   5.144
 6016SOL    HW218948   6.662   1.980   5.055
 6017SOL     OW18949   6.584   4.260   3.270
 6017SOL    HW118950   6.488   4.288   3.266
 6017SOL    HW218951   6.594   4.184   3.334
 6018SOL     OW18952   4.059   0.596   6.510
 6018SOL    HW118953   4.084   0.671   6.572
 6018SOL    HW218954   4.006   0.528   6.560
 6019SOL     OW18955   6.826   1.425   4.370
 6019SOL    HW118956   6.861   1.360   4.438
 6019SOL    HW218957   6.873   1.512   4.380
 6020SOL     OW18958   1.321   4.707   0.439
 6020SOL    HW118959   1.255   4.764   0.488
 6020SOL    HW218960   1.350   4.753   0.355
 6021SOL     OW18961   4.825   0.390   3.299
 6021SOL    HW118962   4.875   0.325   3.356
 6021SOL    HW218963   4.763   0.444   3.356
 6022SOL     OW18964   5.391   2.428   4.101
 6022SOL    HW118965   5.422   2.486   4.177
 6022SOL    HW218966   5.464   2.418   4.034
 6023SOL     OW18967   5.841   0.930   2.145
 6023SOL    HW118968   5.800   0.864   2.082
 6023SOL    HW218969   5.770   0.967   2.206
 6024SOL     OW18970   1.402   5.074   3.042
 6024SOL    HW118971   1.434   4.996   2.988
 6024SOL    HW218972   1.303   5.085   3.030
 6025SOL     OW18973   3.815   1.629   2.809
 6025SOL    HW118974   3.784   1.705   2.865
 6025SOL    HW218975   3.843   1.553   2.868
 6026SOL     OW18976   0.302   4.147   5.349
 6026SOL    HW118977   0.204   4.161   5.346
 6026SOL    HW218978   0.347   4.228   5.388
 6027SOL     OW18979   0.958   3.229   5.955
 6027SOL    HW118980   1.051   3.266   5.954
 6027SOL    HW218981   0.960   3.131   5.939
 6028SOL     OW18982   6.624   5.280   0.143
 6028SOL    HW118983   6.595   5.278   0.047
 6028SOL    HW218984   6.623   5.374   0.177
 6029SOL     OW18985   2.255   6.646   4.998
 6029SOL    HW118986   2.326   6.716   4.989
 6029SOL    HW218987   2.287   6.573   5.058
 6030SOL     OW18988   3.925   5.397   2.315
 6030SOL    HW118989   3.886   5.306   2.301
 6030SOL    HW218990   4.013   5.403   2.268
 6031SOL     OW18991   2.769   5.473   3.941
 6031SOL    HW118992   2.771   5.385   3.988
 6031SOL    HW218993   2.849   5.527   3.970
 6032SOL     OW18994   1.981   4.545   2.692
 6032SOL    HW118995   1.922   4.473   2.654
 6032SOL    HW218996   2.000   4.612   2.620
 6033SOL     OW18997   2.801   2.210   3.159
 6033SOL    HW118998   2.721   2.168   3.117
 6033SOL    HW218999   2.815   2.171   3.250
 6034SOL     OW19000   1.239   6.048   4.737
 6034SOL    HW119001   1.194   5.971   4.693
 6034SOL    HW219002   1.210   6.133   4.693
 6035SOL     OW19003   0.288   0.859   2.323
 6035SOL    HW119004   0.243   0.909   2.396
 6035SOL    HW219005   0.313   0.921   2.249
 6036SOL     OW19006   5.247   4.758   3.340
 6036SOL    HW119007   5.148   4.747   3.343
 6036SOL    HW219008   5.281   4.776   3.433
 6037SOL     OW19009   4.204   5.991   6.796
 6037SOL    HW119010   4.217   5.995   6.895
 6037SOL    HW219011   4.115   6.032   6.773
 6038SOL     OW19012   1.693   1.961   5.525
 6038SOL    HW119013   1.623   1.964   5.596
 6038SOL    HW219014   1.738   2.050   5.518
 6039SOL     OW19015   2.947   3.742   2.301
 6039SOL    HW119016   2.925   3.808   2.373
 6039SOL    HW219017   2.898   3.657   2.317
 6040SOL     OW19018   1.161   1.542   6.756
 6040SOL    HW119019   1.212   1.627   6.743
 6040SOL    HW219020   1.179   1.481   6.679
 6041SOL     OW19021   3.032   0.889   5.085
 6041SOL    HW119022   3.107   0.887   5.152
 6041SOL    HW219023   3.016   0.984   5.056
 6042SOL     OW19024   4.707   6.063   2.312
 6042SOL    HW119025   4.632   6.019   2.361
 6042SOL    HW219026   4.791   6.011   2.326
 6043SOL     OW19027   0.545   4.705   5.271
 6043SOL    HW119028   0.604   4.773   5.229
 6043SOL    HW219029   0.450   4.725   5.248
 6044SOL     OW19030   1.144   2.581   1.515
 6044SOL    HW119031   1.072   2.612   1.453
 6044SOL    HW219032   1.152   2.481   1.509
 6045SOL     OW19033   5.703   4.322   2.532
 6045SOL    HW119034   5.772   4.251   2.542
 6045SOL    HW219035   5.655   4.310   2.445
 6046SOL     OW19036   3.550   2.400   0.360
 6046SOL    HW119037   3.460   2.422   0.323
 6046SOL    HW219038   3.610   2.372   0.285
 6047SOL     OW19039   4.766   2.084   2.022
 6047SOL    HW119040   4.669   2.076   1.998
 6047SOL    HW219041   4.773   2.116   2.117
 6048SOL     OW19042   4.837   5.258   4.921
 6048SOL    HW119043   4.899   5.223   4.991
 6048SOL    HW219044   4.757   5.199   4.915
 6049SOL     OW19045   4.989   3.196   6.755
 6049SOL    HW119046   4.893   3.181   6.729
 6049SOL    HW219047   5.005   3.293   6.769
 6050SOL     OW19048   3.915   5.711   5.245
 6050SOL    HW119049   3.847   5.783   5.230
 6050SOL    HW219050   3.895   5.663   5.330
 6051SOL     OW19051   2.357   0.296   3.989
 6051SOL    HW119052   2.348   0.328   3.894
 6051SOL    HW219053   2.303   0.213   4.001
 6052SOL     OW19054   6.777   0.745   0.165
 6052SOL    HW119055   6.838   0.743   0.245
 6052SOL    HW219056   6.691   0.790   0.190
 6053SOL     OW19057   4.262   1.950   6.558
 6053SOL    HW119058   4.198   1.992   6.623
 6053SOL    HW219059   4.216   1.876   6.510
 6054SOL     OW19060   2.060   3.221   0.134
 6054SOL    HW119061   2.084   3.273   0.216
 6054SOL    HW219062   1.978   3.166   0.152
 6055SOL     OW19063   4.749   0.681   5.065
 6055SOL    HW119064   4.670   0.652   5.120
 6055SOL    HW219065   4.718   0.709   4.974
 6056SOL     OW19066   4.902   2.626   4.435
 6056SOL    HW119067   4.926   2.575   4.518
 6056SOL    HW219068   4.967   2.604   4.363
 6057SOL     OW19069   5.923   2.751   3.724
 6057SOL    HW119070   5.854   2.784   3.789
 6057SOL    HW219071   5.945   2.824   3.659
 6058SOL     OW19072   5.077   3.053   1.673
 6058SOL    HW119073   5.024   3.115   1.732
 6058SOL    HW219074   5.168   3.040   1.712
 6059SOL     OW19075   5.579   4.877   4.910
 6059SOL    HW119076   5.617   4.785   4.905
 6059SOL    HW219077   5.517   4.892   4.833
 6060SOL     OW19078   3.172   3.779   0.167
 6060SOL    HW119079   3.217   3.716   0.230
 6060SOL    HW219080   3.207   3.764   0.074
 6061SOL     OW19081   3.822   2.672   1.152
 6061SOL    HW119082   3.896   2.672   1.219
 6061SOL    HW219083   3.821   2.584   1.104
 6062SOL     OW19084   2.378   1.057   5.106
 6062SOL    HW119085   2.312   1.131   5.118
 6062SOL    HW219086   2.429   1.070   5.021
 6063SOL     OW19087   4.103   2.244   6.253
 6063SOL    HW119088   4.192   2.232   6.208
 6063SOL    HW219089   4.068   2.336   6.233
 6064SOL     OW19090   1.941   6.243   0.545
 6064SOL    HW119091   1.843   6.240   0.561
 6064SOL    HW219092   1.960   6.232   0.447
 6065SOL     OW19093   6.917   6.410   2.045
 6065SOL    HW119094   6.832   6.407   1.993
 6065SOL    HW219095   6.979   6.477   2.004
 6066SOL     OW19096   4.519   1.068   6.229
 6066SOL    HW119097   4.552   1.158   6.256
 6066SOL    HW219098   4.419   1.071   6.220
 6067SOL     OW19099   5.664   0.979   5.457
 6067SOL    HW119100   5.708   1.035   5.385
 6067SOL    HW219101   5.735   0.938   5.514
 6068SOL     OW19102   5.484   3.577   4.626
 6068SOL    HW119103   5.469   3.635   4.546
 6068SOL    HW219104   5.561   3.515   4.610
 6069SOL     OW19105   6.143   2.630   5.532
 6069SOL    HW119106   6.098   2.545   5.504
 6069SOL    HW219107   6.086   2.678   5.599
 6070SOL     OW19108   2.895   2.576   0.681
 6070SOL    HW119109   2.839   2.643   0.632
 6070SOL    HW219110   2.838   2.528   0.747
 6071SOL     OW19111   5.441   5.568   3.540
 6071SOL    HW119112   5.521   5.616   3.575
 6071SOL    HW219113   5.424   5.487   3.595
 6072SOL     OW19114   6.869   0.553   1.922
 6072SOL    HW119115   6.789   0.496   1.941
 6072SOL    HW219116   6.856   0.599   1.834
 6073SOL     OW19117   5.944   3.284   0.237
 6073SOL    HW119118   5.852   3.257   0.208
 6073SOL    HW219119   5.960   3.379   0.212
 6074SOL     OW19120   1.251   6.425   3.595
 6074SOL    HW119121   1.277   6.420   3.692
 6074SOL    HW219122   1.160   6.388   3.583
 6075SOL     OW19123   6.715   1.408   6.325
 6075SOL    HW119124   6.691   1.487   6.382
 6075SOL    HW219125   6.636   1.348   6.316
 6076SOL     OW19126   2.924   5.605   4.491
 6076SOL    HW119127   2.833   5.595   4.449
 6076SOL    HW219128   2.985   5.651   4.426
 6077SOL     OW19129   6.148   5.768   1.061
 6077SOL    HW119130   6.088   5.756   1.140
 6077SOL    HW219131   6.242   5.779   1.093
 6078SOL     OW19132   4.337   5.083   0.566
 6078SOL    HW119133   4.315   5.170   0.610
 6078SOL    HW219134   4.436   5.070   0.564
 6079SOL     OW19135   4.540   4.020   6.193
 6079SOL    HW119136   4.539   3.930   6.237
 6079SOL    HW219137   4.473   4.079   6.238
 6080SOL     OW19138   0.058   0.415   1.328
 6080SOL    HW119139   0.064   0.324   1.287
 6080SOL    HW219140   0.022   0.407   1.422
 6081SOL     OW19141   6.574   3.504   5.704
 6081SOL    HW119142   6.613   3.469   5.789
 6081SOL    HW219143   6.561   3.603   5.710
 6082SOL     OW19144   2.158   2.017   4.089
 6082SOL    HW119145   2.084   1.950   4.081
 6082SOL    HW219146   2.147   2.087   4.018
 6083SOL     OW19147   6.772   5.232   6.693
 6083SOL    HW119148   6.854   5.189   6.732
 6083SOL    HW219149   6.718   5.273   6.767
 6084SOL     OW19150   0.818   0.243   3.787
 6084SOL    HW119151   0.867   0.248   3.700
 6084SOL    HW219152   0.723   0.271   3.774
 6085SOL     OW19153   0.730   4.864   0.429
 6085SOL    HW119154   0.716   4.884   0.526
 6085SOL    HW219155   0.792   4.786   0.419
 6086SOL     OW19156   4.071   0.392   6.080
 6086SOL    HW119157   4.009   0.429   6.149
 6086SOL    HW219158   4.066   0.447   5.997
 6087SOL     OW19159   3.617   5.506   0.869
 6087SOL    HW119160   3.542   5.511   0.803
 6087SOL    HW219161   3.605   5.576   0.939
 6088SOL     OW19162   5.867   5.522   3.696
 6088SOL    HW119163   5.818   5.502   3.781
 6088SOL    HW219164   5.911   5.439   3.662
 6089SOL     OW19165   5.302   3.605   1.167
 6089SOL    HW119166   5.255   3.537   1.110
 6089SOL    HW219167   5.241   3.634   1.241
 6090SOL     OW19168   2.294   5.769   5.539
 6090SOL    HW119169   2.313   5.788   5.442
 6090SOL    HW219170   2.199   5.791   5.559
 6091SOL     OW19171   1.658   1.284   0.596
 6091SOL    HW119172   1.674   1.185   0.596
 6091SOL    HW219173   1.565   1.302   0.564
 6092SOL     OW19174   3.750   0.001   2.890
 6092SOL    HW119175   3.699   6.959   2.946
 6092SOL    HW219176   3.792   0.070   2.948
 6093SOL     OW19177   1.687   3.479   2.207
 6093SOL    HW119178   1.610   3.530   2.246
 6093SOL    HW219179   1.771   3.531   2.222
 6094SOL     OW19180   2.691   6.587   1.349
 6094SOL    HW119181   2.612   6.580   1.288
 6094SOL    HW219182   2.669   6.648   1.425
 6095SOL     OW19183   5.117   3.799   0.452
 6095SOL    HW119184   5.084   3.893   0.456
 6095SOL    HW219185   5.212   3.796   0.483
 6096SOL     OW19186   6.922   0.024   3.312
 6096SOL    HW119187   6.903   6.950   3.330
 6096SOL    HW219188   6.987   0.032   3.237
 6097SOL     OW19189   2.713   6.517   2.627
 6097SOL    HW119190   2.696   6.554   2.719
 6097SOL    HW219191   2.808   6.536   2.601
 6098SOL     OW19192   1.777   2.291   5.100
 6098SOL    HW119193   1.786   2.391   5.106
 6098SOL    HW219194   1.819   2.249   5.180
 6099SOL     OW19195   6.457   6.121   6.774
 6099SOL    HW119196   6.357   6.118   6.767
 6099SOL    HW219197   6.488   6.215   6.784
 6100SOL     OW19198   4.852   5.463   0.297
 6100SOL    HW119199   4.941   5.504   0.278
 6100SOL    HW219200   4.858   5.364   0.286
 6101SOL     OW19201   6.582   2.855   4.643
 6101SOL    HW119202   6.515   2.831   4.572
 6101SOL    HW219203   6.536   2.866   4.731
 6102SOL     OW19204   3.285   6.995   3.791
 6102SOL    HW119205   3.291   6.899   3.820
 6102SOL    HW219206   3.192   0.005   3.804
 6103SOL     OW19207   6.703   2.253   2.646
 6103SOL    HW119208   6.792   2.218   2.674
 6103SOL    HW219209   6.714   2.322   2.574
 6104SOL     OW19210   6.125   0.575   5.258
 6104SOL    HW119211   6.132   0.669   5.225
 6104SOL    HW219212   6.073   0.573   5.343
 6105SOL     OW19213   3.027   6.509   6.165
 6105SOL    HW119214   2.997   6.599   6.132
 6105SOL    HW219215   3.063   6.518   6.258
 6106SOL     OW19216   2.533   4.047   6.288
 6106SOL    HW119217   2.559   4.067   6.194
 6106SOL    HW219218   2.538   4.131   6.343
 6107SOL     OW19219   3.000   5.021   4.428
 6107SOL    HW119220   2.943   5.103   4.437
 6107SOL    HW219221   3.068   5.020   4.502
 6108SOL     OW19222   1.502   2.803   1.906
 6108SOL    HW119223   1.445   2.882   1.926
 6108SOL    HW219224   1.537   2.811   1.812
 6109SOL     OW19225   5.323   2.640   5.244
 6109SOL    HW119226   5.381   2.653   5.164
 6109SOL    HW219227   5.239   2.694   5.234
 6110SOL     OW19228   4.158   4.163   0.500
 6110SOL    HW119229   4.088   4.095   0.521
 6110SOL    HW219230   4.247   4.118   0.496
 6111SOL     OW19231   2.264   4.033   2.169
 6111SOL    HW119232   2.240   4.000   2.260
 6111SOL    HW219233   2.224   3.972   2.100
 6112SOL     OW19234   4.110   0.243   2.705
 6112SOL    HW119235   4.065   0.154   2.704
 6112SOL    HW219236   4.194   0.238   2.652
 6113SOL     OW19237   2.544   1.254   6.316
 6113SOL    HW119238   2.444   1.251   6.305
 6113SOL    HW219239   2.585   1.177   6.266
 6114SOL     OW19240   5.193   6.016   1.358
 6114SOL    HW119241   5.220   6.005   1.453
 6114SOL    HW219242   5.212   5.932   1.308
 6115SOL     OW19243   5.141   0.064   4.241
 6115SOL    HW119244   5.061   0.123   4.233
 6115SOL    HW219245   5.157   0.018   4.154
 6116SOL     OW19246   3.624   0.947   6.699
 6116SOL    HW119247   3.639   1.044   6.679
 6116SOL    HW219248   3.706   0.895   6.674
 6117SOL     OW19249   1.531   1.068   4.804
 6117SOL    HW119250   1.596   1.144   4.809
 6117SOL    HW219251   1.572   0.992   4.754
 6118SOL     OW19252   6.707   1.040   2.217
 6118SOL    HW119253   6.709   1.138   2.240
 6118SOL    HW219254   6.752   0.988   2.290
 6119SOL     OW19255   1.331   3.721   6.319
 6119SOL    HW119256   1.372   3.709   6.410
 6119SOL    HW219257   1.403   3.735   6.252
 6120SOL     OW19258   3.671   6.428   4.773
 6120SOL    HW119259   3.721   6.508   4.740
 6120SOL    HW219260   3.617   6.455   4.853
 6121SOL     OW19261   1.041   3.505   5.701
 6121SOL    HW119262   1.067   3.497   5.605
 6121SOL    HW219263   1.104   3.451   5.758
 6122SOL     OW19264   4.438   5.701   0.753
 6122SOL    HW119265   4.352   5.673   0.796
 6122SOL    HW219266   4.431   5.687   0.654
 6123SOL     OW19267   6.073   6.995   6.926
 6123SOL    HW119268   6.102   0.011   7.014
 6123SOL    HW219269   6.145   6.935   6.891
 6124SOL     OW19270   2.672   0.021   5.995
 6124SOL    HW119271   2.708   6.974   6.057
 6124SOL    HW219272   2.580   7.018   5.967
 6125SOL     OW19273   1.253   5.328   0.720
 6125SOL    HW119274   1.347   5.314   0.753
 6125SOL    HW219275   1.238   5.426   0.705
 6126SOL     OW19276   1.389   0.134   4.341
 6126SOL    HW119277   1.354   0.040   4.334
 6126SOL    HW219278   1.313   0.198   4.331
 6127SOL     OW19279   4.279   6.697   1.135
 6127SOL    HW119280   4.203   6.633   1.118
 6127SOL    HW219281   4.255   6.787   1.097
 6128SOL     OW19282   5.961   3.496   0.569
 6128SOL    HW119283   6.025   3.522   0.496
 6128SOL    HW219284   5.917   3.409   0.545
 6129SOL     OW19285   6.561   3.386   3.631
 6129SOL    HW119286   6.618   3.466   3.613
 6129SOL    HW219287   6.592   3.342   3.715
 6130SOL     OW19288   6.015   2.483   4.101
 6130SOL    HW119289   6.023   2.451   4.195
 6130SOL    HW219290   6.106   2.485   4.059
 6131SOL     OW19291   0.348   1.261   5.380
 6131SOL    HW119292   0.320   1.357   5.370
 6131SOL    HW219293   0.329   1.230   5.473
 6132SOL     OW19294   4.634   2.249   0.020
 6132SOL    HW119295   4.549   2.207   0.053
 6132SOL    HW219296   4.712   2.194   0.049
 6133SOL     OW19297   1.505   2.525   1.974
 6133SOL    HW119298   1.574   2.487   2.036
 6133SOL    HW219299   1.509   2.625   1.976
 6134SOL     OW19300   3.664   4.651   6.467
 6134SOL    HW119301   3.578   4.701   6.456
 6134SOL    HW219302   3.671   4.580   6.398
 6135SOL     OW19303   0.641   0.604   1.947
 6135SOL    HW119304   0.739   0.585   1.953
 6135SOL    HW219305   0.602   0.607   2.039
 6136SOL     OW19306   0.998   2.568   2.102
 6136SOL    HW119307   0.949   2.605   2.181
 6136SOL    HW219308   0.955   2.482   2.073
 6137SOL     OW19309   6.584   2.455   3.766
 6137SOL    HW119310   6.660   2.447   3.702
 6137SOL    HW219311   6.500   2.426   3.721
 6138SOL     OW19312   3.756   6.839   3.189
 6138SOL    HW119313   3.821   6.827   3.264
 6138SOL    HW219314   3.695   6.759   3.184
 6139SOL     OW19315   1.098   0.376   6.286
 6139SOL    HW119316   1.156   0.302   6.253
 6139SOL    HW219317   1.154   0.443   6.335
 6140SOL     OW19318   0.905   6.503   1.533
 6140SOL    HW119319   0.997   6.470   1.558
 6140SOL    HW219320   0.836   6.446   1.578
 6141SOL     OW19321   6.898   6.449   6.069
 6141SOL    HW119322   6.965   6.524   6.071
 6141SOL    HW219323   6.876   6.427   5.974
 6142SOL     OW19324   1.181   5.823   0.192
 6142SOL    HW119325   1.202   5.827   0.094
 6142SOL    HW219326   1.204   5.733   0.228
 6143SOL     OW19327   6.888   3.903   1.093
 6143SOL    HW119328   6.849   3.989   1.062
 6143SOL    HW219329   6.946   3.864   1.021
 6144SOL     OW19330   5.294   4.245   3.012
 6144SOL    HW119331   5.240   4.291   2.942
 6144SOL    HW219332   5.335   4.313   3.073
 6145SOL     OW19333   5.047   5.404   3.113
 6145SOL    HW119334   5.129   5.451   3.145
 6145SOL    HW219335   5.031   5.427   3.017
 6146SOL     OW19336   2.698   5.846   3.350
 6146SOL    HW119337   2.646   5.927   3.375
 6146SOL    HW219338   2.715   5.846   3.251
 6147SOL     OW19339   1.602   2.710   4.517
 6147SOL    HW119340   1.577   2.806   4.534
 6147SOL    HW219341   1.552   2.677   4.437
 6148SOL     OW19342   5.832   0.067   4.153
 6148SOL    HW119343   5.756   0.025   4.104
 6148SOL    HW219344   5.811   0.071   4.251
 6149SOL     OW19345   2.813   5.878   1.044
 6149SOL    HW119346   2.726   5.833   1.064
 6149SOL    HW219347   2.883   5.845   1.107
 6150SOL     OW19348   4.561   5.359   0.514
 6150SOL    HW119349   4.488   5.395   0.571
 6150SOL    HW219350   4.532   5.361   0.418
 6151SOL     OW19351   5.873   4.612   6.542
 6151SOL    HW119352   5.809   4.685   6.567
 6151SOL    HW219353   5.867   4.595   6.444
 6152SOL     OW19354   6.107   5.255   4.499
 6152SOL    HW119355   6.152   5.216   4.419
 6152SOL    HW219356   6.173   5.260   4.575
 6153SOL     OW19357   5.378   4.528   1.226
 6153SOL    HW119358   5.353   4.553   1.319
 6153SOL    HW219359   5.297   4.495   1.177
 6154SOL     OW19360   6.168   2.255   2.543
 6154SOL    HW119361   6.119   2.180   2.496
 6154SOL    HW219362   6.253   2.220   2.582
 6155SOL     OW19363   1.683   2.052   4.220
 6155SOL    HW119364   1.627   2.012   4.147
 6155SOL    HW219365   1.728   1.978   4.271
 6156SOL     OW19366   3.985   4.402   1.597
 6156SOL    HW119367   3.999   4.307   1.625
 6156SOL    HW219368   3.911   4.442   1.651
 6157SOL     OW19369   0.734   0.112   5.073
 6157SOL    HW119370   0.829   0.081   5.070
 6157SOL    HW219371   0.725   0.195   5.019
 6158SOL     OW19372   3.927   1.267   6.076
 6158SOL    HW119373   3.939   1.213   5.992
 6158SOL    HW219374   3.855   1.336   6.062
 6159SOL     OW19375   4.859   2.800   2.526
 6159SOL    HW119376   4.809   2.784   2.441
 6159SOL    HW219377   4.955   2.777   2.514
 6160SOL     OW19378   5.216   1.461   6.724
 6160SOL    HW119379   5.117   1.471   6.715
 6160SOL    HW219380   5.250   1.527   6.791
 6161SOL     OW19381   4.566   0.970   4.969
 6161SOL    HW119382   4.560   0.898   4.900
 6161SOL    HW219383   4.494   0.956   5.037
 6162SOL     OW19384   0.657   6.355   3.465
 6162SOL    HW119385   0.694   6.434   3.417
 6162SOL    HW219386   0.713   6.275   3.445
 6163SOL     OW19387   6.421   6.858   0.973
 6163SOL    HW119388   6.435   6.774   0.920
 6163SOL    HW219389   6.406   6.835   1.069
 6164SOL     OW19390   3.873   3.074   1.996
 6164SOL    HW119391   3.818   3.088   2.079
 6164SOL    HW219392   3.960   3.122   2.006
 6165SOL     OW19393   4.483   0.940   0.171
 6165SOL    HW119394   4.564   0.971   0.121
 6165SOL    HW219395   4.497   0.953   0.269
 6166SOL     OW19396   5.392   1.141   5.969
 6166SOL    HW119397   5.440   1.205   5.908
 6166SOL    HW219398   5.381   1.183   6.059
 6167SOL     OW19399   1.038   5.293   3.548
 6167SOL    HW119400   1.013   5.379   3.505
 6167SOL    HW219401   1.109   5.248   3.494
 6168SOL     OW19402   0.986   3.999   1.746
 6168SOL    HW119403   0.929   4.020   1.666
 6168SOL    HW219404   0.927   3.993   1.827
 6169SOL     OW19405   1.623   2.355   0.954
 6169SOL    HW119406   1.635   2.257   0.936
 6169SOL    HW219407   1.697   2.406   0.910
 6170SOL     OW19408   1.018   4.403   5.831
 6170SOL    HW119409   1.030   4.418   5.929
 6170SOL    HW219410   0.946   4.463   5.796
 6171SOL     OW19411   0.727   3.384   0.619
 6171SOL    HW119412   0.666   3.310   0.592
 6171SOL    HW219413   0.755   3.373   0.714
 6172SOL     OW19414   1.782   2.760   2.657
 6172SOL    HW119415   1.709   2.740   2.592
 6172SOL    HW219416   1.867   2.780   2.608
 6173SOL     OW19417   6.830   5.460   1.683
 6173SOL    HW119418   6.758   5.505   1.629
 6173SOL    HW219419   6.827   5.362   1.667
 6174SOL     OW19420   5.151   5.553   3.430
 6174SOL    HW119421   5.193   5.463   3.417
 6174SOL    HW219422   5.163   5.608   3.348
 6175SOL     OW19423   3.943   0.532   3.769
 6175SOL    HW119424   3.923   0.441   3.804
 6175SOL    HW219425   4.020   0.527   3.705
 6176SOL     OW19426   5.237   3.967   6.081
 6176SOL    HW119427   5.208   3.987   5.988
 6176SOL    HW219428   5.323   3.917   6.080
 6177SOL     OW19429   5.643   1.006   0.940
 6177SOL    HW119430   5.551   1.003   0.901
 6177SOL    HW219431   5.641   1.054   1.028
 6178SOL     OW19432   4.702   4.872   2.583
 6178SOL    HW119433   4.719   4.952   2.640
 6178SOL    HW219434   4.617   4.885   2.530
 6179SOL     OW19435   6.442   4.967   3.190
 6179SOL    HW119436   6.510   5.039   3.177
 6179SOL    HW219437   6.464   4.889   3.131
 6180SOL     OW19438   3.214   4.139   1.121
 6180SOL    HW119439   3.200   4.056   1.067
 6180SOL    HW219440   3.157   4.136   1.203
 6181SOL     OW19441   4.378   6.663   0.593
 6181SOL    HW119442   4.296   6.695   0.640
 6181SOL    HW219443   4.367   6.675   0.495
 6182SOL     OW19444   5.078   3.396   5.620
 6182SOL    HW119445   5.127   3.441   5.546
 6182SOL    HW219446   5.054   3.462   5.691
 6183SOL     OW19447   0.956   2.794   3.505
 6183SOL    HW119448   1.050   2.826   3.495
 6183SOL    HW219449   0.944   2.708   3.457
 6184SOL     OW19450   2.583   6.753   6.599
 6184SOL    HW119451   2.595   6.691   6.522
 6184SOL    HW219452   2.485   6.771   6.612
 6185SOL     OW19453   0.392   4.005   6.102
 6185SOL    HW119454   0.472   3.948   6.116
 6185SOL    HW219455   0.355   3.989   6.010
 6186SOL     OW19456   0.579   0.669   0.265
 6186SOL    HW119457   0.556   0.575   0.243
 6186SOL    HW219458   0.635   0.709   0.192
 6187SOL     OW19459   4.991   4.242   3.837
 6187SOL    HW119460   5.003   4.243   3.936
 6187SOL    HW219461   5.031   4.158   3.799
 6188SOL     OW19462   2.572   1.976   6.652
 6188SOL    HW119463   2.546   1.904   6.588
 6188SOL    HW219464   2.656   2.020   6.621
 6189SOL     OW19465   4.277   4.611   2.855
 6189SOL    HW119466   4.194   4.561   2.881
 6189SOL    HW219467   4.253   4.685   2.792
 6190SOL     OW19468   0.901   4.244   5.571
 6190SOL    HW119469   0.929   4.321   5.629
 6190SOL    HW219470   0.953   4.246   5.486
 6191SOL     OW19471   2.674   2.327   6.850
 6191SOL    HW119472   2.625   2.285   6.926
 6191SOL    HW219473   2.608   2.373   6.790
 6192SOL     OW19474   3.220   2.390   5.655
 6192SOL    HW119475   3.237   2.434   5.567
 6192SOL    HW219476   3.167   2.451   5.714
 6193SOL     OW19477   4.809   0.162   1.626
 6193SOL    HW119478   4.803   0.064   1.607
 6193SOL    HW219479   4.827   0.211   1.541
 6194SOL     OW19480   1.108   0.336   1.170
 6194SOL    HW119481   1.180   0.378   1.225
 6194SOL    HW219482   1.018   0.369   1.201
 6195SOL     OW19483   4.173   5.737   5.123
 6195SOL    HW119484   4.149   5.796   5.046
 6195SOL    HW219485   4.089   5.707   5.170
 6196SOL     OW19486   6.067   3.273   1.898
 6196SOL    HW119487   5.993   3.275   1.965
 6196SOL    HW219488   6.111   3.183   1.899
 6197SOL     OW19489   4.002   5.289   0.654
 6197SOL    HW119490   3.947   5.218   0.698
 6197SOL    HW219491   3.960   5.379   0.670
 6198SOL     OW19492   4.215   0.013   1.657
 6198SOL    HW119493   4.179   6.957   1.606
 6198SOL    HW219494   4.152   0.036   1.732
 6199SOL     OW19495   1.124   1.522   0.015
 6199SOL    HW119496   1.122   1.560   6.945
 6199SOL    HW219497   1.192   1.449   0.019
 6200SOL     OW19498   1.099   1.223   5.426
 6200SOL    HW119499   1.146   1.136   5.439
 6200SOL    HW219500   1.126   1.262   5.338
 6201SOL     OW19501   0.505   4.030   5.523
 6201SOL    HW119502   0.487   3.938   5.558
 6201SOL    HW219503   0.444   4.049   5.446
 6202SOL     OW19504   4.576   1.548   1.801
 6202SOL    HW119505   4.638   1.609   1.851
 6202SOL    HW219506   4.522   1.495   1.866
 6203SOL     OW19507   6.569   5.337   1.851
 6203SOL    HW119508   6.646   5.379   1.804
 6203SOL    HW219509   6.600   5.293   1.935
 6204SOL     OW19510   0.189   5.448   3.941
 6204SOL    HW119511   0.169   5.537   3.980
 6204SOL    HW219512   0.239   5.392   4.007
 6205SOL     OW19513   6.403   5.492   0.623
 6205SOL    HW119514   6.420   5.398   0.592
 6205SOL    HW219515   6.316   5.496   0.671
 6206SOL     OW19516   5.457   2.031   3.141
 6206SOL    HW119517   5.537   2.088   3.156
 6206SOL    HW219518   5.388   2.084   3.091
 6207SOL     OW19519   1.647   5.243   5.453
 6207SOL    HW119520   1.717   5.312   5.473
 6207SOL    HW219521   1.642   5.227   5.355
 6208SOL     OW19522   5.197   2.929   5.756
 6208SOL    HW119523   5.157   2.838   5.763
 6208SOL    HW219524   5.172   2.982   5.837
 6209SOL     OW19525   3.697   5.953   7.001
 6209SOL    HW119526   3.755   5.913   0.050
 6209SOL    HW219527   3.640   5.882   6.961
 6210SOL     OW19528   5.350   3.616   4.125
 6210SOL    HW119529   5.351   3.517   4.112
 6210SOL    HW219530   5.282   3.658   4.064
 6211SOL     OW19531   2.795   6.022   6.063
 6211SOL    HW119532   2.891   6.048   6.076
 6211SOL    HW219533   2.743   6.101   6.031
 6212SOL     OW19534   2.602   4.661   4.823
 6212SOL    HW119535   2.665   4.587   4.847
 6212SOL    HW219536   2.509   4.625   4.820
 6213SOL     OW19537   6.095   0.117   0.139
 6213SOL    HW119538   6.155   0.194   0.119
 6213SOL    HW219539   6.052   0.131   0.228
 6214SOL     OW19540   4.912   5.211   4.307
 6214SOL    HW119541   5.012   5.208   4.297
 6214SOL    HW219542   4.889   5.206   4.404
 6215SOL     OW19543   4.236   2.116   6.801
 6215SOL    HW119544   4.151   2.141   6.755
 6215SOL    HW219545   4.298   2.194   6.801
 6216SOL     OW19546   6.524   1.519   2.641
 6216SOL    HW119547   6.440   1.570   2.623
 6216SOL    HW219548   6.584   1.573   2.700
 6217SOL     OW19549   0.727   3.607   2.231
 6217SOL    HW119550   0.767   3.515   2.229
 6217SOL    HW219551   0.713   3.640   2.138
 6218SOL     OW19552   3.959   6.820   6.197
 6218SOL    HW119553   3.989   6.911   6.226
 6218SOL    HW219554   4.025   6.752   6.226
 6219SOL     OW19555   1.492   1.802   4.691
 6219SOL    HW119556   1.441   1.763   4.614
 6219SOL    HW219557   1.482   1.901   4.690
 6220SOL     OW19558   2.650   0.966   4.999
 6220SOL    HW119559   2.608   0.881   5.031
 6220SOL    HW219560   2.683   1.018   5.078
 6221SOL     OW19561   5.813   6.912   0.428
 6221SOL    HW119562   5.800   6.818   0.395
 6221SOL    HW219563   5.859   6.965   0.357
 6222SOL     OW19564   1.721   6.730   1.937
 6222SOL    HW119565   1.686   6.691   2.022
 6222SOL    HW219566   1.701   6.667   1.861
 6223SOL     OW19567   1.473   4.886   4.035
 6223SOL    HW119568   1.519   4.973   4.019
 6223SOL    HW219569   1.400   4.899   4.103
 6224SOL     OW19570   3.455   1.052   5.988
 6224SOL    HW119571   3.395   1.024   6.064
 6224SOL    HW219572   3.528   0.984   5.978
 6225SOL     OW19573   4.249   3.203   6.613
 6225SOL    HW119574   4.322   3.138   6.594
 6225SOL    HW219575   4.164   3.154   6.630
 6226SOL     OW19576   0.834   1.737   4.962
 6226SOL    HW119577   0.868   1.643   4.966
 6226SOL    HW219578   0.862   1.780   4.877
 6227SOL     OW19579   3.693   5.004   5.117
 6227SOL    HW119580   3.603   5.000   5.073
 6227SOL    HW219581   3.685   4.970   5.211
 6228SOL     OW19582   0.584   3.494   1.913
 6228SOL    HW119583   0.578   3.399   1.883
 6228SOL    HW219584   0.509   3.514   1.977
 6229SOL     OW19585   1.070   1.998   4.374
 6229SOL    HW119586   1.039   1.908   4.345
 6229SOL    HW219587   1.154   2.022   4.324
 6230SOL     OW19588   0.521   2.108   4.243
 6230SOL    HW119589   0.546   2.015   4.268
 6230SOL    HW219590   0.574   2.173   4.297
 6231SOL     OW19591   6.171   6.143   0.311
 6231SOL    HW119592   6.157   6.214   0.242
 6231SOL    HW219593   6.268   6.135   0.331
 6232SOL     OW19594   6.325   1.328   0.741
 6232SOL    HW119595   6.280   1.415   0.761
 6232SOL    HW219596   6.352   1.326   0.644
 6233SOL     OW19597   6.575   2.176   1.511
 6233SOL    HW119598   6.660   2.168   1.563
 6233SOL    HW219599   6.578   2.115   1.432
 6234SOL     OW19600   0.079   0.280   5.466
 6234SOL    HW119601   0.106   0.346   5.396
 6234SOL    HW219602   0.008   0.219   5.429
 6235SOL     OW19603   0.043   0.062   1.338
 6235SOL    HW119604   7.001   0.118   1.286
 6235SOL    HW219605   0.101   0.011   1.275
 6236SOL     OW19606   0.876   4.294   1.266
 6236SOL    HW119607   0.836   4.203   1.265
 6236SOL    HW219608   0.809   4.359   1.302
 6237SOL     OW19609   3.900   0.428   6.291
 6237SOL    HW119610   3.918   0.519   6.329
 6237SOL    HW219611   3.803   0.407   6.301
 6238SOL     OW19612   4.570   5.440   2.444
 6238SOL    HW119613   4.577   5.373   2.518
 6238SOL    HW219614   4.494   5.503   2.463
 6239SOL     OW19615   3.689   0.902   1.627
 6239SOL    HW119616   3.631   0.954   1.565
 6239SOL    HW219617   3.781   0.943   1.629
 6240SOL     OW19618   2.386   4.139   5.756
 6240SOL    HW119619   2.334   4.223   5.745
 6240SOL    HW219620   2.342   4.064   5.707
 6241SOL     OW19621   3.409   0.388   1.994
 6241SOL    HW119622   3.336   0.329   2.029
 6241SOL    HW219623   3.374   0.443   1.918
 6242SOL     OW19624   3.867   0.564   4.130
 6242SOL    HW119625   3.813   0.580   4.047
 6242SOL    HW219626   3.955   0.610   4.122
 6243SOL     OW19627   6.819   6.565   5.323
 6243SOL    HW119628   6.772   6.653   5.321
 6243SOL    HW219629   6.751   6.491   5.311
 6244SOL     OW19630   5.659   2.979   3.058
 6244SOL    HW119631   5.669   3.075   3.084
 6244SOL    HW219632   5.571   2.945   3.091
 6245SOL     OW19633   1.526   3.730   0.778
 6245SOL    HW119634   1.444   3.756   0.728
 6245SOL    HW219635   1.522   3.769   0.870
 6246SOL     OW19636   1.182   2.097   5.613
 6246SOL    HW119637   1.100   2.065   5.566
 6246SOL    HW219638   1.263   2.068   5.562
 6247SOL     OW19639   0.162   5.612   3.536
 6247SOL    HW119640   0.097   5.661   3.594
 6247SOL    HW219641   0.182   5.666   3.455
 6248SOL     OW19642   3.833   3.915   6.705
 6248SOL    HW119643   3.903   3.940   6.772
 6248SOL    HW219644   3.872   3.852   6.638
 6249SOL     OW19645   0.044   3.745   0.298
 6249SOL    HW119646   0.090   3.706   0.379
 6249SOL    HW219647   0.101   3.818   0.260
 6250SOL     OW19648   6.462   0.557   0.883
 6250SOL    HW119649   6.560   0.578   0.895
 6250SOL    HW219650   6.441   0.471   0.930
 6251SOL     OW19651   4.098   5.704   5.614
 6251SOL    HW119652   4.164   5.775   5.639
 6251SOL    HW219653   4.143   5.634   5.560
 6252SOL     OW19654   2.610   6.231   6.012
 6252SOL    HW119655   2.643   6.318   6.049
 6252SOL    HW219656   2.564   6.246   5.925
 6253SOL     OW19657   2.635   4.603   4.094
 6253SOL    HW119658   2.622   4.646   4.183
 6253SOL    HW219659   2.640   4.503   4.106
 6254SOL     OW19660   5.990   1.076   1.431
 6254SOL    HW119661   5.956   1.086   1.337
 6254SOL    HW219662   5.999   0.979   1.453
 6255SOL     OW19663   3.146   0.704   1.055
 6255SOL    HW119664   3.048   0.719   1.041
 6255SOL    HW219665   3.165   0.606   1.059
 6256SOL     OW19666   3.174   5.276   2.132
 6256SOL    HW119667   3.109   5.350   2.115
 6256SOL    HW219668   3.264   5.314   2.149
 6257SOL     OW19669   5.018   2.517   0.900
 6257SOL    HW119670   5.080   2.579   0.853
 6257SOL    HW219671   5.042   2.422   0.878
 6258SOL     OW19672   2.718   1.019   3.476
 6258SOL    HW119673   2.650   1.040   3.546
 6258SOL    HW219674   2.678   0.959   3.407
 6259SOL     OW19675   1.505   2.203   6.714
 6259SOL    HW119676   1.485   2.246   6.625
 6259SOL    HW219677   1.441   2.128   6.729
 6260SOL     OW19678   3.217   5.709   0.274
 6260SOL    HW119679   3.225   5.671   0.366
 6260SOL    HW219680   3.304   5.753   0.249
 6261SOL     OW19681   4.345   1.131   7.006
 6261SOL    HW119682   4.262   1.168   0.025
 6261SOL    HW219683   4.374   1.049   0.033
 6262SOL     OW19684   2.474   6.483   1.937
 6262SOL    HW119685   2.516   6.424   2.006
 6262SOL    HW219686   2.426   6.427   1.870
 6263SOL     OW19687   0.051   0.082   4.258
 6263SOL    HW119688   0.149   0.093   4.241
 6263SOL    HW219689   0.035   7.020   4.308
 6264SOL     OW19690   2.101   0.510   1.570
 6264SOL    HW119691   2.197   0.532   1.551
 6264SOL    HW219692   2.072   0.555   1.654
 6265SOL     OW19693   3.860   3.912   0.138
 6265SOL    HW119694   3.943   3.857   0.148
 6265SOL    HW219695   3.883   3.999   0.094
 6266SOL     OW19696   4.292   0.273   3.698
 6266SOL    HW119697   4.219   0.208   3.719
 6266SOL    HW219698   4.357   0.276   3.774
 6267SOL     OW19699   2.436   6.866   5.292
 6267SOL    HW119700   2.444   6.775   5.252
 6267SOL    HW219701   2.491   6.930   5.239
 6268SOL     OW19702   2.791   1.010   2.226
 6268SOL    HW119703   2.847   1.090   2.205
 6268SOL    HW219704   2.764   0.965   2.140
 6269SOL     OW19705   6.783   6.679   1.861
 6269SOL    HW119706   6.872   6.653   1.899
 6269SOL    HW219707   6.715   6.682   1.934
 6270SOL     OW19708   0.785   0.747   6.041
 6270SOL    HW119709   0.880   0.760   6.071
 6270SOL    HW219710   0.754   0.830   5.995
 6271SOL     OW19711   6.036   2.307   5.973
 6271SOL    HW119712   6.059   2.218   6.012
 6271SOL    HW219713   6.044   2.378   6.044
 6272SOL     OW19714   0.561   2.278   0.089
 6272SOL    HW119715   0.628   2.210   0.119
 6272SOL    HW219716   0.511   2.312   0.169
 6273SOL     OW19717   0.494   6.442   2.524
 6273SOL    HW119718   0.516   6.539   2.511
 6273SOL    HW219719   0.549   6.388   2.461
 6274SOL     OW19720   3.236   6.724   5.769
 6274SOL    HW119721   3.183   6.743   5.687
 6274SOL    HW219722   3.216   6.631   5.801
 6275SOL     OW19723   1.975   6.532   6.738
 6275SOL    HW119724   1.890   6.525   6.790
 6275SOL    HW219725   2.052   6.543   6.802
 6276SOL     OW19726   2.171   4.931   4.018
 6276SOL    HW119727   2.268   4.948   4.004
 6276SOL    HW219728   2.157   4.888   4.107
 6277SOL     OW19729   4.854   3.153   0.976
 6277SOL    HW119730   4.931   3.166   1.039
 6277SOL    HW219731   4.871   3.074   0.917
 6278SOL     OW19732   4.471   0.022   4.733
 6278SOL    HW119733   4.435   0.111   4.706
 6278SOL    HW219734   4.491   0.022   4.831
 6279SOL     OW19735   3.706   6.238   0.089
 6279SOL    HW119736   3.676   6.157   0.038
 6279SOL    HW219737   3.644   6.253   0.166
 6280SOL     OW19738   0.003   1.332   6.580
 6280SOL    HW119739   7.022   1.293   6.487
 6280SOL    HW219740   0.055   1.271   6.639
 6281SOL     OW19741   0.136   5.203   4.186
 6281SOL    HW119742   0.198   5.270   4.228
 6281SOL    HW219743   0.062   5.251   4.139
 6282SOL     OW19744   6.605   5.405   6.093
 6282SOL    HW119745   6.521   5.351   6.090
 6282SOL    HW219746   6.667   5.366   6.161
 6283SOL     OW19747   0.115   3.510   4.551
 6283SOL    HW119748   0.212   3.487   4.555
 6283SOL    HW219749   0.067   3.444   4.494
 6284SOL     OW19750   1.476   4.478   5.041
 6284SOL    HW119751   1.506   4.542   4.970
 6284SOL    HW219752   1.548   4.411   5.058
 6285SOL     OW19753   0.019   3.365   4.309
 6285SOL    HW119754   7.011   3.370   4.214
 6285SOL    HW219755   6.995   3.290   4.355
 6286SOL     OW19756   6.428   2.458   4.248
 6286SOL    HW119757   6.396   2.431   4.339
 6286SOL    HW219758   6.488   2.538   4.256
 6287SOL     OW19759   3.354   4.979   4.649
 6287SOL    HW119760   3.399   5.035   4.579
 6287SOL    HW219761   3.266   4.947   4.615
 6288SOL     OW19762   4.880   4.557   2.207
 6288SOL    HW119763   4.827   4.474   2.226
 6288SOL    HW219764   4.931   4.546   2.122
 6289SOL     OW19765   2.372   4.970   6.984
 6289SOL    HW119766   2.464   4.998   6.959
 6289SOL    HW219767   2.318   5.051   7.011
 6290SOL     OW19768   5.689   5.009   5.913
 6290SOL    HW119769   5.651   4.917   5.931
 6290SOL    HW219770   5.788   5.004   5.908
 6291SOL     OW19771   4.011   3.871   4.062
 6291SOL    HW119772   4.034   3.805   3.991
 6291SOL    HW219773   4.004   3.962   4.022
 6292SOL     OW19774   1.729   2.453   4.672
 6292SOL    HW119775   1.813   2.412   4.636
 6292SOL    HW219776   1.654   2.433   4.609
 6293SOL     OW19777   4.377   1.729   1.310
 6293SOL    HW119778   4.285   1.689   1.320
 6293SOL    HW219779   4.435   1.695   1.384
 6294SOL     OW19780   3.590   0.188   3.888
 6294SOL    HW119781   3.509   0.244   3.904
 6294SOL    HW219782   3.572   0.094   3.918
 6295SOL     OW19783   5.086   4.722   4.236
 6295SOL    HW119784   5.077   4.634   4.190
 6295SOL    HW219785   4.996   4.756   4.262
 6296SOL     OW19786   6.985   5.401   5.960
 6296SOL    HW119787   0.058   5.430   5.955
 6296SOL    HW219788   6.947   5.427   6.049
 6297SOL     OW19789   5.664   0.277   5.050
 6297SOL    HW119790   5.610   0.357   5.023
 6297SOL    HW219791   5.629   0.241   5.136
 6298SOL     OW19792   1.693   3.399   6.865
 6298SOL    HW119793   1.776   3.450   6.847
 6298SOL    HW219794   1.616   3.442   6.818
 6299SOL     OW19795   6.238   2.357   2.296
 6299SOL    HW119796   6.203   2.330   2.385
 6299SOL    HW219797   6.296   2.283   2.260
 6300SOL     OW19798   6.643   1.036   6.434
 6300SOL    HW119799   6.603   1.106   6.375
 6300SOL    HW219800   6.677   0.960   6.379
 6301SOL     OW19801   3.103   0.070   6.797
 6301SOL    HW119802   3.005   0.069   6.818
 6301SOL    HW219803   3.133   6.999   6.776
 6302SOL     OW19804   1.478   1.387   4.458
 6302SOL    HW119805   1.485   1.397   4.557
 6302SOL    HW219806   1.427   1.304   4.436
 6303SOL     OW19807   0.840   0.692   4.891
 6303SOL    HW119808   0.785   0.654   4.966
 6303SOL    HW219809   0.864   0.787   4.912
 6304SOL     OW19810   3.468   0.564   1.472
 6304SOL    HW119811   3.422   0.653   1.479
 6304SOL    HW219812   3.567   0.578   1.476
 6305SOL     OW19813   5.992   6.412   0.701
 6305SOL    HW119814   6.056   6.479   0.663
 6305SOL    HW219815   6.037   6.361   0.775
 6306SOL     OW19816   6.958   4.176   4.328
 6306SOL    HW119817   7.003   4.237   4.392
 6306SOL    HW219818   0.004   4.125   4.276
 6307SOL     OW19819   3.366   4.164   4.458
 6307SOL    HW119820   3.362   4.208   4.547
 6307SOL    HW219821   3.461   4.161   4.426
 6308SOL     OW19822   2.117   2.438   4.139
 6308SOL    HW119823   2.083   2.464   4.230
 6308SOL    HW219824   2.183   2.364   4.148
 6309SOL     OW19825   6.179   6.269   4.361
 6309SOL    HW119826   6.236   6.245   4.282
 6309SOL    HW219827   6.171   6.189   4.421
 6310SOL     OW19828   1.787   5.934   2.489
 6310SOL    HW119829   1.741   5.866   2.546
 6310SOL    HW219830   1.884   5.913   2.483
 6311SOL     OW19831   5.311   1.283   6.172
 6311SOL    HW119832   5.308   1.252   6.267
 6311SOL    HW219833   5.218   1.299   6.139
 6312SOL     OW19834   0.103   6.564   5.430
 6312SOL    HW119835   0.021   6.520   5.393
 6312SOL    HW219836   0.175   6.562   5.361
 6313SOL     OW19837   6.893   6.028   3.674
 6313SOL    HW119838   6.964   6.094   3.648
 6313SOL    HW219839   6.865   6.045   3.769
 6314SOL     OW19840   4.115   6.627   1.675
 6314SOL    HW119841   4.022   6.591   1.666
 6314SOL    HW219842   4.143   6.626   1.771
 6315SOL     OW19843   2.962   2.070   5.879
 6315SOL    HW119844   2.948   2.165   5.853
 6315SOL    HW219845   3.060   2.050   5.885
 6316SOL     OW19846   5.235   2.246   6.477
 6316SOL    HW119847   5.327   2.220   6.449
 6316SOL    HW219848   5.169   2.208   6.412
 6317SOL     OW19849   5.479   4.816   2.080
 6317SOL    HW119850   5.494   4.729   2.033
 6317SOL    HW219851   5.382   4.824   2.104
 6318SOL     OW19852   4.694   0.289   5.723
 6318SOL    HW119853   4.728   0.218   5.662
 6318SOL    HW219854   4.686   0.252   5.816
 6319SOL     OW19855   6.374   1.560   5.000
 6319SOL    HW119856   6.290   1.526   5.041
 6319SOL    HW219857   6.376   1.536   4.903
 6320SOL     OW19858   6.635   6.376   4.967
 6320SOL    HW119859   6.544   6.336   4.977
 6320SOL    HW219860   6.631   6.453   4.904
 6321SOL     OW19861   4.666   3.607   1.132
 6321SOL    HW119862   4.653   3.561   1.220
 6321SOL    HW219863   4.730   3.555   1.077
 6322SOL     OW19864   1.847   2.494   0.840
 6322SOL    HW119865   1.895   2.578   0.812
 6322SOL    HW219866   1.867   2.421   0.775
 6323SOL     OW19867   1.841   2.193   1.630
 6323SOL    HW119868   1.919   2.249   1.603
 6323SOL    HW219869   1.757   2.247   1.624
 6324SOL     OW19870   4.873   1.112   0.977
 6324SOL    HW119871   4.874   1.182   0.906
 6324SOL    HW219872   4.929   1.035   0.949
 6325SOL     OW19873   1.743   3.214   2.709
 6325SOL    HW119874   1.654   3.170   2.709
 6325SOL    HW219875   1.755   3.266   2.625
 6326SOL     OW19876   5.445   5.142   1.565
 6326SOL    HW119877   5.445   5.128   1.466
 6326SOL    HW219878   5.373   5.086   1.607
 6327SOL     OW19879   0.623   1.242   4.818
 6327SOL    HW119880   0.526   1.232   4.795
 6327SOL    HW219881   0.636   1.326   4.870
 6328SOL     OW19882   4.149   4.135   0.063
 6328SOL    HW119883   4.193   4.066   0.120
 6328SOL    HW219884   4.159   4.225   0.106
 6329SOL     OW19885   1.567   3.109   3.602
 6329SOL    HW119886   1.603   3.032   3.655
 6329SOL    HW219887   1.637   3.142   3.540
 6330SOL     OW19888   5.727   0.001   1.732
 6330SOL    HW119889   5.692   0.054   1.809
 6330SOL    HW219890   5.812   0.043   1.698
 6331SOL     OW19891   6.497   3.148   5.407
 6331SOL    HW119892   6.432   3.123   5.335
 6331SOL    HW219893   6.538   3.065   5.445
 6332SOL     OW19894   0.583   2.602   0.757
 6332SOL    HW119895   0.608   2.656   0.837
 6332SOL    HW219896   0.484   2.604   0.744
 6333SOL     OW19897   4.457   0.031   5.664
 6333SOL    HW119898   4.557   0.022   5.665
 6333SOL    HW219899   4.418   6.980   5.609
 6334SOL     OW19900   2.982   1.142   2.475
 6334SOL    HW119901   2.913   1.185   2.417
 6334SOL    HW219902   3.068   1.135   2.424
 6335SOL     OW19903   4.575   1.073   0.842
 6335SOL    HW119904   4.536   1.002   0.901
 6335SOL    HW219905   4.666   1.045   0.812
 6336SOL     OW19906   1.235   2.342   6.958
 6336SOL    HW119907   1.148   2.334   6.908
 6336SOL    HW219908   1.283   2.255   6.956
 6337SOL     OW19909   4.733   5.284   5.232
 6337SOL    HW119910   4.718   5.355   5.163
 6337SOL    HW219911   4.744   5.196   5.186
 6338SOL     OW19912   3.155   2.078   3.879
 6338SOL    HW119913   3.128   2.002   3.938
 6338SOL    HW219914   3.092   2.155   3.893
 6339SOL     OW19915   0.983   3.944   3.678
 6339SOL    HW119916   0.911   3.875   3.684
 6339SOL    HW219917   1.065   3.910   3.723
 6340SOL     OW19918   1.444   5.207   1.469
 6340SOL    HW119919   1.456   5.167   1.560
 6340SOL    HW219920   1.401   5.140   1.409
 6341SOL     OW19921   6.544   4.319   4.167
 6341SOL    HW119922   6.512   4.392   4.107
 6341SOL    HW219923   6.632   4.285   4.133
 6342SOL     OW19924   2.694   0.893   1.105
 6342SOL    HW119925   2.742   0.810   1.077
 6342SOL    HW219926   2.600   0.890   1.071
 6343SOL     OW19927   4.447   0.873   6.482
 6343SOL    HW119928   4.376   0.806   6.459
 6343SOL    HW219929   4.537   0.833   6.468
 6344SOL     OW19930   5.037   1.906   4.847
 6344SOL    HW119931   5.124   1.873   4.811
 6344SOL    HW219932   4.964   1.843   4.821
 6345SOL     OW19933   5.911   2.730   2.583
 6345SOL    HW119934   5.955   2.799   2.524
 6345SOL    HW219935   5.813   2.727   2.564
 6346SOL     OW19936   6.049   5.708   3.641
 6346SOL    HW119937   5.980   5.647   3.681
 6346SOL    HW219938   6.124   5.720   3.705
 6347SOL     OW19939   2.025   1.142   0.388
 6347SOL    HW119940   1.976   1.055   0.393
 6347SOL    HW219941   2.020   1.188   0.476
 6348SOL     OW19942   1.477   2.818   6.005
 6348SOL    HW119943   1.382   2.838   6.027
 6348SOL    HW219944   1.505   2.871   5.925
 6349SOL     OW19945   1.673   0.448   0.897
 6349SOL    HW119946   1.739   0.407   0.834
 6349SOL    HW219947   1.644   0.380   0.965
 6350SOL     OW19948   0.742   5.392   4.071
 6350SOL    HW119949   0.715   5.303   4.108
 6350SOL    HW219950   0.715   5.398   3.975
 6351SOL     OW19951   6.024   3.441   3.565
 6351SOL    HW119952   5.965   3.487   3.632
 6351SOL    HW219953   6.110   3.492   3.557
 6352SOL     OW19954   3.016   0.151   5.259
 6352SOL    HW119955   3.083   0.123   5.328
 6352SOL    HW219956   2.955   0.219   5.298
 6353SOL     OW19957   0.555   6.245   6.192
 6353SOL    HW119958   0.602   6.199   6.268
 6353SOL    HW219959   0.599   6.219   6.106
 6354SOL     OW19960   3.041   5.129   3.748
 6354SOL    HW119961   3.014   5.216   3.707
 6354SOL    HW219962   3.035   5.136   3.848
 6355SOL     OW19963   2.326   5.156   6.761
 6355SOL    HW119964   2.356   5.067   6.729
 6355SOL    HW219965   2.240   5.146   6.812
 6356SOL     OW19966   4.830   5.769   1.476
 6356SOL    HW119967   4.775   5.845   1.443
 6356SOL    HW219968   4.849   5.706   1.400
 6357SOL     OW19969   6.311   3.179   2.860
 6357SOL    HW119970   6.277   3.142   2.774
 6357SOL    HW219971   6.387   3.242   2.842
 6358SOL     OW19972   6.808   2.158   6.919
 6358SOL    HW119973   6.858   2.189   6.999
 6358SOL    HW219974   6.846   2.072   6.886
 6359SOL     OW19975   6.321   0.704   0.510
 6359SOL    HW119976   6.312   0.800   0.537
 6359SOL    HW219977   6.382   0.697   0.430
 6360SOL     OW19978   1.167   3.979   5.447
 6360SOL    HW119979   1.114   3.895   5.455
 6360SOL    HW219980   1.161   4.031   5.532
 6361SOL     OW19981   1.368   6.987   0.777
 6361SOL    HW119982   1.308   6.931   0.834
 6361SOL    HW219983   1.312   0.025   0.720
 6362SOL     OW19984   0.619   5.481   0.107
 6362SOL    HW119985   0.629   5.428   0.192
 6362SOL    HW219986   0.707   5.521   0.083
 6363SOL     OW19987   2.194   5.760   3.721
 6363SOL    HW119988   2.109   5.757   3.668
 6363SOL    HW219989   2.238   5.671   3.718
 6364SOL     OW19990   2.661   1.791   5.459
 6364SOL    HW119991   2.708   1.869   5.416
 6364SOL    HW219992   2.690   1.783   5.554
 6365SOL     OW19993   4.910   0.196   4.206
 6365SOL    HW119994   4.887   0.203   4.303
 6365SOL    HW219995   4.888   0.282   4.160
 6366SOL     OW19996   1.121   5.411   5.343
 6366SOL    HW119997   1.157   5.418   5.250
 6366SOL    HW219998   1.078   5.497   5.369
 6367SOL     OW19999   4.218   1.527   4.104
 6367SOL    HW120000   4.149   1.598   4.086
 6367SOL    HW220001   4.305   1.554   4.063
 6368SOL     OW20002   3.656   5.245   3.583
 6368SOL    HW120003   3.645   5.265   3.486
 6368SOL    HW220004   3.573   5.273   3.632
 6369SOL     OW20005   2.607   0.570   4.674
 6369SOL    HW120006   2.686   0.602   4.621
 6369SOL    HW220007   2.586   0.475   4.649
 6370SOL     OW20008   6.704   3.285   3.871
 6370SOL    HW120009   6.676   3.225   3.946
 6370SOL    HW220010   6.766   3.355   3.905
 6371SOL     OW20011   5.614   4.919   3.000
 6371SOL    HW120012   5.607   4.843   2.935
 6371SOL    HW220013   5.570   5.000   2.961
 6372SOL     OW20014   1.883   1.341   1.555
 6372SOL    HW120015   1.847   1.431   1.530
 6372SOL    HW220016   1.856   1.319   1.649
 6373SOL     OW20017   4.515   4.543   2.651
 6373SOL    HW120018   4.573   4.568   2.728
 6373SOL    HW220019   4.419   4.548   2.679
 6374SOL     OW20020   4.061   3.402   3.120
 6374SOL    HW120021   4.070   3.414   3.219
 6374SOL    HW220022   4.061   3.305   3.098
 6375SOL     OW20023   6.670   1.602   2.865
 6375SOL    HW120024   6.767   1.582   2.878
 6375SOL    HW220025   6.644   1.680   2.922
 6376SOL     OW20026   5.387   2.062   5.733
 6376SOL    HW120027   5.425   2.022   5.649
 6376SOL    HW220028   5.319   2.131   5.709
 6377SOL     OW20029   0.590   0.970   5.531
 6377SOL    HW120030   0.644   1.051   5.554
 6377SOL    HW220031   0.558   0.977   5.437
 6378SOL     OW20032   4.654   4.345   3.833
 6378SOL    HW120033   4.596   4.412   3.786
 6378SOL    HW220034   4.656   4.366   3.931
 6379SOL     OW20035   1.398   4.392   5.465
 6379SOL    HW120036   1.382   4.490   5.451
 6379SOL    HW220037   1.414   4.374   5.562
 6380SOL     OW20038   0.809   1.386   5.334
 6380SOL    HW120039   0.860   1.467   5.305
 6380SOL    HW220040   0.862   1.304   5.314
 6381SOL     OW20041   4.052   3.015   1.254
 6381SOL    HW120042   4.068   3.087   1.187
 6381SOL    HW220043   4.137   2.964   1.270
 6382SOL     OW20044   2.912   2.217   0.844
 6382SOL    HW120045   2.919   2.270   0.929
 6382SOL    HW220046   2.942   2.274   0.767
 6383SOL     OW20047   2.263   2.782   3.095
 6383SOL    HW120048   2.317   2.861   3.126
 6383SOL    HW220049   2.167   2.797   3.116
 6384SOL     OW20050   6.569   3.565   2.828
 6384SOL    HW120051   6.630   3.640   2.804
 6384SOL    HW220052   6.586   3.536   2.922
 6385SOL     OW20053   7.000   3.656   3.472
 6385SOL    HW120054   0.043   3.617   3.409
 6385SOL    HW220055   6.990   3.754   3.456
 6386SOL     OW20056   2.436   3.070   6.623
 6386SOL    HW120057   2.373   3.137   6.581
 6386SOL    HW220058   2.528   3.086   6.588
 6387SOL     OW20059   6.926   2.172   6.440
 6387SOL    HW120060   6.833   2.193   6.470
 6387SOL    HW220061   6.924   2.101   6.369
 6388SOL     OW20062   4.541   6.411   1.910
 6388SOL    HW120063   4.489   6.330   1.881
 6388SOL    HW220064   4.628   6.383   1.949
 6389SOL     OW20065   0.087   6.238   1.223
 6389SOL    HW120066   0.008   6.286   1.261
 6389SOL    HW220067   0.085   6.143   1.252
 6390SOL     OW20068   0.680   0.491   5.535
 6390SOL    HW120069   0.697   0.493   5.633
 6390SOL    HW220070   0.583   0.473   5.518
 6391SOL     OW20071   1.431   6.744   6.281
 6391SOL    HW120072   1.441   6.825   6.339
 6391SOL    HW220073   1.464   6.765   6.189
 6392SOL     OW20074   3.001   5.569   2.809
 6392SOL    HW120075   3.052   5.545   2.726
 6392SOL    HW220076   3.050   5.640   2.859
 6393SOL     OW20077   0.646   5.662   1.928
 6393SOL    HW120078   0.707   5.584   1.918
 6393SOL    HW220079   0.583   5.665   1.851
 6394SOL     OW20080   1.993   5.006   0.642
 6394SOL    HW120081   1.975   5.097   0.682
 6394SOL    HW220082   1.927   4.989   0.569
 6395SOL     OW20083   6.814   2.776   1.504
 6395SOL    HW120084   6.753   2.848   1.471
 6395SOL    HW220085   6.760   2.698   1.536
 6396SOL     OW20086   5.415   3.398   7.019
 6396SOL    HW120087   5.480   3.388   0.072
 6396SOL    HW220088   5.334   3.343   0.015
 6397SOL     OW20089   5.833   1.373   1.356
 6397SOL    HW120090   5.868   1.407   1.444
 6397SOL    HW220091   5.907   1.334   1.303
 6398SOL     OW20092   3.111   6.728   1.718
 6398SOL    HW120093   3.070   6.674   1.645
 6398SOL    HW220094   3.104   6.677   1.804
 6399SOL     OW20095   1.869   0.264   6.755
 6399SOL    HW120096   1.935   0.192   6.738
 6399SOL    HW220097   1.778   0.224   6.770
 6400SOL     OW20098   2.368   5.124   2.867
 6400SOL    HW120099   2.277   5.112   2.907
 6400SOL    HW220100   2.360   5.175   2.781
 6401SOL     OW20101   5.250   6.191   3.671
 6401SOL    HW120102   5.305   6.109   3.688
 6401SOL    HW220103   5.243   6.206   3.572
 6402SOL     OW20104   2.397   2.600   3.271
 6402SOL    HW120105   2.317   2.591   3.329
 6402SOL    HW220106   2.373   2.651   3.188
 6403SOL     OW20107   6.779   5.283   6.251
 6403SOL    HW120108   6.745   5.224   6.325
 6403SOL    HW220109   6.825   5.363   6.290
 6404SOL     OW20110   3.820   0.619   2.212
 6404SOL    HW120111   3.721   0.628   2.202
 6404SOL    HW220112   3.865   0.650   2.128
 6405SOL     OW20113   3.632   0.542   3.918
 6405SOL    HW120114   3.577   0.460   3.930
 6405SOL    HW220115   3.647   0.559   3.821
 6406SOL     OW20116   0.711   2.534   2.549
 6406SOL    HW120117   0.727   2.599   2.475
 6406SOL    HW220118   0.699   2.584   2.635
 6407SOL     OW20119   2.240   0.059   4.014
 6407SOL    HW120120   2.279   0.035   4.103
 6407SOL    HW220121   2.142   0.040   4.015
 6408SOL     OW20122   5.290   1.502   0.395
 6408SOL    HW120123   5.303   1.528   0.299
 6408SOL    HW220124   5.283   1.585   0.451
 6409SOL     OW20125   5.949   4.508   4.154
 6409SOL    HW120126   5.882   4.433   4.158
 6409SOL    HW220127   5.939   4.557   4.067
 6410SOL     OW20128   2.266   1.318   6.266
 6410SOL    HW120129   2.275   1.418   6.271
 6410SOL    HW220130   2.241   1.292   6.173
 6411SOL     OW20131   0.715   2.712   2.776
 6411SOL    HW120132   0.624   2.745   2.749
 6411SOL    HW220133   0.744   2.759   2.859
 6412SOL     OW20134   1.536   2.187   4.411
 6412SOL    HW120135   1.556   2.172   4.508
 6412SOL    HW220136   1.599   2.134   4.355
 6413SOL     OW20137   3.757   4.895   3.383
 6413SOL    HW120138   3.764   4.900   3.483
 6413SOL    HW220139   3.667   4.927   3.354
 6414SOL     OW20140   5.594   0.952   6.710
 6414SOL    HW120141   5.505   0.956   6.756
 6414SOL    HW220142   5.597   0.871   6.651
 6415SOL     OW20143   1.811   3.498   3.231
 6415SOL    HW120144   1.902   3.540   3.237
 6415SOL    HW220145   1.805   3.446   3.145
 6416SOL     OW20146   1.551   0.566   6.742
 6416SOL    HW120147   1.483   0.571   6.668
 6416SOL    HW220148   1.618   0.638   6.730
 6417SOL     OW20149   5.604   4.922   0.590
 6417SOL    HW120150   5.522   4.979   0.587
 6417SOL    HW220151   5.593   4.845   0.527
 6418SOL     OW20152   5.155   3.117   2.308
 6418SOL    HW120153   5.105   3.151   2.388
 6418SOL    HW220154   5.131   3.172   2.228
 6419SOL     OW20155   1.339   4.874   3.386
 6419SOL    HW120156   1.323   4.802   3.319
 6419SOL    HW220157   1.336   4.834   3.478
 6420SOL     OW20158   2.370   6.279   3.900
 6420SOL    HW120159   2.406   6.227   3.822
 6420SOL    HW220160   2.416   6.367   3.906
 6421SOL     OW20161   4.660   6.732   2.416
 6421SOL    HW120162   4.737   6.712   2.477
 6421SOL    HW220163   4.683   6.704   2.323
 6422SOL     OW20164   6.845   0.729   5.191
 6422SOL    HW120165   6.866   0.826   5.188
 6422SOL    HW220166   6.910   0.679   5.134
 6423SOL     OW20167   5.126   5.912   3.617
 6423SOL    HW120168   5.111   5.814   3.624
 6423SOL    HW220169   5.170   5.934   3.530
 6424SOL     OW20170   0.153   4.717   4.878
 6424SOL    HW120171   0.111   4.743   4.965
 6424SOL    HW220172   0.227   4.779   4.856
 6425SOL     OW20173   6.665   6.241   3.050
 6425SOL    HW120174   6.687   6.303   3.126
 6425SOL    HW220175   6.582   6.273   3.004
 6426SOL     OW20176   0.797   5.159   3.056
 6426SOL    HW120177   0.703   5.147   3.087
 6426SOL    HW220178   0.809   5.113   2.967
 6427SOL     OW20179   3.764   3.908   4.263
 6427SOL    HW120180   3.684   3.892   4.205
 6427SOL    HW220181   3.848   3.888   4.211
 6428SOL     OW20182   5.845   3.377   6.604
 6428SOL    HW120183   5.790   3.352   6.684
 6428SOL    HW220184   5.869   3.474   6.608
 6429SOL     OW20185   0.752   1.572   5.683
 6429SOL    HW120186   0.722   1.599   5.592
 6429SOL    HW220187   0.846   1.538   5.678
 6430SOL     OW20188   5.874   1.118   3.818
 6430SOL    HW120189   5.853   1.062   3.898
 6430SOL    HW220190   5.864   1.063   3.735
 6431SOL     OW20191   4.342   6.722   3.987
 6431SOL    HW120192   4.242   6.723   3.975
 6431SOL    HW220193   4.366   6.660   4.061
 6432SOL     OW20194   4.377   4.186   6.334
 6432SOL    HW120195   4.401   4.251   6.261
 6432SOL    HW220196   4.346   4.237   6.415
 6433SOL     OW20197   1.678   5.460   5.750
 6433SOL    HW120198   1.708   5.532   5.812
 6433SOL    HW220199   1.741   5.382   5.755
 6434SOL     OW20200   2.417   5.694   6.081
 6434SOL    HW120201   2.435   5.737   5.992
 6434SOL    HW220202   2.474   5.737   6.151
 6435SOL     OW20203   5.102   6.511   1.078
 6435SOL    HW120204   5.086   6.418   1.046
 6435SOL    HW220205   5.184   6.548   1.033
 6436SOL     OW20206   1.278   2.887   2.731
 6436SOL    HW120207   1.309   2.960   2.671
 6436SOL    HW220208   1.188   2.912   2.769
 6437SOL     OW20209   1.988   1.813   0.394
 6437SOL    HW120210   2.064   1.752   0.414
 6437SOL    HW220211   1.931   1.774   0.322
 6438SOL     OW20212   6.954   3.461   5.366
 6438SOL    HW120213   6.973   3.559   5.375
 6438SOL    HW220214   6.872   3.437   5.418
 6439SOL     OW20215   5.659   1.825   1.472
 6439SOL    HW120216   5.578   1.841   1.415
 6439SOL    HW220217   5.701   1.738   1.447
 6440SOL     OW20218   2.507   1.654   6.078
 6440SOL    HW120219   2.556   1.617   6.157
 6440SOL    HW220220   2.484   1.750   6.096
 6441SOL     OW20221   0.057   6.898   1.803
 6441SOL    HW120222   0.004   6.881   1.719
 6441SOL    HW220223   0.117   6.976   1.789
 6442SOL     OW20224   2.515   1.345   4.817
 6442SOL    HW120225   2.564   1.378   4.898
 6442SOL    HW220226   2.443   1.409   4.793
 6443SOL     OW20227   3.860   2.225   5.256
 6443SOL    HW120228   3.939   2.164   5.269
 6443SOL    HW220229   3.881   2.315   5.294
 6444SOL     OW20230   5.269   3.395   4.606
 6444SOL    HW120231   5.256   3.352   4.695
 6444SOL    HW220232   5.330   3.474   4.616
 6445SOL     OW20233   3.819   2.991   4.893
 6445SOL    HW120234   3.852   3.015   4.984
 6445SOL    HW220235   3.896   2.960   4.837
 6446SOL     OW20236   1.150   1.259   6.613
 6446SOL    HW120237   1.180   1.164   6.607
 6446SOL    HW220238   1.090   1.279   6.535
 6447SOL     OW20239   5.820   5.101   3.185
 6447SOL    HW120240   5.779   5.186   3.149
 6447SOL    HW220241   5.783   5.023   3.135
 6448SOL     OW20242   4.673   5.508   1.672
 6448SOL    HW120243   4.709   5.601   1.666
 6448SOL    HW220244   4.599   5.497   1.605
 6449SOL     OW20245   4.033   6.186   1.079
 6449SOL    HW120246   4.090   6.176   1.160
 6449SOL    HW220247   3.943   6.222   1.104
 6450SOL     OW20248   1.288   3.604   1.025
 6450SOL    HW120249   1.230   3.666   0.972
 6450SOL    HW220250   1.381   3.640   1.029
 6451SOL     OW20251   2.119   0.607   5.269
 6451SOL    HW120252   2.186   0.543   5.309
 6451SOL    HW220253   2.027   0.570   5.281
 6452SOL     OW20254   4.404   4.912   3.161
 6452SOL    HW120255   4.346   4.833   3.142
 6452SOL    HW220256   4.412   4.925   3.260
 6453SOL     OW20257   2.454   6.681   2.144
 6453SOL    HW120258   2.536   6.666   2.201
 6453SOL    HW220259   2.462   6.628   2.060
 6454SOL     OW20260   0.583   2.331   3.149
 6454SOL    HW120261   0.571   2.305   3.053
 6454SOL    HW220262   0.660   2.279   3.188
 6455SOL     OW20263   0.264   3.379   4.226
 6455SOL    HW120264   0.173   3.386   4.267
 6455SOL    HW220265   0.268   3.435   4.143
 6456SOL     OW20266   1.468   1.365   3.153
 6456SOL    HW120267   1.393   1.303   3.130
 6456SOL    HW220268   1.458   1.395   3.248
 6457SOL     OW20269   5.303   1.499   1.721
 6457SOL    HW120270   5.316   1.466   1.814
 6457SOL    HW220271   5.314   1.422   1.657
 6458SOL     OW20272   1.005   5.734   4.336
 6458SOL    HW120273   1.003   5.635   4.328
 6458SOL    HW220274   1.031   5.774   4.249
 6459SOL     OW20275   6.218   2.999   1.250
 6459SOL    HW120276   6.147   2.997   1.180
 6459SOL    HW220277   6.186   3.053   1.328
 6460SOL     OW20278   5.665   6.204   6.452
 6460SOL    HW120279   5.664   6.116   6.404
 6460SOL    HW220280   5.647   6.189   6.549
 6461SOL     OW20281   2.146   4.602   6.702
 6461SOL    HW120282   2.144   4.685   6.758
 6461SOL    HW220283   2.067   4.601   6.641
 6462SOL     OW20284   2.113   3.350   4.267
 6462SOL    HW120285   2.159   3.275   4.315
 6462SOL    HW220286   2.127   3.339   4.168
 6463SOL     OW20287   6.145   2.480   0.194
 6463SOL    HW120288   6.156   2.395   0.245
 6463SOL    HW220289   6.066   2.473   0.133
 6464SOL     OW20290   1.153   4.675   4.426
 6464SOL    HW120291   1.069   4.728   4.439
 6464SOL    HW220292   1.136   4.579   4.450
 6465SOL     OW20293   6.951   3.106   2.443
 6465SOL    HW120294   6.862   3.099   2.397
 6465SOL    HW220295   6.992   3.016   2.450
 6466SOL     OW20296   0.279   1.038   5.835
 6466SOL    HW120297   0.263   1.110   5.904
 6466SOL    HW220298   0.317   0.957   5.880
 6467SOL     OW20299   3.997   0.925   0.327
 6467SOL    HW120300   3.908   0.925   0.374
 6467SOL    HW220301   4.010   0.837   0.282
 6468SOL     OW20302   2.768   6.474   1.039
 6468SOL    HW120303   2.826   6.544   1.079
 6468SOL    HW220304   2.823   6.414   0.981
 6469SOL     OW20305   4.265   2.064   3.556
 6469SOL    HW120306   4.213   2.106   3.482
 6469SOL    HW220307   4.239   2.106   3.643
 6470SOL     OW20308   5.744   2.778   1.074
 6470SOL    HW120309   5.682   2.701   1.090
 6470SOL    HW220310   5.826   2.746   1.027
 6471SOL     OW20311   6.999   6.437   5.809
 6471SOL    HW120312   0.063   6.453   5.761
 6471SOL    HW220313   6.949   6.364   5.763
 6472SOL     OW20314   0.050   5.784   1.702
 6472SOL    HW120315   6.997   5.819   1.648
 6472SOL    HW220316   0.080   5.696   1.666
 6473SOL     OW20317   2.673   1.720   4.718
 6473SOL    HW120318   2.669   1.774   4.634
 6473SOL    HW220319   2.580   1.703   4.751
 6474SOL     OW20320   3.129   5.021   6.421
 6474SOL    HW120321   3.142   5.005   6.323
 6474SOL    HW220322   3.102   5.116   6.436
 6475SOL     OW20323   6.299   5.451   3.399
 6475SOL    HW120324   6.368   5.388   3.362
 6475SOL    HW220325   6.321   5.544   3.370
 6476SOL     OW20326   4.596   3.863   1.340
 6476SOL    HW120327   4.569   3.844   1.434
 6476SOL    HW220328   4.653   3.789   1.306
 6477SOL     OW20329   5.873   4.902   0.504
 6477SOL    HW120330   5.931   4.876   0.427
 6477SOL    HW220331   5.793   4.841   0.508
 6478SOL     OW20332   3.106   0.551   2.352
 6478SOL    HW120333   3.061   0.623   2.299
 6478SOL    HW220334   3.204   0.570   2.357
 6479SOL     OW20335   4.155   5.609   3.799
 6479SOL    HW120336   4.154   5.526   3.743
 6479SOL    HW220337   4.209   5.592   3.882
 6480SOL     OW20338   3.072   1.305   6.777
 6480SOL    HW120339   3.047   1.374   6.709
 6480SOL    HW220340   3.076   1.347   6.867
 6481SOL     OW20341   3.628   2.089   2.255
 6481SOL    HW120342   3.694   2.026   2.295
 6481SOL    HW220343   3.664   2.126   2.169
 6482SOL     OW20344   6.467   1.074   5.663
 6482SOL    HW120345   6.506   1.164   5.684
 6482SOL    HW220346   6.501   1.007   5.728
 6483SOL     OW20347   1.065   0.084   3.036
 6483SOL    HW120348   0.978   0.058   2.995
 6483SOL    HW220349   1.094   0.173   2.998
 6484SOL     OW20350   3.790   0.020   1.705
 6484SOL    HW120351   3.718   0.070   1.657
 6484SOL    HW220352   3.804   6.954   1.661
 6485SOL     OW20353   2.113   5.353   3.926
 6485SOL    HW120354   2.052   5.281   3.961
 6485SOL    HW220355   2.186   5.369   3.992
 6486SOL     OW20356   0.985   4.284   3.129
 6486SOL    HW120357   0.987   4.228   3.212
 6486SOL    HW220358   0.902   4.339   3.127
 6487SOL     OW20359   0.693   6.568   5.327
 6487SOL    HW120360   0.662   6.503   5.257
 6487SOL    HW220361   0.655   6.659   5.307
 6488SOL     OW20362   3.416   6.009   4.515
 6488SOL    HW120363   3.383   5.977   4.427
 6488SOL    HW220364   3.511   5.981   4.528
 6489SOL     OW20365   3.241   3.384   6.150
 6489SOL    HW120366   3.213   3.465   6.098
 6489SOL    HW220367   3.315   3.337   6.100
 6490SOL     OW20368   3.953   1.503   6.554
 6490SOL    HW120369   3.947   1.417   6.502
 6490SOL    HW220370   3.961   1.483   6.651
 6491SOL     OW20371   4.026   0.865   1.435
 6491SOL    HW120372   4.005   0.930   1.508
 6491SOL    HW220373   4.041   0.914   1.349
 6492SOL     OW20374   4.315   4.710   6.466
 6492SOL    HW120375   4.366   4.649   6.406
 6492SOL    HW220376   4.344   4.696   6.560
 6493SOL     OW20377   1.759   4.286   5.870
 6493SOL    HW120378   1.669   4.266   5.831
 6493SOL    HW220379   1.829   4.273   5.800
 6494SOL     OW20380   6.860   0.714   3.309
 6494SOL    HW120381   6.771   0.756   3.292
 6494SOL    HW220382   6.854   0.615   3.297
 6495SOL     OW20383   6.371   0.336   4.415
 6495SOL    HW120384   6.348   0.253   4.365
 6495SOL    HW220385   6.292   0.366   4.469
 6496SOL     OW20386   6.081   1.417   3.058
 6496SOL    HW120387   6.062   1.501   3.007
 6496SOL    HW220388   5.996   1.366   3.072
 6497SOL     OW20389   0.930   1.274   0.941
 6497SOL    HW120390   0.930   1.302   0.845
 6497SOL    HW220391   0.955   1.177   0.947
 6498SOL     OW20392   1.747   3.628   3.535
 6498SOL    HW120393   1.790   3.700   3.481
 6498SOL    HW220394   1.711   3.667   3.620
 6499SOL     OW20395   5.531   3.270   5.671
 6499SOL    HW120396   5.468   3.236   5.741
 6499SOL    HW220397   5.611   3.310   5.715
 6500SOL     OW20398   6.842   3.841   4.609
 6500SOL    HW120399   6.871   3.792   4.527
 6500SOL    HW220400   6.747   3.871   4.598
 6501SOL     OW20401   0.035   1.224   6.341
 6501SOL    HW120402   7.022   1.312   6.311
 6501SOL    HW220403   0.001   1.152   6.280
 6502SOL     OW20404   7.004   2.641   2.508
 6502SOL    HW120405   0.023   2.728   2.479
 6502SOL    HW220406   6.908   2.640   2.480
 6503SOL     OW20407   5.293   1.240   3.444
 6503SOL    HW120408   5.380   1.244   3.395
 6503SOL    HW220409   5.280   1.324   3.497
 6504SOL     OW20410   4.559   6.436   5.634
 6504SOL    HW120411   4.581   6.518   5.581
 6504SOL    HW220412   4.645   6.392   5.662
 6505SOL     OW20413   5.449   5.342   6.904
 6505SOL    HW120414   5.414   5.289   6.827
 6505SOL    HW220415   5.385   5.335   6.981
 6506SOL     OW20416   6.740   2.464   2.921
 6506SOL    HW120417   6.808   2.395   2.943
 6506SOL    HW220418   6.774   2.521   2.846
 6507SOL     OW20419   1.577   5.239   6.064
 6507SOL    HW120420   1.662   5.279   6.099
 6507SOL    HW220421   1.569   5.144   6.095
 6508SOL     OW20422   1.729   0.716   2.404
 6508SOL    HW120423   1.784   0.792   2.440
 6508SOL    HW220424   1.790   0.643   2.373
 6509SOL     OW20425   3.738   1.147   4.797
 6509SOL    HW120426   3.652   1.104   4.768
 6509SOL    HW220427   3.739   1.155   4.897
 6510SOL     OW20428   6.197   5.787   0.264
 6510SOL    HW120429   6.284   5.772   0.310
 6510SOL    HW220430   6.195   5.879   0.225
 6511SOL     OW20431   3.787   1.309   5.293
 6511SOL    HW120432   3.830   1.226   5.328
 6511SOL    HW220433   3.777   1.375   5.368
 6512SOL     OW20434   4.218   6.630   1.914
 6512SOL    HW120435   4.251   6.724   1.930
 6512SOL    HW220436   4.211   6.583   2.002
 6513SOL     OW20437   2.762   4.859   3.059
 6513SOL    HW120438   2.814   4.848   3.144
 6513SOL    HW220439   2.706   4.942   3.065
 6514SOL     OW20440   6.219   1.154   4.035
 6514SOL    HW120441   6.227   1.244   3.993
 6514SOL    HW220442   6.196   1.086   3.965
 6515SOL     OW20443   0.577   5.193   4.177
 6515SOL    HW120444   0.530   5.118   4.131
 6515SOL    HW220445   0.613   5.161   4.264
 6516SOL     OW20446   0.225   3.653   1.713
 6516SOL    HW120447   0.278   3.735   1.693
 6516SOL    HW220448   0.139   3.656   1.662
 6517SOL     OW20449   6.604   1.588   1.288
 6517SOL    HW120450   6.554   1.564   1.205
 6517SOL    HW220451   6.550   1.653   1.342
 6518SOL     OW20452   0.283   0.821   0.255
 6518SOL    HW120453   0.277   0.734   0.206
 6518SOL    HW220454   0.199   0.873   0.242
 6519SOL     OW20455   0.793   2.573   3.215
 6519SOL    HW120456   0.792   2.658   3.162
 6519SOL    HW220457   0.838   2.502   3.162
 6520SOL     OW20458   5.955   5.121   1.204
 6520SOL    HW120459   5.880   5.154   1.262
 6520SOL    HW220460   6.041   5.124   1.255
 6521SOL     OW20461   2.191   2.889   4.187
 6521SOL    HW120462   2.245   2.805   4.194
 6521SOL    HW220463   2.105   2.878   4.236
 6522SOL     OW20464   3.295   5.076   5.707
 6522SOL    HW120465   3.209   5.113   5.670
 6522SOL    HW220466   3.277   4.989   5.752
 6523SOL     OW20467   3.301   1.728   0.261
 6523SOL    HW120468   3.390   1.683   0.251
 6523SOL    HW220469   3.300   1.811   0.205
 6524SOL     OW20470   3.688   3.561   1.764
 6524SOL    HW120471   3.727   3.523   1.848
 6524SOL    HW220472   3.762   3.589   1.702
 6525SOL     OW20473   2.396   5.133   3.468
 6525SOL    HW120474   2.353   5.212   3.424
 6525SOL    HW220475   2.327   5.065   3.491
 6526SOL     OW20476   2.262   0.324   0.044
 6526SOL    HW120477   2.267   0.235   7.022
 6526SOL    HW220478   2.342   0.335   0.104
 6527SOL     OW20479   0.820   1.801   5.276
 6527SOL    HW120480   0.889   1.729   5.274
 6527SOL    HW220481   0.773   1.806   5.188
 6528SOL     OW20482   6.315   0.845   5.462
 6528SOL    HW120483   6.394   0.807   5.413
 6528SOL    HW220484   6.306   0.942   5.439
 6529SOL     OW20485   2.135   0.986   2.644
 6529SOL    HW120486   2.193   1.060   2.611
 6529SOL    HW220487   2.162   0.900   2.601
 6530SOL     OW20488   7.022   2.751   0.559
 6530SOL    HW120489   0.036   2.821   0.621
 6530SOL    HW220490   0.059   2.671   0.560
 6531SOL     OW20491   5.088   2.899   5.276
 6531SOL    HW120492   5.001   2.870   5.316
 6531SOL    HW220493   5.074   2.980   5.220
 6532SOL     OW20494   6.681   1.042   1.183
 6532SOL    HW120495   6.607   0.980   1.160
 6532SOL    HW220496   6.727   1.010   1.266
 6533SOL     OW20497   4.853   0.053   0.710
 6533SOL    HW120498   4.881   0.125   0.646
 6533SOL    HW220499   4.786   0.090   0.774
 6534SOL     OW20500   4.333   4.616   1.653
 6534SOL    HW120501   4.260   4.628   1.586
 6534SOL    HW220502   4.357   4.520   1.661
 6535SOL     OW20503   6.447   3.990   4.241
 6535SOL    HW120504   6.369   4.047   4.266
 6535SOL    HW220505   6.532   4.037   4.265
 6536SOL     OW20506   0.766   0.747   5.549
 6536SOL    HW120507   0.729   0.656   5.536
 6536SOL    HW220508   0.691   0.813   5.559
 6537SOL     OW20509   0.201   5.343   6.743
 6537SOL    HW120510   0.183   5.259   6.692
 6537SOL    HW220511   0.135   5.352   6.817
 6538SOL     OW20512   2.247   3.643   6.133
 6538SOL    HW120513   2.173   3.610   6.074
 6538SOL    HW220514   2.208   3.671   6.221
 6539SOL     OW20515   4.624   0.778   6.870
 6539SOL    HW120516   4.685   0.741   6.800
 6539SOL    HW220517   4.678   0.809   6.948
 6540SOL     OW20518   4.640   1.856   5.719
 6540SOL    HW120519   4.555   1.903   5.694
 6540SOL    HW220520   4.716   1.895   5.667
 6541SOL     OW20521   4.142   1.926   4.675
 6541SOL    HW120522   4.063   1.874   4.707
 6541SOL    HW220523   4.116   2.021   4.660
 6542SOL     OW20524   6.416   3.219   4.494
 6542SOL    HW120525   6.391   3.196   4.588
 6542SOL    HW220526   6.415   3.318   4.482
 6543SOL     OW20527   4.941   2.701   5.935
 6543SOL    HW120528   5.027   2.684   5.885
 6543SOL    HW220529   4.910   2.616   5.978
 6544SOL     OW20530   1.017   5.976   2.738
 6544SOL    HW120531   1.037   6.074   2.744
 6544SOL    HW220532   0.988   5.943   2.828
 6545SOL     OW20533   4.108   1.327   0.474
 6545SOL    HW120534   4.135   1.370   0.388
 6545SOL    HW220535   4.027   1.373   0.510
 6546SOL     OW20536   3.324   4.525   0.119
 6546SOL    HW120537   3.360   4.434   0.099
 6546SOL    HW220538   3.326   4.541   0.218
 6547SOL     OW20539   4.682   1.142   6.025
 6547SOL    HW120540   4.747   1.119   6.097
 6547SOL    HW220541   4.594   1.099   6.045
 6548SOL     OW20542   0.486   4.279   0.940
 6548SOL    HW120543   0.407   4.225   0.912
 6548SOL    HW220544   0.569   4.223   0.934
 6549SOL     OW20545   4.748   0.879   1.994
 6549SOL    HW120546   4.663   0.933   1.995
 6549SOL    HW220547   4.763   0.841   2.085
 6550SOL     OW20548   0.204   6.894   3.357
 6550SOL    HW120549   0.212   6.987   3.391
 6550SOL    HW220550   0.217   6.829   3.432
 6551SOL     OW20551   2.063   4.732   2.420
 6551SOL    HW120552   2.051   4.779   2.507
 6551SOL    HW220553   2.047   4.796   2.345
 6552SOL     OW20554   1.979   0.228   0.353
 6552SOL    HW120555   2.052   0.161   0.363
 6552SOL    HW220556   2.013   0.307   0.302
 6553SOL     OW20557   6.850   2.372   3.653
 6553SOL    HW120558   6.902   2.445   3.697
 6553SOL    HW220559   6.886   2.357   3.561
 6554SOL     OW20560   0.458   0.390   5.064
 6554SOL    HW120561   0.441   0.329   5.142
 6554SOL    HW220562   0.508   0.471   5.095
 6555SOL     OW20563   5.816   1.328   3.078
 6555SOL    HW120564   5.808   1.422   3.113
 6555SOL    HW220565   5.819   1.329   2.978
 6556SOL     OW20566   5.065   4.459   4.121
 6556SOL    HW120567   4.977   4.484   4.081
 6556SOL    HW220568   5.056   4.371   4.168
 6557SOL     OW20569   3.416   0.012   2.976
 6557SOL    HW120570   3.446   6.946   2.941
 6557SOL    HW220571   3.333   0.041   2.927
 6558SOL     OW20572   6.999   5.133   6.851
 6558SOL    HW120573   6.957   5.066   6.912
 6558SOL    HW220574   7.016   5.218   6.901
 6559SOL     OW20575   0.395   3.473   6.455
 6559SOL    HW120576   0.397   3.490   6.553
 6559SOL    HW220577   0.488   3.475   6.418
 6560SOL     OW20578   4.596   4.666   1.517
 6560SOL    HW120579   4.601   4.719   1.432
 6560SOL    HW220580   4.500   4.656   1.544
 6561SOL     OW20581   3.451   4.043   1.419
 6561SOL    HW120582   3.477   4.027   1.324
 6561SOL    HW220583   3.472   3.961   1.473
 6562SOL     OW20584   6.169   3.263   0.648
 6562SOL    HW120585   6.123   3.177   0.626
 6562SOL    HW220586   6.101   3.337   0.649
 6563SOL     OW20587   5.023   5.807   6.919
 6563SOL    HW120588   5.029   5.800   6.819
 6563SOL    HW220589   5.048   5.899   6.948
 6564SOL     OW20590   6.940   4.003   3.042
 6564SOL    HW120591   6.971   4.051   3.124
 6564SOL    HW220592   6.882   3.926   3.068
 6565SOL     OW20593   5.104   1.946   3.144
 6565SOL    HW120594   5.139   1.861   3.105
 6565SOL    HW220595   5.076   2.007   3.071
 6566SOL     OW20596   4.073   6.021   1.970
 6566SOL    HW120597   4.046   6.091   2.036
 6566SOL    HW220598   3.998   5.956   1.958
 6567SOL     OW20599   4.365   1.082   2.815
 6567SOL    HW120600   4.420   1.161   2.788
 6567SOL    HW220601   4.323   1.041   2.735
 6568SOL     OW20602   3.108   1.144   3.540
 6568SOL    HW120603   3.053   1.062   3.553
 6568SOL    HW220604   3.186   1.122   3.481
 6569SOL     OW20605   2.705   3.574   0.128
 6569SOL    HW120606   2.637   3.502   0.115
 6569SOL    HW220607   2.659   3.663   0.125
 6570SOL     OW20608   3.544   0.573   2.153
 6570SOL    HW120609   3.558   0.649   2.089
 6570SOL    HW220610   3.512   0.492   2.102
 6571SOL     OW20611   3.315   5.081   1.680
 6571SOL    HW120612   3.268   5.146   1.620
 6571SOL    HW220613   3.315   5.117   1.773
 6572SOL     OW20614   6.835   5.268   5.473
 6572SOL    HW120615   6.810   5.360   5.446
 6572SOL    HW220616   6.929   5.267   5.508
 6573SOL     OW20617   1.282   1.762   2.020
 6573SOL    HW120618   1.351   1.715   1.966
 6573SOL    HW220619   1.296   1.861   2.015
 6574SOL     OW20620   2.833   5.330   2.444
 6574SOL    HW120621   2.757   5.377   2.488
 6574SOL    HW220622   2.916   5.384   2.455
 6575SOL     OW20623   0.760   0.277   2.976
 6575SOL    HW120624   0.769   0.348   2.905
 6575SOL    HW220625   0.759   0.187   2.932
 6576SOL     OW20626   2.418   6.330   0.317
 6576SOL    HW120627   2.482   6.391   0.270
 6576SOL    HW220628   2.336   6.318   0.261
 6577SOL     OW20629   0.901   1.905   3.973
 6577SOL    HW120630   0.934   1.999   3.971
 6577SOL    HW220631   0.943   1.856   4.049
 6578SOL     OW20632   0.617   5.620   3.225
 6578SOL    HW120633   0.649   5.600   3.318
 6578SOL    HW220634   0.630   5.717   3.206
 6579SOL     OW20635   6.680   3.305   4.216
 6579SOL    HW120636   6.721   3.276   4.303
 6579SOL    HW220637   6.695   3.235   4.147
 6580SOL     OW20638   0.874   2.373   1.238
 6580SOL    HW120639   0.806   2.403   1.171
 6580SOL    HW220640   0.914   2.453   1.283
 6581SOL     OW20641   3.181   0.966   0.222
 6581SOL    HW120642   3.190   0.875   0.182
 6581SOL    HW220643   3.096   0.971   0.275
 6582SOL     OW20644   0.722   1.132   2.764
 6582SOL    HW120645   0.663   1.062   2.724
 6582SOL    HW220646   0.755   1.192   2.691
 6583SOL     OW20647   4.242   0.933   5.381
 6583SOL    HW120648   4.176   0.878   5.432
 6583SOL    HW220649   4.325   0.943   5.436
 6584SOL     OW20650   4.574   2.574   0.958
 6584SOL    HW120651   4.499   2.626   0.999
 6584SOL    HW220652   4.656   2.585   1.013
 6585SOL     OW20653   6.132   6.542   6.772
 6585SOL    HW120654   6.120   6.636   6.739
 6585SOL    HW220655   6.098   6.478   6.703
 6586SOL     OW20656   6.184   0.830   5.152
 6586SOL    HW120657   6.253   0.896   5.123
 6586SOL    HW220658   6.098   0.850   5.106
 6587SOL     OW20659   2.000   5.697   5.273
 6587SOL    HW120660   1.936   5.717   5.346
 6587SOL    HW220661   1.952   5.690   5.186
 6588SOL     OW20662   1.021   3.183   1.495
 6588SOL    HW120663   1.091   3.254   1.488
 6588SOL    HW220664   1.057   3.097   1.460
 6589SOL     OW20665   5.077   0.918   0.878
 6589SOL    HW120666   5.063   0.909   0.780
 6589SOL    HW220667   5.110   0.832   0.915
 6590SOL     OW20668   0.603   1.214   5.836
 6590SOL    HW120669   0.517   1.238   5.791
 6590SOL    HW220670   0.680   1.251   5.785
 6591SOL     OW20671   5.936   5.322   2.531
 6591SOL    HW120672   5.983   5.408   2.550
 6591SOL    HW220673   5.847   5.321   2.578
 6592SOL     OW20674   5.471   0.013   3.459
 6592SOL    HW120675   5.393   6.983   3.494
 6592SOL    HW220676   5.555   6.999   3.498
 6593SOL     OW20677   1.759   2.172   2.627
 6593SOL    HW120678   1.777   2.234   2.551
 6593SOL    HW220679   1.778   2.078   2.600
 6594SOL     OW20680   3.936   1.867   0.106
 6594SOL    HW120681   3.874   1.791   0.129
 6594SOL    HW220682   3.961   1.862   0.009
 6595SOL     OW20683   1.001   3.905   6.460
 6595SOL    HW120684   1.070   3.953   6.406
 6595SOL    HW220685   1.040   3.821   6.498
 6596SOL     OW20686   2.968   6.137   4.691
 6596SOL    HW120687   2.873   6.170   4.685
 6596SOL    HW220688   2.998   6.140   4.786
 6597SOL     OW20689   1.556   5.458   1.844
 6597SOL    HW120690   1.636   5.432   1.899
 6597SOL    HW220691   1.580   5.536   1.786
 6598SOL     OW20692   1.434   5.434   4.484
 6598SOL    HW120693   1.473   5.516   4.443
 6598SOL    HW220694   1.345   5.456   4.524
 6599SOL     OW20695   4.620   6.116   6.132
 6599SOL    HW120696   4.626   6.215   6.146
 6599SOL    HW220697   4.568   6.074   6.206
 6600SOL     OW20698   4.933   5.037   5.131
 6600SOL    HW120699   4.943   4.951   5.081
 6600SOL    HW220700   5.017   5.091   5.123
 6601SOL     OW20701   1.382   2.120   4.871
 6601SOL    HW120702   1.446   2.195   4.854
 6601SOL    HW220703   1.290   2.158   4.885
 6602SOL     OW20704   1.391   1.003   1.854
 6602SOL    HW120705   1.477   1.050   1.834
 6602SOL    HW220706   1.407   0.904   1.857
 6603SOL     OW20707   6.956   2.880   3.874
 6603SOL    HW120708   6.925   2.799   3.924
 6603SOL    HW220709   6.883   2.913   3.815
 6604SOL     OW20710   1.838   0.321   0.630
 6604SOL    HW120711   1.810   0.227   0.650
 6604SOL    HW220712   1.880   0.324   0.539
 6605SOL     OW20713   5.414   4.243   2.102
 6605SOL    HW120714   5.392   4.158   2.151
 6605SOL    HW220715   5.506   4.273   2.127
 6606SOL     OW20716   0.324   6.242   2.197
 6606SOL    HW120717   0.414   6.249   2.240
 6606SOL    HW220718   0.272   6.168   2.240
 6607SOL     OW20719   1.917   3.609   2.300
 6607SOL    HW120720   1.920   3.521   2.252
 6607SOL    HW220721   2.010   3.645   2.310
 6608SOL     OW20722   6.250   6.514   0.691
 6608SOL    HW120723   6.331   6.545   0.743
 6608SOL    HW220724   6.279   6.453   0.618
 6609SOL     OW20725   4.687   0.868   6.363
 6609SOL    HW120726   4.663   0.934   6.291
 6609SOL    HW220727   4.710   0.780   6.321
 6610SOL     OW20728   2.544   6.982   6.760
 6610SOL    HW120729   2.590   6.913   6.704
 6610SOL    HW220730   2.534   6.947   6.853
 6611SOL     OW20731   4.899   2.595   3.783
 6611SOL    HW120732   4.865   2.687   3.764
 6611SOL    HW220733   4.999   2.598   3.790
 6612SOL     OW20734   5.920   1.996   5.948
 6612SOL    HW120735   5.949   2.041   5.864
 6612SOL    HW220736   5.856   2.055   5.997
 6613SOL     OW20737   6.196   6.502   5.250
 6613SOL    HW120738   6.118   6.563   5.240
 6613SOL    HW220739   6.201   6.471   5.345
 6614SOL     OW20740   4.629   5.821   0.433
 6614SOL    HW120741   4.694   5.791   0.363
 6614SOL    HW220742   4.566   5.746   0.455
 6615SOL     OW20743   1.931   5.812   1.786
 6615SOL    HW120744   1.839   5.808   1.825
 6615SOL    HW220745   1.989   5.868   1.844
 6616SOL     OW20746   4.871   1.081   6.223
 6616SOL    HW120747   4.936   1.018   6.266
 6616SOL    HW220748   4.885   1.173   6.259
 6617SOL     OW20749   4.493   4.945   3.436
 6617SOL    HW120750   4.538   4.856   3.435
 6617SOL    HW220751   4.498   4.983   3.529
 6618SOL     OW20752   1.304   2.485   2.390
 6618SOL    HW120753   1.318   2.562   2.327
 6618SOL    HW220754   1.260   2.410   2.341
 6619SOL     OW20755   5.662   0.392   4.201
 6619SOL    HW120756   5.568   0.406   4.169
 6619SOL    HW220757   5.723   0.380   4.123
 6620SOL     OW20758   1.986   2.506   5.375
 6620SOL    HW120759   2.030   2.534   5.460
 6620SOL    HW220760   1.887   2.504   5.388
 6621SOL     OW20761   3.549   3.138   6.423
 6621SOL    HW120762   3.536   3.229   6.464
 6621SOL    HW220763   3.491   3.072   6.470
 6622SOL     OW20764   6.108   6.538   1.351
 6622SOL    HW120765   6.074   6.629   1.326
 6622SOL    HW220766   6.081   6.472   1.282
 6623SOL     OW20767   3.021   3.124   5.310
 6623SOL    HW120768   2.953   3.194   5.286
 6623SOL    HW220769   3.075   3.157   5.387
 6624SOL     OW20770   0.266   5.095   6.088
 6624SOL    HW120771   0.175   5.103   6.128
 6624SOL    HW220772   0.283   5.172   6.027
 6625SOL     OW20773   5.226   1.632   5.480
 6625SOL    HW120774   5.275   1.610   5.396
 6625SOL    HW220775   5.208   1.549   5.532
 6626SOL     OW20776   4.426   5.102   5.082
 6626SOL    HW120777   4.330   5.082   5.102
 6626SOL    HW220778   4.465   5.158   5.155
 6627SOL     OW20779   1.996   6.374   5.178
 6627SOL    HW120780   1.995   6.408   5.272
 6627SOL    HW220781   1.980   6.276   5.178
 6628SOL     OW20782   4.797   5.046   4.666
 6628SOL    HW120783   4.747   4.988   4.602
 6628SOL    HW220784   4.737   5.072   4.742
 6629SOL     OW20785   4.691   6.055   6.799
 6629SOL    HW120786   4.760   6.100   6.742
 6629SOL    HW220787   4.645   5.984   6.745
 6630SOL     OW20788   4.137   1.611   1.433
 6630SOL    HW120789   4.130   1.644   1.527
 6630SOL    HW220790   4.165   1.515   1.434
 6631SOL     OW20791   2.053   5.003   3.492
 6631SOL    HW120792   2.052   5.049   3.581
 6631SOL    HW220793   1.970   5.025   3.442
 6632SOL     OW20794   0.234   0.010   1.541
 6632SOL    HW120795   0.166   0.015   1.467
 6632SOL    HW220796   0.286   6.948   1.531
 6633SOL     OW20797   1.560   4.560   6.532
 6633SOL    HW120798   1.579   4.527   6.625
 6633SOL    HW220799   1.618   4.510   6.467
 6634SOL     OW20800   4.834   2.174   4.786
 6634SOL    HW120801   4.930   2.160   4.763
 6634SOL    HW220802   4.803   2.097   4.843
 6635SOL     OW20803   4.890   4.935   3.019
 6635SOL    HW120804   4.888   5.023   3.066
 6635SOL    HW220805   4.969   4.931   2.957
 6636SOL     OW20806   4.876   1.884   6.120
 6636SOL    HW120807   4.913   1.955   6.180
 6636SOL    HW220808   4.936   1.873   6.041
 6637SOL     OW20809   1.312   6.950   6.782
 6637SOL    HW120810   1.297   6.933   6.880
 6637SOL    HW220811   1.396   6.904   6.753
 6638SOL     OW20812   3.049   3.974   3.625
 6638SOL    HW120813   3.046   3.876   3.608
 6638SOL    HW220814   2.996   4.022   3.555
 6639SOL     OW20815   5.225   5.072   6.068
 6639SOL    HW120816   5.138   5.038   6.032
 6639SOL    HW220817   5.274   5.122   5.996
 6640SOL     OW20818   0.902   1.832   4.717
 6640SOL    HW120819   0.911   1.754   4.655
 6640SOL    HW220820   0.984   1.889   4.710
 6641SOL     OW20821   2.216   2.022   5.863
 6641SOL    HW120822   2.133   1.974   5.889
 6641SOL    HW220823   2.295   1.961   5.873
 6642SOL     OW20824   1.738   5.831   6.793
 6642SOL    HW120825   1.731   5.904   6.862
 6642SOL    HW220826   1.834   5.810   6.777
 6643SOL     OW20827   6.047   5.092   0.149
 6643SOL    HW120828   6.141   5.126   0.157
 6643SOL    HW220829   6.038   5.006   0.199
 6644SOL     OW20830   2.770   5.637   1.413
 6644SOL    HW120831   2.748   5.723   1.366
 6644SOL    HW220832   2.694   5.610   1.471
 6645SOL     OW20833   6.497   4.531   0.245
 6645SOL    HW120834   6.532   4.622   0.224
 6645SOL    HW220835   6.566   4.480   0.296
 6646SOL     OW20836   3.770   0.438   4.868
 6646SOL    HW120837   3.771   0.470   4.773
 6646SOL    HW220838   3.769   0.517   4.930
 6647SOL     OW20839   5.028   1.102   1.209
 6647SOL    HW120840   4.960   1.062   1.271
 6647SOL    HW220841   4.984   1.129   1.124
 6648SOL     OW20842   3.794   6.638   3.743
 6648SOL    HW120843   3.784   6.737   3.749
 6648SOL    HW220844   3.756   6.606   3.656
 6649SOL     OW20845   5.362   0.991   6.837
 6649SOL    HW120846   5.288   0.933   6.870
 6649SOL    HW220847   5.352   1.083   6.874
 6650SOL     OW20848   3.847   1.585   5.379
 6650SOL    HW120849   3.936   1.626   5.398
 6650SOL    HW220850   3.808   1.627   5.296
 6651SOL     OW20851   2.630   1.276   5.709
 6651SOL    HW120852   2.645   1.341   5.634
 6651SOL    HW220853   2.674   1.309   5.792
 6652SOL     OW20854   0.897   4.328   0.774
 6652SOL    HW120855   0.870   4.344   0.678
 6652SOL    HW220856   0.944   4.409   0.809
 6653SOL     OW20857   3.599   3.723   2.665
 6653SOL    HW120858   3.651   3.656   2.612
 6653SOL    HW220859   3.518   3.751   2.614
 6654SOL     OW20860   1.260   5.062   1.316
 6654SOL    HW120861   1.272   5.072   1.217
 6654SOL    HW220862   1.206   4.980   1.335
 6655SOL     OW20863   1.074   0.761   3.845
 6655SOL    HW120864   1.070   0.858   3.868
 6655SOL    HW220865   0.984   0.719   3.861
 6656SOL     OW20866   5.576   2.051   3.898
 6656SOL    HW120867   5.625   2.006   3.972
 6656SOL    HW220868   5.480   2.024   3.901
 6657SOL     OW20869   6.340   4.879   6.350
 6657SOL    HW120870   6.404   4.827   6.293
 6657SOL    HW220871   6.259   4.823   6.368
 6658SOL     OW20872   6.718   1.045   4.644
 6658SOL    HW120873   6.783   1.029   4.718
 6658SOL    HW220874   6.630   1.004   4.668
 6659SOL     OW20875   2.034   3.074   0.805
 6659SOL    HW120876   2.041   2.983   0.847
 6659SOL    HW220877   2.055   3.068   0.708
 6660SOL     OW20878   0.944   5.244   1.359
 6660SOL    HW120879   0.851   5.210   1.375
 6660SOL    HW220880   0.983   5.198   1.279
 6661SOL     OW20881   1.402   6.538   5.091
 6661SOL    HW120882   1.475   6.518   5.025
 6661SOL    HW220883   1.433   6.513   5.183
 6662SOL     OW20884   1.681   0.106   0.326
 6662SOL    HW120885   1.669   0.091   0.228
 6662SOL    HW220886   1.778   0.105   0.349
 6663SOL     OW20887   6.392   5.005   4.097
 6663SOL    HW120888   6.405   5.103   4.082
 6663SOL    HW220889   6.406   4.956   4.011
 6664SOL     OW20890   2.192   6.359   0.693
 6664SOL    HW120891   2.097   6.345   0.667
 6664SOL    HW220892   2.233   6.428   0.632
 6665SOL     OW20893   2.275   5.719   4.812
 6665SOL    HW120894   2.275   5.625   4.848
 6665SOL    HW220895   2.350   5.770   4.855
 6666SOL     OW20896   6.248   0.133   6.006
 6666SOL    HW120897   6.206   0.062   5.949
 6666SOL    HW220898   6.246   0.103   6.102
 6667SOL     OW20899   6.886   6.311   6.755
 6667SOL    HW120900   6.873   6.356   6.667
 6667SOL    HW220901   6.984   6.302   6.773
 6668SOL     OW20902   6.684   4.999   1.245
 6668SOL    HW120903   6.648   4.912   1.279
 6668SOL    HW220904   6.615   5.071   1.259
 6669SOL     OW20905   1.720   2.539   2.811
 6669SOL    HW120906   1.710   2.548   2.910
 6669SOL    HW220907   1.762   2.622   2.774
 6670SOL     OW20908   3.740   1.135   5.611
 6670SOL    HW120909   3.701   1.212   5.559
 6670SOL    HW220910   3.806   1.087   5.553
 6671SOL     OW20911   5.323   6.566   0.851
 6671SOL    HW120912   5.399   6.562   0.786
 6671SOL    HW220913   5.239   6.537   0.806
 6672SOL     OW20914   6.626   2.525   6.994
 6672SOL    HW120915   6.584   2.582   0.042
 6672SOL    HW220916   6.586   2.434   6.996
 6673SOL     OW20917   4.932   5.019   4.066
 6673SOL    HW120918   5.028   4.993   4.071
 6673SOL    HW220919   4.915   5.097   4.127
 6674SOL     OW20920   0.439   4.248   6.211
 6674SOL    HW120921   0.444   4.166   6.155
 6674SOL    HW220922   0.473   4.327   6.159
 6675SOL     OW20923   5.268   3.957   1.198
 6675SOL    HW120924   5.234   3.942   1.105
 6675SOL    HW220925   5.208   3.910   1.263
 6676SOL     OW20926   0.683   4.075   5.915
 6676SOL    HW120927   0.752   4.049   5.847
 6676SOL    HW220928   0.628   3.994   5.939
 6677SOL     OW20929   1.362   1.946   6.107
 6677SOL    HW120930   1.417   2.014   6.155
 6677SOL    HW220931   1.332   1.982   6.019
 6678SOL     OW20932   2.893   3.412   6.800
 6678SOL    HW120933   2.959   3.457   6.741
 6678SOL    HW220934   2.901   3.449   6.893
 6679SOL     OW20935   3.443   1.250   3.732
 6679SOL    HW120936   3.379   1.221   3.803
 6679SOL    HW220937   3.440   1.184   3.656
 6680SOL     OW20938   5.163   6.652   6.790
 6680SOL    HW120939   5.127   6.745   6.797
 6680SOL    HW220940   5.218   6.631   6.872
 6681SOL     OW20941   3.566   6.000   1.447
 6681SOL    HW120942   3.520   6.024   1.532
 6681SOL    HW220943   3.662   5.980   1.465
 6682SOL     OW20944   0.491   4.189   2.168
 6682SOL    HW120945   0.506   4.184   2.069
 6682SOL    HW220946   0.492   4.097   2.206
 6683SOL     OW20947   5.971   3.277   5.086
 6683SOL    HW120948   5.904   3.283   5.160
 6683SOL    HW220949   5.925   3.249   5.002
 6684SOL     OW20950   2.719   0.008   1.605
 6684SOL    HW120951   2.763   0.020   1.694
 6684SOL    HW220952   2.627   0.049   1.607
 6685SOL     OW20953   6.278   3.207   5.750
 6685SOL    HW120954   6.179   3.200   5.736
 6685SOL    HW220955   6.316   3.273   5.685
 6686SOL     OW20956   5.081   6.078   4.876
 6686SOL    HW120957   5.119   6.083   4.968
 6686SOL    HW220958   5.147   6.036   4.815
 6687SOL     OW20959   1.432   3.450   0.166
 6687SOL    HW120960   1.356   3.515   0.156
 6687SOL    HW220961   1.505   3.493   0.219
 6688SOL     OW20962   6.226   4.513   2.731
 6688SOL    HW120963   6.201   4.585   2.795
 6688SOL    HW220964   6.159   4.439   2.737
 6689SOL     OW20965   4.345   3.170   0.419
 6689SOL    HW120966   4.391   3.082   0.408
 6689SOL    HW220967   4.248   3.160   0.398
 6690SOL     OW20968   1.259   1.400   0.642
 6690SOL    HW120969   1.210   1.483   0.667
 6690SOL    HW220970   1.248   1.332   0.715
 6691SOL     OW20971   2.889   6.529   2.261
 6691SOL    HW120972   2.978   6.569   2.283
 6691SOL    HW220973   2.877   6.529   2.162
 6692SOL     OW20974   3.764   3.412   5.319
 6692SOL    HW120975   3.742   3.376   5.229
 6692SOL    HW220976   3.760   3.512   5.316
 6693SOL     OW20977   4.432   2.947   5.623
 6693SOL    HW120978   4.340   2.948   5.662
 6693SOL    HW220979   4.471   2.855   5.630
 6694SOL     OW20980   3.569   5.755   1.011
 6694SOL    HW120981   3.623   5.830   1.049
 6694SOL    HW220982   3.478   5.755   1.053
 6695SOL     OW20983   3.103   2.300   0.643
 6695SOL    HW120984   3.080   2.397   0.654
 6695SOL    HW220985   3.125   2.282   0.547
 6696SOL     OW20986   3.144   3.030   5.991
 6696SOL    HW120987   3.128   3.091   5.914
 6696SOL    HW220988   3.110   3.073   6.075
 6697SOL     OW20989   4.633   2.462   3.119
 6697SOL    HW120990   4.661   2.511   3.037
 6697SOL    HW220991   4.627   2.364   3.100
 6698SOL     OW20992   2.513   2.751   1.806
 6698SOL    HW120993   2.552   2.827   1.753
 6698SOL    HW220994   2.557   2.666   1.778
 6699SOL     OW20995   2.732   5.867   5.658
 6699SOL    HW120996   2.782   5.925   5.595
 6699SOL    HW220997   2.665   5.812   5.608
 6700SOL     OW20998   0.732   6.881   1.782
 6700SOL    HW120999   0.771   6.790   1.801
 6700SOL    HW221000   0.807   6.947   1.770
 6701SOL     OW21001   5.593   4.025   2.492
 6701SOL    HW121002   5.523   4.061   2.554
 6701SOL    HW221003   5.637   3.946   2.534
 6702SOL     OW21004   3.138   1.872   1.233
 6702SOL    HW121005   3.231   1.878   1.267
 6702SOL    HW221006   3.073   1.893   1.307
 6703SOL     OW21007   6.536   2.265   6.954
 6703SOL    HW121008   6.469   2.211   6.904
 6703SOL    HW221009   6.620   2.212   6.966
 6704SOL     OW21010   3.393   1.573   2.921
 6704SOL    HW121011   3.369   1.660   2.964
 6704SOL    HW221012   3.321   1.506   2.937
 6705SOL     OW21013   0.066   2.918   1.586
 6705SOL    HW121014   0.031   2.970   1.664
 6705SOL    HW221015   0.117   2.838   1.620
 6706SOL     OW21016   1.858   4.491   2.452
 6706SOL    HW121017   1.762   4.464   2.453
 6706SOL    HW221018   1.873   4.561   2.382
 6707SOL     OW21019   6.636   6.290   3.525
 6707SOL    HW121020   6.620   6.191   3.528
 6707SOL    HW221021   6.667   6.316   3.434
 6708SOL     OW21022   0.043   5.511   1.549
 6708SOL    HW121023   0.049   5.430   1.490
 6708SOL    HW221024   6.980   5.508   1.601
 6709SOL     OW21025   3.008   6.479   3.330
 6709SOL    HW121026   3.001   6.476   3.230
 6709SOL    HW221027   3.064   6.557   3.358
 6710SOL     OW21028   3.628   0.383   6.313
 6710SOL    HW121029   3.577   0.342   6.236
 6710SOL    HW221030   3.646   0.313   6.381
 6711SOL     OW21031   4.601   5.356   5.939
 6711SOL    HW121032   4.614   5.267   5.983
 6711SOL    HW221033   4.635   5.351   5.845
 6712SOL     OW21034   5.240   4.038   0.203
 6712SOL    HW121035   5.281   3.947   0.208
 6712SOL    HW221036   5.141   4.029   0.191
 6713SOL     OW21037   2.177   0.224   2.483
 6713SOL    HW121038   2.259   0.186   2.525
 6713SOL    HW221039   2.187   0.323   2.474
 6714SOL     OW21040   6.395   0.882   5.958
 6714SOL    HW121041   6.339   0.864   6.039
 6714SOL    HW221042   6.336   0.914   5.884
 6715SOL     OW21043   0.697   0.214   0.097
 6715SOL    HW121044   0.757   0.254   0.027
 6715SOL    HW221045   0.601   0.230   0.071
 6716SOL     OW21046   0.491   5.900   1.395
 6716SOL    HW121047   0.477   5.991   1.434
 6716SOL    HW221048   0.459   5.900   1.300
 6717SOL     OW21049   3.754   3.120   6.793
 6717SOL    HW121050   3.699   3.130   6.877
 6717SOL    HW221051   3.759   3.024   6.768
 6718SOL     OW21052   5.481   0.656   0.982
 6718SOL    HW121053   5.517   0.584   1.042
 6718SOL    HW221054   5.463   0.738   1.036
 6719SOL     OW21055   2.415   0.409   6.493
 6719SOL    HW121056   2.334   0.430   6.439
 6719SOL    HW221057   2.489   0.471   6.466
 6720SOL     OW21058   1.279   6.918   4.284
 6720SOL    HW121059   1.231   6.836   4.316
 6720SOL    HW221060   1.299   6.909   4.187
 6721SOL     OW21061   6.919   0.282   0.079
 6721SOL    HW121062   6.833   0.324   0.048
 6721SOL    HW221063   6.907   0.244   0.170
 6722SOL     OW21064   6.672   2.840   1.789
 6722SOL    HW121065   6.649   2.750   1.753
 6722SOL    HW221066   6.763   2.867   1.756
 6723SOL     OW21067   2.056   6.092   3.146
 6723SOL    HW121068   1.989   6.153   3.189
 6723SOL    HW221069   2.124   6.147   3.097
 6724SOL     OW21070   1.734   3.062   5.607
 6724SOL    HW121071   1.821   3.086   5.650
 6724SOL    HW221072   1.733   3.096   5.512
 6725SOL     OW21073   0.598   3.305   1.564
 6725SOL    HW121074   0.687   3.312   1.519
 6725SOL    HW221075   0.532   3.364   1.518
 6726SOL     OW21076   0.730   2.086   5.378
 6726SOL    HW121077   0.824   2.079   5.345
 6726SOL    HW221078   0.727   2.151   5.454
 6727SOL     OW21079   6.937   3.985   5.337
 6727SOL    HW121080   6.935   3.967   5.239
 6727SOL    HW221081   6.970   4.078   5.354
 6728SOL     OW21082   3.563   1.965   2.760
 6728SOL    HW121083   3.497   2.009   2.820
 6728SOL    HW221084   3.528   1.965   2.666
 6729SOL     OW21085   6.759   1.345   3.048
 6729SOL    HW121086   6.739   1.384   3.138
 6729SOL    HW221087   6.819   1.406   2.997
 6730SOL     OW21088   2.590   6.875   0.817
 6730SOL    HW121089   2.581   6.777   0.832
 6730SOL    HW221090   2.683   6.905   0.839
 6731SOL     OW21091   0.880   6.092   1.558
 6731SOL    HW121092   0.967   6.140   1.566
 6731SOL    HW221093   0.883   6.007   1.610
 6732SOL     OW21094   5.380   4.792   4.670
 6732SOL    HW121095   5.335   4.794   4.580
 6732SOL    HW221096   5.363   4.703   4.714
 6733SOL     OW21097   4.237   5.955   0.363
 6733SOL    HW121098   4.335   5.960   0.342
 6733SOL    HW221099   4.196   6.046   0.356
 6734SOL     OW21100   6.353   2.364   4.502
 6734SOL    HW121101   6.370   2.266   4.503
 6734SOL    HW221102   6.321   2.393   4.592
 6735SOL     OW21103   6.700   4.403   4.796
 6735SOL    HW121104   6.734   4.381   4.705
 6735SOL    HW221105   6.645   4.326   4.830
 6736SOL     OW21106   2.864   3.241   0.199
 6736SOL    HW121107   2.778   3.292   0.208
 6736SOL    HW221108   2.923   3.260   0.277
 6737SOL     OW21109   1.722   2.480   0.484
 6737SOL    HW121110   1.699   2.401   0.426
 6737SOL    HW221111   1.642   2.538   0.493
 6738SOL     OW21112   1.696   5.454   2.684
 6738SOL    HW121113   1.739   5.501   2.607
 6738SOL    HW221114   1.645   5.520   2.738
 6739SOL     OW21115   3.554   6.220   5.024
 6739SOL    HW121116   3.472   6.216   4.967
 6739SOL    HW221117   3.601   6.131   5.021
 6740SOL     OW21118   1.696   0.284   4.649
 6740SOL    HW121119   1.747   0.198   4.649
 6740SOL    HW221120   1.598   0.265   4.645
 6741SOL     OW21121   4.248   1.519   5.607
 6741SOL    HW121122   4.170   1.573   5.575
 6741SOL    HW221123   4.322   1.580   5.635
 6742SOL     OW21124   6.473   6.091   2.324
 6742SOL    HW121125   6.482   6.008   2.380
 6742SOL    HW221126   6.440   6.166   2.381
 6743SOL     OW21127   3.469   5.299   0.461
 6743SOL    HW121128   3.504   5.215   0.503
 6743SOL    HW221129   3.399   5.275   0.392
 6744SOL     OW21130   5.706   4.391   6.077
 6744SOL    HW121131   5.661   4.302   6.082
 6744SOL    HW221132   5.671   4.441   5.997
 6745SOL     OW21133   6.928   0.234   2.806
 6745SOL    HW121134   6.921   0.313   2.867
 6745SOL    HW221135   6.931   0.266   2.711
 6746SOL     OW21136   0.447   1.372   3.541
 6746SOL    HW121137   0.362   1.331   3.573
 6746SOL    HW221138   0.462   1.348   3.445
 6747SOL     OW21139   5.649   1.254   5.038
 6747SOL    HW121140   5.723   1.322   5.037
 6747SOL    HW221141   5.606   1.250   4.948
 6748SOL     OW21142   2.070   0.961   3.510
 6748SOL    HW121143   2.033   0.875   3.546
 6748SOL    HW221144   2.157   0.981   3.555
 6749SOL     OW21145   2.946   6.245   0.556
 6749SOL    HW121146   2.945   6.296   0.641
 6749SOL    HW221147   3.030   6.190   0.551
 6750SOL     OW21148   4.205   2.218   5.193
 6750SOL    HW121149   4.227   2.126   5.160
 6750SOL    HW221150   4.194   2.279   5.115
 6751SOL     OW21151   3.938   0.324   3.503
 6751SOL    HW121152   3.888   0.382   3.439
 6751SOL    HW221153   4.010   0.379   3.547
 6752SOL     OW21154   0.600   1.754   2.704
 6752SOL    HW121155   0.607   1.834   2.643
 6752SOL    HW221156   0.512   1.709   2.689
 6753SOL     OW21157   3.821   0.793   6.600
 6753SOL    HW121158   3.885   0.853   6.552
 6753SOL    HW221159   3.764   0.745   6.534
 6754SOL     OW21160   0.384   1.738   0.180
 6754SOL    HW121161   0.439   1.673   0.232
 6754SOL    HW221162   0.294   1.747   0.222
 6755SOL     OW21163   4.076   0.971   3.142
 6755SOL    HW121164   4.105   1.055   3.188
 6755SOL    HW221165   3.980   0.981   3.113
 6756SOL     OW21166   3.876   5.035   5.544
 6756SOL    HW121167   3.918   5.095   5.477
 6756SOL    HW221168   3.944   4.971   5.579
 6757SOL     OW21169   4.357   1.260   2.035
 6757SOL    HW121170   4.282   1.280   2.099
 6757SOL    HW221171   4.340   1.306   1.948
 6758SOL     OW21172   6.388   2.013   1.680
 6758SOL    HW121173   6.385   2.073   1.760
 6758SOL    HW221174   6.414   2.067   1.599
 6759SOL     OW21175   0.675   4.489   4.549
 6759SOL    HW121176   0.731   4.472   4.630
 6759SOL    HW221177   0.587   4.444   4.559
 6760SOL     OW21178   6.252   3.965   3.058
 6760SOL    HW121179   6.219   3.875   3.089
 6760SOL    HW221180   6.321   3.952   2.987
 6761SOL     OW21181   6.634   2.244   6.045
 6761SOL    HW121182   6.642   2.289   6.134
 6761SOL    HW221183   6.696   2.165   6.043
 6762SOL     OW21184   0.704   5.852   3.735
 6762SOL    HW121185   0.784   5.806   3.773
 6762SOL    HW221186   0.621   5.809   3.773
 6763SOL     OW21187   0.374   4.680   2.619
 6763SOL    HW121188   0.296   4.659   2.678
 6763SOL    HW221189   0.379   4.614   2.544
 6764SOL     OW21190   2.043   4.736   0.228
 6764SOL    HW121191   1.999   4.650   0.256
 6764SOL    HW221192   1.997   4.772   0.147
 6765SOL     OW21193   5.505   3.969   3.366
 6765SOL    HW121194   5.594   3.956   3.323
 6765SOL    HW221195   5.487   3.893   3.428
 6766SOL     OW21196   5.298   6.497   6.350
 6766SOL    HW121197   5.220   6.508   6.288
 6766SOL    HW221198   5.338   6.407   6.336
 6767SOL     OW21199   1.066   2.029   0.857
 6767SOL    HW121200   1.069   1.978   0.771
 6767SOL    HW221201   1.115   2.115   0.846
 6768SOL     OW21202   0.942   6.476   3.629
 6768SOL    HW121203   0.919   6.379   3.628
 6768SOL    HW221204   0.889   6.523   3.700
 6769SOL     OW21205   2.499   0.304   5.495
 6769SOL    HW121206   2.599   0.304   5.503
 6769SOL    HW221207   2.474   0.321   5.400
 6770SOL     OW21208   4.654   1.837   3.607
 6770SOL    HW121209   4.672   1.936   3.610
 6770SOL    HW221210   4.741   1.788   3.607
 6771SOL     OW21211   3.940   1.065   2.384
 6771SOL    HW121212   3.972   1.031   2.296
 6771SOL    HW221213   4.018   1.087   2.442
 6772SOL     OW21214   4.348   2.382   2.556
 6772SOL    HW121215   4.254   2.407   2.578
 6772SOL    HW221216   4.378   2.310   2.619
 6773SOL     OW21217   0.674   6.311   2.084
 6773SOL    HW121218   0.637   6.267   2.003
 6773SOL    HW221219   0.774   6.309   2.081
 6774SOL     OW21220   1.706   3.348   4.760
 6774SOL    HW121221   1.704   3.441   4.723
 6774SOL    HW221222   1.730   3.284   4.688
 6775SOL     OW21223   1.552   2.708   3.537
 6775SOL    HW121224   1.503   2.716   3.624
 6775SOL    HW221225   1.631   2.770   3.538
 6776SOL     OW21226   4.363   3.983   0.548
 6776SOL    HW121227   4.427   3.987   0.472
 6776SOL    HW221228   4.307   3.901   0.541
 6777SOL     OW21229   5.125   5.116   1.186
 6777SOL    HW121230   5.136   5.110   1.285
 6777SOL    HW221231   5.170   5.199   1.152
 6778SOL     OW21232   6.753   4.369   1.923
 6778SOL    HW121233   6.714   4.454   1.960
 6778SOL    HW221234   6.789   4.386   1.832
 6779SOL     OW21235   5.269   4.758   6.021
 6779SOL    HW121236   5.226   4.836   5.976
 6779SOL    HW221237   5.224   4.742   6.109
 6780SOL     OW21238   1.015   3.009   2.783
 6780SOL    HW121239   0.970   3.058   2.858
 6780SOL    HW221240   0.988   3.049   2.696
 6781SOL     OW21241   6.675   1.437   4.876
 6781SOL    HW121242   6.630   1.405   4.793
 6781SOL    HW221243   6.690   1.536   4.871
 6782SOL     OW21244   0.857   1.114   3.319
 6782SOL    HW121245   0.790   1.048   3.286
 6782SOL    HW221246   0.912   1.148   3.241
 6783SOL     OW21247   0.886   1.999   5.680
 6783SOL    HW121248   0.949   2.055   5.733
 6783SOL    HW221249   0.920   1.990   5.586
 6784SOL     OW21250   2.740   3.691   0.537
 6784SOL    HW121251   2.759   3.595   0.516
 6784SOL    HW221252   2.796   3.750   0.478
 6785SOL     OW21253   5.863   5.041   4.656
 6785SOL    HW121254   5.843   5.020   4.752
 6785SOL    HW221255   5.950   4.999   4.630
 6786SOL     OW21256   1.133   2.583   0.433
 6786SOL    HW121257   1.168   2.649   0.500
 6786SOL    HW221258   1.033   2.585   0.433
 6787SOL     OW21259   3.572   2.951   0.661
 6787SOL    HW121260   3.538   3.030   0.611
 6787SOL    HW221261   3.613   2.886   0.597
 6788SOL     OW21262   0.896   4.532   1.873
 6788SOL    HW121263   0.881   4.434   1.881
 6788SOL    HW221264   0.869   4.576   1.959
 6789SOL     OW21265   0.174   4.507   3.820
 6789SOL    HW121266   0.122   4.529   3.903
 6789SOL    HW221267   0.270   4.492   3.843
 6790SOL     OW21268   1.017   3.698   6.643
 6790SOL    HW121269   1.037   3.601   6.630
 6790SOL    HW221270   1.067   3.733   6.722
 6791SOL     OW21271   3.821   1.938   2.344
 6791SOL    HW121272   3.832   1.935   2.443
 6791SOL    HW221273   3.907   1.912   2.300
 6792SOL     OW21274   4.945   0.301   5.385
 6792SOL    HW121275   4.874   0.246   5.428
 6792SOL    HW221276   5.004   0.340   5.456
 6793SOL     OW21277   2.943   1.059   6.768
 6793SOL    HW121278   2.904   1.058   6.860
 6793SOL    HW221279   2.998   1.141   6.755
 6794SOL     OW21280   5.262   1.435   5.078
 6794SOL    HW121281   5.284   1.517   5.131
 6794SOL    HW221282   5.177   1.395   5.111
 6795SOL     OW21283   1.333   6.126   1.141
 6795SOL    HW121284   1.382   6.191   1.083
 6795SOL    HW221285   1.311   6.044   1.089
 6796SOL     OW21286   6.462   0.364   2.789
 6796SOL    HW121287   6.522   0.332   2.716
 6796SOL    HW221288   6.428   0.456   2.766
 6797SOL     OW21289   6.877   2.322   1.962
 6797SOL    HW121290   6.964   2.308   1.914
 6797SOL    HW221291   6.893   2.320   2.061
 6798SOL     OW21292   6.745   6.443   1.183
 6798SOL    HW121293   6.737   6.543   1.178
 6798SOL    HW221294   6.819   6.419   1.245
 6799SOL     OW21295   6.035   0.595   2.305
 6799SOL    HW121296   6.075   0.503   2.305
 6799SOL    HW221297   6.101   0.659   2.265
 6800SOL     OW21298   2.482   2.491   2.206
 6800SOL    HW121299   2.563   2.456   2.253
 6800SOL    HW221300   2.463   2.585   2.237
 6801SOL     OW21301   1.505   0.223   3.758
 6801SOL    HW121302   1.466   0.268   3.838
 6801SOL    HW221303   1.535   0.131   3.782
 6802SOL     OW21304   3.187   6.059   1.641
 6802SOL    HW121305   3.214   5.970   1.605
 6802SOL    HW221306   3.134   6.108   1.572
 6803SOL     OW21307   4.254   4.346   6.507
 6803SOL    HW121308   4.306   4.415   6.457
 6803SOL    HW221309   4.287   4.340   6.601
 6804SOL     OW21310   3.859   5.543   3.023
 6804SOL    HW121311   3.797   5.508   2.952
 6804SOL    HW221312   3.889   5.635   2.999
 6805SOL     OW21313   0.557   4.679   6.384
 6805SOL    HW121314   0.601   4.719   6.464
 6805SOL    HW221315   0.590   4.586   6.370
 6806SOL     OW21316   6.657   1.349   3.650
 6806SOL    HW121317   6.725   1.399   3.704
 6806SOL    HW221318   6.567   1.390   3.664
 6807SOL     OW21319   3.766   3.225   2.253
 6807SOL    HW121320   3.713   3.309   2.264
 6807SOL    HW221321   3.719   3.150   2.298
 6808SOL     OW21322   0.033   1.953   5.437
 6808SOL    HW121323   6.971   1.916   5.474
 6808SOL    HW221324   0.059   1.904   5.354
 6809SOL     OW21325   6.521   3.038   1.068
 6809SOL    HW121326   6.463   2.972   1.117
 6809SOL    HW221327   6.488   3.049   0.975
 6810SOL     OW21328   3.253   1.134   1.987
 6810SOL    HW121329   3.253   1.212   2.050
 6810SOL    HW221330   3.162   1.121   1.950
 6811SOL     OW21331   6.403   3.676   1.979
 6811SOL    HW121332   6.474   3.660   1.910
 6811SOL    HW221333   6.368   3.588   2.012
 6812SOL     OW21334   3.497   4.066   5.567
 6812SOL    HW121335   3.556   4.064   5.486
 6812SOL    HW221336   3.407   4.101   5.541
 6813SOL     OW21337   5.741   3.049   2.588
 6813SOL    HW121338   5.699   2.995   2.661
 6813SOL    HW221339   5.670   3.085   2.528
 6814SOL     OW21340   4.649   1.896   6.430
 6814SOL    HW121341   4.553   1.881   6.408
 6814SOL    HW221342   4.706   1.835   6.374
 6815SOL     OW21343   2.308   6.562   6.807
 6815SOL    HW121344   2.261   6.649   6.816
 6815SOL    HW221345   2.368   6.565   6.727
 6816SOL     OW21346   6.992   0.781   5.558
 6816SOL    HW121347   0.029   0.701   5.559
 6816SOL    HW221348   6.919   0.768   5.490
 6817SOL     OW21349   2.302   2.776   3.484
 6817SOL    HW121350   2.399   2.794   3.502
 6817SOL    HW221351   2.266   2.847   3.424
 6818SOL     OW21352   1.783   6.470   0.715
 6818SOL    HW121353   1.843   6.391   0.707
 6818SOL    HW221354   1.688   6.441   0.703
 6819SOL     OW21355   4.317   1.554   2.910
 6819SOL    HW121356   4.273   1.569   2.999
 6819SOL    HW221357   4.260   1.495   2.854
 6820SOL     OW21358   1.588   5.947   1.553
 6820SOL    HW121359   1.666   5.936   1.615
 6820SOL    HW221360   1.596   6.033   1.503
 6821SOL     OW21361   3.915   2.491   5.343
 6821SOL    HW121362   3.985   2.503   5.273
 6821SOL    HW221363   3.840   2.556   5.327
 6822SOL     OW21364   6.011   2.363   5.707
 6822SOL    HW121365   5.942   2.435   5.713
 6822SOL    HW221366   6.033   2.331   5.799
 6823SOL     OW21367   5.828   4.118   6.157
 6823SOL    HW121368   5.743   4.086   6.199
 6823SOL    HW221369   5.862   4.049   6.093
 6824SOL     OW21370   0.919   1.577   0.421
 6824SOL    HW121371   0.871   1.605   0.504
 6824SOL    HW221372   0.936   1.478   0.424
 6825SOL     OW21373   5.844   0.742   6.966
 6825SOL    HW121374   5.775   0.813   6.978
 6825SOL    HW221375   5.912   0.772   6.899
 6826SOL     OW21376   1.917   3.826   3.432
 6826SOL    HW121377   1.925   3.774   3.517
 6826SOL    HW221378   1.982   3.902   3.433
 6827SOL     OW21379   5.450   5.313   6.310
 6827SOL    HW121380   5.354   5.284   6.308
 6827SOL    HW221381   5.496   5.272   6.389
 6828SOL     OW21382   3.393   1.438   1.657
 6828SOL    HW121383   3.451   1.378   1.711
 6828SOL    HW221384   3.391   1.405   1.562
 6829SOL     OW21385   5.165   6.174   5.782
 6829SOL    HW121386   5.211   6.245   5.728
 6829SOL    HW221387   5.125   6.106   5.720
 6830SOL     OW21388   5.295   0.366   3.281
 6830SOL    HW121389   5.232   0.306   3.231
 6830SOL    HW221390   5.373   0.388   3.222
 6831SOL     OW21391   1.831   1.391   6.015
 6831SOL    HW121392   1.889   1.349   5.945
 6831SOL    HW221393   1.766   1.324   6.050
 6832SOL     OW21394   2.440   4.171   0.595
 6832SOL    HW121395   2.513   4.234   0.570
 6832SOL    HW221396   2.455   4.083   0.549
 6833SOL     OW21397   2.364   4.860   6.688
 6833SOL    HW121398   2.339   4.795   6.759
 6833SOL    HW221399   2.286   4.876   6.628
 6834SOL     OW21400   6.540   0.310   0.780
 6834SOL    HW121401   6.571   0.238   0.841
 6834SOL    HW221402   6.451   0.286   0.741
 6835SOL     OW21403   3.646   1.173   5.071
 6835SOL    HW121404   3.587   1.092   5.073
 6835SOL    HW221405   3.695   1.181   5.158
 6836SOL     OW21406   2.644   4.583   6.424
 6836SOL    HW121407   2.679   4.564   6.516
 6836SOL    HW221408   2.702   4.538   6.356
 6837SOL     OW21409   0.320   2.602   3.472
 6837SOL    HW121410   0.403   2.548   3.456
 6837SOL    HW221411   0.243   2.560   3.424
 6838SOL     OW21412   3.229   5.589   6.251
 6838SOL    HW121413   3.291   5.571   6.174
 6838SOL    HW221414   3.148   5.637   6.217
 6839SOL     OW21415   5.436   0.952   5.114
 6839SOL    HW121416   5.468   1.047   5.119
 6839SOL    HW221417   5.377   0.941   5.034
 6840SOL     OW21418   3.344   6.797   5.149
 6840SOL    HW121419   3.352   6.778   5.247
 6840SOL    HW221420   3.322   6.712   5.100
 6841SOL     OW21421   3.906   4.756   0.801
 6841SOL    HW121422   3.962   4.837   0.783
 6841SOL    HW221423   3.929   4.719   0.891
 6842SOL     OW21424   2.255   2.791   0.363
 6842SOL    HW121425   2.297   2.777   0.453
 6842SOL    HW221426   2.245   2.702   0.317
 6843SOL     OW21427   5.777   6.766   1.867
 6843SOL    HW121428   5.750   6.862   1.867
 6843SOL    HW221429   5.806   6.740   1.775
 6844SOL     OW21430   5.543   0.019   3.755
 6844SOL    HW121431   5.446   7.019   3.748
 6844SOL    HW221432   5.596   6.982   3.695
 6845SOL     OW21433   5.475   4.562   2.577
 6845SOL    HW121434   5.450   4.573   2.673
 6845SOL    HW221435   5.543   4.489   2.569
 6846SOL     OW21436   4.442   3.276   1.266
 6846SOL    HW121437   4.505   3.220   1.320
 6846SOL    HW221438   4.396   3.218   1.198
 6847SOL     OW21439   6.804   4.736   2.868
 6847SOL    HW121440   6.745   4.665   2.907
 6847SOL    HW221441   6.880   4.754   2.931
 6848SOL     OW21442   3.473   6.569   3.572
 6848SOL    HW121443   3.505   6.534   3.660
 6848SOL    HW221444   3.549   6.616   3.526
 6849SOL     OW21445   3.565   5.431   4.660
 6849SOL    HW121446   3.500   5.451   4.733
 6849SOL    HW221447   3.577   5.513   4.604
 6850SOL     OW21448   5.658   3.480   1.855
 6850SOL    HW121449   5.729   3.443   1.914
 6850SOL    HW221450   5.700   3.516   1.772
 6851SOL     OW21451   1.006   3.028   3.802
 6851SOL    HW121452   0.991   2.929   3.791
 6851SOL    HW221453   0.928   3.069   3.848
 6852SOL     OW21454   1.785   4.674   0.915
 6852SOL    HW121455   1.798   4.576   0.899
 6852SOL    HW221456   1.866   4.724   0.885
 6853SOL     OW21457   6.379   3.852   0.022
 6853SOL    HW121458   6.479   3.863   0.025
 6853SOL    HW221459   6.341   3.868   0.112
 6854SOL     OW21460   5.083   1.797   5.668
 6854SOL    HW121461   5.074   1.699   5.683
 6854SOL    HW221462   5.131   1.814   5.582
 6855SOL     OW21463   3.494   5.620   3.088
 6855SOL    HW121464   3.536   5.710   3.087
 6855SOL    HW221465   3.503   5.577   2.999
 6856SOL     OW21466   4.780   4.339   5.380
 6856SOL    HW121467   4.874   4.366   5.361
 6856SOL    HW221468   4.762   4.250   5.337
 6857SOL     OW21469   2.853   2.184   0.151
 6857SOL    HW121470   2.933   2.130   0.125
 6857SOL    HW221471   2.772   2.149   0.105
 6858SOL     OW21472   3.627   3.543   4.185
 6858SOL    HW121473   3.588   3.620   4.236
 6858SOL    HW221474   3.656   3.472   4.249
 6859SOL     OW21475   1.200   0.472   0.932
 6859SOL    HW121476   1.175   0.433   1.020
 6859SOL    HW221477   1.191   0.572   0.935
 6860SOL     OW21478   6.141   5.451   1.206
 6860SOL    HW121479   6.207   5.451   1.131
 6860SOL    HW221480   6.141   5.361   1.250
 6861SOL     OW21481   5.622   4.050   0.822
 6861SOL    HW121482   5.615   4.027   0.725
 6861SOL    HW221483   5.712   4.021   0.856
 6862SOL     OW21484   1.901   4.699   5.363
 6862SOL    HW121485   1.991   4.670   5.394
 6862SOL    HW221486   1.845   4.618   5.342
 6863SOL     OW21487   6.038   1.374   6.025
 6863SOL    HW121488   6.128   1.416   6.007
 6863SOL    HW221489   6.026   1.295   5.965
 6864SOL     OW21490   2.790   5.923   4.292
 6864SOL    HW121491   2.864   5.960   4.347
 6864SOL    HW221492   2.826   5.856   4.226
 6865SOL     OW21493   0.171   5.978   3.263
 6865SOL    HW121494   0.099   6.048   3.262
 6865SOL    HW221495   0.129   5.888   3.249
 6866SOL     OW21496   6.533   4.755   3.010
 6866SOL    HW121497   6.549   4.801   2.924
 6866SOL    HW221498   6.437   4.724   3.015
 6867SOL     OW21499   1.851   4.646   1.650
 6867SOL    HW121500   1.914   4.601   1.587
 6867SOL    HW221501   1.893   4.730   1.685
 6868SOL     OW21502   1.196   5.032   6.444
 6868SOL    HW121503   1.168   4.937   6.433
 6868SOL    HW221504   1.296   5.038   6.442
 6869SOL     OW21505   5.214   0.542   4.843
 6869SOL    HW121506   5.280   0.496   4.902
 6869SOL    HW221507   5.196   0.484   4.763
 6870SOL     OW21508   6.846   4.633   2.161
 6870SOL    HW121509   6.902   4.690   2.102
 6870SOL    HW221510   6.902   4.563   2.205
 6871SOL     OW21511   6.316   4.611   3.045
 6871SOL    HW121512   6.218   4.617   3.061
 6871SOL    HW221513   6.345   4.516   3.049
 6872SOL     OW21514   0.734   2.829   1.346
 6872SOL    HW121515   0.749   2.927   1.335
 6872SOL    HW221516   0.782   2.796   1.427
 6873SOL     OW21517   6.767   3.792   5.176
 6873SOL    HW121518   6.835   3.770   5.106
 6873SOL    HW221519   6.782   3.734   5.256
 6874SOL     OW21520   0.979   5.692   2.344
 6874SOL    HW121521   0.924   5.728   2.269
 6874SOL    HW221522   1.054   5.637   2.308
 6875SOL     OW21523   1.664   2.296   3.092
 6875SOL    HW121524   1.694   2.381   3.047
 6875SOL    HW221525   1.692   2.218   3.036
 6876SOL     OW21526   3.985   6.291   4.082
 6876SOL    HW121527   3.993   6.197   4.115
 6876SOL    HW221528   3.933   6.292   3.997
 6877SOL     OW21529   2.983   3.761   0.362
 6877SOL    HW121530   3.037   3.787   0.281
 6877SOL    HW221531   3.045   3.730   0.434
 6878SOL     OW21532   2.997   1.917   5.592
 6878SOL    HW121533   3.019   1.872   5.506
 6878SOL    HW221534   3.038   2.008   5.594
 6879SOL     OW21535   0.913   2.231   0.348
 6879SOL    HW121536   1.008   2.238   0.317
 6879SOL    HW221537   0.853   2.220   0.268
 6880SOL     OW21538   2.202   4.042   5.334
 6880SOL    HW121539   2.258   4.035   5.251
 6880SOL    HW221540   2.226   4.125   5.383
 6881SOL     OW21541   0.824   3.973   1.988
 6881SOL    HW121542   0.740   4.017   1.956
 6881SOL    HW221543   0.813   3.874   1.983
 6882SOL     OW21544   3.531   0.909   6.950
 6882SOL    HW121545   3.563   0.913   6.855
 6882SOL    HW221546   3.521   1.002   6.986
 6883SOL     OW21547   3.746   2.155   0.398
 6883SOL    HW121548   3.677   2.105   0.450
 6883SOL    HW221549   3.724   2.253   0.400
 6884SOL     OW21550   1.924   3.972   4.436
 6884SOL    HW121551   1.857   3.985   4.363
 6884SOL    HW221552   1.921   4.050   4.498
 6885SOL     OW21553   3.664   6.183   4.689
 6885SOL    HW121554   3.719   6.254   4.731
 6885SOL    HW221555   3.720   6.132   4.623
 6886SOL     OW21556   6.564   1.016   3.927
 6886SOL    HW121557   6.575   0.918   3.938
 6886SOL    HW221558   6.580   1.041   3.831
 6887SOL     OW21559   5.118   6.113   5.139
 6887SOL    HW121560   5.032   6.143   5.100
 6887SOL    HW221561   5.106   6.095   5.237
 6888SOL     OW21562   5.391   6.228   6.261
 6888SOL    HW121563   5.481   6.246   6.221
 6888SOL    HW221564   5.327   6.203   6.189
 6889SOL     OW21565   1.899   2.030   4.641
 6889SOL    HW121566   1.992   2.049   4.672
 6889SOL    HW221567   1.887   2.061   4.547
 6890SOL     OW21568   4.052   6.572   1.102
 6890SOL    HW121569   4.037   6.524   1.189
 6890SOL    HW221570   3.992   6.652   1.098
 6891SOL     OW21571   1.689   4.736   4.026
 6891SOL    HW121572   1.684   4.675   3.947
 6891SOL    HW221573   1.604   4.788   4.034
 6892SOL     OW21574   3.388   2.060   3.434
 6892SOL    HW121575   3.357   2.055   3.529
 6892SOL    HW221576   3.485   2.084   3.432
 6893SOL     OW21577   4.655   4.693   6.930
 6893SOL    HW121578   4.743   4.660   6.962
 6893SOL    HW221579   4.582   4.638   6.970
 6894SOL     OW21580   6.051   4.834   0.277
 6894SOL    HW121581   6.046   4.795   0.185
 6894SOL    HW221582   6.111   4.777   0.334
 6895SOL     OW21583   2.620   5.953   6.714
 6895SOL    HW121584   2.571   5.979   6.798
 6895SOL    HW221585   2.572   5.877   6.671
 6896SOL     OW21586   1.462   7.011   3.383
 6896SOL    HW121587   1.548   7.015   3.332
 6896SOL    HW221588   1.454   6.923   3.429
 6897SOL     OW21589   2.845   3.238   6.604
 6897SOL    HW121590   2.842   3.146   6.643
 6897SOL    HW221591   2.847   3.306   6.678
 6898SOL     OW21592   4.195   1.286   2.282
 6898SOL    HW121593   4.140   1.237   2.349
 6898SOL    HW221594   4.156   1.378   2.268
 6899SOL     OW21595   5.527   6.611   1.060
 6899SOL    HW121596   5.463   6.595   1.135
 6899SOL    HW221597   5.478   6.610   0.973
 6900SOL     OW21598   6.742   6.804   5.419
 6900SOL    HW121599   6.825   6.799   5.473
 6900SOL    HW221600   6.746   6.884   5.359
 6901SOL     OW21601   0.393   6.607   6.043
 6901SOL    HW121602   0.349   6.522   6.012
 6901SOL    HW221603   0.383   6.677   5.972
 6902SOL     OW21604   6.142   6.623   0.083
 6902SOL    HW121605   6.080   6.696   0.109
 6902SOL    HW221606   6.149   6.618   7.006
 6903SOL     OW21607   3.592   5.638   4.492
 6903SOL    HW121608   3.635   5.706   4.550
 6903SOL    HW221609   3.611   5.659   4.396
 6904SOL     OW21610   5.945   1.732   4.617
 6904SOL    HW121611   5.993   1.664   4.673
 6904SOL    HW221612   5.906   1.802   4.677
 6905SOL     OW21613   6.292   6.390   6.917
 6905SOL    HW121614   6.242   6.443   6.849
 6905SOL    HW221615   6.380   6.435   6.937
 6906SOL     OW21616   4.588   1.346   4.142
 6906SOL    HW121617   4.655   1.360   4.069
 6906SOL    HW221618   4.512   1.292   4.107
 6907SOL     OW21619   4.838   2.356   1.521
 6907SOL    HW121620   4.885   2.271   1.495
 6907SOL    HW221621   4.751   2.334   1.566
 6908SOL     OW21622   1.127   5.956   6.545
 6908SOL    HW121623   1.185   5.978   6.623
 6908SOL    HW221624   1.046   5.906   6.577
 6909SOL     OW21625   6.390   4.263   1.332
 6909SOL    HW121626   6.372   4.325   1.256
 6909SOL    HW221627   6.389   4.168   1.299
 6910SOL     OW21628   0.210   2.851   3.901
 6910SOL    HW121629   0.111   2.864   3.895
 6910SOL    HW221630   0.233   2.759   3.869
 6911SOL     OW21631   4.457   6.317   3.800
 6911SOL    HW121632   4.359   6.313   3.776
 6911SOL    HW221633   4.488   6.412   3.799
 6912SOL     OW21634   3.417   4.973   0.660
 6912SOL    HW121635   3.341   5.027   0.696
 6912SOL    HW221636   3.487   4.962   0.731
 6913SOL     OW21637   4.815   4.515   4.873
 6913SOL    HW121638   4.874   4.438   4.898
 6913SOL    HW221639   4.831   4.592   4.935
 6914SOL     OW21640   5.506   4.176   6.028
 6914SOL    HW121641   5.494   4.106   5.958
 6914SOL    HW221642   5.518   4.132   6.117
 6915SOL     OW21643   6.076   3.894   1.520
 6915SOL    HW121644   6.007   3.961   1.546
 6915SOL    HW221645   6.108   3.846   1.602
 6916SOL     OW21646   6.377   3.323   0.180
 6916SOL    HW121647   6.465   3.286   0.149
 6916SOL    HW221648   6.332   3.369   0.104
 6917SOL     OW21649   3.024   5.816   1.233
 6917SOL    HW121650   3.015   5.874   1.314
 6917SOL    HW221651   2.992   5.724   1.255
 6918SOL     OW21652   6.834   3.242   4.473
 6918SOL    HW121653   6.848   3.280   4.565
 6918SOL    HW221654   6.757   3.178   4.475
 6919SOL     OW21655   6.996   6.377   2.411
 6919SOL    HW121656   6.996   6.299   2.349
 6919SOL    HW221657   0.065   6.391   2.448
 6920SOL     OW21658   4.832   5.441   5.478
 6920SOL    HW121659   4.805   5.403   5.389
 6920SOL    HW221660   4.829   5.541   5.474
 6921SOL     OW21661   5.547   6.074   3.360
 6921SOL    HW121662   5.519   5.977   3.356
 6921SOL    HW221663   5.469   6.129   3.390
 6922SOL     OW21664   1.981   5.743   6.685
 6922SOL    HW121665   2.069   5.779   6.714
 6922SOL    HW221666   1.971   5.648   6.716
 6923SOL     OW21667   4.877   5.509   3.486
 6923SOL    HW121668   4.973   5.503   3.457
 6923SOL    HW221669   4.840   5.598   3.460
 6924SOL     OW21670   1.757   3.907   6.763
 6924SOL    HW121671   1.725   3.918   6.669
 6924SOL    HW221672   1.856   3.921   6.766
 6925SOL     OW21673   4.097   5.909   4.941
 6925SOL    HW121674   4.005   5.941   4.919
 6925SOL    HW221675   4.143   5.879   4.858
 6926SOL     OW21676   3.238   3.284   1.796
 6926SOL    HW121677   3.301   3.345   1.844
 6926SOL    HW221678   3.263   3.280   1.699
 6927SOL     OW21679   5.468   2.854   6.151
 6927SOL    HW121680   5.407   2.867   6.229
 6927SOL    HW221681   5.562   2.870   6.179
 6928SOL     OW21682   6.098   5.963   0.850
 6928SOL    HW121683   6.123   5.907   0.929
 6928SOL    HW221684   6.167   6.035   0.837
 6929SOL     OW21685   5.215   5.388   1.239
 6929SOL    HW121686   5.312   5.392   1.264
 6929SOL    HW221687   5.192   5.468   1.183
 6930SOL     OW21688   0.313   6.497   2.089
 6930SOL    HW121689   0.333   6.564   2.160
 6930SOL    HW221690   0.335   6.405   2.123
 6931SOL     OW21691   2.050   0.552   2.019
 6931SOL    HW121692   2.140   0.525   1.985
 6931SOL    HW221693   1.982   0.542   1.947
 6932SOL     OW21694   3.634   0.154   0.487
 6932SOL    HW121695   3.676   0.225   0.545
 6932SOL    HW221696   3.690   0.072   0.489
 6933SOL     OW21697   2.973   6.535   5.091
 6933SOL    HW121698   2.917   6.464   5.047
 6933SOL    HW221699   2.959   6.622   5.043
 6934SOL     OW21700   5.097   3.536   6.168
 6934SOL    HW121701   5.064   3.572   6.256
 6934SOL    HW221702   5.191   3.506   6.178
 6935SOL     OW21703   4.246   5.151   2.997
 6935SOL    HW121704   4.153   5.117   3.010
 6935SOL    HW221705   4.307   5.107   3.064
 6936SOL     OW21706   6.219   2.261   3.844
 6936SOL    HW121707   6.246   2.340   3.899
 6936SOL    HW221708   6.283   2.186   3.860
 6937SOL     OW21709   0.128   6.297   0.347
 6937SOL    HW121710   0.204   6.357   0.371
 6937SOL    HW221711   0.121   6.290   0.248
 6938SOL     OW21712   5.012   3.567   5.818
 6938SOL    HW121713   4.931   3.578   5.876
 6938SOL    HW221714   5.086   3.623   5.854
 6939SOL     OW21715   0.611   4.471   1.984
 6939SOL    HW121716   0.611   4.474   1.884
 6939SOL    HW221717   0.677   4.403   2.015
 6940SOL     OW21718   4.374   0.713   0.607
 6940SOL    HW121719   4.369   0.647   0.532
 6940SOL    HW221720   4.443   0.683   0.673
 6941SOL     OW21721   3.052   3.165   2.722
 6941SOL    HW121722   3.045   3.129   2.629
 6941SOL    HW221723   3.130   3.228   2.727
 6942SOL     OW21724   5.710   2.333   1.403
 6942SOL    HW121725   5.611   2.333   1.421
 6942SOL    HW221726   5.760   2.338   1.489
 6943SOL     OW21727   4.394   6.325   6.835
 6943SOL    HW121728   4.335   6.289   6.762
 6943SOL    HW221729   4.470   6.375   6.794
 6944SOL     OW21730   0.894   3.499   6.251
 6944SOL    HW121731   0.857   3.586   6.217
 6944SOL    HW221732   0.992   3.509   6.266
 6945SOL     OW21733   6.897   2.940   6.508
 6945SOL    HW121734   6.996   2.949   6.496
 6945SOL    HW221735   6.857   3.030   6.522
 6946SOL     OW21736   6.397   6.324   1.274
 6946SOL    HW121737   6.390   6.274   1.188
 6946SOL    HW221738   6.410   6.421   1.256
 6947SOL     OW21739   3.823   6.518   5.796
 6947SOL    HW121740   3.725   6.529   5.776
 6947SOL    HW221741   3.848   6.575   5.874
 6948SOL     OW21742   0.221   0.096   6.611
 6948SOL    HW121743   0.128   0.059   6.608
 6948SOL    HW221744   0.278   0.051   6.543
 6949SOL     OW21745   5.268   6.685   3.493
 6949SOL    HW121746   5.313   6.644   3.414
 6949SOL    HW221747   5.238   6.613   3.556
 6950SOL     OW21748   2.700   1.203   4.634
 6950SOL    HW121749   2.670   1.125   4.579
 6950SOL    HW221750   2.623   1.265   4.649
 6951SOL     OW21751   6.551   5.999   5.606
 6951SOL    HW121752   6.582   5.968   5.697
 6951SOL    HW221753   6.630   6.027   5.552
 6952SOL     OW21754   0.457   5.747   3.510
 6952SOL    HW121755   0.470   5.791   3.421
 6952SOL    HW221756   0.518   5.668   3.518
 6953SOL     OW21757   4.741   6.622   0.343
 6953SOL    HW121758   4.691   6.575   0.269
 6953SOL    HW221759   4.826   6.572   0.362
 6954SOL     OW21760   0.549   3.512   3.761
 6954SOL    HW121761   0.542   3.440   3.691
 6954SOL    HW221762   0.474   3.577   3.749
 6955SOL     OW21763   6.232   0.758   2.209
 6955SOL    HW121764   6.317   0.707   2.198
 6955SOL    HW221765   6.188   0.769   2.120
 6956SOL     OW21766   4.688   6.547   3.777
 6956SOL    HW121767   4.722   6.581   3.865
 6956SOL    HW221768   4.590   6.565   3.770
 6957SOL     OW21769   6.147   5.502   0.738
 6957SOL    HW121770   6.106   5.421   0.781
 6957SOL    HW221771   6.116   5.508   0.643
 6958SOL     OW21772   2.923   3.787   4.692
 6958SOL    HW121773   2.857   3.789   4.767
 6958SOL    HW221774   2.980   3.869   4.696
 6959SOL     OW21775   1.990   1.425   4.485
 6959SOL    HW121776   2.074   1.379   4.513
 6959SOL    HW221777   2.012   1.497   4.420
 6960SOL     OW21778   2.099   5.578   1.578
 6960SOL    HW121779   2.184   5.562   1.629
 6960SOL    HW221780   2.104   5.532   1.489
 6961SOL     OW21781   5.879   1.941   4.325
 6961SOL    HW121782   5.863   1.871   4.394
 6961SOL    HW221783   5.831   2.025   4.351
 6962SOL     OW21784   5.526   5.987   1.890
 6962SOL    HW121785   5.500   5.946   1.978
 6962SOL    HW221786   5.568   6.076   1.907
 6963SOL     OW21787   6.257   5.677   1.667
 6963SOL    HW121788   6.254   5.750   1.736
 6963SOL    HW221789   6.252   5.588   1.713
 6964SOL     OW21790   3.746   0.187   4.954
 6964SOL    HW121791   3.782   0.267   4.906
 6964SOL    HW221792   3.669   0.149   4.903
 6965SOL     OW21793   0.570   3.531   0.450
 6965SOL    HW121794   0.643   3.485   0.501
 6965SOL    HW221795   0.511   3.463   0.407
 6966SOL     OW21796   6.970   2.601   3.697
 6966SOL    HW121797   6.936   2.651   3.777
 6966SOL    HW221798   6.969   2.661   3.618
 6967SOL     OW21799   1.400   6.903   5.067
 6967SOL    HW121800   1.356   6.823   5.106
 6967SOL    HW221801   1.368   6.985   5.114
 6968SOL     OW21802   4.456   6.214   2.644
 6968SOL    HW121803   4.376   6.243   2.591
 6968SOL    HW221804   4.444   6.239   2.740
 6969SOL     OW21805   2.482   2.469   1.471
 6969SOL    HW121806   2.533   2.541   1.424
 6969SOL    HW221807   2.515   2.461   1.565
 6970SOL     OW21808   3.224   4.212   6.063
 6970SOL    HW121809   3.308   4.266   6.070
 6970SOL    HW221810   3.239   4.121   6.100
 6971SOL     OW21811   6.188   4.241   1.499
 6971SOL    HW121812   6.260   4.241   1.430
 6971SOL    HW221813   6.208   4.311   1.568
 6972SOL     OW21814   5.465   4.370   3.194
 6972SOL    HW121815   5.558   4.392   3.224
 6972SOL    HW221816   5.412   4.337   3.271
 6973SOL     OW21817   0.413   3.193   5.253
 6973SOL    HW121818   0.363   3.123   5.304
 6973SOL    HW221819   0.419   3.276   5.307
 6974SOL     OW21820   3.222   3.367   2.794
 6974SOL    HW121821   3.297   3.432   2.803
 6974SOL    HW221822   3.216   3.312   2.878
 6975SOL     OW21823   1.871   6.205   6.230
 6975SOL    HW121824   1.866   6.106   6.239
 6975SOL    HW221825   1.958   6.238   6.266
 6976SOL     OW21826   4.451   6.086   5.021
 6976SOL    HW121827   4.491   6.004   5.061
 6976SOL    HW221828   4.383   6.124   5.084
 6977SOL     OW21829   4.405   2.500   1.476
 6977SOL    HW121830   4.393   2.449   1.390
 6977SOL    HW221831   4.468   2.451   1.535
 6978SOL     OW21832   3.893   1.453   2.590
 6978SOL    HW121833   3.865   1.538   2.634
 6978SOL    HW221834   3.812   1.402   2.561
 6979SOL     OW21835   1.513   4.246   1.302
 6979SOL    HW121836   1.612   4.246   1.314
 6979SOL    HW221837   1.489   4.310   1.229
 6980SOL     OW21838   1.216   1.201   3.906
 6980SOL    HW121839   1.299   1.222   3.958
 6980SOL    HW221840   1.226   1.234   3.813
 6981SOL     OW21841   3.979   2.457   5.919
 6981SOL    HW121842   3.964   2.551   5.888
 6981SOL    HW221843   3.909   2.397   5.879
 6982SOL     OW21844   1.709   0.479   4.884
 6982SOL    HW121845   1.621   0.487   4.930
 6982SOL    HW221846   1.701   0.418   4.806
 6983SOL     OW21847   4.176   2.252   3.790
 6983SOL    HW121848   4.186   2.269   3.888
 6983SOL    HW221849   4.195   2.336   3.739
 6984SOL     OW21850   2.392   1.440   3.733
 6984SOL    HW121851   2.419   1.487   3.649
 6984SOL    HW221852   2.459   1.458   3.804
 6985SOL     OW21853   4.163   5.045   1.503
 6985SOL    HW121854   4.127   4.969   1.448
 6985SOL    HW221855   4.090   5.110   1.522
 6986SOL     OW21856   1.665   6.763   6.561
 6986SOL    HW121857   1.617   6.842   6.523
 6986SOL    HW221858   1.613   6.727   6.638
 6987SOL     OW21859   6.839   1.381   5.947
 6987SOL    HW121860   6.845   1.344   6.040
 6987SOL    HW221861   6.925   1.366   5.899
 6988SOL     OW21862   0.390   0.475   5.477
 6988SOL    HW121863   0.330   0.474   5.557
 6988SOL    HW221864   0.334   0.474   5.394
 6989SOL     OW21865   0.483   4.091   2.709
 6989SOL    HW121866   0.526   4.181   2.701
 6989SOL    HW221867   0.524   4.028   2.644
 6990SOL     OW21868   4.796   2.557   1.322
 6990SOL    HW121869   4.820   2.481   1.382
 6990SOL    HW221870   4.742   2.624   1.373
 6991SOL     OW21871   3.541   4.961   3.807
 6991SOL    HW121872   3.485   4.879   3.820
 6991SOL    HW221873   3.484   5.042   3.817
 6992SOL     OW21874   5.130   5.850   5.950
 6992SOL    HW121875   5.172   5.778   6.004
 6992SOL    HW221876   5.039   5.872   5.987
 6993SOL     OW21877   6.566   0.699   3.288
 6993SOL    HW121878   6.592   0.683   3.193
 6993SOL    HW221879   6.468   0.719   3.293
 6994SOL     OW21880   0.260   2.081   4.412
 6994SOL    HW121881   0.199   2.142   4.463
 6994SOL    HW221882   0.337   2.134   4.376
 6995SOL     OW21883   6.758   4.737   5.694
 6995SOL    HW121884   6.665   4.720   5.727
 6995SOL    HW221885   6.822   4.678   5.743
 6996SOL     OW21886   1.602   0.300   6.727
 6996SOL    HW121887   1.585   0.398   6.741
 6996SOL    HW221888   1.531   0.262   6.668
 6997SOL     OW21889   6.147   6.205   5.238
 6997SOL    HW121890   6.058   6.172   5.206
 6997SOL    HW221891   6.151   6.305   5.229
 6998SOL     OW21892   1.496   1.408   1.366
 6998SOL    HW121893   1.544   1.352   1.298
 6998SOL    HW221894   1.469   1.351   1.443
 6999SOL     OW21895   2.340   2.986   5.857
 6999SOL    HW121896   2.335   2.886   5.857
 6999SOL    HW221897   2.392   3.016   5.936
 7000SOL     OW21898   6.131   6.235   1.447
 7000SOL    HW121899   6.120   6.290   1.529
 7000SOL    HW221900   6.118   6.292   1.366
 7001SOL     OW21901   1.912   2.784   5.179
 7001SOL    HW121902   1.961   2.870   5.176
 7001SOL    HW221903   1.845   2.781   5.104
 7002SOL     OW21904   2.245   5.480   3.719
 7002SOL    HW121905   2.158   5.492   3.671
 7002SOL    HW221906   2.234   5.412   3.791
 7003SOL     OW21907   3.795   5.398   0.278
 7003SOL    HW121908   3.877   5.417   0.223
 7003SOL    HW221909   3.791   5.301   0.299
 7004SOL     OW21910   1.243   4.970   2.436
 7004SOL    HW121911   1.229   5.067   2.455
 7004SOL    HW221912   1.340   4.948   2.442
 7005SOL     OW21913   1.423   0.132   0.422
 7005SOL    HW121914   1.392   0.227   0.412
 7005SOL    HW221915   1.512   0.121   0.379
 7006SOL     OW21916   4.718   4.903   3.917
 7006SOL    HW121917   4.778   4.943   3.987
 7006SOL    HW221918   4.624   4.902   3.950
 7007SOL     OW21919   4.902   0.218   3.517
 7007SOL    HW121920   4.955   0.248   3.596
 7007SOL    HW221921   4.814   0.180   3.548
 7008SOL     OW21922   0.655   4.091   4.676
 7008SOL    HW121923   0.730   4.040   4.717
 7008SOL    HW221924   0.668   4.188   4.690
 7009SOL     OW21925   5.954   6.109   1.906
 7009SOL    HW121926   6.012   6.132   1.828
 7009SOL    HW221927   5.923   6.014   1.897
 7010SOL     OW21928   5.267   4.809   4.424
 7010SOL    HW121929   5.193   4.770   4.370
 7010SOL    HW221930   5.280   4.905   4.398
 7011SOL     OW21931   3.734   6.994   6.310
 7011SOL    HW121932   3.788   0.019   6.240
 7011SOL    HW221933   3.637   7.007   6.291
 7012SOL     OW21934   1.579   2.188   1.847
 7012SOL    HW121935   1.545   2.274   1.885
 7012SOL    HW221936   1.679   2.185   1.856
 7013SOL     OW21937   0.778   0.388   0.749
 7013SOL    HW121938   0.724   0.450   0.806
 7013SOL    HW221939   0.735   0.298   0.749
 7014SOL     OW21940   4.355   3.494   1.407
 7014SOL    HW121941   4.399   3.419   1.357
 7014SOL    HW221942   4.319   3.459   1.494
 7015SOL     OW21943   5.955   4.442   2.447
 7015SOL    HW121944   6.016   4.508   2.491
 7015SOL    HW221945   5.887   4.410   2.513
 7016SOL     OW21946   3.550   4.895   1.477
 7016SOL    HW121947   3.564   4.919   1.381
 7016SOL    HW221948   3.452   4.886   1.496
 7017SOL     OW21949   2.740   5.528   2.795
 7017SOL    HW121950   2.703   5.621   2.805
 7017SOL    HW221951   2.839   5.533   2.784
 7018SOL     OW21952   5.885   3.865   4.291
 7018SOL    HW121953   5.976   3.827   4.279
 7018SOL    HW221954   5.874   3.946   4.232
 7019SOL     OW21955   2.993   4.223   0.005
 7019SOL    HW121956   3.024   4.318   7.016
 7019SOL    HW221957   3.067   4.169   0.046
 7020SOL     OW21958   6.084   6.020   6.537
 7020SOL    HW121959   6.049   5.942   6.591
 7020SOL    HW221960   6.179   6.036   6.561
 7021SOL     OW21961   1.669   1.182   6.052
 7021SOL    HW121962   1.576   1.215   6.068
 7021SOL    HW221963   1.689   1.106   6.113
 7022SOL     OW21964   4.611   6.890   6.559
 7022SOL    HW121965   4.662   6.897   6.473
 7022SOL    HW221966   4.517   6.922   6.545
 7023SOL     OW21967   0.358   1.339   3.970
 7023SOL    HW121968   0.308   1.380   4.047
 7023SOL    HW221969   0.327   1.380   3.885
 7024SOL     OW21970   2.412   3.804   5.387
 7024SOL    HW121971   2.446   3.861   5.312
 7024SOL    HW221972   2.473   3.811   5.465
 7025SOL     OW21973   2.434   1.232   0.129
 7025SOL    HW121974   2.394   1.215   0.039
 7025SOL    HW221975   2.377   1.190   0.200
 7026SOL     OW21976   3.667   2.058   1.790
 7026SOL    HW121977   3.685   2.148   1.830
 7026SOL    HW221978   3.601   2.009   1.846
 7027SOL     OW21979   2.527   4.899   4.418
 7027SOL    HW121980   2.457   4.870   4.484
 7027SOL    HW221981   2.560   4.820   4.367
 7028SOL     OW21982   4.116   0.801   4.172
 7028SOL    HW121983   4.059   0.881   4.153
 7028SOL    HW221984   4.145   0.802   4.268
 7029SOL     OW21985   5.091   4.482   5.435
 7029SOL    HW121986   5.101   4.573   5.474
 7029SOL    HW221987   5.159   4.469   5.363
 7030SOL     OW21988   1.473   1.496   5.232
 7030SOL    HW121989   1.458   1.399   5.215
 7030SOL    HW221990   1.567   1.511   5.263
 7031SOL     OW21991   2.488   6.327   5.407
 7031SOL    HW121992   2.509   6.420   5.435
 7031SOL    HW221993   2.553   6.263   5.447
 7032SOL     OW21994   3.599   0.888   2.800
 7032SOL    HW121995   3.581   0.810   2.861
 7032SOL    HW221996   3.533   0.960   2.818
 7033SOL     OW21997   1.705   2.474   3.460
 7033SOL    HW121998   1.629   2.538   3.473
 7033SOL    HW221999   1.669   2.385   3.431
 7034SOL     OW22000   5.905   0.319   3.525
 7034SOL    HW122001   5.825   0.271   3.489
 7034SOL    HW222002   5.946   0.375   3.453
 7035SOL     OW22003   1.891   6.823   1.632
 7035SOL    HW122004   1.902   6.730   1.596
 7035SOL    HW222005   1.971   6.847   1.687
 7036SOL     OW22006   0.559   0.983   2.570
 7036SOL    HW122007   0.614   1.059   2.535
 7036SOL    HW222008   0.580   0.900   2.519
 7037SOL     OW22009   1.918   1.179   6.396
 7037SOL    HW122010   2.003   1.163   6.446
 7037SOL    HW222011   1.852   1.108   6.420
 7038SOL     OW22012   2.075   3.401   5.203
 7038SOL    HW122013   2.110   3.323   5.255
 7038SOL    HW222014   2.085   3.383   5.105
 7039SOL     OW22015   2.947   4.751   1.448
 7039SOL    HW122016   2.961   4.771   1.351
 7039SOL    HW222017   2.917   4.656   1.459
 7040SOL     OW22018   6.373   1.948   4.840
 7040SOL    HW122019   6.410   1.989   4.924
 7040SOL    HW222020   6.276   1.928   4.853
 7041SOL     OW22021   6.786   1.640   2.078
 7041SOL    HW122022   6.709   1.583   2.105
 7041SOL    HW222023   6.859   1.584   2.039
 7042SOL     OW22024   4.942   4.576   5.186
 7042SOL    HW122025   5.015   4.634   5.149
 7042SOL    HW222026   4.961   4.555   5.282
 7043SOL     OW22027   2.076   3.398   2.465
 7043SOL    HW122028   2.122   3.317   2.430
 7043SOL    HW222029   2.124   3.480   2.433
 7044SOL     OW22030   4.302   4.801   3.744
 7044SOL    HW122031   4.305   4.764   3.651
 7044SOL    HW222032   4.210   4.835   3.763
 7045SOL     OW22033   5.632   5.322   3.131
 7045SOL    HW122034   5.584   5.286   3.211
 7045SOL    HW222035   5.566   5.350   3.062
 7046SOL     OW22036   3.250   1.242   3.167
 7046SOL    HW122037   3.206   1.295   3.239
 7046SOL    HW222038   3.270   1.301   3.089
 7047SOL     OW22039   0.096   2.271   2.249
 7047SOL    HW122040   0.119   2.328   2.328
 7047SOL    HW222041   0.175   2.267   2.187
 7048SOL     OW22042   5.780   6.162   2.669
 7048SOL    HW122043   5.731   6.110   2.738
 7048SOL    HW222044   5.851   6.105   2.628
 7049SOL     OW22045   3.792   1.327   1.112
 7049SOL    HW122046   3.812   1.236   1.075
 7049SOL    HW222047   3.714   1.366   1.062
 7050SOL     OW22048   4.029   3.673   1.882
 7050SOL    HW122049   4.054   3.645   1.789
 7050SOL    HW222050   4.065   3.607   1.947
 7051SOL     OW22051   6.995   0.006   2.033
 7051SOL    HW122052   6.912   7.021   2.087
 7051SOL    HW222053   7.012   6.944   1.984
 7052SOL     OW22054   5.753   2.541   3.311
 7052SOL    HW122055   5.762   2.496   3.222
 7052SOL    HW222056   5.840   2.537   3.360
 7053SOL     OW22057   0.753   3.332   5.384
 7053SOL    HW122058   0.716   3.289   5.302
 7053SOL    HW222059   0.764   3.431   5.369
 7054SOL     OW22060   0.699   6.718   0.316
 7054SOL    HW122061   0.697   6.812   0.349
 7054SOL    HW222062   0.614   6.696   0.270
 7055SOL     OW22063   2.978   0.139   5.582
 7055SOL    HW122064   2.953   0.235   5.589
 7055SOL    HW222065   2.896   0.083   5.594
 7056SOL     OW22066   6.790   5.172   1.677
 7056SOL    HW122067   6.793   5.107   1.754
 7056SOL    HW222068   6.846   5.138   1.602
 7057SOL     OW22069   1.577   5.634   4.048
 7057SOL    HW122070   1.648   5.590   3.992
 7057SOL    HW222071   1.590   5.733   4.046
 7058SOL     OW22072   6.000   4.983   5.951
 7058SOL    HW122073   5.976   4.908   6.013
 7058SOL    HW222074   6.019   5.066   6.004
 7059SOL     OW22075   0.061   0.975   3.947
 7059SOL    HW122076   0.134   1.036   3.981
 7059SOL    HW222077   6.998   0.996   3.995
 7060SOL     OW22078   4.363   0.400   1.751
 7060SOL    HW122079   4.377   0.307   1.719
 7060SOL    HW222080   4.350   0.399   1.851
 7061SOL     OW22081   0.736   3.057   3.230
 7061SOL    HW122082   0.641   3.030   3.242
 7061SOL    HW222083   0.785   3.045   3.317
 7062SOL     OW22084   4.093   1.379   5.274
 7062SOL    HW122085   3.994   1.367   5.279
 7062SOL    HW222086   4.138   1.290   5.275
 7063SOL     OW22087   1.229   0.193   1.520
 7063SOL    HW122088   1.299   0.126   1.547
 7063SOL    HW222089   1.151   0.145   1.481
 7064SOL     OW22090   3.670   2.228   1.121
 7064SOL    HW122091   3.681   2.321   1.086
 7064SOL    HW222092   3.755   2.198   1.164
 7065SOL     OW22093   4.100   3.974   5.882
 7065SOL    HW122094   4.126   3.955   5.977
 7065SOL    HW222095   4.017   3.923   5.859
 7066SOL     OW22096   4.828   0.633   0.524
 7066SOL    HW122097   4.775   0.655   0.443
 7066SOL    HW222098   4.894   0.560   0.503
 7067SOL     OW22099   2.247   2.366   4.814
 7067SOL    HW122100   2.189   2.436   4.773
 7067SOL    HW222101   2.329   2.408   4.852
 7068SOL     OW22102   0.081   4.530   4.281
 7068SOL    HW122103   0.163   4.506   4.332
 7068SOL    HW222104   0.006   4.548   4.344
 7069SOL     OW22105   5.214   1.240   4.822
 7069SOL    HW122106   5.267   1.306   4.876
 7069SOL    HW222107   5.211   1.270   4.727
 7070SOL     OW22108   6.921   6.266   4.626
 7070SOL    HW122109   6.921   6.256   4.526
 7070SOL    HW222110   6.892   6.358   4.650
 7071SOL     OW22111   2.598   5.794   6.247
 7071SOL    HW122112   2.664   5.719   6.234
 7071SOL    HW222113   2.611   5.833   6.338
 7072SOL     OW22114   1.464   6.019   0.172
 7072SOL    HW122115   1.448   6.116   0.191
 7072SOL    HW222116   1.383   5.966   0.198
 7073SOL     OW22117   4.497   6.763   4.696
 7073SOL    HW122118   4.421   6.748   4.759
 7073SOL    HW222119   4.521   6.860   4.696
 7074SOL     OW22120   4.627   2.439   2.488
 7074SOL    HW122121   4.534   2.439   2.525
 7074SOL    HW222122   4.624   2.459   2.390
 7075SOL     OW22123   1.751   3.902   5.186
 7075SOL    HW122124   1.828   3.887   5.248
 7075SOL    HW222125   1.671   3.854   5.220
 7076SOL     OW22126   5.965   2.071   6.255
 7076SOL    HW122127   5.947   2.107   6.347
 7076SOL    HW222128   5.959   1.971   6.256
 7077SOL     OW22129   2.228   4.744   3.732
 7077SOL    HW122130   2.275   4.775   3.649
 7077SOL    HW222131   2.295   4.710   3.797
 7078SOL     OW22132   0.236   6.557   1.599
 7078SOL    HW122133   0.277   6.574   1.689
 7078SOL    HW222134   0.158   6.618   1.586
 7079SOL     OW22135   6.786   6.054   3.970
 7079SOL    HW122136   6.717   6.087   4.034
 7079SOL    HW222137   6.873   6.099   3.990
 7080SOL     OW22138   3.344   1.431   4.664
 7080SOL    HW122139   3.326   1.530   4.659
 7080SOL    HW222140   3.438   1.416   4.694
 7081SOL     OW22141   3.176   6.819   6.718
 7081SOL    HW122142   3.253   6.797   6.778
 7081SOL    HW222143   3.206   6.818   6.623
 7082SOL     OW22144   6.493   4.064   6.776
 7082SOL    HW122145   6.528   4.120   6.851
 7082SOL    HW222146   6.500   4.114   6.690
 7083SOL     OW22147   3.002   6.968   0.674
 7083SOL    HW122148   2.918   6.948   0.725
 7083SOL    HW222149   3.014   0.044   0.667
 7084SOL     OW22150   0.265   5.952   5.619
 7084SOL    HW122151   0.309   6.042   5.609
 7084SOL    HW222152   0.328   5.888   5.663
 7085SOL     OW22153   0.797   1.980   1.969
 7085SOL    HW122154   0.749   1.892   1.965
 7085SOL    HW222155   0.855   1.982   2.050
 7086SOL     OW22156   5.156   0.429   5.521
 7086SOL    HW122157   5.139   0.463   5.429
 7086SOL    HW222158   5.255   0.427   5.538
 7087SOL     OW22159   6.136   3.473   4.158
 7087SOL    HW122160   6.128   3.382   4.116
 7087SOL    HW222161   6.200   3.529   4.105
 7088SOL     OW22162   5.584   2.684   3.498
 7088SOL    HW122163   5.567   2.595   3.539
 7088SOL    HW222164   5.656   2.676   3.429
 7089SOL     OW22165   2.667   2.098   4.737
 7089SOL    HW122166   2.693   2.115   4.832
 7089SOL    HW222167   2.600   2.024   4.733
 7090SOL     OW22168   2.140   0.670   6.766
 7090SOL    HW122169   2.202   0.607   6.721
 7090SOL    HW222170   2.049   0.664   6.724
 7091SOL     OW22171   0.646   1.691   6.963
 7091SOL    HW122172   0.582   1.744   6.908
 7091SOL    HW222173   0.621   1.594   6.959
 7092SOL     OW22174   4.184   2.980   5.704
 7092SOL    HW122175   4.129   3.002   5.785
 7092SOL    HW222176   4.124   2.950   5.630
 7093SOL     OW22177   3.047   3.691   3.158
 7093SOL    HW122178   3.131   3.732   3.193
 7093SOL    HW222179   3.053   3.684   3.058
 7094SOL     OW22180   6.690   6.017   5.866
 7094SOL    HW122181   6.750   5.961   5.923
 7094SOL    HW222182   6.602   6.029   5.912
 7095SOL     OW22183   4.162   4.367   5.993
 7095SOL    HW122184   4.065   4.366   5.966
 7095SOL    HW222185   4.219   4.360   5.912
 7096SOL     OW22186   6.358   0.314   3.422
 7096SOL    HW122187   6.306   0.328   3.506
 7096SOL    HW222188   6.443   0.368   3.427
 7097SOL     OW22189   5.799   2.133   1.251
 7097SOL    HW122190   5.760   2.209   1.303
 7097SOL    HW222191   5.873   2.092   1.304
 7098SOL     OW22192   1.586   5.926   5.353
 7098SOL    HW122193   1.563   5.894   5.445
 7098SOL    HW222194   1.565   5.854   5.287
 7099SOL     OW22195   3.523   1.091   5.353
 7099SOL    HW122196   3.474   1.061   5.272
 7099SOL    HW222197   3.460   1.142   5.412
 7100SOL     OW22198   5.613   3.079   0.757
 7100SOL    HW122199   5.599   3.013   0.683
 7100SOL    HW222200   5.558   3.054   0.836
 7101SOL     OW22201   1.922   0.681   4.824
 7101SOL    HW122202   1.936   0.682   4.725
 7101SOL    HW222203   1.872   0.598   4.849
 7102SOL     OW22204   5.534   6.581   0.688
 7102SOL    HW122205   5.496   6.580   0.596
 7102SOL    HW222206   5.634   6.584   0.684
 7103SOL     OW22207   4.648   4.782   2.202
 7103SOL    HW122208   4.729   4.746   2.156
 7103SOL    HW222209   4.622   4.721   2.276
 7104SOL     OW22210   0.232   2.695   4.199
 7104SOL    HW122211   0.215   2.663   4.106
 7104SOL    HW222212   0.173   2.645   4.262
 7105SOL     OW22213   3.041   3.142   5.758
 7105SOL    HW122214   2.957   3.088   5.750
 7105SOL    HW222215   3.090   3.140   5.671
 7106SOL     OW22216   3.923   3.588   2.902
 7106SOL    HW122217   3.845   3.606   2.962
 7106SOL    HW222218   3.975   3.510   2.937
 7107SOL     OW22219   4.835   1.000   0.689
 7107SOL    HW122220   4.854   1.098   0.696
 7107SOL    HW222221   4.783   0.982   0.605
 7108SOL     OW22222   3.843   6.004   2.569
 7108SOL    HW122223   3.858   5.905   2.573
 7108SOL    HW222224   3.877   6.039   2.482
 7109SOL     OW22225   2.832   0.626   6.192
 7109SOL    HW122226   2.780   0.543   6.171
 7109SOL    HW222227   2.836   0.684   6.110
 7110SOL     OW22228   3.069   5.779   4.329
 7110SOL    HW122229   3.045   5.861   4.381
 7110SOL    HW222230   3.043   5.791   4.233
 7111SOL     OW22231   1.435   2.848   4.906
 7111SOL    HW122232   1.388   2.927   4.944
 7111SOL    HW222233   1.412   2.766   4.958
 7112SOL     OW22234   1.408   4.506   4.425
 7112SOL    HW122235   1.366   4.560   4.352
 7112SOL    HW222236   1.372   4.536   4.514
 7113SOL     OW22237   3.953   3.907   4.934
 7113SOL    HW122238   3.914   3.999   4.932
 7113SOL    HW222239   3.960   3.876   5.029
 7114SOL     OW22240   4.998   6.309   1.522
 7114SOL    HW122241   4.906   6.287   1.490
 7114SOL    HW222242   5.019   6.257   1.605
 7115SOL     OW22243   5.411   3.259   1.209
 7115SOL    HW122244   5.380   3.320   1.136
 7115SOL    HW222245   5.332   3.227   1.261
 7116SOL     OW22246   6.282   4.050   3.327
 7116SOL    HW122247   6.274   4.009   3.236
 7116SOL    HW222248   6.297   4.149   3.318
 7117SOL     OW22249   0.124   6.267   5.341
 7117SOL    HW122250   0.077   6.259   5.253
 7117SOL    HW222251   0.218   6.297   5.325
 7118SOL     OW22252   2.883   4.407   0.657
 7118SOL    HW122253   2.882   4.340   0.732
 7118SOL    HW222254   2.891   4.358   0.570
 7119SOL     OW22255   4.905   2.311   3.689
 7119SOL    HW122256   4.979   2.290   3.752
 7119SOL    HW222257   4.865   2.400   3.713
 7120SOL     OW22258   3.455   1.680   2.168
 7120SOL    HW122259   3.463   1.779   2.157
 7120SOL    HW222260   3.388   1.645   2.102
 7121SOL     OW22261   0.780   0.082   3.375
 7121SOL    HW122262   0.772   0.011   3.445
 7121SOL    HW222263   0.869   0.074   3.329
 7122SOL     OW22264   1.331   6.974   5.420
 7122SOL    HW122265   1.351   0.045   5.391
 7122SOL    HW222266   1.405   6.941   5.478
 7123SOL     OW22267   1.736   4.201   2.982
 7123SOL    HW122268   1.740   4.221   3.080
 7123SOL    HW222269   1.641   4.206   2.951
 7124SOL     OW22270   6.601   2.061   1.255
 7124SOL    HW122271   6.527   2.046   1.190
 7124SOL    HW222272   6.688   2.033   1.214
 7125SOL     OW22273   0.174   6.916   1.158
 7125SOL    HW122274   0.210   6.824   1.174
 7125SOL    HW222275   0.243   6.970   1.110
 7126SOL     OW22276   3.627   4.726   0.343
 7126SOL    HW122277   3.684   4.721   0.425
 7126SOL    HW222278   3.552   4.791   0.358
 7127SOL     OW22279   1.603   4.888   5.516
 7127SOL    HW122280   1.627   4.937   5.600
 7127SOL    HW222281   1.675   4.899   5.448
 7128SOL     OW22282   2.600   5.226   0.000
 7128SOL    HW122283   2.500   5.236   7.022
 7128SOL    HW222284   2.625   5.139   6.981
 7129SOL     OW22285   2.501   2.020   6.941
 7129SOL    HW122286   2.544   2.032   6.852
 7129SOL    HW222287   2.491   1.922   6.960
 7130SOL     OW22288   4.156   5.423   5.111
 7130SOL    HW122289   4.186   5.359   5.041
 7130SOL    HW222290   4.057   5.418   5.122
 7131SOL     OW22291   2.781   0.279   1.103
 7131SOL    HW122292   2.801   0.182   1.118
 7131SOL    HW222293   2.828   0.334   1.172
 7132SOL     OW22294   4.224   4.531   6.953
 7132SOL    HW122295   4.154   4.501   6.888
 7132SOL    HW222296   4.180   4.559   0.016
 7133SOL     OW22297   5.270   5.673   6.129
 7133SOL    HW122298   5.280   5.708   6.222
 7133SOL    HW222299   5.238   5.578   6.132
 7134SOL     OW22300   5.162   0.046   2.021
 7134SOL    HW122301   5.239   0.010   2.074
 7134SOL    HW222302   5.191   0.125   1.968
 7135SOL     OW22303   1.723   2.618   3.066
 7135SOL    HW122304   1.778   2.701   3.055
 7135SOL    HW222305   1.769   2.555   3.128
 7136SOL     OW22306   2.437   2.749   1.402
 7136SOL    HW122307   2.424   2.739   1.303
 7136SOL    HW222308   2.393   2.673   1.449
 7137SOL     OW22309   4.106   0.246   6.354
 7137SOL    HW122310   4.071   0.157   6.383
 7137SOL    HW222311   4.030   0.310   6.343
 7138SOL     OW22312   2.486   2.111   0.495
 7138SOL    HW122313   2.405   2.076   0.542
 7138SOL    HW222314   2.563   2.113   0.558
 7139SOL     OW22315   5.708   4.084   1.586
 7139SOL    HW122316   5.667   4.140   1.514
 7139SOL    HW222317   5.805   4.107   1.595
 7140SOL     OW22318   6.610   3.478   3.081
 7140SOL    HW122319   6.648   3.523   3.162
 7140SOL    HW222320   6.620   3.379   3.090
 7141SOL     OW22321   3.749   6.264   1.118
 7141SOL    HW122322   3.713   6.253   1.211
 7141SOL    HW222323   3.688   6.218   1.053
 7142SOL     OW22324   4.261   0.313   3.285
 7142SOL    HW122325   4.274   0.405   3.320
 7142SOL    HW222326   4.238   0.317   3.187
 7143SOL     OW22327   1.552   2.941   5.773
 7143SOL    HW122328   1.618   2.972   5.704
 7143SOL    HW222329   1.520   2.849   5.749
 7144SOL     OW22330   1.702   2.453   2.137
 7144SOL    HW122331   1.725   2.502   2.221
 7144SOL    HW222332   1.682   2.358   2.158
 7145SOL     OW22333   4.676   0.241   0.360
 7145SOL    HW122334   4.675   0.259   0.261
 7145SOL    HW222335   4.770   0.245   0.394
 7146SOL     OW22336   1.965   0.009   0.743
 7146SOL    HW122337   1.888   6.979   0.708
 7146SOL    HW222338   1.980   7.010   0.839
 7147SOL     OW22339   6.878   6.993   2.812
 7147SOL    HW122340   6.831   6.988   2.900
 7147SOL    HW222341   6.918   0.062   2.801
 7148SOL     OW22342   0.421   5.877   1.149
 7148SOL    HW122343   0.359   5.826   1.090
 7148SOL    HW222344   0.442   5.965   1.106
 7149SOL     OW22345   6.134   6.412   3.213
 7149SOL    HW122346   6.188   6.389   3.133
 7149SOL    HW222347   6.052   6.355   3.216
 7150SOL     OW22348   3.132   2.552   1.544
 7150SOL    HW122349   3.035   2.576   1.537
 7150SOL    HW222350   3.141   2.457   1.572
 7151SOL     OW22351   2.725   6.158   0.441
 7151SOL    HW122352   2.812   6.179   0.486
 7151SOL    HW222353   2.743   6.119   0.351
 7152SOL     OW22354   0.793   0.384   5.336
 7152SOL    HW122355   0.887   0.415   5.354
 7152SOL    HW222356   0.731   0.426   5.402
 7153SOL     OW22357   3.937   5.509   1.660
 7153SOL    HW122358   4.017   5.510   1.720
 7153SOL    HW222359   3.949   5.577   1.587
 7154SOL     OW22360   4.280   7.022   3.853
 7154SOL    HW122361   4.347   6.986   3.918
 7154SOL    HW222362   4.203   0.039   3.902
 7155SOL     OW22363   1.796   3.454   1.140
 7155SOL    HW122364   1.743   3.369   1.136
 7155SOL    HW222365   1.735   3.532   1.125
 7156SOL     OW22366   6.683   3.089   4.052
 7156SOL    HW122367   6.604   3.031   4.073
 7156SOL    HW222368   6.767   3.036   4.062
 7157SOL     OW22369   0.432   3.480   1.414
 7157SOL    HW122370   0.354   3.542   1.401
 7157SOL    HW222371   0.510   3.514   1.362
 7158SOL     OW22372   1.336   6.954   3.971
 7158SOL    HW122373   1.334   0.031   3.968
 7158SOL    HW222374   1.431   6.923   3.980
 7159SOL     OW22375   0.365   4.929   2.363
 7159SOL    HW122376   0.446   4.984   2.340
 7159SOL    HW222377   0.366   4.907   2.460
 7160SOL     OW22378   5.563   0.216   2.957
 7160SOL    HW122379   5.487   0.280   2.957
 7160SOL    HW222380   5.639   0.253   2.902
 7161SOL     OW22381   3.326   4.027   4.063
 7161SOL    HW122382   3.255   3.998   3.998
 7161SOL    HW222383   3.289   4.023   4.156
 7162SOL     OW22384   1.218   5.139   6.174
 7162SOL    HW122385   1.203   5.107   6.268
 7162SOL    HW222386   1.273   5.222   6.176
 7163SOL     OW22387   3.132   6.592   2.373
 7163SOL    HW122388   3.146   6.683   2.414
 7163SOL    HW222389   3.113   6.526   2.445
 7164SOL     OW22390   2.606   0.218   4.117
 7164SOL    HW122391   2.510   0.238   4.096
 7164SOL    HW222392   2.623   0.234   4.214
 7165SOL     OW22393   6.174   0.965   2.995
 7165SOL    HW122394   6.126   0.946   2.909
 7165SOL    HW222395   6.236   1.043   2.983
 7166SOL     OW22396   5.286   2.013   0.747
 7166SOL    HW122397   5.247   1.998   0.838
 7166SOL    HW222398   5.216   1.996   0.678
 7167SOL     OW22399   5.570   3.370   4.158
 7167SOL    HW122400   5.562   3.274   4.129
 7167SOL    HW222401   5.638   3.377   4.231
 7168SOL     OW22402   1.425   2.697   2.989
 7168SOL    HW122403   1.515   2.660   3.014
 7168SOL    HW222404   1.437   2.783   2.941
 7169SOL     OW22405   0.639   2.582   5.505
 7169SOL    HW122406   0.547   2.619   5.518
 7169SOL    HW222407   0.706   2.656   5.512
 7170SOL     OW22408   4.521   0.289   3.870
 7170SOL    HW122409   4.615   0.316   3.850
 7170SOL    HW222410   4.486   0.346   3.945
 7171SOL     OW22411   6.035   3.693   0.382
 7171SOL    HW122412   6.015   3.638   0.301
 7171SOL    HW222413   5.951   3.733   0.417
 7172SOL     OW22414   1.011   6.878   4.492
 7172SOL    HW122415   1.012   6.831   4.581
 7172SOL    HW222416   1.075   6.954   4.495
 7173SOL     OW22417   6.621   4.210   6.240
 7173SOL    HW122418   6.557   4.284   6.263
 7173SOL    HW222419   6.712   4.233   6.274
 7174SOL     OW22420   1.614   3.963   0.206
 7174SOL    HW122421   1.646   3.897   0.137
 7174SOL    HW222422   1.566   4.038   0.161
 7175SOL     OW22423   5.785   2.904   6.792
 7175SOL    HW122424   5.774   2.815   6.748
 7175SOL    HW222425   5.697   2.951   6.797
 7176SOL     OW22426   6.929   0.483   2.953
 7176SOL    HW122427   6.854   0.513   3.012
 7176SOL    HW222428   6.967   0.561   2.905
 7177SOL     OW22429   1.727   4.681   4.762
 7177SOL    HW122430   1.728   4.723   4.671
 7177SOL    HW222431   1.650   4.717   4.814
 7178SOL     OW22432   1.334   1.834   5.704
 7178SOL    HW122433   1.370   1.748   5.740
 7178SOL    HW222434   1.242   1.819   5.668
 7179SOL     OW22435   2.155   3.766   4.727
 7179SOL    HW122436   2.243   3.779   4.681
 7179SOL    HW222437   2.119   3.855   4.755
 7180SOL     OW22438   2.117   5.269   0.460
 7180SOL    HW122439   2.193   5.205   0.469
 7180SOL    HW222440   2.152   5.358   0.432
 7181SOL     OW22441   2.188   6.784   0.225
 7181SOL    HW122442   2.118   6.826   0.167
 7181SOL    HW222443   2.251   6.854   0.258
 7182SOL     OW22444   0.562   2.715   4.696
 7182SOL    HW122445   0.628   2.642   4.715
 7182SOL    HW222446   0.488   2.679   4.640
 7183SOL     OW22447   2.234   6.079   0.636
 7183SOL    HW122448   2.312   6.060   0.577
 7183SOL    HW222449   2.213   6.177   0.633
 7184SOL     OW22450   6.716   1.096   3.698
 7184SOL    HW122451   6.687   1.191   3.684
 7184SOL    HW222452   6.808   1.084   3.659
 7185SOL     OW22453   5.843   0.256   4.858
 7185SOL    HW122454   5.920   0.291   4.912
 7185SOL    HW222455   5.760   0.256   4.914
 7186SOL     OW22456   6.877   1.773   0.500
 7186SOL    HW122457   6.927   1.697   0.541
 7186SOL    HW222458   6.942   1.836   0.456
 7187SOL     OW22459   4.113   4.866   6.548
 7187SOL    HW122460   4.187   4.814   6.505
 7187SOL    HW222461   4.094   4.948   6.494
 7188SOL     OW22462   5.946   0.797   0.201
 7188SOL    HW122463   5.929   0.753   0.113
 7188SOL    HW222464   5.876   0.768   0.267
 7189SOL     OW22465   7.022   0.990   5.731
 7189SOL    HW122466   0.090   0.995   5.774
 7189SOL    HW222467   7.022   0.918   5.662
 7190SOL     OW22468   0.402   3.298   2.505
 7190SOL    HW122469   0.393   3.199   2.487
 7190SOL    HW222470   0.419   3.345   2.419
 7191SOL     OW22471   0.865   4.724   2.895
 7191SOL    HW122472   0.840   4.640   2.848
 7191SOL    HW222473   0.886   4.795   2.828
 7192SOL     OW22474   2.798   4.238   6.070
 7192SOL    HW122475   2.751   4.228   5.982
 7192SOL    HW222476   2.881   4.292   6.056
 7193SOL     OW22477   0.761   2.721   2.332
 7193SOL    HW122478   0.773   2.741   2.234
 7193SOL    HW222479   0.676   2.764   2.364
 7194SOL     OW22480   2.759   2.508   0.201
 7194SOL    HW122481   2.828   2.445   0.165
 7194SOL    HW222482   2.689   2.525   0.131
 7195SOL     OW22483   0.607   3.940   6.500
 7195SOL    HW122484   0.668   3.905   6.571
 7195SOL    HW222485   0.569   3.864   6.448
 7196SOL     OW22486   2.987   4.153   1.283
 7196SOL    HW122487   2.941   4.173   1.196
 7196SOL    HW222488   2.933   4.088   1.336
 7197SOL     OW22489   0.434   2.321   6.214
 7197SOL    HW122490   0.395   2.372   6.137
 7197SOL    HW222491   0.473   2.385   6.280
 7198SOL     OW22492   6.758   0.623   0.937
 7198SOL    HW122493   6.744   0.675   1.022
 7198SOL    HW222494   6.856   0.614   0.920
 7199SOL     OW22495   2.046   0.843   2.081
 7199SOL    HW122496   2.137   0.857   2.121
 7199SOL    HW222497   2.031   0.745   2.068
 7200SOL     OW22498   2.507   2.365   6.582
 7200SOL    HW122499   2.539   2.300   6.513
 7200SOL    HW222500   2.407   2.368   6.580
 7201SOL     OW22501   0.967   5.299   4.748
 7201SOL    HW122502   0.936   5.331   4.837
 7201SOL    HW222503   0.953   5.372   4.680
 7202SOL     OW22504   5.220   6.972   0.034
 7202SOL    HW122505   5.226   6.899   0.102
 7202SOL    HW222506   5.139   6.959   7.000
 7203SOL     OW22507   0.291   1.972   0.873
 7203SOL    HW122508   0.330   1.951   0.784
 7203SOL    HW222509   0.341   2.047   0.915
 7204SOL     OW22510   0.454   6.942   5.684
 7204SOL    HW122511   0.464   6.992   5.597
 7204SOL    HW222512   0.540   6.897   5.707
 7205SOL     OW22513   0.893   4.896   3.838
 7205SOL    HW122514   0.983   4.932   3.814
 7205SOL    HW222515   0.898   4.849   3.926
 7206SOL     OW22516   1.270   0.558   1.873
 7206SOL    HW122517   1.216   0.543   1.790
 7206SOL    HW222518   1.219   0.523   1.952
 7207SOL     OW22519   3.681   0.409   2.687
 7207SOL    HW122520   3.732   0.369   2.610
 7207SOL    HW222521   3.629   0.488   2.656
 7208SOL     OW22522   4.093   0.065   3.071
 7208SOL    HW122523   4.131   0.155   3.049
 7208SOL    HW222524   4.048   0.069   3.160
 7209SOL     OW22525   3.038   3.496   1.366
 7209SOL    HW122526   3.052   3.398   1.352
 7209SOL    HW222527   2.974   3.531   1.297
 7210SOL     OW22528   4.364   1.189   4.125
 7210SOL    HW122529   4.346   1.127   4.049
 7210SOL    HW222530   4.280   1.238   4.149
 7211SOL     OW22531   3.094   6.519   4.589
 7211SOL    HW122532   3.071   6.535   4.493
 7211SOL    HW222533   3.153   6.592   4.622
 7212SOL     OW22534   0.590   5.985   4.724
 7212SOL    HW122535   0.600   5.965   4.627
 7212SOL    HW222536   0.656   6.055   4.751
 7213SOL     OW22537   5.332   6.232   0.293
 7213SOL    HW122538   5.380   6.151   0.327
 7213SOL    HW222539   5.364   6.254   0.201
 7214SOL     OW22540   6.305   5.872   5.612
 7214SOL    HW122541   6.396   5.909   5.598
 7214SOL    HW222542   6.243   5.907   5.543
 7215SOL     OW22543   0.044   3.702   5.172
 7215SOL    HW122544   0.056   3.605   5.150
 7215SOL    HW222545   0.132   3.750   5.163
 7216SOL     OW22546   3.344   6.837   0.026
 7216SOL    HW122547   3.327   6.760   6.987
 7216SOL    HW222548   3.417   6.894   7.012
 7217SOL     OW22549   2.099   4.486   3.127
 7217SOL    HW122550   2.163   4.481   3.051
 7217SOL    HW222551   2.006   4.498   3.092
 7218SOL     OW22552   5.585   2.984   5.385
 7218SOL    HW122553   5.630   2.991   5.297
 7218SOL    HW222554   5.486   2.988   5.372
 7219SOL     OW22555   4.444   0.233   3.458
 7219SOL    HW122556   4.377   0.230   3.533
 7219SOL    HW222557   4.404   0.280   3.380
 7220SOL     OW22558   1.275   5.065   5.144
 7220SOL    HW122559   1.203   5.002   5.115
 7220SOL    HW222560   1.363   5.017   5.143
 7221SOL     OW22561   3.402   6.210   4.732
 7221SOL    HW122562   3.380   6.124   4.685
 7221SOL    HW222563   3.501   6.218   4.743
 7222SOL     OW22564   5.598   6.961   2.960
 7222SOL    HW122565   5.576   6.921   3.049
 7222SOL    HW222566   5.588   0.038   2.965
 7223SOL     OW22567   2.927   1.068   1.054
 7223SOL    HW122568   2.908   1.164   1.034
 7223SOL    HW222569   2.842   1.016   1.058
 7224SOL     OW22570   5.759   1.715   3.745
 7224SOL    HW122571   5.830   1.684   3.682
 7224SOL    HW222572   5.722   1.802   3.714
 7225SOL     OW22573   1.133   5.195   0.523
 7225SOL    HW122574   1.134   5.238   0.433
 7225SOL    HW222575   1.179   5.254   0.589
 7226SOL     OW22576   6.949   1.731   1.145
 7226SOL    HW122577   6.883   1.694   1.079
 7226SOL    HW222578   6.903   1.747   1.232
 7227SOL     OW22579   1.766   1.692   0.790
 7227SOL    HW122580   1.834   1.750   0.743
 7227SOL    HW222581   1.781   1.697   0.889
 7228SOL     OW22582   1.231   1.899   2.965
 7228SOL    HW122583   1.306   1.964   2.979
 7228SOL    HW222584   1.150   1.931   3.013
 7229SOL     OW22585   1.649   6.074   6.001
 7229SOL    HW122586   1.604   5.985   6.011
 7229SOL    HW222587   1.590   6.146   6.039
 7230SOL     OW22588   3.757   5.260   4.557
 7230SOL    HW122589   3.754   5.179   4.616
 7230SOL    HW222590   3.694   5.329   4.592
 7231SOL     OW22591   4.023   0.782   6.902
 7231SOL    HW122592   4.036   0.832   6.987
 7231SOL    HW222593   4.021   0.846   6.825
 7232SOL     OW22594   5.262   5.914   3.367
 7232SOL    HW122595   5.201   5.928   3.289
 7232SOL    HW222596   5.333   5.847   3.342
 7233SOL     OW22597   0.664   1.614   4.208
 7233SOL    HW122598   0.693   1.533   4.259
 7233SOL    HW222599   0.726   1.690   4.229
 7234SOL     OW22600   5.419   3.273   3.624
 7234SOL    HW122601   5.515   3.247   3.618
 7234SOL    HW222602   5.393   3.321   3.540
 7235SOL     OW22603   6.624   4.313   2.415
 7235SOL    HW122604   6.677   4.286   2.335
 7235SOL    HW222605   6.578   4.400   2.398
 7236SOL     OW22606   2.182   2.022   1.194
 7236SOL    HW122607   2.204   1.954   1.264
 7236SOL    HW222608   2.164   2.111   1.237
 7237SOL     OW22609   4.238   1.162   5.001
 7237SOL    HW122610   4.254   1.107   4.919
 7237SOL    HW222611   4.244   1.259   4.978
 7238SOL     OW22612   3.670   1.790   1.057
 7238SOL    HW122613   3.609   1.857   1.014
 7238SOL    HW222614   3.749   1.774   0.998
 7239SOL     OW22615   1.210   2.559   2.862
 7239SOL    HW122616   1.128   2.615   2.867
 7239SOL    HW222617   1.273   2.584   2.936
 7240SOL     OW22618   1.889   6.004   5.916
 7240SOL    HW122619   1.908   6.076   5.849
 7240SOL    HW222620   1.807   6.027   5.967
 7241SOL     OW22621   1.727   1.030   0.621
 7241SOL    HW122622   1.646   0.981   0.588
 7241SOL    HW222623   1.807   1.002   0.569
 7242SOL     OW22624   6.775   6.201   0.328
 7242SOL    HW122625   6.770   6.131   0.400
 7242SOL    HW222626   6.802   6.158   0.242
 7243SOL     OW22627   6.375   4.537   6.015
 7243SOL    HW122628   6.370   4.438   6.008
 7243SOL    HW222629   6.282   4.575   6.010
 7244SOL     OW22630   5.906   1.514   1.576
 7244SOL    HW122631   5.835   1.492   1.643
 7244SOL    HW222632   5.942   1.605   1.595
 7245SOL     OW22633   1.336   1.932   4.484
 7245SOL    HW122634   1.344   2.018   4.434
 7245SOL    HW222635   1.248   1.889   4.464
 7246SOL     OW22636   6.767   0.273   4.541
 7246SOL    HW122637   6.690   0.293   4.602
 7246SOL    HW222638   6.757   0.180   4.505
 7247SOL     OW22639   2.544   0.342   4.575
 7247SOL    HW122640   2.608   0.323   4.500
 7247SOL    HW222641   2.458   0.376   4.538
 7248SOL     OW22642   2.160   1.551   3.425
 7248SOL    HW122643   2.245   1.547   3.478
 7248SOL    HW222644   2.170   1.495   3.343
 7249SOL     OW22645   6.492   4.481   2.750
 7249SOL    HW122646   6.529   4.545   2.683
 7249SOL    HW222647   6.396   4.504   2.769
 7250SOL     OW22648   4.799   6.961   6.289
 7250SOL    HW122649   4.745   7.021   6.230
 7250SOL    HW222650   4.872   7.014   6.333
 7251SOL     OW22651   0.640   6.237   5.733
 7251SOL    HW122652   0.623   6.329   5.699
 7251SOL    HW222653   0.666   6.177   5.657
 7252SOL     OW22654   3.671   3.703   3.018
 7252SOL    HW122655   3.614   3.757   3.080
 7252SOL    HW222656   3.700   3.619   3.065
 7253SOL     OW22657   2.599   6.606   6.363
 7253SOL    HW122658   2.533   6.629   6.291
 7253SOL    HW222659   2.574   6.517   6.403
 7254SOL     OW22660   4.431   5.000   4.026
 7254SOL    HW122661   4.362   5.032   3.961
 7254SOL    HW222662   4.415   4.904   4.048
 7255SOL     OW22663   3.440   3.182   0.564
 7255SOL    HW122664   3.450   3.260   0.626
 7255SOL    HW222665   3.522   3.173   0.508
 7256SOL     OW22666   4.073   4.832   4.251
 7256SOL    HW122667   3.992   4.862   4.302
 7256SOL    HW222668   4.140   4.794   4.314
 7257SOL     OW22669   5.673   3.154   3.656
 7257SOL    HW122670   5.725   3.145   3.571
 7257SOL    HW222671   5.646   3.064   3.690
 7258SOL     OW22672   4.084   1.483   3.443
 7258SOL    HW122673   4.005   1.444   3.490
 7258SOL    HW222674   4.096   1.578   3.472
 7259SOL     OW22675   2.744   3.376   1.025
 7259SOL    HW122676   2.673   3.341   1.085
 7259SOL    HW222677   2.702   3.420   0.946
 7260SOL     OW22678   3.435   1.949   1.926
 7260SOL    HW122679   3.404   1.938   2.020
 7260SOL    HW222680   3.412   1.867   1.874
 7261SOL     OW22681   1.415   2.175   1.385
 7261SOL    HW122682   1.410   2.076   1.371
 7261SOL    HW222683   1.323   2.214   1.381
 7262SOL     OW22684   5.123   1.505   5.727
 7262SOL    HW122685   5.032   1.497   5.768
 7262SOL    HW222686   5.190   1.522   5.800
 7263SOL     OW22687   0.920   6.756   1.001
 7263SOL    HW122688   0.880   6.701   1.074
 7263SOL    HW222689   0.939   6.698   0.922
 7264SOL     OW22690   5.619   1.406   6.344
 7264SOL    HW122691   5.526   1.413   6.381
 7264SOL    HW222692   5.618   1.421   6.246
 7265SOL     OW22693   5.537   5.208   5.803
 7265SOL    HW122694   5.560   5.212   5.705
 7265SOL    HW222695   5.594   5.139   5.847
 7266SOL     OW22696   5.848   0.226   1.388
 7266SOL    HW122697   5.815   0.168   1.314
 7266SOL    HW222698   5.839   0.322   1.362
 7267SOL     OW22699   6.573   5.951   5.238
 7267SOL    HW122700   6.496   5.890   5.217
 7267SOL    HW222701   6.538   6.033   5.284
 7268SOL     OW22702   5.239   5.275   3.412
 7268SOL    HW122703   5.339   5.286   3.410
 7268SOL    HW222704   5.216   5.180   3.394
 7269SOL     OW22705   0.193   6.557   0.660
 7269SOL    HW122706   0.191   6.479   0.723
 7269SOL    HW222707   0.232   6.528   0.572
 7270SOL     OW22708   1.087   3.512   5.427
 7270SOL    HW122709   1.063   3.434   5.368
 7270SOL    HW222710   1.173   3.553   5.395
 7271SOL     OW22711   0.115   6.144   3.648
 7271SOL    HW122712   0.144   6.054   3.616
 7271SOL    HW222713   0.191   6.190   3.693
 7272SOL     OW22714   5.401   5.413   2.274
 7272SOL    HW122715   5.375   5.446   2.365
 7272SOL    HW222716   5.435   5.319   2.280
 7273SOL     OW22717   5.708   4.062   2.094
 7273SOL    HW122718   5.694   4.074   1.995
 7273SOL    HW222719   5.779   4.126   2.125
 7274SOL     OW22720   0.849   5.948   0.050
 7274SOL    HW122721   0.925   5.917   0.107
 7274SOL    HW222722   0.854   5.904   6.983
 7275SOL     OW22723   6.627   0.193   2.637
 7275SOL    HW122724   6.723   0.173   2.656
 7275SOL    HW222725   6.570   0.152   2.708
 7276SOL     OW22726   3.706   1.861   2.988
 7276SOL    HW122727   3.626   1.828   3.039
 7276SOL    HW222728   3.681   1.880   2.894
 7277SOL     OW22729   4.571   0.747   4.023
 7277SOL    HW122730   4.479   0.717   3.998
 7277SOL    HW222731   4.568   0.800   4.107
 7278SOL     OW22732   3.210   2.303   1.646
 7278SOL    HW122733   3.296   2.330   1.689
 7278SOL    HW222734   3.164   2.236   1.703
 7279SOL     OW22735   4.253   3.398   6.394
 7279SOL    HW122736   4.261   3.305   6.430
 7279SOL    HW222737   4.173   3.442   6.433
 7280SOL     OW22738   0.275   1.439   4.203
 7280SOL    HW122739   0.237   1.381   4.275
 7280SOL    HW222740   0.342   1.502   4.243
 7281SOL     OW22741   1.721   0.707   0.332
 7281SOL    HW122742   1.676   0.733   0.246
 7281SOL    HW222743   1.655   0.712   0.407
 7282SOL     OW22744   5.837   6.742   1.383
 7282SOL    HW122745   5.795   6.660   1.345
 7282SOL    HW222746   5.922   6.762   1.334
 7283SOL     OW22747   3.754   0.411   1.780
 7283SOL    HW122748   3.831   0.399   1.716
 7283SOL    HW222749   3.683   0.465   1.736
 7284SOL     OW22750   6.995   1.890   4.997
 7284SOL    HW122751   6.987   1.823   4.923
 7284SOL    HW222752   6.904   1.909   5.035
 7285SOL     OW22753   5.768   3.494   1.326
 7285SOL    HW122754   5.724   3.411   1.358
 7285SOL    HW222755   5.714   3.536   1.253
 7286SOL     OW22756   1.223   0.764   0.971
 7286SOL    HW122757   1.235   0.798   0.878
 7286SOL    HW222758   1.311   0.728   1.004
 7287SOL     OW22759   6.482   2.811   4.899
 7287SOL    HW122760   6.530   2.852   4.976
 7287SOL    HW222761   6.497   2.712   4.900
 7288SOL     OW22762   1.387   2.014   1.123
 7288SOL    HW122763   1.408   1.975   1.213
 7288SOL    HW222764   1.467   2.061   1.088
 7289SOL     OW22765   5.785   2.244   3.502
 7289SOL    HW122766   5.738   2.319   3.549
 7289SOL    HW222767   5.793   2.166   3.564
 7290SOL     OW22768   2.266   1.308   5.168
 7290SOL    HW122769   2.227   1.398   5.150
 7290SOL    HW222770   2.198   1.250   5.212
 7291SOL     OW22771   1.914   6.951   0.366
 7291SOL    HW122772   1.867   6.912   0.445
 7291SOL    HW222773   2.006   6.979   0.393
 7292SOL     OW22774   3.224   0.395   2.958
 7292SOL    HW122775   3.270   0.458   2.895
 7292SOL    HW222776   3.292   0.342   3.008
 7293SOL     OW22777   1.017   1.480   5.591
 7293SOL    HW122778   1.103   1.485   5.540
 7293SOL    HW222779   0.956   1.414   5.546
 7294SOL     OW22780   2.855   4.686   0.591
 7294SOL    HW122781   2.917   4.715   0.518
 7294SOL    HW222782   2.881   4.594   0.622
 7295SOL     OW22783   6.704   4.245   0.677
 7295SOL    HW122784   6.714   4.177   0.604
 7295SOL    HW222785   6.608   4.269   0.687
 7296SOL     OW22786   4.199   5.472   1.426
 7296SOL    HW122787   4.232   5.442   1.336
 7296SOL    HW222788   4.131   5.544   1.414
 7297SOL     OW22789   2.946   6.503   1.333
 7297SOL    HW122790   2.852   6.536   1.343
 7297SOL    HW222791   2.995   6.562   1.269
 7298SOL     OW22792   4.599   5.080   6.067
 7298SOL    HW122793   4.643   4.993   6.043
 7298SOL    HW222794   4.637   5.114   6.153
 7299SOL     OW22795   1.187   2.253   0.830
 7299SOL    HW122796   1.155   2.321   0.896
 7299SOL    HW222797   1.277   2.281   0.795
 7300SOL     OW22798   0.659   6.852   2.409
 7300SOL    HW122799   0.623   6.939   2.376
 7300SOL    HW222800   0.754   6.864   2.439
 7301SOL     OW22801   5.583   2.518   5.350
 7301SOL    HW122802   5.604   2.611   5.383
 7301SOL    HW222803   5.512   2.523   5.279
 7302SOL     OW22804   0.148   2.128   6.247
 7302SOL    HW122805   0.093   2.145   6.329
 7302SOL    HW222806   0.104   2.170   6.168
 7303SOL     OW22807   3.580   1.229   6.652
 7303SOL    HW122808   3.592   1.257   6.557
 7303SOL    HW222809   3.488   1.193   6.665
 7304SOL     OW22810   2.929   5.155   1.455
 7304SOL    HW122811   2.851   5.204   1.416
 7304SOL    HW222812   2.897   5.092   1.526
 7305SOL     OW22813   5.324   2.208   1.156
 7305SOL    HW122814   5.397   2.174   1.215
 7305SOL    HW222815   5.357   2.212   1.062
 7306SOL     OW22816   3.695   1.730   1.577
 7306SOL    HW122817   3.675   1.761   1.484
 7306SOL    HW222818   3.735   1.805   1.629
 7307SOL     OW22819   3.721   6.506   2.474
 7307SOL    HW122820   3.701   6.417   2.514
 7307SOL    HW222821   3.703   6.503   2.375
 7308SOL     OW22822   6.377   1.673   4.476
 7308SOL    HW122823   6.284   1.709   4.472
 7308SOL    HW222824   6.438   1.732   4.423
 7309SOL     OW22825   4.119   6.139   1.339
 7309SOL    HW122826   4.192   6.084   1.298
 7309SOL    HW222827   4.152   6.179   1.424
 7310SOL     OW22828   2.143   3.410   0.418
 7310SOL    HW122829   2.052   3.391   0.381
 7310SOL    HW222830   2.157   3.358   0.502
 7311SOL     OW22831   1.763   1.163   0.890
 7311SOL    HW122832   1.669   1.179   0.921
 7311SOL    HW222833   1.763   1.144   0.792
 7312SOL     OW22834   1.225   2.760   4.738
 7312SOL    HW122835   1.131   2.731   4.754
 7312SOL    HW222836   1.260   2.806   4.820
 7313SOL     OW22837   1.993   1.427   0.263
 7313SOL    HW122838   2.038   1.345   0.298
 7313SOL    HW222839   1.933   1.465   0.333
 7314SOL     OW22840   6.836   4.091   5.822
 7314SOL    HW122841   6.923   4.130   5.852
 7314SOL    HW222842   6.761   4.146   5.857
 7315SOL     OW22843   5.023   5.818   1.656
 7315SOL    HW122844   5.092   5.766   1.605
 7315SOL    HW222845   4.939   5.824   1.602
 7316SOL     OW22846   2.979   2.915   6.678
 7316SOL    HW122847   2.889   2.872   6.675
 7316SOL    HW222848   3.048   2.852   6.641
 7317SOL     OW22849   3.808   1.495   1.631
 7317SOL    HW122850   3.890   1.501   1.575
 7317SOL    HW222851   3.756   1.580   1.623
 7318SOL     OW22852   3.230   0.220   2.129
 7318SOL    HW122853   3.192   0.191   2.217
 7318SOL    HW222854   3.180   0.177   2.055
 7319SOL     OW22855   5.748   3.145   0.093
 7319SOL    HW122856   5.649   3.135   0.104
 7319SOL    HW222857   5.792   3.057   0.108
 7320SOL     OW22858   0.286   4.054   1.191
 7320SOL    HW122859   0.365   4.023   1.244
 7320SOL    HW222860   0.208   3.993   1.208
 7321SOL     OW22861   2.358   6.765   5.732
 7321SOL    HW122862   2.291   6.813   5.677
 7321SOL    HW222863   2.313   6.688   5.779
 7322SOL     OW22864   0.116   2.700   3.067
 7322SOL    HW122865   0.107   2.709   2.967
 7322SOL    HW222866   0.026   2.680   3.106
 7323SOL     OW22867   2.062   2.924   1.812
 7323SOL    HW122868   2.049   2.939   1.714
 7323SOL    HW222869   2.125   2.993   1.848
 7324SOL     OW22870   5.768   4.559   2.146
 7324SOL    HW122871   5.684   4.557   2.091
 7324SOL    HW222872   5.844   4.591   2.090
 7325SOL     OW22873   3.036   0.577   5.848
 7325SOL    HW122874   3.026   0.613   5.755
 7325SOL    HW222875   2.956   0.522   5.871
 7326SOL     OW22876   3.817   6.074   5.748
 7326SOL    HW122877   3.766   5.997   5.712
 7326SOL    HW222878   3.908   6.077   5.706
 7327SOL     OW22879   6.064   3.042   5.210
 7327SOL    HW122880   6.033   3.122   5.159
 7327SOL    HW222881   6.072   2.964   5.148
 7328SOL     OW22882   4.658   6.885   5.992
 7328SOL    HW122883   4.598   6.813   5.959
 7328SOL    HW222884   4.748   6.846   6.012
 7329SOL     OW22885   0.965   4.083   0.707
 7329SOL    HW122886   0.892   4.017   0.692
 7329SOL    HW222887   0.933   4.154   0.771
 7330SOL     OW22888   2.385   3.529   0.381
 7330SOL    HW122889   2.459   3.462   0.372
 7330SOL    HW222890   2.298   3.480   0.387
 7331SOL     OW22891   5.693   6.235   1.580
 7331SOL    HW122892   5.615   6.238   1.643
 7331SOL    HW222893   5.688   6.313   1.518
 7332SOL     OW22894   2.960   4.732   6.586
 7332SOL    HW122895   2.922   4.675   6.659
 7332SOL    HW222896   2.947   4.828   6.609
 7333SOL     OW22897   6.325   2.750   3.621
 7333SOL    HW122898   6.330   2.650   3.630
 7333SOL    HW222899   6.231   2.779   3.636
 7334SOL     OW22900   2.141   6.303   6.347
 7334SOL    HW122901   2.203   6.237   6.390
 7334SOL    HW222902   2.181   6.335   6.261
 7335SOL     OW22903   0.353   3.110   2.712
 7335SOL    HW122904   0.377   3.202   2.680
 7335SOL    HW222905   0.420   3.079   2.779
 7336SOL     OW22906   2.193   6.551   2.200
 7336SOL    HW122907   2.249   6.490   2.256
 7336SOL    HW222908   2.250   6.623   2.162
 7337SOL     OW22909   1.901   2.733   1.906
 7337SOL    HW122910   1.959   2.797   1.855
 7337SOL    HW222911   1.849   2.782   1.976
 7338SOL     OW22912   5.802   2.124   1.888
 7338SOL    HW122913   5.774   2.028   1.884
 7338SOL    HW222914   5.803   2.163   1.796
 7339SOL     OW22915   6.051   0.369   5.057
 7339SOL    HW122916   6.067   0.455   5.107
 7339SOL    HW222917   6.017   0.300   5.121
 7340SOL     OW22918   3.928   1.447   0.111
 7340SOL    HW122919   3.995   1.436   0.037
 7340SOL    HW222920   3.912   1.359   0.155
 7341SOL     OW22921   0.904   4.650   4.799
 7341SOL    HW122922   0.856   4.570   4.834
 7341SOL    HW222923   0.964   4.623   4.724
 7342SOL     OW22924   6.870   6.579   6.946
 7342SOL    HW122925   6.823   6.497   6.979
 7342SOL    HW222926   6.803   6.648   6.919
 7343SOL     OW22927   5.306   4.402   1.734
 7343SOL    HW122928   5.329   4.317   1.781
 7343SOL    HW222929   5.383   4.430   1.677
 7344SOL     OW22930   1.329   0.503   5.684
 7344SOL    HW122931   1.400   0.444   5.722
 7344SOL    HW222932   1.253   0.510   5.748
 7345SOL     OW22933   4.924   6.196   5.427
 7345SOL    HW122934   5.009   6.147   5.445
 7345SOL    HW222935   4.887   6.168   5.339
 7346SOL     OW22936   3.889   4.019   1.296
 7346SOL    HW122937   3.805   4.055   1.254
 7346SOL    HW222938   3.969   4.061   1.253
 7347SOL     OW22939   0.771   3.258   0.872
 7347SOL    HW122940   0.855   3.251   0.927
 7347SOL    HW222941   0.692   3.266   0.933
 7348SOL     OW22942   1.312   3.581   3.521
 7348SOL    HW122943   1.391   3.521   3.521
 7348SOL    HW222944   1.320   3.648   3.595
 7349SOL     OW22945   4.470   2.349   0.573
 7349SOL    HW122946   4.422   2.267   0.543
 7349SOL    HW222947   4.476   2.350   0.673
 7350SOL     OW22948   1.593   3.334   5.187
 7350SOL    HW122949   1.649   3.257   5.159
 7350SOL    HW222950   1.637   3.419   5.158
 7351SOL     OW22951   4.816   6.137   5.152
 7351SOL    HW122952   4.772   6.218   5.114
 7351SOL    HW222953   4.753   6.059   5.146
 7352SOL     OW22954   1.774   2.890   2.876
 7352SOL    HW122955   1.679   2.921   2.883
 7352SOL    HW222956   1.785   2.834   2.794
 7353SOL     OW22957   0.284   6.805   5.882
 7353SOL    HW122958   0.202   6.860   5.893
 7353SOL    HW222959   0.352   6.856   5.829
 7354SOL     OW22960   1.065   1.842   7.013
 7354SOL    HW122961   1.017   1.777   0.049
 7354SOL    HW222962   1.158   1.857   0.025
 7355SOL     OW22963   1.226   1.468   0.252
 7355SOL    HW122964   1.235   1.524   0.334
 7355SOL    HW222965   1.174   1.519   0.183
 7356SOL     OW22966   4.311   3.230   5.768
 7356SOL    HW122967   4.373   3.231   5.846
 7356SOL    HW222968   4.284   3.135   5.749
 7357SOL     OW22969   4.638   0.542   1.793
 7357SOL    HW122970   4.698   0.468   1.825
 7357SOL    HW222971   4.544   0.524   1.822
 7358SOL     OW22972   0.492   2.889   2.582
 7358SOL    HW122973   0.533   2.967   2.535
 7358SOL    HW222974   0.442   2.920   2.663
 7359SOL     OW22975   2.684   2.546   6.368
 7359SOL    HW122976   2.628   2.542   6.451
 7359SOL    HW222977   2.627   2.579   6.292
 7360SOL     OW22978   3.517   4.036   6.106
 7360SOL    HW122979   3.432   3.984   6.117
 7360SOL    HW222980   3.513   4.090   6.022
 7361SOL     OW22981   4.486   0.173   1.954
 7361SOL    HW122982   4.470   0.166   1.856
 7361SOL    HW222983   4.582   0.154   1.974
 7362SOL     OW22984   1.221   5.532   4.628
 7362SOL    HW122985   1.128   5.496   4.625
 7362SOL    HW222986   1.219   5.631   4.613
 7363SOL     OW22987   4.039   1.327   1.199
 7363SOL    HW122988   4.098   1.377   1.135
 7363SOL    HW222989   3.946   1.326   1.164
 7364SOL     OW22990   4.663   0.568   1.237
 7364SOL    HW122991   4.659   0.623   1.319
 7364SOL    HW222992   4.706   0.620   1.163
 7365SOL     OW22993   1.473   0.053   1.613
 7365SOL    HW122994   1.464   6.977   1.595
 7365SOL    HW222995   1.569   0.075   1.626
 7366SOL     OW22996   2.080   5.961   0.126
 7366SOL    HW122997   2.152   6.029   0.138
 7366SOL    HW222998   2.080   5.897   0.203
 7367SOL     OW22999   4.591   3.762   1.590
 7367SOL    HW123000   4.551   3.840   1.639
 7367SOL    HW223001   4.580   3.679   1.644
 7368SOL     OW23002   3.867   2.984   3.877
 7368SOL    HW123003   3.809   3.006   3.955
 7368SOL    HW223004   3.921   3.064   3.851
 7369SOL     OW23005   4.403   2.915   6.846
 7369SOL    HW123006   4.376   2.996   6.899
 7369SOL    HW223007   4.323   2.880   6.798
 7370SOL     OW23008   2.850   0.742   4.942
 7370SOL    HW123009   2.903   0.796   5.006
 7370SOL    HW223010   2.911   0.680   4.892
 7371SOL     OW23011   1.911   6.030   3.537
 7371SOL    HW123012   1.914   6.115   3.484
 7371SOL    HW223013   1.953   5.956   3.484
 7372SOL     OW23014   3.687   1.423   5.540
 7372SOL    HW123015   3.740   1.413   5.624
 7372SOL    HW223016   3.723   1.500   5.486
 7373SOL     OW23017   5.437   1.521   4.465
 7373SOL    HW123018   5.535   1.499   4.467
 7373SOL    HW223019   5.395   1.479   4.385
 7374SOL     OW23020   3.019   1.499   5.910
 7374SOL    HW123021   3.036   1.596   5.889
 7374SOL    HW223022   2.920   1.481   5.907
 7375SOL     OW23023   2.194   2.989   2.801
 7375SOL    HW123024   2.221   3.029   2.888
 7375SOL    HW223025   2.112   3.035   2.767
 7376SOL     OW23026   3.743   1.668   0.163
 7376SOL    HW123027   3.686   1.646   0.243
 7376SOL    HW223028   3.811   1.596   0.151
 7377SOL     OW23029   5.382   5.191   1.069
 7377SOL    HW123030   5.409   5.245   1.149
 7377SOL    HW223031   5.429   5.226   0.988
 7378SOL     OW23032   0.913   0.917   5.369
 7378SOL    HW123033   0.856   0.867   5.435
 7378SOL    HW223034   1.010   0.902   5.392
 7379SOL     OW23035   2.991   2.251   2.702
 7379SOL    HW123036   2.969   2.222   2.795
 7379SOL    HW223037   2.915   2.304   2.664
 7380SOL     OW23038   0.314   3.111   5.618
 7380SOL    HW123039   0.398   3.148   5.578
 7380SOL    HW223040   0.324   3.108   5.718
 7381SOL     OW23041   4.862   3.922   2.014
 7381SOL    HW123042   4.824   4.009   1.981
 7381SOL    HW223043   4.946   3.940   2.065
 7382SOL     OW23044   0.311   5.393   6.306
 7382SOL    HW123045   0.347   5.343   6.228
 7382SOL    HW223046   0.216   5.367   6.322
 7383SOL     OW23047   0.721   6.813   1.285
 7383SOL    HW123048   0.785   6.883   1.254
 7383SOL    HW223049   0.640   6.813   1.227
 7384SOL     OW23050   5.656   0.572   3.175
 7384SOL    HW123051   5.660   0.570   3.275
 7384SOL    HW223052   5.749   0.579   3.139
 7385SOL     OW23053   4.434   5.766   1.744
 7385SOL    HW123054   4.466   5.835   1.810
 7385SOL    HW223055   4.448   5.675   1.783
 7386SOL     OW23056   1.001   1.940   5.416
 7386SOL    HW123057   1.086   1.918   5.369
 7386SOL    HW223058   0.925   1.894   5.370
 7387SOL     OW23059   4.692   6.294   4.086
 7387SOL    HW123060   4.617   6.273   4.149
 7387SOL    HW223061   4.657   6.346   4.008
 7388SOL     OW23062   0.163   4.678   2.849
 7388SOL    HW123063   0.088   4.620   2.819
 7388SOL    HW223064   0.192   4.650   2.941
 7389SOL     OW23065   0.546   3.189   6.548
 7389SOL    HW123066   0.606   3.167   6.472
 7389SOL    HW223067   0.601   3.213   6.628
 7390SOL     OW23068   2.083   1.646   0.163
 7390SOL    HW123069   2.179   1.633   0.137
 7390SOL    HW223070   2.047   1.561   0.202
 7391SOL     OW23071   4.502   4.045   5.426
 7391SOL    HW123072   4.552   4.067   5.510
 7391SOL    HW223073   4.520   3.950   5.401
 7392SOL     OW23074   2.570   6.222   0.087
 7392SOL    HW123075   2.509   6.296   0.061
 7392SOL    HW223076   2.613   6.244   0.175
 7393SOL     OW23077   5.336   4.741   1.732
 7393SOL    HW123078   5.407   4.807   1.758
 7393SOL    HW223079   5.289   4.709   1.815
 7394SOL     OW23080   3.023   2.551   5.768
 7394SOL    HW123081   2.976   2.590   5.689
 7394SOL    HW223082   3.003   2.607   5.849
 7395SOL     OW23083   2.287   1.747   0.396
 7395SOL    HW123084   2.382   1.717   0.409
 7395SOL    HW223085   2.252   1.709   0.310
 7396SOL     OW23086   0.875   6.657   0.538
 7396SOL    HW123087   0.952   6.624   0.482
 7396SOL    HW223088   0.796   6.675   0.480
 7397SOL     OW23089   4.238   5.005   4.777
 7397SOL    HW123090   4.264   4.927   4.834
 7397SOL    HW223091   4.186   4.973   4.698
 7398SOL     OW23092   2.301   4.754   4.552
 7398SOL    HW123093   2.237   4.737   4.627
 7398SOL    HW223094   2.362   4.676   4.541
 7399SOL     OW23095   1.282   2.339   5.582
 7399SOL    HW123096   1.270   2.399   5.504
 7399SOL    HW223097   1.229   2.255   5.568
 7400SOL     OW23098   4.187   3.152   6.146
 7400SOL    HW123099   4.225   3.227   6.091
 7400SOL    HW223100   4.120   3.189   6.211
 7401SOL     OW23101   1.640   0.449   4.412
 7401SOL    HW123102   1.704   0.448   4.335
 7401SOL    HW223103   1.664   0.376   4.476
 7402SOL     OW23104   3.250   5.846   6.046
 7402SOL    HW123105   3.286   5.754   6.036
 7402SOL    HW223106   3.152   5.842   6.068
 7403SOL     OW23107   2.173   4.029   2.433
 7403SOL    HW123108   2.093   4.082   2.408
 7403SOL    HW223109   2.175   4.017   2.533
 7404SOL     OW23110   2.415   5.318   1.059
 7404SOL    HW123111   2.410   5.417   1.049
 7404SOL    HW223112   2.327   5.283   1.093
 7405SOL     OW23113   3.723   4.912   4.020
 7405SOL    HW123114   3.659   4.918   3.943
 7405SOL    HW223115   3.671   4.907   4.105
 7406SOL     OW23116   0.866   3.294   3.299
 7406SOL    HW123117   0.805   3.215   3.304
 7406SOL    HW223118   0.865   3.342   3.387
 7407SOL     OW23119   0.280   6.189   4.814
 7407SOL    HW123120   0.305   6.093   4.801
 7407SOL    HW223121   0.298   6.240   4.730
 7408SOL     OW23122   2.098   4.312   6.678
 7408SOL    HW123123   2.104   4.410   6.660
 7408SOL    HW223124   2.158   4.263   6.614
 7409SOL     OW23125   0.481   1.548   6.227
 7409SOL    HW123126   0.518   1.482   6.162
 7409SOL    HW223127   0.556   1.599   6.269
 7410SOL     OW23128   0.183   5.740   1.007
 7410SOL    HW123129   0.095   5.755   0.964
 7410SOL    HW223130   0.173   5.675   1.084
 7411SOL     OW23131   3.064   0.258   4.404
 7411SOL    HW123132   3.061   0.159   4.393
 7411SOL    HW223133   3.039   0.302   4.318
 7412SOL     OW23134   4.718   0.464   2.328
 7412SOL    HW123135   4.722   0.368   2.355
 7412SOL    HW223136   4.729   0.522   2.409
 7413SOL     OW23137   4.826   6.052   4.772
 7413SOL    HW123138   4.908   6.044   4.829
 7413SOL    HW223139   4.837   6.127   4.707
 7414SOL     OW23140   0.540   0.381   3.711
 7414SOL    HW123141   0.476   0.364   3.636
 7414SOL    HW223142   0.526   0.473   3.746
 7415SOL     OW23143   1.798   4.039   4.220
 7415SOL    HW123144   1.881   4.096   4.219
 7415SOL    HW223145   1.773   4.015   4.126
 7416SOL     OW23146   2.569   1.526   3.945
 7416SOL    HW123147   2.600   1.442   3.989
 7416SOL    HW223148   2.591   1.604   4.003
 7417SOL     OW23149   2.008   0.833   6.383
 7417SOL    HW123150   2.052   0.890   6.452
 7417SOL    HW223151   1.916   0.868   6.366
 7418SOL     OW23152   3.113   5.887   0.829
 7418SOL    HW123153   3.126   5.902   0.731
 7418SOL    HW223154   3.062   5.964   0.868
 7419SOL     OW23155   5.734   3.166   4.875
 7419SOL    HW123156   5.668   3.239   4.894
 7419SOL    HW223157   5.697   3.105   4.806
 7420SOL     OW23158   0.704   0.000   2.049
 7420SOL    HW123159   0.766   6.945   2.063
 7420SOL    HW223160   0.632   7.020   2.118
 7421SOL     OW23161   3.431   3.392   0.758
 7421SOL    HW123162   3.417   3.372   0.855
 7421SOL    HW223163   3.463   3.486   0.749
 7422SOL     OW23164   0.072   3.069   2.678
 7422SOL    HW123165   0.170   3.064   2.700
 7422SOL    HW223166   0.026   3.129   2.743
 7423SOL     OW23167   6.444   4.575   5.401
 7423SOL    HW123168   6.541   4.556   5.411
 7423SOL    HW223169   6.404   4.597   5.490
 7424SOL     OW23170   6.942   0.058   5.405
 7424SOL    HW123171   6.949   6.981   5.416
 7424SOL    HW223172   6.873   0.079   5.336
 7425SOL     OW23173   4.475   5.627   6.718
 7425SOL    HW123174   4.446   5.721   6.705
 7425SOL    HW223175   4.407   5.579   6.774
 7426SOL     OW23176   2.229   0.925   6.114
 7426SOL    HW123177   2.145   0.979   6.122
 7426SOL    HW223178   2.220   0.842   6.169
 7427SOL     OW23179   3.343   6.867   4.162
 7427SOL    HW123180   3.360   6.965   4.149
 7427SOL    HW223181   3.349   6.820   4.074
 7428SOL     OW23182   4.249   1.048   6.278
 7428SOL    HW123183   4.224   1.131   6.329
 7428SOL    HW223184   4.231   0.968   6.334
 7429SOL     OW23185   6.532   6.657   3.286
 7429SOL    HW123186   6.434   6.668   3.272
 7429SOL    HW223187   6.565   6.727   3.350
 7430SOL     OW23188   1.124   3.460   6.591
 7430SOL    HW123189   1.044   3.401   6.604
 7430SOL    HW223190   1.201   3.424   6.644
 7431SOL     OW23191   0.866   3.130   2.977
 7431SOL    HW123192   0.859   3.076   3.061
 7431SOL    HW223193   0.847   3.226   2.997
 7432SOL     OW23194   0.443   0.603   3.004
 7432SOL    HW123195   0.376   0.668   3.039
 7432SOL    HW223196   0.412   0.510   3.023
 7433SOL     OW23197   4.673   5.171   6.337
 7433SOL    HW123198   4.580   5.150   6.366
 7433SOL    HW223199   4.690   5.269   6.347
 7434SOL     OW23200   5.631   0.217   5.623
 7434SOL    HW123201   5.609   0.127   5.659
 7434SOL    HW223202   5.711   0.254   5.671
 7435SOL     OW23203   3.409   5.961   0.893
 7435SOL    HW123204   3.315   5.938   0.917
 7435SOL    HW223205   3.448   5.888   0.837
 7436SOL     OW23206   5.773   3.586   0.020
 7436SOL    HW123207   5.729   3.527   0.088
 7436SOL    HW223208   5.768   3.542   6.953
 7437SOL     OW23209   0.897   6.372   0.573
 7437SOL    HW123210   0.822   6.330   0.623
 7437SOL    HW223211   0.893   6.471   0.582
 7438SOL     OW23212   0.690   5.280   0.257
 7438SOL    HW123213   0.627   5.227   0.314
 7438SOL    HW223214   0.761   5.219   0.222
 7439SOL     OW23215   1.794   5.892   5.043
 7439SOL    HW123216   1.715   5.839   5.013
 7439SOL    HW223217   1.878   5.841   5.025
 7440SOL     OW23218   7.020   3.644   4.756
 7440SOL    HW123219   0.054   3.573   4.715
 7440SOL    HW223220   6.924   3.630   4.732
 7441SOL     OW23221   5.561   6.564   4.210
 7441SOL    HW123222   5.487   6.608   4.261
 7441SOL    HW223223   5.545   6.465   4.207
 7442SOL     OW23224   0.311   0.768   5.956
 7442SOL    HW123225   0.221   0.800   5.988
 7442SOL    HW223226   0.370   0.752   6.036
 7443SOL     OW23227   0.196   0.253   2.521
 7443SOL    HW123228   0.286   0.263   2.565
 7443SOL    HW223229   0.207   0.263   2.422
 7444SOL     OW23230   6.162   2.941   5.672
 7444SOL    HW123231   6.260   2.933   5.652
 7444SOL    HW223232   6.109   2.915   5.591
 7445SOL     OW23233   3.557   1.132   1.333
 7445SOL    HW123234   3.607   1.049   1.307
 7445SOL    HW223235   3.613   1.187   1.395
 7446SOL     OW23236   5.547   4.263   0.979
 7446SOL    HW123237   5.629   4.289   1.030
 7446SOL    HW223238   5.574   4.205   0.901
 7447SOL     OW23239   0.565   3.826   5.930
 7447SOL    HW123240   0.637   3.763   5.899
 7447SOL    HW223241   0.488   3.775   5.966
 7448SOL     OW23242   6.322   6.819   5.714
 7448SOL    HW123243   6.269   6.875   5.651
 7448SOL    HW223244   6.392   6.768   5.664
 7449SOL     OW23245   6.341   3.334   1.641
 7449SOL    HW123246   6.253   3.365   1.675
 7449SOL    HW223247   6.370   3.391   1.564
 7450SOL     OW23248   5.373   2.004   4.544
 7450SOL    HW123249   5.383   2.040   4.637
 7450SOL    HW223250   5.446   1.938   4.526
 7451SOL     OW23251   0.305   0.145   3.333
 7451SOL    HW123252   0.360   0.067   3.301
 7451SOL    HW223253   0.361   0.204   3.391
 7452SOL     OW23254   0.700   6.123   5.070
 7452SOL    HW123255   0.768   6.120   4.998
 7452SOL    HW223256   0.619   6.071   5.042
 7453SOL     OW23257   4.532   6.763   5.595
 7453SOL    HW123258   4.477   6.748   5.513
 7453SOL    HW223259   4.478   6.742   5.676
 7454SOL     OW23260   0.457   2.605   2.112
 7454SOL    HW123261   0.439   2.674   2.182
 7454SOL    HW223262   0.552   2.611   2.083
 7455SOL     OW23263   6.627   1.571   2.404
 7455SOL    HW123264   6.722   1.544   2.384
 7455SOL    HW223265   6.601   1.535   2.494
 7456SOL     OW23266   0.401   1.680   4.283
 7456SOL    HW123267   0.349   1.732   4.216
 7456SOL    HW223268   0.491   1.658   4.247
 7457SOL     OW23269   3.903   0.024   5.898
 7457SOL    HW123270   3.904   0.067   5.988
 7457SOL    HW223271   3.905   6.947   5.909
 7458SOL     OW23272   2.147   0.091   5.983
 7458SOL    HW123273   2.073   0.029   5.955
 7458SOL    HW223274   2.228   0.037   6.008
 7459SOL     OW23275   5.208   0.820   1.788
 7459SOL    HW123276   5.109   0.805   1.779
 7459SOL    HW223277   5.246   0.752   1.850
 7460SOL     OW23278   2.043   5.495   1.197
 7460SOL    HW123279   2.118   5.520   1.259
 7460SOL    HW223280   2.018   5.576   1.143
 7461SOL     OW23281   6.209   1.753   5.797
 7461SOL    HW123282   6.273   1.689   5.839
 7461SOL    HW223283   6.185   1.824   5.864
 7462SOL     OW23284   1.259   3.839   2.324
 7462SOL    HW123285   1.252   3.939   2.326
 7462SOL    HW223286   1.289   3.805   2.413
 7463SOL     OW23287   2.751   4.727   0.935
 7463SOL    HW123288   2.833   4.756   0.887
 7463SOL    HW223289   2.775   4.660   1.005
 7464SOL     OW23290   4.920   0.460   6.404
 7464SOL    HW123291   4.981   0.504   6.470
 7464SOL    HW223292   4.846   0.414   6.453
 7465SOL     OW23293   0.863   5.545   0.004
 7465SOL    HW123294   0.941   5.522   0.063
 7465SOL    HW223295   0.853   5.476   6.956
 7466SOL     OW23296   0.704   0.521   5.830
 7466SOL    HW123297   0.728   0.610   5.869
 7466SOL    HW223298   0.694   0.454   5.904
 7467SOL     OW23299   0.082   2.296   0.794
 7467SOL    HW123300   0.093   2.220   0.730
 7467SOL    HW223301   0.135   2.278   0.877
 7468SOL     OW23302   5.827   2.364   3.893
 7468SOL    HW123303   5.871   2.422   3.963
 7468SOL    HW223304   5.870   2.382   3.804
 7469SOL     OW23305   0.298   1.031   0.542
 7469SOL    HW123306   0.234   1.100   0.508
 7469SOL    HW223307   0.383   1.075   0.572
 7470SOL     OW23308   6.995   3.344   4.015
 7470SOL    HW123309   6.982   3.401   3.933
 7470SOL    HW223310   0.040   3.273   3.995
 7471SOL     OW23311   6.821   5.857   6.051
 7471SOL    HW123312   6.768   5.808   6.121
 7471SOL    HW223313   6.895   5.907   6.095
 7472SOL     OW23314   5.866   0.365   4.479
 7472SOL    HW123315   5.865   0.274   4.520
 7472SOL    HW223316   5.812   0.364   4.395
 7473SOL     OW23317   6.659   4.757   3.307
 7473SOL    HW123318   6.686   4.788   3.215
 7473SOL    HW223319   6.640   4.837   3.364
 7474SOL     OW23320   1.943   1.448   5.477
 7474SOL    HW123321   1.948   1.349   5.474
 7474SOL    HW223322   1.967   1.480   5.569
 7475SOL     OW23323   4.272   1.852   2.205
 7475SOL    HW123324   4.310   1.943   2.225
 7475SOL    HW223325   4.237   1.851   2.111
 7476SOL     OW23326   3.196   5.874   3.446
 7476SOL    HW123327   3.123   5.937   3.418
 7476SOL    HW223328   3.167   5.822   3.526
 7477SOL     OW23329   0.068   0.908   5.074
 7477SOL    HW123330   6.998   0.945   5.086
 7477SOL    HW223331   0.100   0.929   4.981
 7478SOL     OW23332   5.002   5.526   6.540
 7478SOL    HW123333   4.914   5.530   6.588
 7478SOL    HW223334   5.037   5.619   6.527
 7479SOL     OW23335   3.995   2.527   1.666
 7479SOL    HW123336   4.058   2.479   1.726
 7479SOL    HW223337   4.040   2.549   1.580
 7480SOL     OW23338   0.017   3.928   1.860
 7480SOL    HW123339   6.951   3.894   1.890
 7480SOL    HW223340   0.069   3.958   1.940
 7481SOL     OW23341   6.182   5.190   1.320
 7481SOL    HW123342   6.228   5.106   1.292
 7481SOL    HW223343   6.182   5.196   1.420
 7482SOL     OW23344   4.099   2.171   3.129
 7482SOL    HW123345   4.125   2.267   3.114
 7482SOL    HW223346   4.043   2.139   3.053
 7483SOL     OW23347   4.924   3.157   4.762
 7483SOL    HW123348   4.906   3.228   4.829
 7483SOL    HW223349   4.925   3.068   4.807
 7484SOL     OW23350   0.866   1.425   3.468
 7484SOL    HW123351   0.867   1.325   3.473
 7484SOL    HW223352   0.867   1.463   3.560
 7485SOL     OW23353   3.274   0.690   4.998
 7485SOL    HW123354   3.191   0.681   5.053
 7485SOL    HW223355   3.276   0.780   4.955
 7486SOL     OW23356   2.414   0.512   6.821
 7486SOL    HW123357   2.432   0.495   6.724
 7486SOL    HW223358   2.352   0.442   6.856
 7487SOL     OW23359   2.446   6.196   2.777
 7487SOL    HW123360   2.362   6.195   2.723
 7487SOL    HW223361   2.466   6.290   2.806
 7488SOL     OW23362   2.081   6.747   3.863
 7488SOL    HW123363   2.093   6.656   3.902
 7488SOL    HW223364   2.075   6.740   3.763
 7489SOL     OW23365   5.125   2.599   4.285
 7489SOL    HW123366   5.144   2.505   4.312
 7489SOL    HW223367   5.208   2.639   4.246
 7490SOL     OW23368   1.459   0.762   1.965
 7490SOL    HW123369   1.410   0.676   1.977
 7490SOL    HW223370   1.557   0.747   1.973
 7491SOL     OW23371   6.069   2.594   5.941
 7491SOL    HW123372   6.003   2.637   5.879
 7491SOL    HW223373   6.030   2.509   5.977
 7492SOL     OW23374   1.751   0.628   3.317
 7492SOL    HW123375   1.700   0.646   3.401
 7492SOL    HW223376   1.688   0.613   3.242
 7493SOL     OW23377   0.242   3.632   6.838
 7493SOL    HW123378   0.167   3.613   6.774
 7493SOL    HW223379   0.328   3.633   6.788
 7494SOL     OW23380   5.055   0.963   2.867
 7494SOL    HW123381   5.145   0.964   2.910
 7494SOL    HW223382   4.985   0.979   2.937
 7495SOL     OW23383   1.554   1.508   0.063
 7495SOL    HW123384   1.569   1.530   0.159
 7495SOL    HW223385   1.579   1.412   0.047
 7496SOL     OW23386   6.648   3.504   6.403
 7496SOL    HW123387   6.638   3.405   6.411
 7496SOL    HW223388   6.696   3.540   6.483
 7497SOL     OW23389   2.168   4.278   0.202
 7497SOL    HW123390   2.165   4.213   0.278
 7497SOL    HW223391   2.079   4.282   0.158
 7498SOL     OW23392   2.496   1.034   5.782
 7498SOL    HW123393   2.537   1.125   5.775
 7498SOL    HW223394   2.398   1.041   5.765
 7499SOL     OW23395   3.382   2.127   2.894
 7499SOL    HW123396   3.345   2.142   2.986
 7499SOL    HW223397   3.312   2.151   2.826
 7500SOL     OW23398   3.168   5.469   3.559
 7500SOL    HW123399   3.235   5.480   3.632
 7500SOL    HW223400   3.191   5.389   3.503
 7501SOL     OW23401   5.773   4.137   4.608
 7501SOL    HW123402   5.811   4.048   4.632
 7501SOL    HW223403   5.678   4.126   4.578
 7502SOL     OW23404   1.651   7.004   3.730
 7502SOL    HW123405   1.672   7.000   3.632
 7502SOL    HW223406   1.610   6.918   3.759
 7503SOL     OW23407   3.214   1.575   0.801
 7503SOL    HW123408   3.240   1.598   0.708
 7503SOL    HW223409   3.242   1.649   0.862
 7504SOL     OW23410   1.350   0.143   2.950
 7504SOL    HW123411   1.280   0.071   2.953
 7504SOL    HW223412   1.376   0.160   2.855
 7505SOL     OW23413   1.596   1.582   5.591
 7505SOL    HW123414   1.625   1.582   5.686
 7505SOL    HW223415   1.666   1.627   5.535
 7506SOL     OW23416   5.451   0.443   3.043
 7506SOL    HW123417   5.523   0.479   3.102
 7506SOL    HW223418   5.416   0.516   2.986
 7507SOL     OW23419   0.909   0.663   2.024
 7507SOL    HW123420   0.983   0.728   2.010
 7507SOL    HW223421   0.907   0.635   2.120
 7508SOL     OW23422   0.785   6.631   1.757
 7508SOL    HW123423   0.715   6.564   1.780
 7508SOL    HW223424   0.851   6.591   1.694
 7509SOL     OW23425   5.142   4.539   0.006
 7509SOL    HW123426   5.190   4.456   0.034
 7509SOL    HW223427   5.099   4.524   6.940
 7510SOL     OW23428   3.790   4.035   5.675
 7510SOL    HW123429   3.757   3.968   5.742
 7510SOL    HW223430   3.719   4.051   5.607
 7511SOL     OW23431   2.767   0.200   3.797
 7511SOL    HW123432   2.675   0.163   3.807
 7511SOL    HW223433   2.803   0.177   3.706
 7512SOL     OW23434   2.938   6.279   6.682
 7512SOL    HW123435   2.897   6.267   6.591
 7512SOL    HW223436   2.940   6.191   6.729
 7513SOL     OW23437   2.574   0.516   1.423
 7513SOL    HW123438   2.585   0.604   1.377
 7513SOL    HW223439   2.652   0.500   1.482
 7514SOL     OW23440   2.407   5.770   1.383
 7514SOL    HW123441   2.507   5.781   1.384
 7514SOL    HW223442   2.373   5.788   1.291
 7515SOL     OW23443   6.883   4.822   2.512
 7515SOL    HW123444   6.982   4.812   2.506
 7515SOL    HW223445   6.858   4.917   2.492
 7516SOL     OW23446   6.265   6.635   5.980
 7516SOL    HW123447   6.341   6.665   6.038
 7516SOL    HW223448   6.274   6.679   5.890
 7517SOL     OW23449   0.221   3.132   0.462
 7517SOL    HW123450   0.316   3.112   0.486
 7517SOL    HW223451   0.160   3.074   0.515
 7518SOL     OW23452   4.229   5.054   3.398
 7518SOL    HW123453   4.172   4.986   3.352
 7518SOL    HW223454   4.324   5.023   3.400
 7519SOL     OW23455   6.844   6.872   3.786
 7519SOL    HW123456   6.895   6.885   3.871
 7519SOL    HW223457   6.818   6.775   3.777
 7520SOL     OW23458   2.984   0.705   2.155
 7520SOL    HW123459   2.964   0.627   2.097
 7520SOL    HW223460   3.034   0.774   2.102
 7521SOL     OW23461   5.021   4.228   6.365
 7521SOL    HW123462   5.097   4.163   6.360
 7521SOL    HW223463   4.943   4.192   6.314
 7522SOL     OW23464   2.308   0.958   6.715
 7522SOL    HW123465   2.247   0.878   6.718
 7522SOL    HW223466   2.393   0.933   6.668
 7523SOL     OW23467   5.977   0.076   5.537
 7523SOL    HW123468   5.936   0.130   5.611
 7523SOL    HW223469   5.959   0.121   5.450
 7524SOL     OW23470   1.821   1.825   5.821
 7524SOL    HW123471   1.885   1.804   5.747
 7524SOL    HW223472   1.746   1.881   5.785
 7525SOL     OW23473   3.723   0.677   6.360
 7525SOL    HW123474   3.694   0.581   6.368
 7525SOL    HW223475   3.648   0.731   6.321
 7526SOL     OW23476   2.747   3.160   1.809
 7526SOL    HW123477   2.768   3.183   1.904
 7526SOL    HW223478   2.650   3.176   1.791
 7527SOL     OW23479   3.781   6.048   3.245
 7527SOL    HW123480   3.708   6.113   3.261
 7527SOL    HW223481   3.778   5.977   3.315
 7528SOL     OW23482   5.257   1.644   6.922
 7528SOL    HW123483   5.251   1.713   6.851
 7528SOL    HW223484   5.304   1.682   7.002
 7529SOL     OW23485   4.878   0.946   4.608
 7529SOL    HW123486   4.936   1.000   4.669
 7529SOL    HW223487   4.789   0.991   4.600
 7530SOL     OW23488   0.554   3.582   3.133
 7530SOL    HW123489   0.524   3.674   3.109
 7530SOL    HW223490   0.622   3.588   3.207
 7531SOL     OW23491   5.161   3.162   4.267
 7531SOL    HW123492   5.079   3.118   4.231
 7531SOL    HW223493   5.223   3.092   4.302
 7532SOL     OW23494   5.638   4.906   0.076
 7532SOL    HW123495   5.730   4.925   0.041
 7532SOL    HW223496   5.580   4.873   0.001
 7533SOL     OW23497   2.214   1.905   2.148
 7533SOL    HW123498   2.305   1.865   2.148
 7533SOL    HW223499   2.166   1.879   2.231
 7534SOL     OW23500   4.277   6.093   5.413
 7534SOL    HW123501   4.318   6.180   5.439
 7534SOL    HW223502   4.257   6.093   5.315
 7535SOL     OW23503   1.665   6.861   5.007
 7535SOL    HW123504   1.647   6.941   4.950
 7535SOL    HW223505   1.579   6.831   5.050
 7536SOL     OW23506   4.641   4.373   4.570
 7536SOL    HW123507   4.579   4.429   4.625
 7536SOL    HW223508   4.621   4.386   4.473
 7537SOL     OW23509   3.234   5.961   2.788
 7537SOL    HW123510   3.155   6.011   2.753
 7537SOL    HW223511   3.280   5.913   2.713
 7538SOL     OW23512   2.250   3.050   1.595
 7538SOL    HW123513   2.249   3.124   1.528
 7538SOL    HW223514   2.195   2.974   1.561
 7539SOL     OW23515   0.808   3.380   4.625
 7539SOL    HW123516   0.854   3.417   4.544
 7539SOL    HW223517   0.876   3.338   4.685
 7540SOL     OW23518   4.147   0.374   4.718
 7540SOL    HW123519   4.153   0.473   4.725
 7540SOL    HW223520   4.093   0.338   4.794
 7541SOL     OW23521   0.243   4.469   4.896
 7541SOL    HW123522   0.197   4.416   4.825
 7541SOL    HW223523   0.210   4.563   4.893
 7542SOL     OW23524   1.053   5.260   6.513
 7542SOL    HW123525   1.094   5.171   6.492
 7542SOL    HW223526   1.117   5.333   6.487
 7543SOL     OW23527   3.549   2.114   6.903
 7543SOL    HW123528   3.564   2.024   6.862
 7543SOL    HW223529   3.535   2.103   7.002
 7544SOL     OW23530   0.299   2.380   2.857
 7544SOL    HW123531   0.327   2.471   2.827
 7544SOL    HW223532   0.380   2.325   2.877
 7545SOL     OW23533   6.496   5.744   0.624
 7545SOL    HW123534   6.507   5.779   0.530
 7545SOL    HW223535   6.444   5.659   0.622
 7546SOL     OW23536   3.135   2.004   2.008
 7546SOL    HW123537   3.129   1.907   2.032
 7546SOL    HW223538   3.220   2.042   2.043
 7547SOL     OW23539   5.332   1.004   0.899
 7547SOL    HW123540   5.234   0.983   0.906
 7547SOL    HW223541   5.354   1.030   0.805
 7548SOL     OW23542   4.057   1.801   0.348
 7548SOL    HW123543   4.043   1.830   0.254
 7548SOL    HW223544   4.032   1.876   0.410
 7549SOL     OW23545   5.100   2.209   0.622
 7549SOL    HW123546   5.025   2.262   0.583
 7549SOL    HW223547   5.093   2.210   0.721
 7550SOL     OW23548   2.702   5.267   2.792
 7550SOL    HW123549   2.689   5.365   2.778
 7550SOL    HW223550   2.661   5.217   2.716
 7551SOL     OW23551   5.511   3.896   6.897
 7551SOL    HW123552   5.469   3.812   6.933
 7551SOL    HW223553   5.610   3.886   6.898
 7552SOL     OW23554   1.560   5.602   2.866
 7552SOL    HW123555   1.588   5.596   2.962
 7552SOL    HW223556   1.461   5.590   2.860
 7553SOL     OW23557   4.467   6.273   5.854
 7553SOL    HW123558   4.552   6.223   5.838
 7553SOL    HW223559   4.473   6.363   5.811
 7554SOL     OW23560   4.508   1.219   0.423
 7554SOL    HW123561   4.507   1.122   0.444
 7554SOL    HW223562   4.576   1.265   0.480
 7555SOL     OW23563   2.345   4.634   5.952
 7555SOL    HW123564   2.405   4.571   6.002
 7555SOL    HW223565   2.400   4.709   5.914
 7556SOL     OW23566   1.611   2.815   0.337
 7556SOL    HW123567   1.537   2.773   0.390
 7556SOL    HW223568   1.688   2.751   0.330
 7557SOL     OW23569   4.847   1.491   5.863
 7557SOL    HW123570   4.818   1.565   5.802
 7557SOL    HW223571   4.835   1.403   5.817
 7558SOL     OW23572   1.107   3.016   4.061
 7558SOL    HW123573   1.069   3.018   3.969
 7558SOL    HW223574   1.176   2.945   4.069
 7559SOL     OW23575   5.112   4.453   6.475
 7559SOL    HW123576   5.071   4.368   6.442
 7559SOL    HW223577   5.196   4.471   6.424
 7560SOL     OW23578   4.986   6.934   0.933
 7560SOL    HW123579   4.931   6.890   1.003
 7560SOL    HW223580   4.926   6.974   0.863
 7561SOL     OW23581   1.304   3.324   6.759
 7561SOL    HW123582   1.239   3.353   6.828
 7561SOL    HW223583   1.388   3.378   6.768
 7562SOL     OW23584   6.892   6.408   3.870
 7562SOL    HW123585   6.891   6.324   3.925
 7562SOL    HW223586   6.959   6.472   3.908
 7563SOL     OW23587   2.809   0.002   1.128
 7563SOL    HW123588   2.749   7.000   1.204
 7563SOL    HW223589   2.901   0.018   1.163
 7564SOL     OW23590   4.958   0.605   3.140
 7564SOL    HW123591   4.876   0.656   3.111
 7564SOL    HW223592   4.930   0.528   3.197
 7565SOL     OW23593   5.253   3.348   0.997
 7565SOL    HW123594   5.255   3.388   0.906
 7565SOL    HW223595   5.162   3.314   1.017
 7566SOL     OW23596   5.780   4.437   2.762
 7566SOL    HW123597   5.748   4.398   2.676
 7566SOL    HW223598   5.715   4.417   2.835
 7567SOL     OW23599   1.611   2.411   4.106
 7567SOL    HW123600   1.518   2.376   4.098
 7567SOL    HW223601   1.643   2.397   4.200
 7568SOL     OW23602   5.498   6.121   2.585
 7568SOL    HW123603   5.584   6.071   2.574
 7568SOL    HW223604   5.515   6.219   2.571
 7569SOL     OW23605   3.787   5.853   6.139
 7569SOL    HW123606   3.842   5.770   6.134
 7569SOL    HW223607   3.748   5.862   6.231
 7570SOL     OW23608   5.724   3.361   5.299
 7570SOL    HW123609   5.713   3.441   5.240
 7570SOL    HW223610   5.635   3.333   5.335
 7571SOL     OW23611   4.297   5.567   3.432
 7571SOL    HW123612   4.270   5.471   3.448
 7571SOL    HW223613   4.381   5.587   3.481
 7572SOL     OW23614   4.936   1.228   1.714
 7572SOL    HW123615   4.838   1.219   1.728
 7572SOL    HW223616   4.968   1.313   1.756
 7573SOL     OW23617   0.587   6.916   5.007
 7573SOL    HW123618   0.612   6.893   4.913
 7573SOL    HW223619   0.632   7.001   5.034
 7574SOL     OW23620   5.944   0.941   5.473
 7574SOL    HW123621   5.986   0.970   5.387
 7574SOL    HW223622   5.919   1.021   5.526
 7575SOL     OW23623   5.012   6.901   6.911
 7575SOL    HW123624   4.945   6.868   6.978
 7575SOL    HW223625   4.964   6.940   6.832
 7576SOL     OW23626   4.903   4.645   6.484
 7576SOL    HW123627   4.974   4.716   6.486
 7576SOL    HW223628   4.944   4.556   6.505
 7577SOL     OW23629   0.594   6.750   6.977
 7577SOL    HW123630   0.584   6.672   6.916
 7577SOL    HW223631   0.538   6.826   6.945
 7578SOL     OW23632   2.047   5.132   1.994
 7578SOL    HW123633   2.016   5.204   1.932
 7578SOL    HW223634   2.140   5.152   2.024
 7579SOL     OW23635   6.423   0.846   1.848
 7579SOL    HW123636   6.474   0.772   1.893
 7579SOL    HW223637   6.422   0.927   1.907
 7580SOL     OW23638   0.968   3.831   4.309
 7580SOL    HW123639   0.882   3.816   4.357
 7580SOL    HW223640   0.958   3.803   4.213
 7581SOL     OW23641   6.880   1.032   0.991
 7581SOL    HW123642   6.799   1.021   1.047
 7581SOL    HW223643   6.940   1.101   1.032
 7582SOL     OW23644   4.120   1.273   1.701
 7582SOL    HW123645   4.087   1.183   1.672
 7582SOL    HW223646   4.155   1.322   1.621
 7583SOL     OW23647   6.440   3.045   1.467
 7583SOL    HW123648   6.378   3.086   1.400
 7583SOL    HW223649   6.528   3.091   1.463
 7584SOL     OW23650   3.151   6.691   1.227
 7584SOL    HW123651   3.214   6.651   1.161
 7584SOL    HW223652   3.203   6.730   1.304
 7585SOL     OW23653   1.382   2.768   6.826
 7585SOL    HW123654   1.412   2.846   6.881
 7585SOL    HW223655   1.411   2.781   6.731
 7586SOL     OW23656   2.500   1.229   3.280
 7586SOL    HW123657   2.406   1.264   3.282
 7586SOL    HW223658   2.498   1.129   3.290
 7587SOL     OW23659   2.498   1.902   0.291
 7587SOL    HW123660   2.473   1.954   0.372
 7587SOL    HW223661   2.441   1.930   0.214
 7588SOL     OW23662   1.777   3.170   3.448
 7588SOL    HW123663   1.836   3.251   3.458
 7588SOL    HW223664   1.830   3.094   3.411
 7589SOL     OW23665   1.004   0.144   2.701
 7589SOL    HW123666   0.988   0.152   2.603
 7589SOL    HW223667   0.972   0.054   2.733
 7590SOL     OW23668   4.167   1.724   6.234
 7590SOL    HW123669   4.143   1.638   6.187
 7590SOL    HW223670   4.138   1.801   6.178
 7591SOL     OW23671   0.292   3.937   0.518
 7591SOL    HW123672   0.308   4.022   0.467
 7591SOL    HW223673   0.334   3.860   0.470
 7592SOL     OW23674   6.655   4.784   5.033
 7592SOL    HW123675   6.645   4.711   4.966
 7592SOL    HW223676   6.678   4.870   4.987
 7593SOL     OW23677   5.955   3.364   0.876
 7593SOL    HW123678   5.884   3.318   0.823
 7593SOL    HW223679   5.932   3.460   0.886
 7594SOL     OW23680   0.800   5.312   2.528
 7594SOL    HW123681   0.754   5.344   2.611
 7594SOL    HW223682   0.887   5.269   2.552
 7595SOL     OW23683   6.813   2.748   5.896
 7595SOL    HW123684   6.796   2.650   5.887
 7595SOL    HW223685   6.822   2.772   5.993
 7596SOL     OW23686   4.287   5.706   4.092
 7596SOL    HW123687   4.368   5.694   4.034
 7596SOL    HW223688   4.273   5.803   4.111
 7597SOL     OW23689   2.934   6.511   3.062
 7597SOL    HW123690   2.992   6.518   2.981
 7597SOL    HW223691   2.868   6.437   3.050
 7598SOL     OW23692   6.702   1.755   3.228
 7598SOL    HW123693   6.793   1.796   3.237
 7598SOL    HW223694   6.641   1.794   3.296
 7599SOL     OW23695   5.354   2.146   2.384
 7599SOL    HW123696   5.306   2.221   2.340
 7599SOL    HW223697   5.344   2.063   2.330
 7600SOL     OW23698   1.570   1.729   2.433
 7600SOL    HW123699   1.486   1.698   2.387
 7600SOL    HW223700   1.641   1.748   2.365
 7601SOL     OW23701   1.737   5.368   3.079
 7601SOL    HW123702   1.791   5.379   2.996
 7601SOL    HW223703   1.751   5.447   3.139
 7602SOL     OW23704   1.963   4.349   6.264
 7602SOL    HW123705   1.965   4.380   6.168
 7602SOL    HW223706   2.012   4.263   6.272
 7603SOL     OW23707   1.546   5.805   6.282
 7603SOL    HW123708   1.555   5.831   6.185
 7603SOL    HW223709   1.543   5.887   6.338
 7604SOL     OW23710   1.793   4.199   4.585
 7604SOL    HW123711   1.758   4.289   4.560
 7604SOL    HW223712   1.734   4.160   4.656
 7605SOL     OW23713   0.926   6.968   1.237
 7605SOL    HW123714   0.887   0.037   1.223
 7605SOL    HW223715   1.012   6.960   1.185
 7606SOL     OW23716   5.686   3.623   5.166
 7606SOL    HW123717   5.599   3.624   5.118
 7606SOL    HW223718   5.730   3.713   5.160
 7607SOL     OW23719   3.294   4.973   7.011
 7607SOL    HW123720   3.348   5.038   6.958
 7607SOL    HW223721   3.308   4.880   6.976
 7608SOL     OW23722   4.104   3.596   2.563
 7608SOL    HW123723   4.190   3.595   2.612
 7608SOL    HW223724   4.056   3.509   2.578
 7609SOL     OW23725   1.355   3.442   4.310
 7609SOL    HW123726   1.283   3.413   4.248
 7609SOL    HW223727   1.341   3.538   4.334
 7610SOL     OW23728   4.237   5.229   6.194
 7610SOL    HW123729   4.310   5.200   6.255
 7610SOL    HW223730   4.276   5.278   6.116
 7611SOL     OW23731   6.396   2.826   1.167
 7611SOL    HW123732   6.351   2.742   1.138
 7611SOL    HW223733   6.333   2.882   1.221
 7612SOL     OW23734   4.605   2.655   3.793
 7612SOL    HW123735   4.667   2.729   3.821
 7612SOL    HW223736   4.607   2.647   3.694
 7613SOL     OW23737   6.784   3.108   0.995
 7613SOL    HW123738   6.747   3.065   0.913
 7613SOL    HW223739   6.730   3.080   1.075
 7614SOL     OW23740   4.870   2.898   1.127
 7614SOL    HW123741   4.871   2.800   1.107
 7614SOL    HW223742   4.807   2.944   1.065
 7615SOL     OW23743   3.699   5.101   0.254
 7615SOL    HW123744   3.776   5.058   0.206
 7615SOL    HW223745   3.666   5.040   0.326
 7616SOL     OW23746   5.834   5.851   4.268
 7616SOL    HW123747   5.815   5.949   4.262
 7616SOL    HW223748   5.927   5.833   4.238
 7617SOL     OW23749   4.057   5.061   2.563
 7617SOL    HW123750   4.097   4.974   2.592
 7617SOL    HW223751   3.962   5.046   2.534
 7618SOL     OW23752   0.414   1.356   5.669
 7618SOL    HW123753   0.329   1.342   5.719
 7618SOL    HW223754   0.430   1.454   5.656
 7619SOL     OW23755   5.828   2.782   5.249
 7619SOL    HW123756   5.800   2.864   5.200
 7619SOL    HW223757   5.858   2.806   5.342
 7620SOL     OW23758   4.036   5.837   0.777
 7620SOL    HW123759   4.034   5.807   0.682
 7620SOL    HW223760   4.088   5.922   0.785
 7621SOL     OW23761   6.699   1.586   0.773
 7621SOL    HW123762   6.768   1.644   0.817
 7621SOL    HW223763   6.668   1.516   0.838
 7622SOL     OW23764   4.677   5.577   0.808
 7622SOL    HW123765   4.728   5.661   0.825
 7622SOL    HW223766   4.581   5.599   0.788
 7623SOL     OW23767   4.385   4.442   0.265
 7623SOL    HW123768   4.295   4.406   0.242
 7623SOL    HW223769   4.396   4.446   0.364
 7624SOL     OW23770   6.715   3.304   5.070
 7624SOL    HW123771   6.769   3.224   5.095
 7624SOL    HW223772   6.776   3.380   5.047
 7625SOL     OW23773   4.933   0.498   1.583
 7625SOL    HW123774   4.859   0.480   1.648
 7625SOL    HW223775   4.985   0.578   1.614
 7626SOL     OW23776   5.763   0.028   4.411
 7626SOL    HW123777   5.850   0.050   4.456
 7626SOL    HW223778   5.722   6.971   4.455
 7627SOL     OW23779   4.681   3.175   0.114
 7627SOL    HW123780   4.751   3.236   0.076
 7627SOL    HW223781   4.706   3.080   0.096
 7628SOL     OW23782   3.942   1.761   1.891
 7628SOL    HW123783   3.908   1.854   1.884
 7628SOL    HW223784   3.865   1.697   1.889
 7629SOL     OW23785   7.000   6.182   3.358
 7629SOL    HW123786   6.942   6.199   3.438
 7629SOL    HW223787   7.006   6.266   3.303
 7630SOL     OW23788   6.964   6.862   1.008
 7630SOL    HW123789   6.997   6.809   0.930
 7630SOL    HW223790   0.019   6.883   1.068
 7631SOL     OW23791   0.779   1.369   6.595
 7631SOL    HW123792   0.798   1.344   6.690
 7631SOL    HW223793   0.683   1.347   6.573
 7632SOL     OW23794   3.541   3.117   1.706
 7632SOL    HW123795   3.585   3.079   1.625
 7632SOL    HW223796   3.542   3.217   1.701
 7633SOL     OW23797   5.663   0.789   1.211
 7633SOL    HW123798   5.634   0.771   1.305
 7633SOL    HW223799   5.598   0.852   1.168
 7634SOL     OW23800   0.887   2.016   2.643
 7634SOL    HW123801   0.875   2.053   2.735
 7634SOL    HW223802   0.953   2.072   2.593
 7635SOL     OW23803   3.906   5.070   5.014
 7635SOL    HW123804   3.917   5.169   5.023
 7635SOL    HW223805   3.816   5.044   5.050
 7636SOL     OW23806   1.601   2.888   3.815
 7636SOL    HW123807   1.609   2.804   3.868
 7636SOL    HW223808   1.620   2.967   3.873
 7637SOL     OW23809   2.088   5.097   2.382
 7637SOL    HW123810   2.049   5.119   2.472
 7637SOL    HW223811   2.186   5.114   2.383
 7638SOL     OW23812   2.566   6.016   1.008
 7638SOL    HW123813   2.555   6.029   0.909
 7638SOL    HW223814   2.546   6.102   1.055
 7639SOL     OW23815   0.990   2.342   0.640
 7639SOL    HW123816   1.045   2.307   0.564
 7639SOL    HW223817   1.044   2.339   0.724
 7640SOL     OW23818   3.302   1.225   5.716
 7640SOL    HW123819   3.339   1.317   5.706
 7640SOL    HW223820   3.377   1.159   5.712
 7641SOL     OW23821   1.020   4.105   2.673
 7641SOL    HW123822   1.012   4.072   2.579
 7641SOL    HW223823   1.020   4.027   2.736
 7642SOL     OW23824   3.586   0.952   3.228
 7642SOL    HW123825   3.565   1.047   3.253
 7642SOL    HW223826   3.671   0.950   3.174
 7643SOL     OW23827   4.775   2.840   4.060
 7643SOL    HW123828   4.796   2.742   4.056
 7643SOL    HW223829   4.721   2.859   4.142
 7644SOL     OW23830   5.877   2.191   2.288
 7644SOL    HW123831   5.807   2.178   2.359
 7644SOL    HW223832   5.860   2.277   2.240
 7645SOL     OW23833   4.489   3.317   5.545
 7645SOL    HW123834   4.489   3.372   5.461
 7645SOL    HW223835   4.442   3.367   5.617
 7646SOL     OW23836   1.186   3.691   2.929
 7646SOL    HW123837   1.262   3.753   2.948
 7646SOL    HW223838   1.151   3.653   3.014
 7647SOL     OW23839   6.945   3.210   3.420
 7647SOL    HW123840   6.959   3.189   3.517
 7647SOL    HW223841   7.019   3.169   3.366
 7648SOL     OW23842   2.843   1.649   2.894
 7648SOL    HW123843   2.800   1.675   2.807
 7648SOL    HW223844   2.883   1.558   2.886
 7649SOL     OW23845   1.019   1.086   2.349
 7649SOL    HW123846   1.061   1.028   2.279
 7649SOL    HW223847   1.041   1.048   2.439
 7650SOL     OW23848   4.473   1.653   0.316
 7650SOL    HW123849   4.532   1.721   0.273
 7650SOL    HW223850   4.414   1.697   0.383
 7651SOL     OW23851   2.022   0.739   3.848
 7651SOL    HW123852   2.067   0.805   3.907
 7651SOL    HW223853   2.066   0.650   3.857
 7652SOL     OW23854   5.651   3.726   5.827
 7652SOL    HW123855   5.599   3.649   5.788
 7652SOL    HW223856   5.704   3.693   5.905
 7653SOL     OW23857   0.873   1.775   6.833
 7653SOL    HW123858   0.786   1.753   6.878
 7653SOL    HW223859   0.934   1.821   6.898
 7654SOL     OW23860   4.909   3.028   4.185
 7654SOL    HW123861   4.869   2.945   4.147
 7654SOL    HW223862   4.892   3.032   4.283
 7655SOL     OW23863   4.387   0.067   2.814
 7655SOL    HW123864   4.300   0.029   2.784
 7655SOL    HW223865   4.403   0.042   2.910
 7656SOL     OW23866   2.796   3.830   6.184
 7656SOL    HW123867   2.714   3.821   6.241
 7656SOL    HW223868   2.876   3.800   6.236
 7657SOL     OW23869   1.043   2.733   3.817
 7657SOL    HW123870   1.058   2.680   3.733
 7657SOL    HW223871   1.131   2.763   3.854
 7658SOL     OW23872   4.307   0.245   6.082
 7658SOL    HW123873   4.297   0.153   6.121
 7658SOL    HW223874   4.222   0.296   6.093
 7659SOL     OW23875   6.382   4.993   5.995
 7659SOL    HW123876   6.310   4.972   6.061
 7659SOL    HW223877   6.364   4.946   5.909
 7660SOL     OW23878   0.627   6.080   3.887
 7660SOL    HW123879   0.686   6.006   3.856
 7660SOL    HW223880   0.535   6.069   3.848
 7661SOL     OW23881   5.737   2.824   4.670
 7661SOL    HW123882   5.821   2.836   4.723
 7661SOL    HW223883   5.676   2.902   4.685
 7662SOL     OW23884   1.294   3.115   3.511
 7662SOL    HW123885   1.274   3.213   3.520
 7662SOL    HW223886   1.392   3.102   3.499
 7663SOL     OW23887   0.268   5.201   5.269
 7663SOL    HW123888   0.301   5.238   5.356
 7663SOL    HW223889   0.226   5.112   5.284
 7664SOL     OW23890   3.875   6.859   1.942
 7664SOL    HW123891   3.966   6.821   1.927
 7664SOL    HW223892   3.840   6.898   1.857
 7665SOL     OW23893   6.168   7.014   4.622
 7665SOL    HW123894   6.209   6.973   4.541
 7665SOL    HW223895   6.150   6.942   4.690
 7666SOL     OW23896   0.549   5.386   1.965
 7666SOL    HW123897   0.551   5.308   2.027
 7666SOL    HW223898   0.631   5.386   1.908
 7667SOL     OW23899   4.772   6.654   2.185
 7667SOL    HW123900   4.807   6.571   2.141
 7667SOL    HW223901   4.831   6.731   2.163
 7668SOL     OW23902   3.399   4.706   6.952
 7668SOL    HW123903   3.371   4.643   0.002
 7668SOL    HW223904   3.491   4.681   6.921
 7669SOL     OW23905   4.560   1.413   5.010
 7669SOL    HW123906   4.527   1.472   4.936
 7669SOL    HW223907   4.535   1.453   5.098
 7670SOL     OW23908   0.815   4.753   6.826
 7670SOL    HW123909   0.901   4.801   6.842
 7670SOL    HW223910   0.831   4.655   6.822
 7671SOL     OW23911   4.649   1.252   2.331
 7671SOL    HW123912   4.597   1.323   2.379
 7671SOL    HW223913   4.587   1.191   2.283
 7672SOL     OW23914   0.419   6.736   2.433
 7672SOL    HW123915   0.516   6.753   2.419
 7672SOL    HW223916   0.369   6.751   2.347
 7673SOL     OW23917   1.411   6.387   0.573
 7673SOL    HW123918   1.405   6.381   0.473
 7673SOL    HW223919   1.322   6.366   0.613
 7674SOL     OW23920   5.522   1.063   3.083
 7674SOL    HW123921   5.507   1.157   3.052
 7674SOL    HW223922   5.469   1.000   3.026
 7675SOL     OW23923   6.246   6.527   2.325
 7675SOL    HW123924   6.219   6.622   2.339
 7675SOL    HW223925   6.336   6.511   2.364
 7676SOL     OW23926   2.665   2.144   0.699
 7676SOL    HW123927   2.593   2.175   0.761
 7676SOL    HW223928   2.754   2.170   0.735
 7677SOL     OW23929   0.451   4.959   1.640
 7677SOL    HW123930   0.521   4.937   1.708
 7677SOL    HW223931   0.413   4.875   1.603
 7678SOL     OW23932   1.721   3.131   4.601
 7678SOL    HW123933   1.626   3.107   4.617
 7678SOL    HW223934   1.779   3.051   4.615
 7679SOL     OW23935   2.865   5.558   5.901
 7679SOL    HW123936   2.826   5.526   5.815
 7679SOL    HW223937   2.957   5.521   5.913
 7680SOL     OW23938   1.135   0.898   0.526
 7680SOL    HW123939   1.101   0.846   0.448
 7680SOL    HW223940   1.158   0.991   0.497
 7681SOL     OW23941   2.833   0.748   0.745
 7681SOL    HW123942   2.794   0.656   0.744
 7681SOL    HW223943   2.772   0.810   0.695
 7682SOL     OW23944   3.076   0.277   2.350
 7682SOL    HW123945   3.062   0.235   2.440
 7682SOL    HW223946   3.047   0.372   2.353
 7683SOL     OW23947   5.021   1.652   4.659
 7683SOL    HW123948   4.959   1.592   4.710
 7683SOL    HW223949   5.110   1.654   4.706
 7684SOL     OW23950   3.260   2.059   1.547
 7684SOL    HW123951   3.226   2.149   1.573
 7684SOL    HW223952   3.356   2.051   1.573
 7685SOL     OW23953   3.030   1.882   6.169
 7685SOL    HW123954   2.943   1.924   6.143
 7685SOL    HW223955   3.095   1.953   6.198
 7686SOL     OW23956   6.659   6.396   2.742
 7686SOL    HW123957   6.668   6.348   2.655
 7686SOL    HW223958   6.712   6.480   2.739
 7687SOL     OW23959   6.050   5.332   3.505
 7687SOL    HW123960   6.035   5.260   3.438
 7687SOL    HW223961   6.138   5.376   3.488
 7688SOL     OW23962   1.068   5.751   5.971
 7688SOL    HW123963   1.024   5.667   5.937
 7688SOL    HW223964   1.004   5.827   5.964
 7689SOL     OW23965   5.903   6.386   2.575
 7689SOL    HW123966   5.861   6.299   2.604
 7689SOL    HW223967   5.931   6.437   2.655
 7690SOL     OW23968   5.284   5.306   0.110
 7690SOL    HW123969   5.347   5.230   0.126
 7690SOL    HW223970   5.279   5.362   0.192
 7691SOL     OW23971   5.266   3.976   4.152
 7691SOL    HW123972   5.346   3.962   4.093
 7691SOL    HW223973   5.266   3.908   4.225
 7692SOL     OW23974   0.592   6.151   1.845
 7692SOL    HW123975   0.674   6.093   1.845
 7692SOL    HW223976   0.511   6.093   1.856
 7693SOL     OW23977   3.857   6.593   1.511
 7693SOL    HW123978   3.819   6.513   1.557
 7693SOL    HW223979   3.917   6.564   1.437
 7694SOL     OW23980   6.437   4.353   4.402
 7694SOL    HW123981   6.412   4.447   4.426
 7694SOL    HW223982   6.480   4.352   4.312
 7695SOL     OW23983   4.808   0.687   1.060
 7695SOL    HW123984   4.824   0.709   0.964
 7695SOL    HW223985   4.894   0.699   1.111
 7696SOL     OW23986   0.488   0.036   5.461
 7696SOL    HW123987   0.528   0.112   5.410
 7696SOL    HW223988   0.388   0.043   5.459
 7697SOL     OW23989   2.440   6.566   2.542
 7697SOL    HW123990   2.390   6.653   2.540
 7697SOL    HW223991   2.516   6.573   2.606
 7698SOL     OW23992   5.828   0.982   4.062
 7698SOL    HW123993   5.916   1.022   4.088
 7698SOL    HW223994   5.812   0.899   4.116
 7699SOL     OW23995   3.442   5.739   6.421
 7699SOL    HW123996   3.398   5.707   6.337
 7699SOL    HW223997   3.373   5.756   6.491
 7700SOL     OW23998   4.678   6.234   3.329
 7700SOL    HW123999   4.643   6.310   3.385
 7700SOL    HW224000   4.656   6.250   3.233
 7701SOL     OW24001   6.663   1.684   0.352
 7701SOL    HW124002   6.715   1.697   0.436
 7701SOL    HW224003   6.650   1.773   0.307
 7702SOL     OW24004   3.387   6.717   5.449
 7702SOL    HW124005   3.407   6.621   5.428
 7702SOL    HW224006   3.291   6.727   5.472
 7703SOL     OW24007   6.543   6.393   6.628
 7703SOL    HW124008   6.639   6.377   6.602
 7703SOL    HW224009   6.526   6.491   6.633
 7704SOL     OW24010   5.244   5.988   4.659
 7704SOL    HW124011   5.211   6.055   4.592
 7704SOL    HW224012   5.332   5.951   4.628
 7705SOL     OW24013   3.068   5.807   6.904
 7705SOL    HW124014   3.139   5.756   6.857
 7705SOL    HW224015   3.022   5.746   6.969
 7706SOL     OW24016   4.636   3.114   5.669
 7706SOL    HW124017   4.578   3.033   5.657
 7706SOL    HW224018   4.591   3.193   5.628
 7707SOL     OW24019   6.475   5.638   5.445
 7707SOL    HW124020   6.447   5.729   5.414
 7707SOL    HW224021   6.420   5.568   5.399
 7708SOL     OW24022   0.760   6.797   6.193
 7708SOL    HW124023   0.755   6.697   6.185
 7708SOL    HW224024   0.735   6.824   6.286
 7709SOL     OW24025   6.507   4.272   1.817
 7709SOL    HW124026   6.591   4.317   1.849
 7709SOL    HW224027   6.444   4.262   1.894
 7710SOL     OW24028   2.922   1.910   0.437
 7710SOL    HW124029   3.017   1.926   0.464
 7710SOL    HW224030   2.870   1.878   0.516
 7711SOL     OW24031   5.953   6.789   5.976
 7711SOL    HW124032   5.877   6.834   5.929
 7711SOL    HW224033   5.937   6.690   5.978
 7712SOL     OW24034   6.072   5.318   1.835
 7712SOL    HW124035   5.996   5.304   1.771
 7712SOL    HW224036   6.039   5.367   1.916
 7713SOL     OW24037   1.957   4.238   1.502
 7713SOL    HW124038   2.008   4.196   1.577
 7713SOL    HW224039   1.989   4.200   1.414
 7714SOL     OW24040   6.933   3.760   5.498
 7714SOL    HW124041   6.948   3.776   5.595
 7714SOL    HW224042   6.933   3.847   5.448
 7715SOL     OW24043   3.558   1.640   0.397
 7715SOL    HW124044   3.566   1.560   0.456
 7715SOL    HW224045   3.616   1.713   0.432
 7716SOL     OW24046   6.509   4.203   2.781
 7716SOL    HW124047   6.569   4.189   2.859
 7716SOL    HW224048   6.507   4.300   2.757
 7717SOL     OW24049   2.063   1.196   5.288
 7717SOL    HW124050   2.116   1.165   5.367
 7717SOL    HW224051   1.969   1.163   5.296
 7718SOL     OW24052   0.657   3.392   4.015
 7718SOL    HW124053   0.614   3.412   3.928
 7718SOL    HW224054   0.623   3.305   4.050
 7719SOL     OW24055   6.410   4.086   5.056
 7719SOL    HW124056   6.479   4.110   5.123
 7719SOL    HW224057   6.401   3.987   5.051
 7720SOL     OW24058   0.276   1.155   6.812
 7720SOL    HW124059   0.234   1.099   6.884
 7720SOL    HW224060   0.292   1.247   6.847
 7721SOL     OW24061   0.297   5.314   2.604
 7721SOL    HW124062   0.388   5.298   2.565
 7721SOL    HW224063   0.304   5.322   2.704
 7722SOL     OW24064   0.864   4.566   3.694
 7722SOL    HW124065   0.952   4.528   3.666
 7722SOL    HW224066   0.844   4.647   3.638
 7723SOL     OW24067   5.306   3.515   6.497
 7723SOL    HW124068   5.336   3.429   6.456
 7723SOL    HW224069   5.214   3.536   6.466
 7724SOL     OW24070   3.146   3.742   1.132
 7724SOL    HW124071   3.065   3.706   1.086
 7724SOL    HW224072   3.156   3.697   1.221
 7725SOL     OW24073   6.478   0.883   2.936
 7725SOL    HW124074   6.471   0.929   3.025
 7725SOL    HW224075   6.431   0.936   2.866
 7726SOL     OW24076   1.453   5.463   5.048
 7726SOL    HW124077   1.356   5.469   5.074
 7726SOL    HW224078   1.467   5.511   4.962
 7727SOL     OW24079   0.039   1.762   2.632
 7727SOL    HW124080   0.095   1.689   2.670
 7727SOL    HW224081   0.096   1.824   2.578
 7728SOL     OW24082   1.306   3.942   5.026
 7728SOL    HW124083   1.393   3.991   5.023
 7728SOL    HW224084   1.231   4.004   5.002
 7729SOL     OW24085   5.812   2.521   1.211
 7729SOL    HW124086   5.728   2.512   1.156
 7729SOL    HW224087   5.805   2.463   1.292
 7730SOL     OW24088   6.054   5.936   0.047
 7730SOL    HW124089   6.007   5.850   0.068
 7730SOL    HW224090   5.993   6.013   0.068
 7731SOL     OW24091   6.893   1.429   0.654
 7731SOL    HW124092   6.855   1.346   0.612
 7731SOL    HW224093   6.819   1.487   0.685
 7732SOL     OW24094   5.257   6.925   0.913
 7732SOL    HW124095   5.157   6.921   0.918
 7732SOL    HW224096   5.284   6.981   0.834
 7733SOL     OW24097   4.779   6.493   3.228
 7733SOL    HW124098   4.721   6.452   3.299
 7733SOL    HW224099   4.803   6.586   3.255
 7734SOL     OW24100   1.874   4.866   2.777
 7734SOL    HW124101   1.786   4.873   2.730
 7734SOL    HW224102   1.860   4.837   2.871
 7735SOL     OW24103   4.585   6.785   6.874
 7735SOL    HW124104   4.561   6.748   6.964
 7735SOL    HW224105   4.535   6.734   6.804
 7736SOL     OW24106   3.693   3.556   6.856
 7736SOL    HW124107   3.615   3.615   6.833
 7736SOL    HW224108   3.740   3.528   6.772
 7737SOL     OW24109   3.123   6.841   2.497
 7737SOL    HW124110   3.090   6.853   2.591
 7737SOL    HW224111   3.213   6.883   2.488
 7738SOL     OW24112   2.884   6.045   6.802
 7738SOL    HW124113   2.938   5.965   6.829
 7738SOL    HW224114   2.792   6.015   6.776
 7739SOL     OW24115   0.249   2.736   1.068
 7739SOL    HW124116   0.167   2.780   1.032
 7739SOL    HW224117   0.300   2.802   1.124
 7740SOL     OW24118   2.399   1.497   2.753
 7740SOL    HW124119   2.399   1.446   2.667
 7740SOL    HW224120   2.381   1.434   2.829
 7741SOL     OW24121   1.010   5.187   5.960
 7741SOL    HW124122   1.023   5.257   5.890
 7741SOL    HW224123   1.063   5.210   6.042
 7742SOL     OW24124   4.157   1.755   3.511
 7742SOL    HW124125   4.246   1.800   3.503
 7742SOL    HW224126   4.094   1.812   3.563
 7743SOL     OW24127   5.994   1.552   6.736
 7743SOL    HW124128   5.936   1.495   6.678
 7743SOL    HW224129   6.088   1.519   6.731
 7744SOL     OW24130   0.826   0.008   3.926
 7744SOL    HW124131   0.921   7.010   3.950
 7744SOL    HW224132   0.823   0.087   3.866
 7745SOL     OW24133   3.967   1.405   6.804
 7745SOL    HW124134   3.934   1.316   6.835
 7745SOL    HW224135   4.067   1.408   6.811
 7746SOL     OW24136   1.640   0.525   0.073
 7746SOL    HW124137   1.652   0.469   0.155
 7746SOL    HW224138   1.695   0.486   7.021
 7747SOL     OW24139   5.482   5.823   1.683
 7747SOL    HW124140   5.404   5.858   1.631
 7747SOL    HW224141   5.519   5.896   1.740
 7748SOL     OW24142   2.914   3.579   4.515
 7748SOL    HW124143   2.900   3.655   4.578
 7748SOL    HW224144   2.936   3.496   4.566
 7749SOL     OW24145   2.980   3.687   5.711
 7749SOL    HW124146   3.072   3.695   5.673
 7749SOL    HW224147   2.936   3.777   5.713
 7750SOL     OW24148   0.330   6.369   1.175
 7750SOL    HW124149   0.257   6.308   1.208
 7750SOL    HW224150   0.395   6.386   1.248
 7751SOL     OW24151   1.899   2.873   2.283
 7751SOL    HW124152   1.966   2.842   2.351
 7751SOL    HW224153   1.827   2.925   2.329
 7752SOL     OW24154   5.703   6.675   5.845
 7752SOL    HW124155   5.755   6.625   5.776
 7752SOL    HW224156   5.666   6.610   5.911
 7753SOL     OW24157   2.442   0.911   4.064
 7753SOL    HW124158   2.452   0.969   3.984
 7753SOL    HW224159   2.346   0.890   4.079
 7754SOL     OW24160   3.644   6.549   2.174
 7754SOL    HW124161   3.635   6.633   2.121
 7754SOL    HW224162   3.595   6.475   2.127
 7755SOL     OW24163   1.542   2.209   5.481
 7755SOL    HW124164   1.535   2.262   5.396
 7755SOL    HW224165   1.479   2.132   5.478
 7756SOL     OW24166   2.602   5.999   2.897
 7756SOL    HW124167   2.533   6.067   2.873
 7756SOL    HW224168   2.690   6.044   2.912
 7757SOL     OW24169   5.762   5.058   6.654
 7757SOL    HW124170   5.861   5.065   6.648
 7757SOL    HW224171   5.730   5.101   6.738
 7758SOL     OW24172   1.978   0.819   5.579
 7758SOL    HW124173   1.982   0.835   5.678
 7758SOL    HW224174   1.889   0.779   5.556
 7759SOL     OW24175   1.386   1.993   5.464
 7759SOL    HW124176   1.396   1.915   5.525
 7759SOL    HW224177   1.333   1.966   5.384
 7760SOL     OW24178   5.958   3.130   2.937
 7760SOL    HW124179   5.915   3.195   2.874
 7760SOL    HW224180   6.010   3.063   2.885
 7761SOL     OW24181   0.338   0.476   4.738
 7761SOL    HW124182   0.282   0.547   4.695
 7761SOL    HW224183   0.308   0.386   4.708
 7762SOL     OW24184   2.781   6.701   4.006
 7762SOL    HW124185   2.790   6.602   3.995
 7762SOL    HW224186   2.872   6.743   4.007
 7763SOL     OW24187   1.910   0.697   6.167
 7763SOL    HW124188   1.985   0.734   6.223
 7763SOL    HW224189   1.949   0.649   6.088
 7764SOL     OW24190   3.579   3.186   4.070
 7764SOL    HW124191   3.569   3.097   4.026
 7764SOL    HW224192   3.564   3.176   4.169
 7765SOL     OW24193   6.336   3.512   5.167
 7765SOL    HW124194   6.284   3.512   5.253
 7765SOL    HW224195   6.280   3.551   5.094
 7766SOL     OW24196   6.668   3.896   0.037
 7766SOL    HW124197   6.715   3.813   0.067
 7766SOL    HW224198   6.707   3.927   6.973
 7767SOL     OW24199   4.769   6.381   2.581
 7767SOL    HW124200   4.766   6.450   2.653
 7767SOL    HW224201   4.676   6.362   2.549
 7768SOL     OW24202   4.169   4.803   2.727
 7768SOL    HW124203   4.122   4.845   2.804
 7768SOL    HW224204   4.112   4.807   2.645
 7769SOL     OW24205   3.997   1.819   3.066
 7769SOL    HW124206   3.899   1.809   3.053
 7769SOL    HW224207   4.042   1.828   2.977
 7770SOL     OW24208   1.918   4.410   3.649
 7770SOL    HW124209   1.927   4.481   3.579
 7770SOL    HW224210   1.911   4.320   3.605
 7771SOL     OW24211   3.732   1.910   5.348
 7771SOL    HW124212   3.681   1.831   5.382
 7771SOL    HW224213   3.719   1.988   5.410
 7772SOL     OW24214   4.386   0.359   2.781
 7772SOL    HW124215   4.377   0.268   2.741
 7772SOL    HW224216   4.368   0.429   2.711
 7773SOL     OW24217   2.712   5.932   5.207
 7773SOL    HW124218   2.763   5.907   5.290
 7773SOL    HW224219   2.776   5.950   5.132
 7774SOL     OW24220   5.026   2.121   4.508
 7774SOL    HW124221   5.093   2.057   4.470
 7774SOL    HW224222   4.940   2.114   4.456
 7775SOL     OW24223   4.728   5.905   0.886
 7775SOL    HW124224   4.748   5.991   0.840
 7775SOL    HW224225   4.632   5.905   0.915
 7776SOL     OW24226   0.624   5.652   5.881
 7776SOL    HW124227   0.712   5.629   5.923
 7776SOL    HW224228   0.584   5.570   5.841
 7777SOL     OW24229   6.214   6.539   4.289
 7777SOL    HW124230   6.185   6.444   4.287
 7777SOL    HW224231   6.164   6.588   4.361
 7778SOL     OW24232   5.401   4.520   0.245
 7778SOL    HW124233   5.366   4.466   0.168
 7778SOL    HW224234   5.378   4.475   0.331
 7779SOL     OW24235   2.589   2.192   1.700
 7779SOL    HW124236   2.544   2.219   1.784
 7779SOL    HW224237   2.521   2.170   1.630
 7780SOL     OW24238   0.966   4.783   5.350
 7780SOL    HW124239   0.953   4.883   5.352
 7780SOL    HW224240   0.879   4.739   5.373
 7781SOL     OW24241   2.638   4.939   1.087
 7781SOL    HW124242   2.676   4.857   1.044
 7781SOL    HW224243   2.551   4.915   1.132
 7782SOL     OW24244   5.171   5.237   4.235
 7782SOL    HW124245   5.247   5.297   4.257
 7782SOL    HW224246   5.205   5.152   4.194
 7783SOL     OW24247   0.984   6.061   4.991
 7783SOL    HW124248   1.024   6.014   4.911
 7783SOL    HW224249   1.056   6.077   5.059
 7784SOL     OW24250   3.452   2.390   1.733
 7784SOL    HW124251   3.538   2.363   1.776
 7784SOL    HW224252   3.440   2.489   1.742
 7785SOL     OW24253   1.850   6.306   4.714
 7785SOL    HW124254   1.773   6.250   4.743
 7785SOL    HW224255   1.872   6.372   4.785
 7786SOL     OW24256   3.305   6.346   0.684
 7786SOL    HW124257   3.402   6.366   0.699
 7786SOL    HW224258   3.269   6.295   0.761
 7787SOL     OW24259   1.861   2.717   6.067
 7787SOL    HW124260   1.894   2.649   6.133
 7787SOL    HW224261   1.761   2.721   6.071
 7788SOL     OW24262   2.162   5.083   1.278
 7788SOL    HW124263   2.146   4.989   1.248
 7788SOL    HW224264   2.137   5.147   1.205
 7789SOL     OW24265   2.439   6.854   6.216
 7789SOL    HW124266   2.473   6.947   6.232
 7789SOL    HW224267   2.387   6.824   6.297
 7790SOL     OW24268   5.540   5.763   3.351
 7790SOL    HW124269   5.503   5.674   3.379
 7790SOL    HW224270   5.640   5.760   3.356
 7791SOL     OW24271   2.931   5.283   2.947
 7791SOL    HW124272   2.838   5.288   2.909
 7791SOL    HW224273   2.984   5.362   2.917
 7792SOL     OW24274   1.810   5.686   4.738
 7792SOL    HW124275   1.806   5.589   4.716
 7792SOL    HW224276   1.747   5.706   4.813
 7793SOL     OW24277   4.033   1.015   1.217
 7793SOL    HW124278   4.034   1.115   1.223
 7793SOL    HW224279   4.025   0.988   1.121
 7794SOL     OW24280   6.360   4.048   2.628
 7794SOL    HW124281   6.392   3.953   2.631
 7794SOL    HW224282   6.408   4.102   2.697
 7795SOL     OW24283   1.963   3.903   5.378
 7795SOL    HW124284   2.048   3.952   5.394
 7795SOL    HW224285   1.966   3.814   5.425
 7796SOL     OW24286   3.881   3.096   4.313
 7796SOL    HW124287   3.972   3.135   4.328
 7796SOL    HW224288   3.873   3.065   4.218
 7797SOL     OW24289   1.714   0.098   1.723
 7797SOL    HW124290   1.766   0.025   1.680
 7797SOL    HW224291   1.746   0.112   1.817
 7798SOL     OW24292   1.701   3.646   4.035
 7798SOL    HW124293   1.654   3.710   4.097
 7798SOL    HW224294   1.664   3.554   4.050
 7799SOL     OW24295   1.954   6.058   2.758
 7799SOL    HW124296   1.868   6.054   2.707
 7799SOL    HW224297   1.993   6.150   2.752
 7800SOL     OW24298   1.237   5.697   1.709
 7800SOL    HW124299   1.242   5.648   1.797
 7800SOL    HW224300   1.271   5.637   1.636
 7801SOL     OW24301   2.016   1.942   1.582
 7801SOL    HW124302   2.102   1.992   1.577
 7801SOL    HW224303   1.944   2.004   1.616
 7802SOL     OW24304   5.823   3.013   0.942
 7802SOL    HW124305   5.775   2.941   0.993
 7802SOL    HW224306   5.759   3.057   0.879
 7803SOL     OW24307   4.458   2.423   5.957
 7803SOL    HW124308   4.404   2.493   5.910
 7803SOL    HW224309   4.396   2.356   5.999
 7804SOL     OW24310   4.443   1.973   5.216
 7804SOL    HW124311   4.437   1.989   5.118
 7804SOL    HW224312   4.536   1.946   5.240
 7805SOL     OW24313   5.617   3.227   1.424
 7805SOL    HW124314   5.531   3.217   1.373
 7805SOL    HW224315   5.676   3.148   1.406
 7806SOL     OW24316   6.601   1.893   6.405
 7806SOL    HW124317   6.610   1.989   6.428
 7806SOL    HW224318   6.507   1.874   6.377
 7807SOL     OW24319   1.211   4.957   5.975
 7807SOL    HW124320   1.199   5.008   5.890
 7807SOL    HW224321   1.205   5.020   6.053
 7808SOL     OW24322   6.073   3.247   4.363
 7808SOL    HW124323   6.020   3.194   4.429
 7808SOL    HW224324   6.112   3.328   4.407
 7809SOL     OW24325   4.054   4.951   4.566
 7809SOL    HW124326   4.075   5.046   4.545
 7809SOL    HW224327   3.962   4.929   4.535
 7810SOL     OW24328   3.183   6.767   4.729
 7810SOL    HW124329   3.130   6.811   4.657
 7810SOL    HW224330   3.126   6.754   4.810
 7811SOL     OW24331   1.492   5.512   2.214
 7811SOL    HW124332   1.447   5.591   2.256
 7811SOL    HW224333   1.453   5.497   2.123
 7812SOL     OW24334   0.253   2.369   4.228
 7812SOL    HW124335   0.158   2.340   4.216
 7812SOL    HW224336   0.311   2.320   4.163
 7813SOL     OW24337   4.088   2.274   0.086
 7813SOL    HW124338   4.017   2.205   0.103
 7813SOL    HW224339   4.074   2.352   0.148
 7814SOL     OW24340   0.360   3.666   3.593
 7814SOL    HW124341   0.318   3.623   3.513
 7814SOL    HW224342   0.288   3.698   3.655
 7815SOL     OW24343   6.131   1.254   4.779
 7815SOL    HW124344   6.194   1.182   4.748
 7815SOL    HW224345   6.046   1.249   4.727
 7816SOL     OW24346   1.441   2.328   6.471
 7816SOL    HW124347   1.496   2.395   6.421
 7816SOL    HW224348   1.344   2.353   6.466
 7817SOL     OW24349   5.043   4.149   4.103
 7817SOL    HW124350   4.970   4.115   4.162
 7817SOL    HW224351   5.115   4.080   4.095
 7818SOL     OW24352   4.999   0.190   2.338
 7818SOL    HW124353   4.975   0.211   2.433
 7818SOL    HW224354   4.964   0.099   2.315
 7819SOL     OW24355   6.900   4.163   3.530
 7819SOL    HW124356   6.871   4.254   3.503
 7819SOL    HW224357   6.979   4.169   3.591
 7820SOL     OW24358   1.767   1.421   5.280
 7820SOL    HW124359   1.821   1.433   5.364
 7820SOL    HW224360   1.814   1.359   5.218
 7821SOL     OW24361   5.374   5.652   6.608
 7821SOL    HW124362   5.459   5.669   6.657
 7821SOL    HW224363   5.297   5.662   6.671
 7822SOL     OW24364   0.788   1.311   0.225
 7822SOL    HW124365   0.839   1.243   0.173
 7822SOL    HW224366   0.770   1.275   0.317
 7823SOL     OW24367   2.786   3.404   6.056
 7823SOL    HW124368   2.736   3.326   6.018
 7823SOL    HW224369   2.765   3.486   6.003
 7824SOL     OW24370   5.648   1.296   4.036
 7824SOL    HW124371   5.569   1.323   3.980
 7824SOL    HW224372   5.716   1.369   4.035
 7825SOL     OW24373   1.112   3.484   0.764
 7825SOL    HW124374   1.185   3.425   0.798
 7825SOL    HW224375   1.119   3.574   0.807
 7826SOL     OW24376   6.010   1.542   0.093
 7826SOL    HW124377   5.925   1.540   0.040
 7826SOL    HW224378   6.061   1.458   0.078
 7827SOL     OW24379   3.237   4.851   1.554
 7827SOL    HW124380   3.251   4.943   1.593
 7827SOL    HW224381   3.140   4.834   1.542
 7828SOL     OW24382   0.616   5.100   6.968
 7828SOL    HW124383   0.631   5.135   0.037
 7828SOL    HW224384   0.579   5.007   6.974
 7829SOL     OW24385   1.954   2.827   0.033
 7829SOL    HW124386   1.933   2.854   6.962
 7829SOL    HW224387   2.024   2.888   0.071
 7830SOL     OW24388   4.041   3.623   6.154
 7830SOL    HW124389   4.080   3.562   6.086
 7830SOL    HW224390   3.991   3.697   6.109
 7831SOL     OW24391   1.353   5.664   1.059
 7831SOL    HW124392   1.421   5.684   0.988
 7831SOL    HW224393   1.281   5.605   1.021
 7832SOL     OW24394   4.124   1.330   4.270
 7832SOL    HW124395   4.062   1.279   4.211
 7832SOL    HW224396   4.166   1.405   4.218
 7833SOL     OW24397   0.515   1.176   6.641
 7833SOL    HW124398   0.453   1.127   6.702
 7833SOL    HW224399   0.471   1.260   6.609
 7834SOL     OW24400   6.635   0.886   3.572
 7834SOL    HW124401   6.657   0.974   3.615
 7834SOL    HW224402   6.579   0.902   3.491
 7835SOL     OW24403   2.337   1.936   5.120
 7835SOL    HW124404   2.239   1.919   5.122
 7835SOL    HW224405   2.359   2.016   5.176
 7836SOL     OW24406   2.941   2.689   5.523
 7836SOL    HW124407   2.960   2.616   5.456
 7836SOL    HW224408   2.921   2.774   5.475
 7837SOL     OW24409   6.438   5.726   1.153
 7837SOL    HW124410   6.437   5.756   1.248
 7837SOL    HW224411   6.413   5.629   1.148
 7838SOL     OW24412   4.355   6.614   6.792
 7838SOL    HW124413   4.329   6.532   6.742
 7838SOL    HW224414   4.348   6.597   6.890
 7839SOL     OW24415   6.168   4.349   4.999
 7839SOL    HW124416   6.124   4.269   4.958
 7839SOL    HW224417   6.244   4.379   4.942
 7840SOL     OW24418   5.778   2.799   3.985
 7840SOL    HW124419   5.803   2.736   4.058
 7840SOL    HW224420   5.762   2.890   4.024
 7841SOL     OW24421   4.793   1.709   6.770
 7841SOL    HW124422   4.792   1.805   6.743
 7841SOL    HW224423   4.699   1.676   6.782
 7842SOL     OW24424   1.795   2.122   2.913
 7842SOL    HW124425   1.807   2.155   2.819
 7842SOL    HW224426   1.827   2.028   2.919
 7843SOL     OW24427   5.566   4.443   2.301
 7843SOL    HW124428   5.639   4.509   2.283
 7843SOL    HW224429   5.478   4.491   2.299
 7844SOL     OW24430   4.368   7.002   3.071
 7844SOL    HW124431   4.390   0.001   3.166
 7844SOL    HW224432   4.269   6.996   3.059
 7845SOL     OW24433   5.738   1.910   4.101
 7845SOL    HW124434   5.810   1.931   4.167
 7845SOL    HW224435   5.730   1.811   4.090
 7846SOL     OW24436   0.883   0.785   2.811
 7846SOL    HW124437   0.791   0.756   2.835
 7846SOL    HW224438   0.928   0.825   2.892
 7847SOL     OW24439   6.689   1.481   3.281
 7847SOL    HW124440   6.594   1.481   3.311
 7847SOL    HW224441   6.720   1.575   3.268
 7848SOL     OW24442   2.730   2.810   0.559
 7848SOL    HW124443   2.803   2.878   0.570
 7848SOL    HW224444   2.678   2.803   0.644
 7849SOL     OW24445   5.156   3.921   2.906
 7849SOL    HW124446   5.208   3.969   2.976
 7849SOL    HW224447   5.218   3.882   2.838
 7850SOL     OW24448   0.976   2.180   4.583
 7850SOL    HW124449   1.044   2.251   4.598
 7850SOL    HW224450   1.018   2.103   4.535
 7851SOL     OW24451   6.247   1.040   2.216
 7851SOL    HW124452   6.248   0.944   2.189
 7851SOL    HW224453   6.341   1.072   2.227
 7852SOL     OW24454   2.718   1.064   6.174
 7852SOL    HW124455   2.635   1.026   6.133
 7852SOL    HW224456   2.759   0.996   6.235
 7853SOL     OW24457   4.475   1.992   1.989
 7853SOL    HW124458   4.379   2.006   1.964
 7853SOL    HW224459   4.508   1.907   1.949
 7854SOL     OW24460   3.345   3.233   0.212
 7854SOL    HW124461   3.308   3.164   0.150
 7854SOL    HW224462   3.374   3.190   0.297
 7855SOL     OW24463   3.601   5.621   5.191
 7855SOL    HW124464   3.550   5.653   5.111
 7855SOL    HW224465   3.680   5.567   5.161
 7856SOL     OW24466   6.074   4.588   5.218
 7856SOL    HW124467   6.064   4.495   5.254
 7856SOL    HW224468   6.003   4.605   5.150
 7857SOL     OW24469   6.323   2.304   5.767
 7857SOL    HW124470   6.335   2.226   5.829
 7857SOL    HW224471   6.231   2.302   5.728
 7858SOL     OW24472   5.359   4.983   3.253
 7858SOL    HW124473   5.297   4.995   3.176
 7858SOL    HW224474   5.366   4.885   3.275
 7859SOL     OW24475   5.552   3.022   6.743
 7859SOL    HW124476   5.497   3.004   6.825
 7859SOL    HW224477   5.495   3.007   6.662
 7860SOL     OW24478   4.654   0.682   2.877
 7860SOL    HW124479   4.710   0.744   2.823
 7860SOL    HW224480   4.562   0.719   2.887
 7861SOL     OW24481   3.712   5.216   2.073
 7861SOL    HW124482   3.639   5.278   2.045
 7861SOL    HW224483   3.800   5.256   2.049
 7862SOL     OW24484   3.266   4.234   1.609
 7862SOL    HW124485   3.351   4.193   1.643
 7862SOL    HW224486   3.189   4.204   1.665
 7863SOL     OW24487   0.368   5.396   4.144
 7863SOL    HW124488   0.445   5.342   4.110
 7863SOL    HW224489   0.403   5.479   4.188
 7864SOL     OW24490   0.559   5.386   5.277
 7864SOL    HW124491   0.573   5.456   5.206
 7864SOL    HW224492   0.461   5.373   5.292
 7865SOL     OW24493   5.510   0.335   4.425
 7865SOL    HW124494   5.581   0.329   4.355
 7865SOL    HW224495   5.425   0.369   4.384
 7866SOL     OW24496   1.888   2.194   6.170
 7866SOL    HW124497   1.982   2.205   6.137
 7866SOL    HW224498   1.844   2.120   6.119
 7867SOL     OW24499   4.986   6.749   2.330
 7867SOL    HW124500   4.959   6.659   2.362
 7867SOL    HW224501   5.057   6.786   2.391
 7868SOL     OW24502   5.799   0.083   2.360
 7868SOL    HW124503   5.796   7.018   2.408
 7868SOL    HW224504   5.894   0.104   2.336
 7869SOL     OW24505   5.681   4.183   0.051
 7869SOL    HW124506   5.757   4.203   7.013
 7869SOL    HW224507   5.596   4.179   7.021
 7870SOL     OW24508   4.022   5.268   4.461
 7870SOL    HW124509   4.085   5.309   4.527
 7870SOL    HW224510   3.933   5.255   4.504
 7871SOL     OW24511   5.264   3.021   2.550
 7871SOL    HW124512   5.229   3.007   2.643
 7871SOL    HW224513   5.203   3.082   2.500
 7872SOL     OW24514   2.259   4.207   2.888
 7872SOL    HW124515   2.171   4.255   2.880
 7872SOL    HW224516   2.331   4.261   2.845
 7873SOL     OW24517   5.961   0.660   6.078
 7873SOL    HW124518   6.025   0.606   6.132
 7873SOL    HW224519   5.869   0.652   6.116
 7874SOL     OW24520   5.333   1.785   0.371
 7874SOL    HW124521   5.422   1.747   0.348
 7874SOL    HW224522   5.321   1.873   0.326
 7875SOL     OW24523   5.263   2.555   6.485
 7875SOL    HW124524   5.253   2.456   6.487
 7875SOL    HW224525   5.174   2.598   6.470
 7876SOL     OW24526   0.144   6.425   4.920
 7876SOL    HW124527   0.045   6.412   4.920
 7876SOL    HW224528   0.188   6.340   4.893
 7877SOL     OW24529   0.584   2.302   2.644
 7877SOL    HW124530   0.612   2.380   2.588
 7877SOL    HW224531   0.565   2.224   2.584
 7878SOL     OW24532   5.517   5.124   3.776
 7878SOL    HW124533   5.616   5.134   3.762
 7878SOL    HW224534   5.471   5.206   3.742
 7879SOL     OW24535   4.531   5.615   3.586
 7879SOL    HW124536   4.547   5.517   3.595
 7879SOL    HW224537   4.479   5.648   3.665
 7880SOL     OW24538   1.937   4.943   1.633
 7880SOL    HW124539   2.030   4.969   1.658
 7880SOL    HW224540   1.885   4.924   1.716
 7881SOL     OW24541   5.671   4.060   5.111
 7881SOL    HW124542   5.680   4.029   5.016
 7881SOL    HW224543   5.659   3.981   5.171
 7882SOL     OW24544   1.149   3.260   3.210
 7882SOL    HW124545   1.058   3.287   3.241
 7882SOL    HW224546   1.218   3.317   3.256
 7883SOL     OW24547   1.399   0.584   0.244
 7883SOL    HW124548   1.475   0.561   0.184
 7883SOL    HW224549   1.381   0.508   0.307
 7884SOL     OW24550   2.184   4.199   3.644
 7884SOL    HW124551   2.129   4.222   3.563
 7884SOL    HW224552   2.245   4.123   3.622
 7885SOL     OW24553   6.351   5.757   1.406
 7885SOL    HW124554   6.344   5.726   1.501
 7885SOL    HW224555   6.326   5.854   1.402
 7886SOL     OW24556   3.446   5.502   0.633
 7886SOL    HW124557   3.486   5.591   0.615
 7886SOL    HW224558   3.463   5.441   0.555
 7887SOL     OW24559   3.318   2.558   5.324
 7887SOL    HW124560   3.284   2.495   5.255
 7887SOL    HW224561   3.408   2.529   5.354
 7888SOL     OW24562   6.693   6.777   5.042
 7888SOL    HW124563   6.658   6.704   4.983
 7888SOL    HW224564   6.791   6.765   5.056
 7889SOL     OW24565   0.912   4.766   0.139
 7889SOL    HW124566   0.964   4.697   0.089
 7889SOL    HW224567   0.943   4.770   0.234
 7890SOL     OW24568   0.499   3.060   3.546
 7890SOL    HW124569   0.542   2.975   3.576
 7890SOL    HW224570   0.472   3.052   3.450
 7891SOL     OW24571   2.064   4.278   4.487
 7891SOL    HW124572   2.100   4.200   4.437
 7891SOL    HW224573   1.976   4.253   4.529
 7892SOL     OW24574   1.940   1.904   4.024
 7892SOL    HW124575   1.884   1.987   4.028
 7892SOL    HW224576   1.883   1.827   3.992
 7893SOL     OW24577   6.208   6.502   1.584
 7893SOL    HW124578   6.168   6.505   1.493
 7893SOL    HW224579   6.281   6.571   1.591
 7894SOL     OW24580   3.915   0.120   0.886
 7894SOL    HW124581   3.881   0.199   0.834
 7894SOL    HW224582   3.939   0.149   0.979
 7895SOL     OW24583   5.272   0.270   5.118
 7895SOL    HW124584   5.316   0.181   5.112
 7895SOL    HW224585   5.188   0.263   5.172
 7896SOL     OW24586   4.095   3.240   1.091
 7896SOL    HW124587   4.190   3.219   1.069
 7896SOL    HW224588   4.069   3.327   1.050
 7897SOL     OW24589   3.448   2.731   1.152
 7897SOL    HW124590   3.531   2.785   1.137
 7897SOL    HW224591   3.422   2.736   1.248
 7898SOL     OW24592   3.754   0.974   3.799
 7898SOL    HW124593   3.707   0.963   3.711
 7898SOL    HW224594   3.843   0.928   3.796
 7899SOL     OW24595   6.087   0.504   1.128
 7899SOL    HW124596   6.111   0.593   1.166
 7899SOL    HW224597   5.988   0.490   1.136
 7900SOL     OW24598   1.838   5.402   2.019
 7900SOL    HW124599   1.806   5.489   2.057
 7900SOL    HW224600   1.906   5.420   1.947
 7901SOL     OW24601   3.965   1.179   6.469
 7901SOL    HW124602   3.975   1.116   6.392
 7901SOL    HW224603   3.869   1.205   6.477
 7902SOL     OW24604   6.667   6.903   1.518
 7902SOL    HW124605   6.676   6.997   1.486
 7902SOL    HW224606   6.576   6.889   1.557
 7903SOL     OW24607   4.460   1.411   2.456
 7903SOL    HW124608   4.478   1.498   2.502
 7903SOL    HW224609   4.396   1.426   2.380
 7904SOL     OW24610   5.669   5.936   2.848
 7904SOL    HW124611   5.728   5.874   2.898
 7904SOL    HW224612   5.584   5.950   2.900
 7905SOL     OW24613   5.806   2.275   0.484
 7905SOL    HW124614   5.898   2.239   0.502
 7905SOL    HW224615   5.744   2.244   0.555
 7906SOL     OW24616   0.615   5.327   0.673
 7906SOL    HW124617   0.521   5.300   0.655
 7906SOL    HW224618   0.629   5.422   0.645
 7907SOL     OW24619   5.112   1.985   3.416
 7907SOL    HW124620   5.081   1.950   3.328
 7907SOL    HW224621   5.212   1.986   3.418
 7908SOL     OW24622   1.739   0.980   5.658
 7908SOL    HW124623   1.656   0.924   5.651
 7908SOL    HW224624   1.716   1.071   5.692
 7909SOL     OW24625   4.586   4.455   4.321
 7909SOL    HW124626   4.536   4.539   4.299
 7909SOL    HW224627   4.682   4.477   4.339
 7910SOL     OW24628   2.613   3.205   6.423
 7910SOL    HW124629   2.702   3.229   6.461
 7910SOL    HW224630   2.618   3.116   6.377
 7911SOL     OW24631   0.969   4.194   0.293
 7911SOL    HW124632   0.883   4.171   0.340
 7911SOL    HW224633   1.032   4.235   0.359
 7912SOL     OW24634   6.384   4.805   0.459
 7912SOL    HW124635   6.358   4.711   0.440
 7912SOL    HW224636   6.320   4.844   0.526
 7913SOL     OW24637   1.242   4.348   2.013
 7913SOL    HW124638   1.241   4.317   1.918
 7913SOL    HW224639   1.324   4.313   2.058
 7914SOL     OW24640   0.498   4.835   0.242
 7914SOL    HW124641   0.590   4.853   0.277
 7914SOL    HW224642   0.431   4.846   0.315
 7915SOL     OW24643   4.953   2.659   1.747
 7915SOL    HW124644   4.889   2.730   1.719
 7915SOL    HW224645   4.986   2.610   1.666
 7916SOL     OW24646   0.157   5.375   5.071
 7916SOL    HW124647   0.227   5.377   5.000
 7916SOL    HW224648   0.174   5.299   5.133
 7917SOL     OW24649   3.131   2.983   5.007
 7917SOL    HW124650   3.098   2.911   5.068
 7917SOL    HW224651   3.207   2.948   4.951
 7918SOL     OW24652   0.382   0.670   4.923
 7918SOL    HW124653   0.433   0.644   5.005
 7918SOL    HW224654   0.372   0.591   4.863
 7919SOL     OW24655   1.229   4.218   3.392
 7919SOL    HW124656   1.264   4.218   3.485
 7919SOL    HW224657   1.174   4.300   3.377
 7920SOL     OW24658   0.395   0.262   0.630
 7920SOL    HW124659   0.379   0.351   0.674
 7920SOL    HW224660   0.357   0.264   0.537
 7921SOL     OW24661   5.211   6.008   2.076
 7921SOL    HW124662   5.200   5.939   2.005
 7921SOL    HW224663   5.223   5.964   2.165
 7922SOL     OW24664   0.086   6.219   0.964
 7922SOL    HW124665   0.075   6.228   1.063
 7922SOL    HW224666   0.180   6.242   0.938
 7923SOL     OW24667   3.579   0.394   6.758
 7923SOL    HW124668   3.513   0.411   6.684
 7923SOL    HW224669   3.638   0.473   6.769
 7924SOL     OW24670   4.967   6.970   2.156
 7924SOL    HW124671   4.984   6.892   2.216
 7924SOL    HW224672   5.054   7.012   2.131
 7925SOL     OW24673   0.993   0.814   6.525
 7925SOL    HW124674   1.032   0.882   6.463
 7925SOL    HW224675   0.928   0.756   6.475
 7926SOL     OW24676   4.494   1.623   5.667
 7926SOL    HW124677   4.561   1.692   5.696
 7926SOL    HW224678   4.541   1.537   5.646
 7927SOL     OW24679   4.232   6.002   3.316
 7927SOL    HW124680   4.323   6.003   3.359
 7927SOL    HW224681   4.173   6.068   3.361
 7928SOL     OW24682   1.651   1.586   4.788
 7928SOL    HW124683   1.601   1.531   4.855
 7928SOL    HW224684   1.588   1.649   4.743
 7929SOL     OW24685   4.687   4.501   5.644
 7929SOL    HW124686   4.730   4.591   5.638
 7929SOL    HW224687   4.712   4.447   5.564
 7930SOL     OW24688   4.310   5.508   4.494
 7930SOL    HW124689   4.351   5.533   4.582
 7930SOL    HW224690   4.374   5.531   4.420
 7931SOL     OW24691   3.375   2.769   0.354
 7931SOL    HW124692   3.322   2.707   0.295
 7931SOL    HW224693   3.315   2.841   0.388
 7932SOL     OW24694   1.473   6.636   0.180
 7932SOL    HW124695   1.517   6.581   0.108
 7932SOL    HW224696   1.534   6.710   0.207
 7933SOL     OW24697   0.225   6.016   6.377
 7933SOL    HW124698   0.149   5.951   6.379
 7933SOL    HW224699   0.251   6.039   6.471
 7934SOL     OW24700   1.859   4.846   6.581
 7934SOL    HW124701   1.847   4.749   6.603
 7934SOL    HW224702   1.826   4.863   6.488
 7935SOL     OW24703   5.760   6.524   1.199
 7935SOL    HW124704   5.684   6.554   1.140
 7935SOL    HW224705   5.724   6.466   1.271
 7936SOL     OW24706   3.965   5.643   2.018
 7936SOL    HW124707   4.029   5.570   1.995
 7936SOL    HW224708   3.961   5.708   1.942
 7937SOL     OW24709   6.510   6.199   3.744
 7937SOL    HW124710   6.470   6.120   3.697
 7937SOL    HW224711   6.567   6.251   3.680
 7938SOL     OW24712   6.914   5.606   4.061
 7938SOL    HW124713   6.837   5.602   3.998
 7938SOL    HW224714   6.928   5.515   4.102
 7939SOL     OW24715   1.400   2.581   4.327
 7939SOL    HW124716   1.420   2.535   4.240
 7939SOL    HW224717   1.367   2.515   4.394
 7940SOL     OW24718   1.938   3.154   1.461
 7940SOL    HW124719   1.876   3.222   1.500
 7940SOL    HW224720   2.028   3.195   1.447
 7941SOL     OW24721   6.196   0.531   1.884
 7941SOL    HW124722   6.290   0.518   1.915
 7941SOL    HW224723   6.165   0.623   1.910
 7942SOL     OW24724   6.734   5.422   2.722
 7942SOL    HW124725   6.815   5.369   2.745
 7942SOL    HW224726   6.756   5.486   2.647
 7943SOL     OW24727   6.871   3.582   6.562
 7943SOL    HW124728   6.949   3.523   6.584
 7943SOL    HW224729   6.832   3.617   6.647
 7944SOL     OW24730   0.722   2.397   1.017
 7944SOL    HW124731   0.671   2.474   0.979
 7944SOL    HW224732   0.752   2.337   0.943
 7945SOL     OW24733   6.116   5.245   1.568
 7945SOL    HW124734   6.161   5.291   1.645
 7945SOL    HW224735   6.019   5.237   1.586
 7946SOL     OW24736   3.302   0.538   6.274
 7946SOL    HW124737   3.209   0.553   6.307
 7946SOL    HW224738   3.362   0.518   6.352
 7947SOL     OW24739   3.680   2.313   6.704
 7947SOL    HW124740   3.719   2.393   6.748
 7947SOL    HW224741   3.658   2.244   6.772
 7948SOL     OW24742   1.207   6.822   0.934
 7948SOL    HW124743   1.249   6.801   1.022
 7948SOL    HW224744   1.108   6.826   0.944
 7949SOL     OW24745   4.540   4.545   4.794
 7949SOL    HW124746   4.471   4.521   4.863
 7949SOL    HW224747   4.629   4.509   4.824
 7950SOL     OW24748   4.495   5.045   3.674
 7950SOL    HW124749   4.412   4.990   3.685
 7950SOL    HW224750   4.485   5.130   3.726
 7951SOL     OW24751   2.306   4.101   1.893
 7951SOL    HW124752   2.387   4.057   1.855
 7951SOL    HW224753   2.242   4.124   1.820
 7952SOL     OW24754   0.234   3.783   0.056
 7952SOL    HW124755   0.251   3.700   0.003
 7952SOL    HW224756   0.142   3.818   0.035
 7953SOL     OW24757   2.873   2.103   3.401
 7953SOL    HW124758   2.971   2.097   3.379
 7953SOL    HW224759   2.843   2.019   3.444
 7954SOL     OW24760   3.164   4.674   6.352
 7954SOL    HW124761   3.111   4.748   6.394
 7954SOL    HW224762   3.174   4.599   6.417
 7955SOL     OW24763   1.790   0.981   6.507
 7955SOL    HW124764   1.831   0.981   6.598
 7955SOL    HW224765   1.723   1.054   6.501
 7956SOL     OW24766   4.008   6.410   2.634
 7956SOL    HW124767   4.020   6.505   2.607
 7956SOL    HW224768   4.086   6.356   2.601
 7957SOL     OW24769   1.038   0.678   1.170
 7957SOL    HW124770   1.099   0.731   1.111
 7957SOL    HW224771   1.093   0.623   1.233
 7958SOL     OW24772   3.654   4.979   5.391
 7958SOL    HW124773   3.568   5.023   5.415
 7958SOL    HW224774   3.728   5.016   5.447
 7959SOL     OW24775   4.510   5.996   0.257
 7959SOL    HW124776   4.531   6.084   0.299
 7959SOL    HW224777   4.567   5.925   0.299
 7960SOL     OW24778   2.719   1.535   5.940
 7960SOL    HW124779   2.734   1.453   5.996
 7960SOL    HW224780   2.639   1.585   5.974
 7961SOL     OW24781   6.524   1.189   0.871
 7961SOL    HW124782   6.477   1.138   0.943
 7961SOL    HW224783   6.460   1.251   0.827
 7962SOL     OW24784   1.274   0.561   6.418
 7962SOL    HW124785   1.271   0.586   6.515
 7962SOL    HW224786   1.333   0.624   6.369
 7963SOL     OW24787   6.477   6.574   3.982
 7963SOL    HW124788   6.437   6.616   4.064
 7963SOL    HW224789   6.422   6.598   3.902
 7964SOL     OW24790   0.367   4.457   2.435
 7964SOL    HW124791   0.367   4.362   2.404
 7964SOL    HW224792   0.280   4.477   2.480
 7965SOL     OW24793   4.504   2.706   5.561
 7965SOL    HW124794   4.448   2.625   5.574
 7965SOL    HW224795   4.594   2.693   5.602
 7966SOL     OW24796   2.137   2.843   5.591
 7966SOL    HW124797   2.204   2.783   5.547
 7966SOL    HW224798   2.131   2.821   5.688
 7967SOL     OW24799   3.069   6.551   2.824
 7967SOL    HW124800   3.168   6.542   2.809
 7967SOL    HW224801   3.020   6.497   2.756
 7968SOL     OW24802   1.769   2.879   3.599
 7968SOL    HW124803   1.709   2.890   3.678
 7968SOL    HW224804   1.849   2.825   3.626
 7969SOL     OW24805   3.967   6.261   6.842
 7969SOL    HW124806   3.931   6.172   6.815
 7969SOL    HW224807   3.970   6.322   6.763
 7970SOL     OW24808   6.606   2.697   2.674
 7970SOL    HW124809   6.634   2.725   2.766
 7970SOL    HW224810   6.567   2.776   2.626
 7971SOL     OW24811   3.198   1.903   0.531
 7971SOL    HW124812   3.174   1.914   0.628
 7971SOL    HW224813   3.248   1.817   0.519
 7972SOL     OW24814   2.224   2.901   0.137
 7972SOL    HW124815   2.237   2.873   0.232
 7972SOL    HW224816   2.234   3.000   0.130
 7973SOL     OW24817   4.226   4.757   4.447
 7973SOL    HW124818   4.306   4.733   4.500
 7973SOL    HW224819   4.167   4.818   4.499
 7974SOL     OW24820   6.158   0.653   5.561
 7974SOL    HW124821   6.204   0.733   5.522
 7974SOL    HW224822   6.217   0.573   5.552
 7975SOL     OW24823   6.343   1.428   2.212
 7975SOL    HW124824   6.339   1.527   2.230
 7975SOL    HW224825   6.287   1.407   2.132
 7976SOL     OW24826   0.409   0.371   6.002
 7976SOL    HW124827   0.489   0.391   6.059
 7976SOL    HW224828   0.402   0.272   5.988
 7977SOL     OW24829   4.699   5.998   2.886
 7977SOL    HW124830   4.627   5.949   2.934
 7977SOL    HW224831   4.727   5.946   2.805
 7978SOL     OW24832   5.466   3.915   6.632
 7978SOL    HW124833   5.491   3.830   6.587
 7978SOL    HW224834   5.472   3.904   6.731
 7979SOL     OW24835   4.222   6.111   5.151
 7979SOL    HW124836   4.144   6.173   5.153
 7979SOL    HW224837   4.209   6.043   5.080
 7980SOL     OW24838   3.055   5.618   0.090
 7980SOL    HW124839   3.110   5.641   0.170
 7980SOL    HW224840   2.966   5.582   0.119
 7981SOL     OW24841   0.597   5.204   1.178
 7981SOL    HW124842   0.610   5.277   1.245
 7981SOL    HW224843   0.621   5.237   1.087
 7982SOL     OW24844   1.485   1.556   6.545
 7982SOL    HW124845   1.495   1.481   6.610
 7982SOL    HW224846   1.499   1.522   6.452
 7983SOL     OW24847   5.824   2.206   1.620
 7983SOL    HW124848   5.726   2.206   1.604
 7983SOL    HW224849   5.864   2.120   1.587
 7984SOL     OW24850   1.057   1.309   0.472
 7984SOL    HW124851   1.133   1.312   0.538
 7984SOL    HW224852   1.092   1.328   0.380
 7985SOL     OW24853   2.714   1.025   4.188
 7985SOL    HW124854   2.788   0.963   4.161
 7985SOL    HW224855   2.650   0.977   4.247
 7986SOL     OW24856   3.316   1.353   6.144
 7986SOL    HW124857   3.339   1.377   6.238
 7986SOL    HW224858   3.398   1.361   6.087
 7987SOL     OW24859   1.291   2.678   6.327
 7987SOL    HW124860   1.307   2.762   6.379
 7987SOL    HW224861   1.267   2.702   6.233
 7988SOL     OW24862   0.613   2.453   3.783
 7988SOL    HW124863   0.590   2.521   3.853
 7988SOL    HW224864   0.569   2.366   3.806
 7989SOL     OW24865   2.888   2.756   6.328
 7989SOL    HW124866   2.952   2.833   6.329
 7989SOL    HW224867   2.931   2.677   6.370
 7990SOL     OW24868   0.427   4.012   4.583
 7990SOL    HW124869   0.511   4.043   4.629
 7990SOL    HW224870   0.393   3.930   4.628
 7991SOL     OW24871   5.764   6.639   3.655
 7991SOL    HW124872   5.843   6.578   3.651
 7991SOL    HW224873   5.681   6.586   3.642
 7992SOL     OW24874   1.168   0.069   1.099
 7992SOL    HW124875   1.153   0.035   1.006
 7992SOL    HW224876   1.147   0.167   1.102
 7993SOL     OW24877   0.694   6.871   0.724
 7993SOL    HW124878   0.717   6.941   0.792
 7993SOL    HW224879   0.747   6.788   0.741
 7994SOL     OW24880   4.052   0.098   3.370
 7994SOL    HW124881   4.001   0.178   3.401
 7994SOL    HW224882   4.141   0.126   3.335
 7995SOL     OW24883   4.810   6.061   4.048
 7995SOL    HW124884   4.769   6.025   3.964
 7995SOL    HW224885   4.767   6.148   4.071
 7996SOL     OW24886   2.497   6.537   4.533
 7996SOL    HW124887   2.535   6.576   4.617
 7996SOL    HW224888   2.489   6.609   4.463
 7997SOL     OW24889   0.158   1.579   1.058
 7997SOL    HW124890   0.075   1.629   1.082
 7997SOL    HW224891   0.170   1.501   1.119
 7998SOL     OW24892   2.855   6.894   0.904
 7998SOL    HW124893   2.919   6.823   0.934
 7998SOL    HW224894   2.821   6.944   0.984
 7999SOL     OW24895   1.264   0.026   6.085
 7999SOL    HW124896   1.170   7.018   6.104
 7999SOL    HW224897   1.261   0.114   6.039
 8000SOL     OW24898   4.947   0.492   6.930
 8000SOL    HW124899   4.899   0.567   6.976
 8000SOL    HW224900   4.880   0.427   6.894
 8001SOL     OW24901   4.520   6.460   1.180
 8001SOL    HW124902   4.542   6.541   1.124
 8001SOL    HW224903   4.531   6.378   1.125
 8002SOL     OW24904   1.172   1.413   5.817
 8002SOL    HW124905   1.116   1.439   5.738
 8002SOL    HW224906   1.268   1.431   5.796
 8003SOL     OW24907   3.247   5.283   2.477
 8003SOL    HW124908   3.325   5.263   2.419
 8003SOL    HW224909   3.172   5.221   2.454
 8004SOL     OW24910   2.132   3.376   2.890
 8004SOL    HW124911   2.065   3.308   2.860
 8004SOL    HW224912   2.198   3.332   2.952
 8005SOL     OW24913   3.366   0.803   1.486
 8005SOL    HW124914   3.358   0.871   1.559
 8005SOL    HW224915   3.283   0.804   1.430
 8006SOL     OW24916   1.899   6.907   6.219
 8006SOL    HW124917   1.914   6.866   6.309
 8006SOL    HW224918   1.888   7.006   6.228
 8007SOL     OW24919   6.628   0.705   4.256
 8007SOL    HW124920   6.624   0.608   4.277
 8007SOL    HW224921   6.684   0.752   4.324
 8008SOL     OW24922   4.010   5.490   6.432
 8008SOL    HW124923   3.973   5.397   6.436
 8008SOL    HW224924   3.971   5.538   6.353
 8009SOL     OW24925   5.754   0.932   2.492
 8009SOL    HW124926   5.739   0.949   2.590
 8009SOL    HW224927   5.763   0.834   2.477
 8010SOL     OW24928   1.383   1.599   5.864
 8010SOL    HW124929   1.483   1.599   5.867
 8010SOL    HW224930   1.346   1.607   5.956
 8011SOL     OW24931   2.771   2.672   1.527
 8011SOL    HW124932   2.792   2.619   1.609
 8011SOL    HW224933   2.802   2.622   1.446
 8012SOL     OW24934   2.024   3.808   1.421
 8012SOL    HW124935   2.083   3.854   1.488
 8012SOL    HW224936   1.980   3.877   1.364
 8013SOL     OW24937   1.508   5.200   3.362
 8013SOL    HW124938   1.493   5.240   3.271
 8013SOL    HW224939   1.590   5.143   3.360
 8014SOL     OW24940   1.312   6.051   5.435
 8014SOL    HW124941   1.249   5.985   5.395
 8014SOL    HW224942   1.380   6.003   5.491
 8015SOL     OW24943   3.039   0.556   6.362
 8015SOL    HW124944   3.026   0.606   6.448
 8015SOL    HW224945   2.961   0.571   6.302
 8016SOL     OW24946   4.907   0.418   5.796
 8016SOL    HW124947   4.983   0.352   5.806
 8016SOL    HW224948   4.825   0.369   5.766
 8017SOL     OW24949   5.772   0.127   0.532
 8017SOL    HW124950   5.764   0.135   0.632
 8017SOL    HW224951   5.784   0.031   0.508
 8018SOL     OW24952   3.352   2.017   6.005
 8018SOL    HW124953   3.328   2.050   6.096
 8018SOL    HW224954   3.390   1.924   6.011
 8019SOL     OW24955   2.412   4.139   0.095
 8019SOL    HW124956   2.397   4.163   7.022
 8019SOL    HW224957   2.345   4.187   0.152
 8020SOL     OW24958   5.904   0.774   1.273
 8020SOL    HW124959   5.926   0.787   1.370
 8020SOL    HW224960   5.809   0.801   1.257
 8021SOL     OW24961   0.974   2.646   1.263
 8021SOL    HW124962   0.901   2.699   1.306
 8021SOL    HW224963   0.983   2.672   1.167
 8022SOL     OW24964   5.287   6.759   3.155
 8022SOL    HW124965   5.270   6.703   3.075
 8022SOL    HW224966   5.206   6.815   3.175
 8023SOL     OW24967   5.629   5.094   2.657
 8023SOL    HW124968   5.627   5.190   2.627
 8023SOL    HW224969   5.552   5.077   2.719
 8024SOL     OW24970   1.800   4.929   6.324
 8024SOL    HW124971   1.722   4.866   6.331
 8024SOL    HW224972   1.874   4.885   6.273
 8025SOL     OW24973   1.708   6.497   6.487
 8025SOL    HW124974   1.787   6.468   6.431
 8025SOL    HW224975   1.703   6.596   6.488
 8026SOL     OW24976   0.520   4.545   6.778
 8026SOL    HW124977   0.552   4.521   6.870
 8026SOL    HW224978   0.590   4.521   6.711
 8027SOL     OW24979   4.340   1.018   4.779
 8027SOL    HW124980   4.382   1.089   4.723
 8027SOL    HW224981   4.328   0.935   4.725
 8028SOL     OW24982   3.649   5.305   5.283
 8028SOL    HW124983   3.706   5.322   5.363
 8028SOL    HW224984   3.587   5.228   5.302
 8029SOL     OW24985   4.617   3.114   1.371
 8029SOL    HW124986   4.552   3.054   1.419
 8029SOL    HW224987   4.707   3.107   1.415
 8030SOL     OW24988   4.549   4.501   0.921
 8030SOL    HW124989   4.567   4.568   0.849
 8030SOL    HW224990   4.455   4.512   0.953
 8031SOL     OW24991   6.378   6.717   1.854
 8031SOL    HW124992   6.409   6.773   1.777
 8031SOL    HW224993   6.292   6.754   1.889
 8032SOL     OW24994   6.572   4.591   1.524
 8032SOL    HW124995   6.493   4.621   1.577
 8032SOL    HW224996   6.652   4.647   1.548
 8033SOL     OW24997   5.024   1.247   5.785
 8033SOL    HW124998   5.025   1.162   5.732
 8033SOL    HW224999   5.079   1.316   5.739
 8034SOL     OW25000   4.806   0.248   4.465
 8034SOL    HW125001   4.710   0.231   4.487
 8034SOL    HW225002   4.818   0.345   4.441
 8035SOL     OW25003   5.064   1.766   4.253
 8035SOL    HW125004   5.129   1.835   4.282
 8035SOL    HW225005   4.997   1.750   4.326
 8036SOL     OW25006   6.835   3.806   3.182
 8036SOL    HW125007   6.854   3.833   3.277
 8036SOL    HW225008   6.798   3.713   3.181
 8037SOL     OW25009   1.814   3.143   0.182
 8037SOL    HW125010   1.842   3.076   0.251
 8037SOL    HW225011   1.718   3.130   0.160
 8038SOL     OW25012   4.166   6.728   2.797
 8038SOL    HW125013   4.100   6.686   2.859
 8038SOL    HW225014   4.226   6.657   2.760
 8039SOL     OW25015   0.769   1.575   4.551
 8039SOL    HW125016   0.696   1.591   4.618
 8039SOL    HW225017   0.747   1.492   4.499
 8040SOL     OW25018   1.700   5.330   6.835
 8040SOL    HW125019   1.737   5.247   6.795
 8040SOL    HW225020   1.773   5.398   6.845
 8041SOL     OW25021   2.130   1.722   2.756
 8041SOL    HW125022   2.215   1.671   2.744
 8041SOL    HW225023   2.063   1.691   2.690
 8042SOL     OW25024   3.181   2.983   4.137
 8042SOL    HW125025   3.135   3.051   4.080
 8042SOL    HW225026   3.119   2.953   4.210
 8043SOL     OW25027   3.813   6.856   1.522
 8043SOL    HW125028   3.830   6.760   1.545
 8043SOL    HW225029   3.887   6.889   1.463
 8044SOL     OW25030   4.023   2.187   1.121
 8044SOL    HW125031   3.995   2.135   1.041
 8044SOL    HW225032   4.086   2.133   1.176
 8045SOL     OW25033   5.083   2.036   2.879
 8045SOL    HW125034   5.081   2.062   2.782
 8045SOL    HW225035   5.022   1.958   2.894
 8046SOL     OW25036   0.028   5.326   1.115
 8046SOL    HW125037   6.978   5.307   1.049
 8046SOL    HW225038   0.037   5.249   1.177
 8047SOL     OW25039   4.228   5.936   4.514
 8047SOL    HW125040   4.308   5.880   4.494
 8047SOL    HW225041   4.169   5.940   4.434
 8048SOL     OW25042   5.263   1.013   5.769
 8048SOL    HW125043   5.309   1.060   5.844
 8048SOL    HW225044   5.331   0.982   5.703
 8049SOL     OW25045   0.847   0.113   0.304
 8049SOL    HW125046   0.778   0.049   0.340
 8049SOL    HW225047   0.809   0.163   0.227
 8050SOL     OW25048   1.402   4.191   3.619
 8050SOL    HW125049   1.426   4.181   3.715
 8050SOL    HW225050   1.390   4.101   3.578
 8051SOL     OW25051   4.865   5.976   3.617
 8051SOL    HW125052   4.879   6.063   3.665
 8051SOL    HW225053   4.951   5.925   3.614
 8052SOL     OW25054   4.348   1.377   1.800
 8052SOL    HW125055   4.259   1.340   1.775
 8052SOL    HW225056   4.414   1.358   1.727
 8053SOL     OW25057   2.920   3.627   3.693
 8053SOL    HW125058   2.994   3.648   3.756
 8053SOL    HW225059   2.958   3.597   3.605
 8054SOL     OW25060   5.617   6.652   4.645
 8054SOL    HW125061   5.552   6.610   4.708
 8054SOL    HW225062   5.577   6.736   4.608
 8055SOL     OW25063   0.816   0.043   5.441
 8055SOL    HW125064   0.757   0.111   5.399
 8055SOL    HW225065   0.903   0.039   5.392
 8056SOL     OW25066   2.335   1.258   4.106
 8056SOL    HW125067   2.351   1.317   4.185
 8056SOL    HW225068   2.422   1.229   4.068
 8057SOL     OW25069   2.960   2.136   2.935
 8057SOL    HW125070   2.913   2.187   3.006
 8057SOL    HW225071   2.954   2.038   2.955
 8058SOL     OW25072   3.490   0.158   2.718
 8058SOL    HW125073   3.510   0.123   2.810
 8058SOL    HW225074   3.575   0.165   2.666
 8059SOL     OW25075   3.208   1.889   5.110
 8059SOL    HW125076   3.161   1.948   5.045
 8059SOL    HW225077   3.212   1.796   5.074
 8060SOL     OW25078   6.088   2.359   4.940
 8060SOL    HW125079   6.148   2.338   5.017
 8060SOL    HW225080   6.068   2.275   4.889
 8061SOL     OW25081   0.343   0.965   2.737
 8061SOL    HW125082   0.312   0.876   2.703
 8061SOL    HW225083   0.427   0.991   2.691
 8062SOL     OW25084   3.776   4.981   3.667
 8062SOL    HW125085   3.822   5.009   3.751
 8062SOL    HW225086   3.678   4.974   3.683
 8063SOL     OW25087   1.401   2.482   1.736
 8063SOL    HW125088   1.450   2.505   1.820
 8063SOL    HW225089   1.304   2.470   1.757
 8064SOL     OW25090   7.007   3.410   1.650
 8064SOL    HW125091   6.990   3.433   1.746
 8064SOL    HW225092   0.082   3.398   1.636
 8065SOL     OW25093   2.470   5.561   3.595
 8065SOL    HW125094   2.381   5.538   3.634
 8065SOL    HW225095   2.532   5.591   3.668
 8066SOL     OW25096   0.605   1.799   5.097
 8066SOL    HW125097   0.516   1.793   5.051
 8066SOL    HW225098   0.678   1.787   5.030
 8067SOL     OW25099   4.689   2.764   2.075
 8067SOL    HW125100   4.710   2.860   2.057
 8067SOL    HW225101   4.733   2.707   2.005
 8068SOL     OW25102   0.210   3.632   1.378
 8068SOL    HW125103   0.230   3.713   1.322
 8068SOL    HW225104   0.168   3.662   1.464
 8069SOL     OW25105   2.947   5.955   1.471
 8069SOL    HW125106   2.928   5.940   1.568
 8069SOL    HW225107   2.963   6.052   1.455
 8070SOL     OW25108   4.196   3.421   0.501
 8070SOL    HW125109   4.218   3.452   0.594
 8070SOL    HW225110   4.266   3.356   0.470
 8071SOL     OW25111   2.857   6.428   4.767
 8071SOL    HW125112   2.807   6.342   4.764
 8071SOL    HW225113   2.928   6.429   4.697
 8072SOL     OW25114   3.952   1.544   0.840
 8072SOL    HW125115   3.936   1.467   0.901
 8072SOL    HW225116   4.050   1.552   0.822
 8073SOL     OW25117   3.071   5.185   4.661
 8073SOL    HW125118   3.149   5.193   4.723
 8073SOL    HW225119   3.001   5.128   4.703
 8074SOL     OW25120   4.037   2.844   0.632
 8074SOL    HW125121   3.981   2.783   0.688
 8074SOL    HW225122   4.094   2.901   0.691
 8075SOL     OW25123   0.253   0.403   0.829
 8075SOL    HW125124   0.294   0.415   0.919
 8075SOL    HW225125   0.245   0.305   0.809
 8076SOL     OW25126   6.272   1.134   5.475
 8076SOL    HW125127   6.330   1.129   5.556
 8076SOL    HW225128   6.293   1.218   5.424
 8077SOL     OW25129   2.971   6.177   2.957
 8077SOL    HW125130   2.982   6.147   2.862
 8077SOL    HW225131   3.041   6.134   3.014
 8078SOL     OW25132   0.071   2.112   0.558
 8078SOL    HW125133   0.052   2.089   0.462
 8078SOL    HW225134   0.168   2.130   0.569
 8079SOL     OW25135   4.777   2.096   3.565
 8079SOL    HW125136   4.797   2.179   3.618
 8079SOL    HW225137   4.856   2.035   3.567
 8080SOL     OW25138   1.070   2.418   1.002
 8080SOL    HW125139   1.031   2.510   1.005
 8080SOL    HW225140   1.006   2.354   1.043
 8081SOL     OW25141   6.156   6.002   5.445
 8081SOL    HW125142   6.128   5.921   5.394
 8081SOL    HW225143   6.160   6.081   5.383
 8082SOL     OW25144   4.661   0.055   2.454
 8082SOL    HW125145   4.647   6.979   2.456
 8082SOL    HW225146   4.739   0.079   2.511
 8083SOL     OW25147   4.973   3.237   3.133
 8083SOL    HW125148   5.007   3.247   3.039
 8083SOL    HW225149   4.917   3.316   3.157
 8084SOL     OW25150   4.143   6.976   0.521
 8084SOL    HW125151   4.078   0.026   0.497
 8084SOL    HW225152   4.236   7.006   0.498
 8085SOL     OW25153   6.761   6.189   1.851
 8085SOL    HW125154   6.769   6.192   1.751
 8085SOL    HW225155   6.851   6.196   1.893
 8086SOL     OW25156   5.786   0.338   2.816
 8086SOL    HW125157   5.740   0.323   2.729
 8086SOL    HW225158   5.749   0.419   2.861
 8087SOL     OW25159   2.829   1.335   0.314
 8087SOL    HW125160   2.822   1.403   0.242
 8087SOL    HW225161   2.879   1.373   0.392
 8088SOL     OW25162   5.517   2.053   1.266
 8088SOL    HW125163   5.496   1.955   1.271
 8088SOL    HW225164   5.616   2.066   1.259
 8089SOL     OW25165   5.569   2.500   0.519
 8089SOL    HW125166   5.541   2.407   0.494
 8089SOL    HW225167   5.659   2.519   0.482
 8090SOL     OW25168   4.293   1.788   0.512
 8090SOL    HW125169   4.217   1.759   0.454
 8090SOL    HW225170   4.264   1.863   0.571
 8091SOL     OW25171   2.216   3.595   5.343
 8091SOL    HW125172   2.254   3.688   5.342
 8091SOL    HW225173   2.179   3.574   5.253
 8092SOL     OW25174   5.694   1.841   4.816
 8092SOL    HW125175   5.732   1.797   4.897
 8092SOL    HW225176   5.712   1.939   4.820
 8093SOL     OW25177   3.815   5.385   2.667
 8093SOL    HW125178   3.839   5.440   2.587
 8093SOL    HW225179   3.898   5.345   2.706
 8094SOL     OW25180   1.622   3.658   4.832
 8094SOL    HW125181   1.671   3.741   4.860
 8094SOL    HW225182   1.653   3.631   4.741
 8095SOL     OW25183   0.286   4.774   4.410
 8095SOL    HW125184   0.201   4.819   4.385
 8095SOL    HW225185   0.272   4.719   4.493
 8096SOL     OW25186   2.216   6.545   3.127
 8096SOL    HW125187   2.158   6.617   3.165
 8096SOL    HW225188   2.280   6.586   3.062
 8097SOL     OW25189   4.005   0.114   3.684
 8097SOL    HW125190   4.006   0.157   3.593
 8097SOL    HW225191   3.977   0.181   3.752
 8098SOL     OW25192   1.654   0.035   3.203
 8098SOL    HW125193   1.734   0.095   3.207
 8098SOL    HW225194   1.642   0.001   3.110
 8099SOL     OW25195   3.710   6.919   4.715
 8099SOL    HW125196   3.737   6.883   4.805
 8099SOL    HW225197   3.627   6.872   4.684
 8100SOL     OW25198   6.043   1.209   0.611
 8100SOL    HW125199   5.969   1.165   0.661
 8100SOL    HW225200   6.036   1.308   0.621
 8101SOL     OW25201   2.126   6.744   2.852
 8101SOL    HW125202   2.122   6.842   2.830
 8101SOL    HW225203   2.033   6.708   2.860
 8102SOL     OW25204   0.611   4.346   4.035
 8102SOL    HW125205   0.652   4.397   3.960
 8102SOL    HW225206   0.668   4.356   4.117
 8103SOL     OW25207   4.033   0.215   1.124
 8103SOL    HW125208   3.986   0.205   1.212
 8103SOL    HW225209   4.069   0.308   1.116
 8104SOL     OW25210   3.680   0.408   5.992
 8104SOL    HW125211   3.607   0.476   5.997
 8104SOL    HW225212   3.740   0.429   5.915
 8105SOL     OW25213   0.804   2.824   3.111
 8105SOL    HW125214   0.795   2.903   3.171
 8105SOL    HW225215   0.900   2.809   3.088
 8106SOL     OW25216   2.345   5.825   3.050
 8106SOL    HW125217   2.271   5.831   2.983
 8106SOL    HW225218   2.377   5.731   3.056
 8107SOL     OW25219   0.440   4.995   4.511
 8107SOL    HW125220   0.516   5.000   4.447
 8107SOL    HW225221   0.361   4.954   4.466
 8108SOL     OW25222   5.999   2.925   5.450
 8108SOL    HW125223   6.063   2.945   5.375
 8108SOL    HW225224   5.936   3.001   5.462
 8109SOL     OW25225   0.923   3.767   5.140
 8109SOL    HW125226   0.905   3.714   5.057
 8109SOL    HW225227   1.021   3.781   5.150
 8110SOL     OW25228   3.073   6.196   1.457
 8110SOL    HW125229   3.134   6.199   1.378
 8110SOL    HW225230   3.066   6.287   1.497
 8111SOL     OW25231   5.018   0.564   5.020
 8111SOL    HW125232   5.084   0.567   4.945
 8111SOL    HW225233   4.926   0.558   4.983
 8112SOL     OW25234   1.997   2.308   4.523
 8112SOL    HW125235   2.076   2.369   4.523
 8112SOL    HW225236   1.937   2.331   4.446
 8113SOL     OW25237   2.798   3.450   0.469
 8113SOL    HW125238   2.894   3.441   0.444
 8113SOL    HW225239   2.773   3.379   0.535
 8114SOL     OW25240   1.510   3.750   2.243
 8114SOL    HW125241   1.605   3.738   2.271
 8114SOL    HW225242   1.485   3.847   2.252
 8115SOL     OW25243   3.554   0.636   7.010
 8115SOL    HW125244   3.571   0.575   6.933
 8115SOL    HW225245   3.553   0.730   6.978
 8116SOL     OW25246   4.868   5.077   5.793
 8116SOL    HW125247   4.905   5.165   5.762
 8116SOL    HW225248   4.769   5.083   5.798
 8117SOL     OW25249   1.277   0.885   3.513
 8117SOL    HW125250   1.284   0.786   3.499
 8117SOL    HW225251   1.181   0.910   3.524
 8118SOL     OW25252   5.753   4.303   5.204
 8118SOL    HW125253   5.741   4.215   5.158
 8118SOL    HW225254   5.779   4.372   5.137
 8119SOL     OW25255   5.275   5.239   5.868
 8119SOL    HW125256   5.369   5.261   5.843
 8119SOL    HW225257   5.234   5.182   5.796
 8120SOL     OW25258   2.739   5.474   0.438
 8120SOL    HW125259   2.720   5.386   0.479
 8120SOL    HW225260   2.815   5.518   0.487
 8121SOL     OW25261   0.642   4.886   1.816
 8121SOL    HW125262   0.714   4.945   1.853
 8121SOL    HW225263   0.600   4.834   1.890
 8122SOL     OW25264   1.004   5.566   2.614
 8122SOL    HW125265   0.974   5.593   2.522
 8122SOL    HW225266   1.103   5.567   2.619
 8123SOL     OW25267   6.834   0.951   5.936
 8123SOL    HW125268   6.777   0.875   5.908
 8123SOL    HW225269   6.900   0.973   5.864
 8124SOL     OW25270   6.091   6.830   1.268
 8124SOL    HW125271   6.005   6.880   1.274
 8124SOL    HW225272   6.168   6.895   1.273
 8125SOL     OW25273   1.326   1.387   3.702
 8125SOL    HW125274   1.259   1.440   3.754
 8125SOL    HW225275   1.414   1.435   3.703
 8126SOL     OW25276   5.096   4.992   2.816
 8126SOL    HW125277   5.076   5.070   2.756
 8126SOL    HW225278   5.116   4.911   2.760
 8127SOL     OW25279   2.665   5.375   6.328
 8127SOL    HW125280   2.710   5.288   6.343
 8127SOL    HW225281   2.686   5.438   6.403
 8128SOL     OW25282   2.710   1.265   1.560
 8128SOL    HW125283   2.760   1.319   1.492
 8128SOL    HW225284   2.651   1.199   1.513
 8129SOL     OW25285   4.775   0.658   6.665
 8129SOL    HW125286   4.702   0.591   6.652
 8129SOL    HW225287   4.864   0.612   6.657
 8130SOL     OW25288   0.138   3.024   6.462
 8130SOL    HW125289   0.193   2.967   6.523
 8130SOL    HW225290   0.170   3.119   6.466
 8131SOL     OW25291   3.515   2.038   1.013
 8131SOL    HW125292   3.420   2.024   1.041
 8131SOL    HW225293   3.552   2.118   1.061
 8132SOL     OW25294   5.961   0.047   6.170
 8132SOL    HW125295   5.946   0.059   6.071
 8132SOL    HW225296   6.001   6.980   6.187
 8133SOL     OW25297   2.559   4.781   1.645
 8133SOL    HW125298   2.627   4.709   1.662
 8133SOL    HW225299   2.604   4.869   1.636
 8134SOL     OW25300   0.329   2.485   5.762
 8134SOL    HW125301   0.425   2.463   5.774
 8134SOL    HW225302   0.320   2.578   5.725
 8135SOL     OW25303   2.664   5.881   1.901
 8135SOL    HW125304   2.729   5.941   1.948
 8135SOL    HW225305   2.709   5.795   1.877
 8136SOL     OW25306   4.360   5.319   2.824
 8136SOL    HW125307   4.344   5.403   2.875
 8136SOL    HW225308   4.340   5.240   2.882
 8137SOL     OW25309   3.303   1.225   5.017
 8137SOL    HW125310   3.342   1.316   5.029
 8137SOL    HW225311   3.285   1.209   4.919
 8138SOL     OW25312   5.820   1.079   6.816
 8138SOL    HW125313   5.793   1.067   6.911
 8138SOL    HW225314   5.747   1.047   6.756
 8139SOL     OW25315   0.326   1.235   2.801
 8139SOL    HW125316   0.319   1.138   2.779
 8139SOL    HW225317   0.280   1.253   2.888
 8140SOL     OW25318   4.842   0.375   1.113
 8140SOL    HW125319   4.881   0.348   1.201
 8140SOL    HW225320   4.786   0.457   1.125
 8141SOL     OW25321   4.977   6.527   5.818
 8141SOL    HW125322   4.939   6.481   5.897
 8141SOL    HW225323   4.918   6.603   5.791
 8142SOL     OW25324   1.226   4.712   0.052
 8142SOL    HW125325   1.163   4.635   0.058
 8142SOL    HW225326   1.234   4.742   6.980
 8143SOL     OW25327   6.947   4.625   0.895
 8143SOL    HW125328   6.897   4.636   0.810
 8143SOL    HW225329   6.909   4.687   0.965
 8144SOL     OW25330   6.511   6.779   6.061
 8144SOL    HW125331   6.461   6.817   6.138
 8144SOL    HW225332   6.504   6.840   5.982
 8145SOL     OW25333   5.836   5.564   1.544
 8145SOL    HW125334   5.740   5.589   1.526
 8145SOL    HW225335   5.893   5.645   1.539
 8146SOL     OW25336   4.577   0.771   5.262
 8146SOL    HW125337   4.502   0.820   5.216
 8146SOL    HW225338   4.601   0.820   5.346
 8147SOL     OW25339   6.509   1.797   1.808
 8147SOL    HW125340   6.479   1.866   1.742
 8147SOL    HW225341   6.608   1.783   1.799
 8148SOL     OW25342   5.086   4.423   0.526
 8148SOL    HW125343   5.016   4.415   0.455
 8148SOL    HW225344   5.055   4.487   0.596
 8149SOL     OW25345   2.726   5.944   2.225
 8149SOL    HW125346   2.788   5.975   2.153
 8149SOL    HW225347   2.662   6.016   2.248
 8150SOL     OW25348   2.272   4.176   1.136
 8150SOL    HW125349   2.220   4.254   1.102
 8150SOL    HW225350   2.346   4.154   1.072
 8151SOL     OW25351   5.558   3.872   2.228
 8151SOL    HW125352   5.615   3.852   2.308
 8151SOL    HW225353   5.587   3.959   2.188
 8152SOL     OW25354   6.440   2.328   2.663
 8152SOL    HW125355   6.437   2.428   2.665
 8152SOL    HW225356   6.534   2.298   2.646
 8153SOL     OW25357   1.278   0.578   3.900
 8153SOL    HW125358   1.205   0.645   3.891
 8153SOL    HW225359   1.346   0.611   3.966
 8154SOL     OW25360   3.481   5.194   2.380
 8154SOL    HW125361   3.475   5.236   2.289
 8154SOL    HW225362   3.479   5.095   2.371
 8155SOL     OW25363   1.814   3.363   1.600
 8155SOL    HW125364   1.849   3.450   1.566
 8155SOL    HW225365   1.828   3.358   1.698
 8156SOL     OW25366   5.667   6.328   0.775
 8156SOL    HW125367   5.586   6.277   0.744
 8156SOL    HW225368   5.641   6.421   0.800
 8157SOL     OW25369   6.694   4.837   6.045
 8157SOL    HW125370   6.651   4.795   5.965
 8157SOL    HW225371   6.736   4.924   6.017
 8158SOL     OW25372   4.968   4.908   0.344
 8158SOL    HW125373   4.875   4.900   0.309
 8158SOL    HW225374   5.032   4.866   0.279
 8159SOL     OW25375   2.612   5.759   2.737
 8159SOL    HW125376   2.629   5.838   2.795
 8159SOL    HW225377   2.516   5.758   2.710
 8160SOL     OW25378   5.179   0.830   3.179
 8160SOL    HW125379   5.269   0.830   3.223
 8160SOL    HW225380   5.141   0.738   3.180
 8161SOL     OW25381   5.851   2.531   6.738
 8161SOL    HW125382   5.817   2.438   6.728
 8161SOL    HW225383   5.774   2.594   6.747
 8162SOL     OW25384   5.772   6.631   6.847
 8162SOL    HW125385   5.781   6.532   6.858
 8162SOL    HW225386   5.843   6.664   6.785
 8163SOL     OW25387   2.672   3.992   5.328
 8163SOL    HW125388   2.662   3.927   5.403
 8163SOL    HW225389   2.588   3.992   5.273
 8164SOL     OW25390   5.314   2.024   0.253
 8164SOL    HW125391   5.336   2.066   0.164
 8164SOL    HW225392   5.389   2.040   0.316
 8165SOL     OW25393   0.802   3.746   6.145
 8165SOL    HW125394   0.828   3.842   6.157
 8165SOL    HW225395   0.809   3.722   6.048
 8166SOL     OW25396   1.171   0.863   3.215
 8166SOL    HW125397   1.225   0.889   3.295
 8166SOL    HW225398   1.229   0.814   3.150
 8167SOL     OW25399   7.014   6.972   4.007
 8167SOL    HW125400   0.023   0.011   3.935
 8167SOL    HW225401   7.007   7.021   4.093
 8168SOL     OW25402   1.751   1.501   3.378
 8168SOL    HW125403   1.750   1.549   3.290
 8168SOL    HW225404   1.731   1.404   3.363
 8169SOL     OW25405   5.013   1.923   1.232
 8169SOL    HW125406   4.984   1.983   1.307
 8169SOL    HW225407   4.935   1.868   1.203
 8170SOL     OW25408   1.183   4.718   2.515
 8170SOL    HW125409   1.128   4.657   2.458
 8170SOL    HW225410   1.201   4.802   2.464
 8171SOL     OW25411   1.762   1.955   6.302
 8171SOL    HW125412   1.789   1.859   6.288
 8171SOL    HW225413   1.697   1.960   6.378
 8172SOL     OW25414   0.964   1.956   2.242
 8172SOL    HW125415   0.981   1.871   2.192
 8172SOL    HW225416   0.918   1.935   2.329
 8173SOL     OW25417   5.313   1.185   2.074
 8173SOL    HW125418   5.280   1.127   1.999
 8173SOL    HW225419   5.365   1.129   2.138
 8174SOL     OW25420   6.043   2.651   1.217
 8174SOL    HW125421   6.050   2.684   1.311
 8174SOL    HW225422   5.962   2.592   1.208
 8175SOL     OW25423   0.286   1.960   5.245
 8175SOL    HW125424   0.263   2.052   5.278
 8175SOL    HW225425   0.375   1.933   5.282
 8176SOL     OW25426   2.488   5.433   2.032
 8176SOL    HW125427   2.508   5.432   2.130
 8176SOL    HW225428   2.434   5.514   2.010
 8177SOL     OW25429   3.389   6.712   3.925
 8177SOL    HW125430   3.457   6.655   3.971
 8177SOL    HW225431   3.303   6.662   3.918
 8178SOL     OW25432   2.868   6.236   6.997
 8178SOL    HW125433   2.797   6.301   6.972
 8178SOL    HW225434   2.873   6.164   6.928
 8179SOL     OW25435   5.110   1.854   5.398
 8179SOL    HW125436   5.012   1.837   5.384
 8179SOL    HW225437   5.159   1.766   5.396
 8180SOL     OW25438   6.552   6.974   4.850
 8180SOL    HW125439   6.463   6.952   4.889
 8180SOL    HW225440   6.595   0.024   4.903
 8181SOL     OW25441   2.043   1.536   0.586
 8181SOL    HW125442   2.084   1.601   0.650
 8181SOL    HW225443   2.040   1.445   0.627
 8182SOL     OW25444   3.756   3.166   5.694
 8182SOL    HW125445   3.807   3.136   5.614
 8182SOL    HW225446   3.741   3.265   5.690
 8183SOL     OW25447   6.846   2.200   4.898
 8183SOL    HW125448   6.899   2.177   4.980
 8183SOL    HW225449   6.887   2.156   4.818
 8184SOL     OW25450   6.302   1.253   6.971
 8184SOL    HW125451   6.275   1.166   6.931
 8184SOL    HW225452   6.237   1.278   0.021
 8185SOL     OW25453   3.078   6.607   0.114
 8185SOL    HW125454   3.141   6.600   0.191
 8185SOL    HW225455   3.130   6.620   0.030
 8186SOL     OW25456   3.706   5.929   5.340
 8186SOL    HW125457   3.639   5.983   5.391
 8186SOL    HW225458   3.784   5.909   5.399
 8187SOL     OW25459   1.638   2.293   4.871
 8187SOL    HW125460   1.685   2.365   4.820
 8187SOL    HW225461   1.675   2.289   4.964
 8188SOL     OW25462   5.527   3.026   3.390
 8188SOL    HW125463   5.488   2.935   3.376
 8188SOL    HW225464   5.456   3.095   3.374
 8189SOL     OW25465   4.814   4.699   3.074
 8189SOL    HW125466   4.764   4.679   2.990
 8189SOL    HW225467   4.848   4.793   3.071
 8190SOL     OW25468   4.497   5.256   4.181
 8190SOL    HW125469   4.456   5.190   4.118
 8190SOL    HW225470   4.445   5.257   4.266
 8191SOL     OW25471   3.900   6.498   2.101
 8191SOL    HW125472   3.937   6.590   2.113
 8191SOL    HW225473   3.805   6.495   2.133
 8192SOL     OW25474   4.093   5.192   0.419
 8192SOL    HW125475   4.047   5.232   0.498
 8192SOL    HW225476   4.178   5.147   0.448
 8193SOL     OW25477   0.173   6.588   4.272
 8193SOL    HW125478   0.150   6.560   4.365
 8193SOL    HW225479   0.273   6.588   4.260
 8194SOL     OW25480   5.567   2.521   1.066
 8194SOL    HW125481   5.468   2.522   1.080
 8194SOL    HW225482   5.588   2.535   0.969
 8195SOL     OW25483   1.833   0.484   1.848
 8195SOL    HW125484   1.791   0.554   1.791
 8195SOL    HW225485   1.772   0.463   1.924
 8196SOL     OW25486   4.022   6.310   5.777
 8196SOL    HW125487   3.967   6.386   5.812
 8196SOL    HW225488   4.118   6.338   5.774
 8197SOL     OW25489   4.353   2.201   0.076
 8197SOL    HW125490   4.253   2.209   0.072
 8197SOL    HW225491   4.380   2.111   0.043
 8198SOL     OW25492   3.364   6.846   3.313
 8198SOL    HW125493   3.442   6.901   3.345
 8198SOL    HW225494   3.295   6.907   3.273
 8199SOL     OW25495   5.631   2.684   6.706
 8199SOL    HW125496   5.546   2.717   6.749
 8199SOL    HW225497   5.611   2.651   6.614
 8200SOL     OW25498   5.309   4.131   1.810
 8200SOL    HW125499   5.300   4.098   1.716
 8200SOL    HW225500   5.221   4.170   1.840
 8201SOL     OW25501   5.670   0.250   3.916
 8201SOL    HW125502   5.768   0.249   3.938
 8201SOL    HW225503   5.645   0.166   3.869
 8202SOL     OW25504   0.154   6.062   4.490
 8202SOL    HW125505   0.102   6.047   4.574
 8202SOL    HW225506   0.221   5.989   4.478
 8203SOL     OW25507   4.812   2.529   0.296
 8203SOL    HW125508   4.770   2.541   0.385
 8203SOL    HW225509   4.888   2.464   0.303
 8204SOL     OW25510   3.008   5.226   0.014
 8204SOL    HW125511   2.973   5.132   0.018
 8204SOL    HW225512   2.939   5.285   6.994
 8205SOL     OW25513   0.346   4.753   0.897
 8205SOL    HW125514   0.442   4.772   0.876
 8205SOL    HW225515   0.304   4.835   0.936
 8206SOL     OW25516   4.870   2.493   6.093
 8206SOL    HW125517   4.778   2.466   6.123
 8206SOL    HW225518   4.929   2.412   6.089
 8207SOL     OW25519   3.246   3.794   4.977
 8207SOL    HW125520   3.329   3.752   4.942
 8207SOL    HW225521   3.262   3.891   4.996
 8208SOL     OW25522   1.981   0.169   1.483
 8208SOL    HW125523   2.032   0.147   1.566
 8208SOL    HW225524   1.890   0.127   1.488
 8209SOL     OW25525   0.635   1.393   6.049
 8209SOL    HW125526   0.618   1.325   5.978
 8209SOL    HW225527   0.686   1.470   6.011
 8210SOL     OW25528   2.458   0.551   1.009
 8210SOL    HW125529   2.539   0.521   0.959
 8210SOL    HW225530   2.432   0.482   1.076
 8211SOL     OW25531   3.901   3.993   2.349
 8211SOL    HW125532   3.934   3.945   2.267
 8211SOL    HW225533   3.979   4.018   2.406
 8212SOL     OW25534   2.772   1.672   1.284
 8212SOL    HW125535   2.785   1.678   1.185
 8212SOL    HW225536   2.794   1.761   1.326
 8213SOL     OW25537   6.190   4.659   2.188
 8213SOL    HW125538   6.185   4.689   2.283
 8213SOL    HW225539   6.229   4.732   2.132
 8214SOL     OW25540   0.189   5.411   4.391
 8214SOL    HW125541   0.276   5.432   4.435
 8214SOL    HW225542   0.125   5.486   4.405
 8215SOL     OW25543   2.910   5.703   6.386
 8215SOL    HW125544   2.861   5.782   6.423
 8215SOL    HW225545   2.865   5.674   6.301
 8216SOL     OW25546   4.743   5.889   3.861
 8216SOL    HW125547   4.785   5.930   3.780
 8216SOL    HW225548   4.761   5.791   3.862
 8217SOL     OW25549   2.378   3.778   1.568
 8217SOL    HW125550   2.438   3.833   1.627
 8217SOL    HW225551   2.423   3.761   1.481
 8218SOL     OW25552   0.622   6.316   4.844
 8218SOL    HW125553   0.715   6.345   4.862
 8218SOL    HW225554   0.560   6.395   4.853
 8219SOL     OW25555   4.161   3.068   0.786
 8219SOL    HW125556   4.260   3.073   0.798
 8219SOL    HW225557   4.124   3.160   0.774
 8220SOL     OW25558   3.235   3.424   4.876
 8220SOL    HW125559   3.275   3.361   4.810
 8220SOL    HW225560   3.206   3.508   4.830
 8221SOL     OW25561   6.475   5.787   3.359
 8221SOL    HW125562   6.376   5.785   3.373
 8221SOL    HW225563   6.497   5.756   3.267
 8222SOL     OW25564   5.119   1.595   1.510
 8222SOL    HW125565   5.155   1.660   1.444
 8222SOL    HW225566   5.186   1.580   1.583
 8223SOL     OW25567   1.017   4.212   5.289
 8223SOL    HW125568   1.092   4.152   5.319
 8223SOL    HW225569   0.947   4.158   5.243
 8224SOL     OW25570   5.944   2.556   1.817
 8224SOL    HW125571   5.855   2.557   1.863
 8224SOL    HW225572   6.017   2.555   1.886
 8225SOL     OW25573   4.173   1.322   1.431
 8225SOL    HW125574   4.100   1.319   1.362
 8225SOL    HW225575   4.259   1.291   1.389
 8226SOL     OW25576   3.557   0.057   0.828
 8226SOL    HW125577   3.623   0.053   0.903
 8226SOL    HW225578   3.535   0.152   0.807
 8227SOL     OW25579   6.779   1.212   2.573
 8227SOL    HW125580   6.720   1.231   2.652
 8227SOL    HW225581   6.872   1.196   2.604
 8228SOL     OW25582   0.184   1.667   6.225
 8228SOL    HW125583   0.086   1.685   6.226
 8228SOL    HW225584   0.201   1.572   6.250
 8229SOL     OW25585   3.742   4.181   1.118
 8229SOL    HW125586   3.734   4.254   1.186
 8229SOL    HW225587   3.833   4.183   1.077
 8230SOL     OW25588   3.844   6.571   5.279
 8230SOL    HW125589   3.849   6.667   5.253
 8230SOL    HW225590   3.766   6.528   5.233
 8231SOL     OW25591   2.886   3.124   1.577
 8231SOL    HW125592   2.905   3.217   1.545
 8231SOL    HW225593   2.831   3.128   1.660
 8232SOL     OW25594   6.061   2.022   2.404
 8232SOL    HW125595   6.107   1.992   2.321
 8232SOL    HW225596   5.979   2.074   2.380
 8233SOL     OW25597   1.512   6.643   6.754
 8233SOL    HW125598   1.563   6.630   6.838
 8233SOL    HW225599   1.434   6.580   6.752
 8234SOL     OW25600   3.156   4.061   0.146
 8234SOL    HW125601   3.146   4.089   0.241
 8234SOL    HW225602   3.156   3.961   0.140
 8235SOL     OW25603   0.499   3.811   6.965
 8235SOL    HW125604   0.474   3.864   6.884
 8235SOL    HW225605   0.416   3.787   7.016
 8236SOL     OW25606   6.786   4.699   6.845
 8236SOL    HW125607   6.740   4.776   6.799
 8236SOL    HW225608   6.772   4.616   6.792
 8237SOL     OW25609   4.793   5.922   5.986
 8237SOL    HW125610   4.726   5.986   6.023
 8237SOL    HW225611   4.746   5.852   5.932
 8238SOL     OW25612   0.832   5.345   6.849
 8238SOL    HW125613   0.829   5.389   6.760
 8238SOL    HW225614   0.753   5.286   6.860
 8239SOL     OW25615   0.969   0.623   5.196
 8239SOL    HW125616   0.998   0.580   5.282
 8239SOL    HW225617   0.986   0.721   5.201
 8240SOL     OW25618   3.178   4.045   2.736
 8240SOL    HW125619   3.233   4.024   2.817
 8240SOL    HW225620   3.132   4.134   2.749
 8241SOL     OW25621   2.924   4.774   6.052
 8241SOL    HW125622   2.828   4.757   6.032
 8241SOL    HW225623   2.934   4.805   6.147
 8242SOL     OW25624   0.498   3.759   5.655
 8242SOL    HW125625   0.514   3.660   5.654
 8242SOL    HW225626   0.516   3.795   5.747
 8243SOL     OW25627   6.916   3.646   1.290
 8243SOL    HW125628   6.931   3.705   1.211
 8243SOL    HW225629   6.961   3.685   1.370
 8244SOL     OW25630   0.425   0.354   3.473
 8244SOL    HW125631   0.392   0.440   3.433
 8244SOL    HW225632   0.509   0.326   3.428
 8245SOL     OW25633   3.214   2.113   2.618
 8245SOL    HW125634   3.189   2.043   2.685
 8245SOL    HW225635   3.169   2.199   2.642
 8246SOL     OW25636   0.582   3.744   6.330
 8246SOL    HW125637   0.596   3.646   6.343
 8246SOL    HW225638   0.657   3.781   6.274
 8247SOL     OW25639   1.739   0.075   3.477
 8247SOL    HW125640   1.655   0.072   3.424
 8247SOL    HW225641   1.818   0.068   3.416
 8248SOL     OW25642   0.274   4.210   4.460
 8248SOL    HW125643   0.337   4.137   4.485
 8248SOL    HW225644   0.196   4.209   4.523
 8249SOL     OW25645   2.166   1.288   5.978
 8249SOL    HW125646   2.171   1.233   5.895
 8249SOL    HW225647   2.192   1.382   5.957
 8250SOL     OW25648   2.063   2.396   1.615
 8250SOL    HW125649   2.094   2.372   1.707
 8250SOL    HW225650   2.110   2.479   1.585
 8251SOL     OW25651   5.190   2.550   3.944
 8251SOL    HW125652   5.260   2.514   4.006
 8251SOL    HW225653   5.218   2.639   3.910
 8252SOL     OW25654   4.391   1.849   6.353
 8252SOL    HW125655   4.316   1.795   6.314
 8252SOL    HW225656   4.357   1.903   6.430
 8253SOL     OW25657   3.640   5.434   5.751
 8253SOL    HW125658   3.602   5.487   5.675
 8253SOL    HW225659   3.725   5.476   5.782
 8254SOL     OW25660   4.889   4.912   5.486
 8254SOL    HW125661   4.923   5.002   5.458
 8254SOL    HW225662   4.825   4.877   5.417
 8255SOL     OW25663   1.180   6.373   5.110
 8255SOL    HW125664   1.261   6.430   5.099
 8255SOL    HW225665   1.098   6.428   5.093
 8256SOL     OW25666   6.714   6.281   2.498
 8256SOL    HW125667   6.685   6.192   2.466
 8256SOL    HW225668   6.812   6.294   2.479
 8257SOL     OW25669   5.298   4.009   3.163
 8257SOL    HW125670   5.364   4.016   3.238
 8257SOL    HW225671   5.304   4.092   3.106
 8258SOL     OW25672   4.762   2.894   1.725
 8258SOL    HW125673   4.705   2.933   1.652
 8258SOL    HW225674   4.747   2.944   1.810
 8259SOL     OW25675   3.607   2.276   5.359
 8259SOL    HW125676   3.523   2.252   5.310
 8259SOL    HW225677   3.686   2.257   5.301
 8260SOL     OW25678   2.423   0.053   1.660
 8260SOL    HW125679   2.365   6.998   1.637
 8260SOL    HW225680   2.407   0.127   1.595
 8261SOL     OW25681   5.023   6.574   3.157
 8261SOL    HW125682   4.946   6.533   3.208
 8261SOL    HW225683   5.017   6.674   3.163
 8262SOL     OW25684   1.119   4.494   0.304
 8262SOL    HW125685   1.103   4.481   0.402
 8262SOL    HW225686   1.183   4.569   0.290
 8263SOL     OW25687   0.020   2.977   6.880
 8263SOL    HW125688   6.964   2.916   6.879
 8263SOL    HW225689   0.002   3.056   6.822
 8264SOL     OW25690   1.439   6.653   1.421
 8264SOL    HW125691   1.351   6.638   1.466
 8264SOL    HW225692   1.426   6.650   1.322
 8265SOL     OW25693   5.568   0.090   2.230
 8265SOL    HW125694   5.582   0.137   2.142
 8265SOL    HW225695   5.657   0.071   2.272
 8266SOL     OW25696   2.320   1.150   4.427
 8266SOL    HW125697   2.234   1.114   4.390
 8266SOL    HW225698   2.341   1.237   4.383
 8267SOL     OW25699   1.159   3.696   1.352
 8267SOL    HW125700   1.188   3.733   1.264
 8267SOL    HW225701   1.059   3.686   1.353
 8268SOL     OW25702   2.951   6.130   6.443
 8268SOL    HW125703   3.026   6.137   6.509
 8268SOL    HW225704   2.987   6.148   6.351
 8269SOL     OW25705   4.744   2.880   2.962
 8269SOL    HW125706   4.775   2.927   2.880
 8269SOL    HW225707   4.684   2.804   2.937
 8270SOL     OW25708   2.907   5.946   5.017
 8270SOL    HW125709   2.952   5.883   4.954
 8270SOL    HW225710   2.965   6.027   5.029
 8271SOL     OW25711   6.751   0.040   3.063
 8271SOL    HW125712   6.670   0.070   3.114
 8271SOL    HW225713   6.833   0.065   3.115
 8272SOL     OW25714   6.603   1.267   2.787
 8272SOL    HW125715   6.646   1.297   2.871
 8272SOL    HW225716   6.563   1.345   2.740
 8273SOL     OW25717   2.992   1.087   0.697
 8273SOL    HW125718   3.058   1.149   0.653
 8273SOL    HW225719   3.024   1.063   0.788
 8274SOL     OW25720   4.064   5.621   4.409
 8274SOL    HW125721   4.016   5.535   4.431
 8274SOL    HW225722   4.162   5.609   4.427
 8275SOL     OW25723   5.432   0.637   4.230
 8275SOL    HW125724   5.415   0.696   4.309
 8275SOL    HW225725   5.526   0.647   4.200
 8276SOL     OW25726   0.666   1.658   5.457
 8276SOL    HW125727   0.573   1.696   5.459
 8276SOL    HW225728   0.725   1.718   5.404
 8277SOL     OW25729   1.268   6.138   6.377
 8277SOL    HW125730   1.365   6.120   6.362
 8277SOL    HW225731   1.230   6.069   6.438
 8278SOL     OW25732   3.625   1.843   7.014
 8278SOL    HW125733   3.656   1.783   0.065
 8278SOL    HW225734   3.694   1.847   6.942
 8279SOL     OW25735   6.883   6.516   5.027
 8279SOL    HW125736   6.834   6.483   5.107
 8279SOL    HW225737   6.830   6.495   4.945
 8280SOL     OW25738   3.629   2.773   0.439
 8280SOL    HW125739   3.685   2.765   0.356
 8280SOL    HW225740   3.533   2.756   0.416
 8281SOL     OW25741   2.324   4.476   1.667
 8281SOL    HW125742   2.420   4.447   1.668
 8281SOL    HW225743   2.295   4.492   1.572
 8282SOL     OW25744   3.737   4.584   6.930
 8282SOL    HW125745   3.795   4.598   6.849
 8282SOL    HW225746   3.772   4.507   6.983
 8283SOL     OW25747   1.662   4.401   4.472
 8283SOL    HW125748   1.649   4.323   4.411
 8283SOL    HW225749   1.576   4.451   4.481
 8284SOL     OW25750   1.328   4.030   2.077
 8284SOL    HW125751   1.267   3.960   2.115
 8284SOL    HW225752   1.382   3.990   2.002
 8285SOL     OW25753   3.997   3.910   5.225
 8285SOL    HW125754   3.935   3.989   5.223
 8285SOL    HW225755   4.089   3.939   5.197
 8286SOL     OW25756   4.959   1.600   5.048
 8286SOL    HW125757   5.048   1.639   5.029
 8286SOL    HW225758   4.967   1.500   5.054
 8287SOL     OW25759   0.960   5.095   4.387
 8287SOL    HW125760   0.888   5.154   4.423
 8287SOL    HW225761   1.047   5.118   4.430
 8288SOL     OW25762   2.350   2.463   2.478
 8288SOL    HW125763   2.312   2.503   2.395
 8288SOL    HW225764   2.285   2.399   2.517
 8289SOL     OW25765   6.784   6.913   5.918
 8289SOL    HW125766   6.761   6.959   6.004
 8289SOL    HW225767   6.712   6.928   5.851
 8290SOL     OW25768   5.098   1.652   0.790
 8290SOL    HW125769   5.138   1.594   0.861
 8290SOL    HW225770   5.168   1.675   0.723
 8291SOL     OW25771   6.102   5.214   6.065
 8291SOL    HW125772   6.059   5.276   6.000
 8291SOL    HW225773   6.199   5.236   6.074
 8292SOL     OW25774   2.921   5.439   6.735
 8292SOL    HW125775   2.998   5.502   6.739
 8292SOL    HW225776   2.882   5.428   6.827
 8293SOL     OW25777   2.452   5.089   1.298
 8293SOL    HW125778   2.354   5.097   1.277
 8293SOL    HW225779   2.477   4.992   1.303
 8294SOL     OW25780   6.573   3.645   4.850
 8294SOL    HW125781   6.502   3.603   4.906
 8294SOL    HW225782   6.619   3.574   4.796
 8295SOL     OW25783   4.929   3.548   2.996
 8295SOL    HW125784   4.859   3.536   3.066
 8295SOL    HW225785   4.918   3.637   2.953
 8296SOL     OW25786   3.007   5.840   0.388
 8296SOL    HW125787   3.087   5.802   0.342
 8296SOL    HW225788   2.949   5.887   0.321
 8297SOL     OW25789   6.527   2.942   2.597
 8297SOL    HW125790   6.545   2.956   2.694
 8297SOL    HW225791   6.477   3.021   2.561
 8298SOL     OW25792   6.936   1.017   0.695
 8298SOL    HW125793   6.955   0.994   0.790
 8298SOL    HW225794   6.854   1.075   0.691
 8299SOL     OW25795   0.426   3.067   2.329
 8299SOL    HW125796   0.335   3.093   2.297
 8299SOL    HW225797   0.489   3.143   2.317
 8300SOL     OW25798   0.455   6.571   4.296
 8300SOL    HW125799   0.502   6.584   4.383
 8300SOL    HW225800   0.516   6.527   4.231
 8301SOL     OW25801   4.862   1.224   6.856
 8301SOL    HW125802   4.768   1.191   6.849
 8301SOL    HW225803   4.923   1.147   6.876
 8302SOL     OW25804   5.325   6.507   6.034
 8302SOL    HW125805   5.358   6.485   5.942
 8302SOL    HW225806   5.398   6.553   6.085
 8303SOL     OW25807   6.036   0.488   3.330
 8303SOL    HW125808   6.091   0.439   3.262
 8303SOL    HW225809   5.981   0.558   3.285
 8304SOL     OW25810   5.663   4.929   1.150
 8304SOL    HW125811   5.741   4.905   1.207
 8304SOL    HW225812   5.647   4.857   1.082
 8305SOL     OW25813   4.607   4.932   4.343
 8305SOL    HW125814   4.606   5.022   4.300
 8305SOL    HW225815   4.580   4.941   4.439
 8306SOL     OW25816   6.054   1.305   3.312
 8306SOL    HW125817   5.990   1.366   3.360
 8306SOL    HW225818   6.071   1.340   3.220
 8307SOL     OW25819   3.680   5.407   1.727
 8307SOL    HW125820   3.657   5.313   1.701
 8307SOL    HW225821   3.779   5.413   1.744
 8308SOL     OW25822   2.329   5.811   0.265
 8308SOL    HW125823   2.247   5.817   0.322
 8308SOL    HW225824   2.405   5.776   0.318
 8309SOL     OW25825   6.623   5.653   2.832
 8309SOL    HW125826   6.655   5.567   2.794
 8309SOL    HW225827   6.690   5.687   2.898
 8310SOL     OW25828   1.545   5.364   1.278
 8310SOL    HW125829   1.637   5.372   1.241
 8310SOL    HW225830   1.546   5.303   1.357
 8311SOL     OW25831   6.494   1.139   4.828
 8311SOL    HW125832   6.478   1.056   4.775
 8311SOL    HW225833   6.485   1.219   4.768
 8312SOL     OW25834   5.537   1.137   6.503
 8312SOL    HW125835   5.568   1.076   6.576
 8312SOL    HW225836   5.508   1.224   6.542
 8313SOL     OW25837   5.561   0.665   6.085
 8313SOL    HW125838   5.602   0.643   6.173
 8313SOL    HW225839   5.466   0.693   6.098
 8314SOL     OW25840   6.417   0.145   6.291
 8314SOL    HW125841   6.419   0.047   6.276
 8314SOL    HW225842   6.353   0.166   6.364
 8315SOL     OW25843   3.814   2.955   3.128
 8315SOL    HW125844   3.893   2.974   3.187
 8315SOL    HW225845   3.743   2.910   3.182
 8316SOL     OW25846   1.791   2.953   1.577
 8316SOL    HW125847   1.850   3.022   1.536
 8316SOL    HW225848   1.822   2.862   1.550
 8317SOL     OW25849   1.300   2.310   2.795
 8317SOL    HW125850   1.380   2.316   2.735
 8317SOL    HW225851   1.262   2.402   2.808
 8318SOL     OW25852   4.322   1.421   6.247
 8318SOL    HW125853   4.295   1.369   6.329
 8318SOL    HW225854   4.240   1.447   6.196
 8319SOL     OW25855   1.442   1.024   1.234
 8319SOL    HW125856   1.504   1.100   1.216
 8319SOL    HW225857   1.479   0.967   1.307
 8320SOL     OW25858   3.324   3.751   2.977
 8320SOL    HW125859   3.251   3.720   2.916
 8320SOL    HW225860   3.364   3.672   3.024
 8321SOL     OW25861   6.772   0.049   6.985
 8321SOL    HW125862   6.767   0.123   6.918
 8321SOL    HW225863   6.861   0.051   0.007
 8322SOL     OW25864   6.114   1.235   0.887
 8322SOL    HW125865   6.070   1.167   0.829
 8322SOL    HW225866   6.183   1.285   0.834
 8323SOL     OW25867   3.969   4.798   1.690
 8323SOL    HW125868   3.970   4.718   1.630
 8323SOL    HW225869   3.876   4.810   1.726
 8324SOL     OW25870   5.453   0.282   0.775
 8324SOL    HW125871   5.382   0.268   0.706
 8324SOL    HW225872   5.491   0.374   0.766
 8325SOL     OW25873   1.317   3.604   5.310
 8325SOL    HW125874   1.415   3.589   5.324
 8325SOL    HW225875   1.300   3.620   5.212
 8326SOL     OW25876   4.409   4.306   6.102
 8326SOL    HW125877   4.338   4.357   6.053
 8326SOL    HW225878   4.466   4.257   6.035
 8327SOL     OW25879   0.369   0.823   5.510
 8327SOL    HW125880   0.436   0.897   5.522
 8327SOL    HW225881   0.362   0.771   5.596
 8328SOL     OW25882   2.697   6.445   6.799
 8328SOL    HW125883   2.627   6.413   6.735
 8328SOL    HW225884   2.788   6.426   6.762
 8329SOL     OW25885   0.617   2.334   4.390
 8329SOL    HW125886   0.658   2.411   4.341
 8329SOL    HW225887   0.518   2.347   4.396
 8330SOL     OW25888   3.430   1.673   6.911
 8330SOL    HW125889   3.374   1.683   6.993
 8330SOL    HW225890   3.501   1.744   6.911
 8331SOL     OW25891   3.526   0.854   0.610
 8331SOL    HW125892   3.503   0.910   0.690
 8331SOL    HW225893   3.515   0.757   0.633
 8332SOL     OW25894   6.006   5.558   2.090
 8332SOL    HW125895   5.931   5.493   2.107
 8332SOL    HW225896   5.988   5.643   2.139
 8333SOL     OW25897   1.436   4.861   0.162
 8333SOL    HW125898   1.403   4.953   0.183
 8333SOL    HW225899   1.364   4.809   0.117
 8334SOL     OW25900   3.419   1.887   5.281
 8334SOL    HW125901   3.337   1.857   5.233
 8334SOL    HW225902   3.418   1.987   5.288
 8335SOL     OW25903   4.579   1.395   0.245
 8335SOL    HW125904   4.531   1.481   0.259
 8335SOL    HW225905   4.541   1.325   0.305
 8336SOL     OW25906   0.242   3.984   2.662
 8336SOL    HW125907   0.331   4.030   2.658
 8336SOL    HW225908   0.256   3.885   2.659
 8337SOL     OW25909   0.341   6.475   3.969
 8337SOL    HW125910   0.412   6.475   3.898
 8337SOL    HW225911   0.291   6.561   3.966
 8338SOL     OW25912   3.353   5.430   1.291
 8338SOL    HW125913   3.283   5.413   1.222
 8338SOL    HW225914   3.345   5.523   1.325
 8339SOL     OW25915   6.805   0.205   2.178
 8339SOL    HW125916   6.751   0.249   2.251
 8339SOL    HW225917   6.901   0.227   2.190
 8340SOL     OW25918   5.038   3.774   0.929
 8340SOL    HW125919   5.133   3.807   0.933
 8340SOL    HW225920   4.975   3.851   0.937
 8341SOL     OW25921   2.882   0.320   6.875
 8341SOL    HW125922   2.915   0.247   6.934
 8341SOL    HW225923   2.959   0.364   6.829
 8342SOL     OW25924   4.609   7.000   0.101
 8342SOL    HW125925   4.638   6.925   0.041
 8342SOL    HW225926   4.690   0.018   0.144
 8343SOL     OW25927   0.380   5.829   3.189
 8343SOL    HW125928   0.465   5.880   3.207
 8343SOL    HW225929   0.303   5.893   3.187
 8344SOL     OW25930   6.499   5.955   4.520
 8344SOL    HW125931   6.569   5.997   4.578
 8344SOL    HW225932   6.539   5.931   4.431
 8345SOL     OW25933   3.467   2.046   2.488
 8345SOL    HW125934   3.407   2.117   2.526
 8345SOL    HW225935   3.516   2.083   2.409
 8346SOL     OW25936   3.716   4.687   0.592
 8346SOL    HW125937   3.731   4.591   0.569
 8346SOL    HW225938   3.770   4.712   0.672
 8347SOL     OW25939   2.816   6.484   5.552
 8347SOL    HW125940   2.854   6.539   5.626
 8347SOL    HW225941   2.864   6.396   5.549
 8348SOL     OW25942   2.203   0.703   1.257
 8348SOL    HW125943   2.113   0.661   1.269
 8348SOL    HW225944   2.262   0.680   1.334
 8349SOL     OW25945   1.004   6.644   2.267
 8349SOL    HW125946   0.949   6.568   2.302
 8349SOL    HW225947   0.994   6.723   2.328
 8350SOL     OW25948   2.903   6.852   5.867
 8350SOL    HW125949   2.840   6.871   5.942
 8350SOL    HW225950   2.988   6.904   5.880
 8351SOL     OW25951   5.014   5.520   4.434
 8351SOL    HW125952   5.008   5.432   4.483
 8351SOL    HW225953   4.921   5.556   4.420
 8352SOL     OW25954   0.752   6.900   3.550
 8352SOL    HW125955   0.695   6.820   3.530
 8352SOL    HW225956   0.827   6.872   3.610
 8353SOL     OW25957   0.885   3.991   1.073
 8353SOL    HW125958   0.985   3.987   1.083
 8353SOL    HW225959   0.855   3.916   1.015
 8354SOL     OW25960   3.366   0.223   4.464
 8354SOL    HW125961   3.392   0.126   4.463
 8354SOL    HW225962   3.393   0.266   4.378
 8355SOL     OW25963   2.420   1.469   5.307
 8355SOL    HW125964   2.369   1.553   5.289
 8355SOL    HW225965   2.386   1.396   5.248
 8356SOL     OW25966   1.051   6.893   1.937
 8356SOL    HW125967   0.981   6.837   1.982
 8356SOL    HW225968   1.133   6.895   1.993
 8357SOL     OW25969   3.480   6.832   5.693
 8357SOL    HW125970   3.394   6.792   5.724
 8357SOL    HW225971   3.491   6.815   5.595
 8358SOL     OW25972   1.816   3.878   4.875
 8358SOL    HW125973   1.909   3.870   4.840
 8358SOL    HW225974   1.818   3.883   4.975
 8359SOL     OW25975   3.264   1.197   4.745
 8359SOL    HW125976   3.297   1.109   4.710
 8359SOL    HW225977   3.315   1.271   4.703
 8360SOL     OW25978   4.130   0.369   0.366
 8360SOL    HW125979   4.034   0.341   0.362
 8360SOL    HW225980   4.179   0.312   0.433
 8361SOL     OW25981   3.774   0.491   1.434
 8361SOL    HW125982   3.828   0.548   1.495
 8361SOL    HW225983   3.830   0.467   1.354
 8362SOL     OW25984   4.818   1.754   1.180
 8362SOL    HW125985   4.726   1.788   1.196
 8362SOL    HW225986   4.825   1.720   1.086
 8363SOL     OW25987   4.816   2.825   0.321
 8363SOL    HW125988   4.839   2.833   0.418
 8363SOL    HW225989   4.832   2.731   0.291
 8364SOL     OW25990   0.056   1.614   4.126
 8364SOL    HW125991   7.022   1.618   4.208
 8364SOL    HW225992   0.140   1.565   4.145
 8365SOL     OW25993   1.551   2.363   2.695
 8365SOL    HW125994   1.605   2.422   2.756
 8365SOL    HW225995   1.613   2.312   2.635
 8366SOL     OW25996   2.876   5.063   1.009
 8366SOL    HW125997   2.785   5.036   1.040
 8366SOL    HW225998   2.916   4.989   0.955
 8367SOL     OW25999   3.222   5.838   4.954
 8367SOL    HW126000   3.190   5.836   4.859
 8367SOL    HW226001   3.216   5.746   4.992
 8368SOL     OW26002   1.049   6.562   0.084
 8368SOL    HW126003   1.110   6.617   0.141
 8368SOL    HW226004   0.970   6.618   0.057
 8369SOL     OW26005   0.852   0.477   6.205
 8369SOL    HW126006   0.840   0.435   6.115
 8369SOL    HW226007   0.944   0.459   6.238
 8370SOL     OW26008   2.763   1.784   5.719
 8370SOL    HW126009   2.850   1.828   5.696
 8370SOL    HW226010   2.781   1.698   5.767
 8371SOL     OW26011   2.472   4.437   0.753
 8371SOL    HW126012   2.374   4.417   0.748
 8371SOL    HW226013   2.519   4.392   0.678
 8372SOL     OW26014   2.021   5.381   1.804
 8372SOL    HW126015   2.083   5.312   1.766
 8372SOL    HW226016   1.995   5.446   1.733
 8373SOL     OW26017   1.662   6.280   3.752
 8373SOL    HW126018   1.618   6.192   3.738
 8373SOL    HW226019   1.609   6.333   3.819
 8374SOL     OW26020   0.236   0.064   5.491
 8374SOL    HW126021   0.185   0.149   5.488
 8374SOL    HW226022   0.173   7.010   5.502
 8375SOL     OW26023   4.371   6.317   5.493
 8375SOL    HW126024   4.319   6.386   5.443
 8375SOL    HW226025   4.434   6.362   5.557
 8376SOL     OW26026   1.010   1.238   4.457
 8376SOL    HW126027   1.010   1.288   4.370
 8376SOL    HW226028   0.921   1.250   4.502
 8377SOL     OW26029   5.814   6.272   0.541
 8377SOL    HW126030   5.775   6.310   0.625
 8377SOL    HW226031   5.913   6.290   0.540
 8378SOL     OW26032   3.598   4.964   3.001
 8378SOL    HW126033   3.675   4.975   3.063
 8378SOL    HW226034   3.516   4.941   3.053
 8379SOL     OW26035   5.041   2.893   1.471
 8379SOL    HW126036   4.951   2.927   1.441
 8379SOL    HW226037   5.062   2.932   1.561
 8380SOL     OW26038   0.610   0.384   1.242
 8380SOL    HW126039   0.667   0.411   1.319
 8380SOL    HW226040   0.536   0.324   1.273
 8381SOL     OW26041   0.347   2.424   4.473
 8381SOL    HW126042   0.295   2.411   4.388
 8381SOL    HW226043   0.311   2.503   4.523
 8382SOL     OW26044   2.331   6.873   2.279
 8382SOL    HW126045   2.240   6.898   2.245
 8382SOL    HW226046   2.367   6.798   2.224
 8383SOL     OW26047   3.271   6.932   6.309
 8383SOL    HW126048   3.355   6.968   6.268
 8383SOL    HW226049   3.260   6.836   6.283
 8384SOL     OW26050   6.141   1.732   1.190
 8384SOL    HW126051   6.186   1.690   1.270
 8384SOL    HW226052   6.172   1.826   1.180
 8385SOL     OW26053   4.700   2.643   6.891
 8385SOL    HW126054   4.764   2.567   6.881
 8385SOL    HW226055   4.634   2.623   6.963
 8386SOL     OW26056   1.769   6.245   1.872
 8386SOL    HW126057   1.722   6.333   1.872
 8386SOL    HW226058   1.862   6.257   1.838
 8387SOL     OW26059   0.763   1.512   0.988
 8387SOL    HW126060   0.667   1.485   1.003
 8387SOL    HW226061   0.813   1.435   0.948
 8388SOL     OW26062   2.466   6.976   0.601
 8388SOL    HW126063   2.479   6.916   0.680
 8388SOL    HW226064   2.385   0.011   0.616
 8389SOL     OW26065   0.252   3.584   4.025
 8389SOL    HW126066   0.288   3.676   4.038
 8389SOL    HW226067   0.219   3.574   3.931
 8390SOL     OW26068   4.045   6.780   0.194
 8390SOL    HW126069   3.989   6.699   0.211
 8390SOL    HW226070   4.059   6.829   0.280
 8391SOL     OW26071   5.501   5.451   1.258
 8391SOL    HW126072   5.547   5.453   1.347
 8391SOL    HW226073   5.570   5.457   1.185
 8392SOL     OW26074   0.109   5.021   5.425
 8392SOL    HW126075   0.078   4.939   5.377
 8392SOL    HW226076   0.054   5.034   5.508
 8393SOL     OW26077   0.166   7.019   2.629
 8393SOL    HW126078   0.195   0.089   2.604
 8393SOL    HW226079   0.120   6.977   2.551
 8394SOL     OW26080   0.610   3.184   1.808
 8394SOL    HW126081   0.641   3.224   1.722
 8394SOL    HW226082   0.684   3.132   1.849
 8395SOL     OW26083   1.633   6.540   4.621
 8395SOL    HW126084   1.541   6.528   4.584
 8395SOL    HW226085   1.700   6.515   4.552
 8396SOL     OW26086   4.063   5.284   2.719
 8396SOL    HW126087   4.151   5.294   2.765
 8396SOL    HW226088   4.065   5.203   2.660
 8397SOL     OW26089   2.486   0.927   2.913
 8397SOL    HW126090   2.579   0.908   2.945
 8397SOL    HW226091   2.487   0.941   2.814
 8398SOL     OW26092   4.784   2.701   6.507
 8398SOL    HW126093   4.799   2.603   6.493
 8398SOL    HW226094   4.743   2.741   6.425
 8399SOL     OW26095   6.203   6.997   0.826
 8399SOL    HW126096   6.292   6.955   0.843
 8399SOL    HW226097   6.196   0.002   0.731
 8400SOL     OW26098   1.537   0.699   4.285
 8400SOL    HW126099   1.529   0.676   4.188
 8400SOL    HW226100   1.566   0.617   4.336
 8401SOL     OW26101   3.456   1.750   6.042
 8401SOL    HW126102   3.545   1.733   6.086
 8401SOL    HW226103   3.384   1.707   6.097
 8402SOL     OW26104   3.791   1.891   6.352
 8402SOL    HW126105   3.786   1.847   6.442
 8402SOL    HW226106   3.698   1.902   6.315
 8403SOL     OW26107   0.715   2.221   4.023
 8403SOL    HW126108   0.712   2.169   4.109
 8403SOL    HW226109   0.785   2.293   4.030
 8404SOL     OW26110   4.239   7.002   6.192
 8404SOL    HW126111   4.320   6.947   6.215
 8404SOL    HW226112   4.180   7.009   6.273
 8405SOL     OW26113   2.798   0.793   5.963
 8405SOL    HW126114   2.719   0.761   5.911
 8405SOL    HW226115   2.791   0.892   5.977
 8406SOL     OW26116   5.292   0.028   0.669
 8406SOL    HW126117   5.356   7.008   0.605
 8406SOL    HW226118   5.199   0.020   0.633
 8407SOL     OW26119   3.847   6.359   3.851
 8407SOL    HW126120   3.824   6.322   3.761
 8407SOL    HW226121   3.858   6.459   3.844
 8408SOL     OW26122   5.602   3.385   2.155
 8408SOL    HW126123   5.583   3.295   2.116
 8408SOL    HW226124   5.532   3.449   2.126
 8409SOL     OW26125   5.760   3.283   3.883
 8409SOL    HW126126   5.758   3.246   3.790
 8409SOL    HW226127   5.683   3.346   3.896
 8410SOL     OW26128   5.069   0.440   1.883
 8410SOL    HW126129   5.053   0.511   1.951
 8410SOL    HW226130   4.982   0.396   1.860
 8411SOL     OW26131   0.606   5.189   6.738
 8411SOL    HW126132   0.597   5.152   6.830
 8411SOL    HW226133   0.629   5.115   6.674
 8412SOL     OW26134   3.796   2.060   1.389
 8412SOL    HW126135   3.809   2.159   1.393
 8412SOL    HW226136   3.698   2.040   1.389
 8413SOL     OW26137   3.772   5.711   0.215
 8413SOL    HW126138   3.802   5.616   0.219
 8413SOL    HW226139   3.851   5.771   0.223
 8414SOL     OW26140   4.058   5.662   3.498
 8414SOL    HW126141   3.998   5.584   3.488
 8414SOL    HW226142   4.153   5.632   3.491
 8415SOL     OW26143   6.623   6.027   3.218
 8415SOL    HW126144   6.525   6.012   3.233
 8415SOL    HW226145   6.635   6.097   3.147
 8416SOL     OW26146   5.599   3.495   2.812
 8416SOL    HW126147   5.598   3.563   2.739
 8416SOL    HW226148   5.518   3.506   2.869
 8417SOL     OW26149   1.563   4.983   5.779
 8417SOL    HW126150   1.508   5.053   5.733
 8417SOL    HW226151   1.507   4.903   5.797
 8418SOL     OW26152   5.727   5.510   1.103
 8418SOL    HW126153   5.773   5.593   1.134
 8418SOL    HW226154   5.791   5.452   1.053
 8419SOL     OW26155   5.235   0.578   2.414
 8419SOL    HW126156   5.166   0.651   2.417
 8419SOL    HW226157   5.299   0.590   2.490
 8420SOL     OW26158   4.171   7.014   0.878
 8420SOL    HW126159   4.163   6.935   0.818
 8420SOL    HW226160   4.094   0.053   0.862
 8421SOL     OW26161   2.682   5.673   6.985
 8421SOL    HW126162   2.751   5.611   6.947
 8421SOL    HW226163   2.590   5.636   6.967
 8422SOL     OW26164   4.396   0.889   1.298
 8422SOL    HW126165   4.432   0.901   1.206
 8422SOL    HW226166   4.383   0.979   1.341
 8423SOL     OW26167   4.116   4.629   5.752
 8423SOL    HW126168   4.124   4.529   5.755
 8423SOL    HW226169   4.072   4.662   5.835
 8424SOL     OW26170   1.961   2.282   3.091
 8424SOL    HW126171   1.891   2.233   3.039
 8424SOL    HW226172   1.918   2.331   3.167
 8425SOL     OW26173   4.983   5.887   0.329
 8425SOL    HW126174   4.906   5.854   0.275
 8425SOL    HW226175   5.069   5.862   0.283
 8426SOL     OW26176   3.279   3.690   4.054
 8426SOL    HW126177   3.196   3.734   4.088
 8426SOL    HW226178   3.344   3.679   4.129
 8427SOL     OW26179   3.703   3.253   4.779
 8427SOL    HW126180   3.730   3.157   4.771
 8427SOL    HW226181   3.767   3.301   4.838
 8428SOL     OW26182   0.389   4.492   1.709
 8428SOL    HW126183   0.366   4.516   1.614
 8428SOL    HW226184   0.488   4.493   1.720
 8429SOL     OW26185   1.614   4.910   3.391
 8429SOL    HW126186   1.518   4.927   3.415
 8429SOL    HW226187   1.620   4.826   3.336
 8430SOL     OW26188   3.462   5.199   4.527
 8430SOL    HW126189   3.435   5.249   4.445
 8430SOL    HW226190   3.506   5.262   4.591
 8431SOL     OW26191   2.906   5.205   0.684
 8431SOL    HW126192   2.826   5.257   0.656
 8431SOL    HW226193   2.983   5.227   0.625
 8432SOL     OW26194   5.645   6.480   6.050
 8432SOL    HW126195   5.591   6.396   6.042
 8432SOL    HW226196   5.728   6.461   6.103
 8433SOL     OW26197   5.759   1.954   0.283
 8433SOL    HW126198   5.779   2.003   0.198
 8433SOL    HW226199   5.833   1.971   0.348
 8434SOL     OW26200   2.970   6.785   4.957
 8434SOL    HW126201   3.028   6.841   5.016
 8434SOL    HW226202   2.875   6.811   4.970
 8435SOL     OW26203   6.011   0.788   1.534
 8435SOL    HW126204   6.100   0.779   1.489
 8435SOL    HW226205   6.021   0.772   1.633
 8436SOL     OW26206   3.384   0.123   4.110
 8436SOL    HW126207   3.380   0.223   4.119
 8436SOL    HW226208   3.345   0.096   4.022
 8437SOL     OW26209   2.517   0.029   3.906
 8437SOL    HW126210   2.581   0.058   3.978
 8437SOL    HW226211   2.435   0.086   3.910
 8438SOL     OW26212   2.599   4.982   2.340
 8438SOL    HW126213   2.626   4.887   2.353
 8438SOL    HW226214   2.630   5.014   2.250
 8439SOL     OW26215   6.374   4.902   2.271
 8439SOL    HW126216   6.336   4.917   2.362
 8439SOL    HW226217   6.460   4.850   2.278
 8440SOL     OW26218   0.628   2.119   3.626
 8440SOL    HW126219   0.596   2.084   3.714
 8440SOL    HW226220   0.552   2.165   3.579
 8441SOL     OW26221   6.238   0.099   0.534
 8441SOL    HW126222   6.276   0.024   0.480
 8441SOL    HW226223   6.157   0.136   0.489
 8442SOL     OW26224   3.184   1.631   5.585
 8442SOL    HW126225   3.147   1.702   5.524
 8442SOL    HW226226   3.262   1.669   5.635
 8443SOL     OW26227   1.866   5.716   3.736
 8443SOL    HW126228   1.887   5.767   3.652
 8443SOL    HW226229   1.842   5.780   3.809
 8444SOL     OW26230   2.823   6.088   3.876
 8444SOL    HW126231   2.749   6.073   3.941
 8444SOL    HW226232   2.890   6.013   3.884
 8445SOL     OW26233   3.911   6.197   0.542
 8445SOL    HW126234   3.957   6.227   0.626
 8445SOL    HW226235   3.815   6.224   0.546
 8446SOL     OW26236   4.476   5.116   6.742
 8446SOL    HW126237   4.380   5.137   6.723
 8446SOL    HW226238   4.482   5.061   6.826
 8447SOL     OW26239   4.858   2.334   2.252
 8447SOL    HW126240   4.845   2.285   2.338
 8447SOL    HW226241   4.796   2.413   2.249
 8448SOL     OW26242   4.956   6.378   4.233
 8448SOL    HW126243   4.885   6.339   4.174
 8448SOL    HW226244   4.965   6.476   4.213
 8449SOL     OW26245   6.817   2.157   4.141
 8449SOL    HW126246   6.791   2.232   4.079
 8449SOL    HW226247   6.871   2.090   4.090
 8450SOL     OW26248   1.147   6.135   1.347
 8450SOL    HW126249   1.225   6.144   1.285
 8450SOL    HW226250   1.097   6.051   1.325
 8451SOL     OW26251   4.431   2.411   6.787
 8451SOL    HW126252   4.370   2.389   6.864
 8451SOL    HW226253   4.523   2.377   6.807
 8452SOL     OW26254   6.466   1.081   3.139
 8452SOL    HW126255   6.440   1.104   3.233
 8452SOL    HW226256   6.409   1.134   3.076
 8453SOL     OW26257   6.671   4.296   5.896
 8453SOL    HW126258   6.710   4.344   5.975
 8453SOL    HW226259   6.686   4.349   5.813
 8454SOL     OW26260   0.239   6.914   0.752
 8454SOL    HW126261   0.283   6.857   0.821
 8454SOL    HW226262   0.146   6.882   0.736
 8455SOL     OW26263   5.672   2.660   1.617
 8455SOL    HW126264   5.699   2.566   1.636
 8455SOL    HW226265   5.581   2.661   1.577
 8456SOL     OW26266   4.918   6.091   2.984
 8456SOL    HW126267   4.887   6.186   2.975
 8456SOL    HW226268   4.844   6.029   2.959
 8457SOL     OW26269   6.717   6.582   4.456
 8457SOL    HW126270   6.732   6.639   4.375
 8457SOL    HW226271   6.639   6.616   4.507
 8458SOL     OW26272   2.994   1.509   7.007
 8458SOL    HW126273   3.002   1.583   6.940
 8458SOL    HW226274   2.908   1.520   0.035
 8459SOL     OW26275   2.845   6.543   1.985
 8459SOL    HW126276   2.942   6.560   1.971
 8459SOL    HW226277   2.803   6.516   1.898
 8460SOL     OW26278   4.536   3.801   5.300
 8460SOL    HW126279   4.595   3.726   5.269
 8460SOL    HW226280   4.442   3.783   5.273
 8461SOL     OW26281   6.806   4.078   3.873
 8461SOL    HW126282   6.849   4.156   3.918
 8461SOL    HW226283   6.728   4.047   3.927
 8462SOL     OW26284   3.340   2.373   0.162
 8462SOL    HW126285   3.387   2.452   0.122
 8462SOL    HW226286   3.382   2.289   0.129
 8463SOL     OW26287   6.701   7.016   0.726
 8463SOL    HW126288   6.720   7.017   0.628
 8463SOL    HW226289   6.717   6.924   0.762
 8464SOL     OW26290   5.423   3.828   5.639
 8464SOL    HW126291   5.443   3.730   5.636
 8464SOL    HW226292   5.324   3.841   5.650
 8465SOL     OW26293   1.260   2.611   1.082
 8465SOL    HW126294   1.351   2.571   1.092
 8465SOL    HW226295   1.193   2.538   1.067
 8466SOL     OW26296   0.874   6.688   5.156
 8466SOL    HW126297   0.971   6.676   5.178
 8466SOL    HW226298   0.820   6.680   5.240
 8467SOL     OW26299   4.557   0.319   1.277
 8467SOL    HW126300   4.614   0.401   1.275
 8467SOL    HW226301   4.610   0.241   1.243
 8468SOL     OW26302   4.525   2.574   6.582
 8468SOL    HW126303   4.612   2.605   6.620
 8468SOL    HW226304   4.479   2.516   6.649
 8469SOL     OW26305   3.869   1.107   5.850
 8469SOL    HW126306   3.954   1.058   5.830
 8469SOL    HW226307   3.815   1.115   5.767
 8470SOL     OW26308   1.670   4.237   0.033
 8470SOL    HW126309   1.618   4.219   6.973
 8470SOL    HW226310   1.615   4.291   0.097
 8471SOL     OW26311   3.752   0.695   4.361
 8471SOL    HW126312   3.841   0.669   4.401
 8471SOL    HW226313   3.756   0.684   4.262
 8472SOL     OW26314   6.777   0.672   5.449
 8472SOL    HW126315   6.771   0.573   5.465
 8472SOL    HW226316   6.815   0.687   5.357
 8473SOL     OW26317   6.770   5.698   0.694
 8473SOL    HW126318   6.813   5.650   0.618
 8473SOL    HW226319   6.673   5.712   0.674
 8474SOL     OW26320   3.612   3.318   2.677
 8474SOL    HW126321   3.634   3.376   2.599
 8474SOL    HW226322   3.514   3.299   2.677
 8475SOL     OW26323   6.759   2.341   3.949
 8475SOL    HW126324   6.822   2.305   3.880
 8475SOL    HW226325   6.677   2.376   3.903
 8476SOL     OW26326   6.665   2.259   0.815
 8476SOL    HW126327   6.620   2.313   0.886
 8476SOL    HW226328   6.615   2.174   0.801
 8477SOL     OW26329   5.020   6.760   1.623
 8477SOL    HW126330   4.954   6.685   1.627
 8477SOL    HW226331   5.064   6.771   1.713
 8478SOL     OW26332   1.891   0.154   6.246
 8478SOL    HW126333   1.807   0.198   6.278
 8478SOL    HW226334   1.934   0.212   6.176
 8479SOL     OW26335   0.711   3.057   0.648
 8479SOL    HW126336   0.781   3.012   0.593
 8479SOL    HW226337   0.751   3.088   0.734
 8480SOL     OW26338   4.647   1.999   6.843
 8480SOL    HW126339   4.567   1.966   6.894
 8480SOL    HW226340   4.621   2.079   6.789
 8481SOL     OW26341   4.460   2.465   4.952
 8481SOL    HW126342   4.481   2.467   4.854
 8481SOL    HW226343   4.364   2.442   4.965
 8482SOL     OW26344   4.330   5.713   2.029
 8482SOL    HW126345   4.318   5.811   2.044
 8482SOL    HW226346   4.424   5.688   2.051
 8483SOL     OW26347   4.305   6.271   2.108
 8483SOL    HW126348   4.402   6.257   2.087
 8483SOL    HW226349   4.287   6.370   2.116
 8484SOL     OW26350   7.003   6.421   3.214
 8484SOL    HW126351   0.049   6.478   3.259
 8484SOL    HW226352   6.994   6.449   3.118
 8485SOL     OW26353   3.867   2.743   0.237
 8485SOL    HW126354   3.880   2.803   0.158
 8485SOL    HW226355   3.942   2.756   0.301
 8486SOL     OW26356   2.371   1.763   2.491
 8486SOL    HW126357   2.305   1.714   2.435
 8486SOL    HW226358   2.349   1.861   2.491
 8487SOL     OW26359   5.993   1.593   5.776
 8487SOL    HW126360   5.934   1.649   5.834
 8487SOL    HW226361   6.081   1.639   5.764
 8488SOL     OW26362   5.052   5.670   0.621
 8488SOL    HW126363   5.054   5.765   0.655
 8488SOL    HW226364   4.958   5.643   0.605
 8489SOL     OW26365   6.163   1.948   1.541
 8489SOL    HW126366   6.219   1.953   1.459
 8489SOL    HW226367   6.219   1.968   1.621
 8490SOL     OW26368   4.647   6.902   4.107
 8490SOL    HW126369   4.617   6.810   4.082
 8490SOL    HW226370   4.739   6.918   4.071
 8491SOL     OW26371   3.295   5.743   1.196
 8491SOL    HW126372   3.293   5.645   1.177
 8491SOL    HW226373   3.201   5.778   1.201
 8492SOL     OW26374   4.752   3.968   5.218
 8492SOL    HW126375   4.653   3.967   5.230
 8492SOL    HW226376   4.791   3.883   5.252
 8493SOL     OW26377   2.148   2.767   6.418
 8493SOL    HW126378   2.224   2.810   6.466
 8493SOL    HW226379   2.088   2.837   6.379
 8494SOL     OW26380   3.713   5.660   1.316
 8494SOL    HW126381   3.784   5.671   1.385
 8494SOL    HW226382   3.728   5.725   1.242
 8495SOL     OW26383   5.726   4.841   2.636
 8495SOL    HW126384   5.692   4.808   2.548
 8495SOL    HW226385   5.701   4.938   2.647
 8496SOL     OW26386   1.301   2.136   1.758
 8496SOL    HW126387   1.217   2.127   1.703
 8496SOL    HW226388   1.329   2.232   1.760
 8497SOL     OW26389   6.354   0.965   3.409
 8497SOL    HW126390   6.269   1.014   3.387
 8497SOL    HW226391   6.427   1.031   3.425
 8498SOL     OW26392   6.353   6.226   3.256
 8498SOL    HW126393   6.382   6.249   3.349
 8498SOL    HW226394   6.374   6.301   3.194
 8499SOL     OW26395   1.859   4.546   6.671
 8499SOL    HW126396   1.896   4.534   6.579
 8499SOL    HW226397   1.819   4.459   6.702
 8500SOL     OW26398   1.830   5.722   5.585
 8500SOL    HW126399   1.816   5.626   5.558
 8500SOL    HW226400   1.742   5.768   5.590
 8501SOL     OW26401   0.051   2.509   0.190
 8501SOL    HW126402   0.026   2.605   0.183
 8501SOL    HW226403   0.111   2.485   0.113
 8502SOL     OW26404   0.811   3.437   1.159
 8502SOL    HW126405   0.843   3.361   1.102
 8502SOL    HW226406   0.878   3.511   1.157
 8503SOL     OW26407   0.862   6.556   3.944
 8503SOL    HW126408   0.840   6.458   3.946
 8503SOL    HW226409   0.787   6.608   3.985
 8504SOL     OW26410   2.433   4.572   2.380
 8504SOL    HW126411   2.505   4.612   2.322
 8504SOL    HW226412   2.410   4.636   2.453
 8505SOL     OW26413   5.666   3.512   3.647
 8505SOL    HW126414   5.661   3.520   3.547
 8505SOL    HW226415   5.621   3.428   3.676
 8506SOL     OW26416   0.400   0.687   6.463
 8506SOL    HW126417   0.417   0.773   6.414
 8506SOL    HW226418   0.407   0.703   6.561
 8507SOL     OW26419   3.640   0.661   5.217
 8507SOL    HW126420   3.565   0.595   5.208
 8507SOL    HW226421   3.697   0.657   5.135
 8508SOL     OW26422   5.479   1.674   4.720
 8508SOL    HW126423   5.472   1.652   4.623
 8508SOL    HW226424   5.555   1.738   4.733
 8509SOL     OW26425   4.045   1.398   4.534
 8509SOL    HW126426   4.104   1.478   4.537
 8509SOL    HW226427   4.047   1.358   4.442
 8510SOL     OW26428   6.029   4.310   2.767
 8510SOL    HW126429   5.938   4.352   2.771
 8510SOL    HW226430   6.047   4.261   2.852
 8511SOL     OW26431   6.073   3.745   2.410
 8511SOL    HW126432   6.108   3.664   2.457
 8511SOL    HW226433   6.150   3.800   2.377
 8512SOL     OW26434   2.866   2.083   2.042
 8512SOL    HW126435   2.854   2.175   2.078
 8512SOL    HW226436   2.963   2.058   2.047
 8513SOL     OW26437   5.934   5.325   1.005
 8513SOL    HW126438   5.925   5.259   1.080
 8513SOL    HW226439   6.029   5.328   0.974
 8514SOL     OW26440   2.661   2.326   3.952
 8514SOL    HW126441   2.656   2.366   4.044
 8514SOL    HW226442   2.595   2.251   3.945
 8515SOL     OW26443   4.773   2.220   0.820
 8515SOL    HW126444   4.680   2.234   0.856
 8515SOL    HW226445   4.768   2.209   0.721
 8516SOL     OW26446   6.042   2.162   2.051
 8516SOL    HW126447   6.000   2.199   2.133
 8516SOL    HW226448   5.972   2.149   1.981
 8517SOL     OW26449   1.218   2.840   6.089
 8517SOL    HW126450   1.144   2.784   6.053
 8517SOL    HW226451   1.184   2.933   6.106
 8518SOL     OW26452   4.359   4.553   0.572
 8518SOL    HW126453   4.310   4.479   0.617
 8518SOL    HW226454   4.428   4.590   0.634
 8519SOL     OW26455   1.457   4.515   1.674
 8519SOL    HW126456   1.556   4.502   1.674
 8519SOL    HW226457   1.416   4.456   1.604
 8520SOL     OW26458   3.189   2.585   0.573
 8520SOL    HW126459   3.092   2.610   0.568
 8520SOL    HW226460   3.224   2.571   0.480
 8521SOL     OW26461   1.794   5.439   6.544
 8521SOL    HW126462   1.762   5.359   6.494
 8521SOL    HW226463   1.852   5.410   6.620
 8522SOL     OW26464   1.293   6.366   1.423
 8522SOL    HW126465   1.265   6.424   1.346
 8522SOL    HW226466   1.237   6.283   1.424
 8523SOL     OW26467   3.011   7.005   6.165
 8523SOL    HW126468   3.101   6.977   6.198
 8523SOL    HW226469   3.000   0.081   6.179
 8524SOL     OW26470   0.692   2.521   4.814
 8524SOL    HW126471   0.625   2.505   4.886
 8524SOL    HW226472   0.700   2.439   4.757
 8525SOL     OW26473   6.372   3.704   3.177
 8525SOL    HW126474   6.366   3.624   3.236
 8525SOL    HW226475   6.441   3.767   3.212
 8526SOL     OW26476   3.565   5.303   0.127
 8526SOL    HW126477   3.598   5.371   0.191
 8526SOL    HW226478   3.595   5.212   0.156
 8527SOL     OW26479   3.237   0.752   5.965
 8527SOL    HW126480   3.325   0.709   5.984
 8527SOL    HW226481   3.189   0.698   5.895
 8528SOL     OW26482   4.207   2.716   6.232
 8528SOL    HW126483   4.266   2.702   6.311
 8528SOL    HW226484   4.229   2.804   6.190
 8529SOL     OW26485   0.353   0.209   1.386
 8529SOL    HW126486   0.330   0.124   1.433
 8529SOL    HW226487   0.327   0.202   1.290
 8530SOL     OW26488   3.167   3.153   5.522
 8530SOL    HW126489   3.204   3.246   5.512
 8530SOL    HW226490   3.233   3.087   5.489
 8531SOL     OW26491   6.692   4.816   2.295
 8531SOL    HW126492   6.750   4.758   2.238
 8531SOL    HW226493   6.710   4.796   2.391
 8532SOL     OW26494   3.960   5.157   4.762
 8532SOL    HW126495   3.921   5.149   4.853
 8532SOL    HW226496   3.979   5.066   4.725
 8533SOL     OW26497   1.965   0.237   5.693
 8533SOL    HW126498   1.941   0.205   5.601
 8533SOL    HW226499   1.906   0.193   5.760
 8534SOL     OW26500   6.045   3.225   4.080
 8534SOL    HW126501   6.006   3.134   4.066
 8534SOL    HW226502   6.045   3.246   4.178
 8535SOL     OW26503   0.011   1.425   5.081
 8535SOL    HW126504   6.935   1.417   5.093
 8535SOL    HW226505   0.057   1.345   5.119
 8536SOL     OW26506   5.405   1.941   4.842
 8536SOL    HW126507   5.477   1.873   4.857
 8536SOL    HW226508   5.337   1.934   4.915
 8537SOL     OW26509   5.534   1.787   2.454
 8537SOL    HW126510   5.574   1.858   2.395
 8537SOL    HW226511   5.464   1.738   2.403
 8538SOL     OW26512   0.675   1.633   6.406
 8538SOL    HW126513   0.702   1.729   6.410
 8538SOL    HW226514   0.696   1.589   6.493
 8539SOL     OW26515   6.001   1.146   2.093
 8539SOL    HW126516   5.951   1.060   2.105
 8539SOL    HW226517   6.096   1.134   2.123
 8540SOL     OW26518   4.727   0.988   0.425
 8540SOL    HW126519   4.630   0.965   0.435
 8540SOL    HW226520   4.736   1.083   0.395
 8541SOL     OW26521   2.892   2.295   4.281
 8541SOL    HW126522   2.819   2.359   4.254
 8541SOL    HW226523   2.878   2.268   4.376
 8542SOL     OW26524   2.800   4.631   6.825
 8542SOL    HW126525   2.794   4.533   6.809
 8542SOL    HW226526   2.730   4.678   6.772
 8543SOL     OW26527   3.538   1.325   0.007
 8543SOL    HW126528   3.472   1.392   6.996
 8543SOL    HW226529   3.493   1.237   0.023
 8544SOL     OW26530   5.222   2.807   4.989
 8544SOL    HW126531   5.199   2.843   5.079
 8544SOL    HW226532   5.156   2.737   4.962
 8545SOL     OW26533   4.527   0.211   4.438
 8545SOL    HW126534   4.459   0.166   4.380
 8545SOL    HW226535   4.483   0.248   4.519
 8546SOL     OW26536   0.678   0.479   2.767
 8546SOL    HW126537   0.653   0.416   2.694
 8546SOL    HW226538   0.608   0.550   2.775
 8547SOL     OW26539   1.001   6.717   6.727
 8547SOL    HW126540   1.067   6.783   6.763
 8547SOL    HW226541   0.950   6.759   6.651
 8548SOL     OW26542   6.833   2.964   5.634
 8548SOL    HW126543   6.924   2.991   5.663
 8548SOL    HW226544   6.768   2.981   5.708
 8549SOL     OW26545   1.032   3.044   5.063
 8549SOL    HW126546   0.954   2.990   5.031
 8549SOL    HW226547   1.082   3.079   4.984
 8550SOL     OW26548   1.139   5.290   0.248
 8550SOL    HW126549   1.220   5.239   0.219
 8550SOL    HW226550   1.061   5.265   0.190
 8551SOL     OW26551   2.372   3.200   6.857
 8551SOL    HW126552   2.411   3.146   6.783
 8551SOL    HW226553   2.406   3.166   6.945
 8552SOL     OW26554   1.811   0.122   2.947
 8552SOL    HW126555   1.823   0.180   2.866
 8552SOL    HW226556   1.845   0.171   3.028
 8553SOL     OW26557   4.487   4.980   7.014
 8553SOL    HW126558   4.545   4.899   7.003
 8553SOL    HW226559   4.400   4.953   0.033
 8554SOL     OW26560   0.614   4.629   0.713
 8554SOL    HW126561   0.535   4.681   0.680
 8554SOL    HW226562   0.665   4.594   0.635
 8555SOL     OW26563   2.950   0.936   3.563
 8555SOL    HW126564   2.871   0.972   3.513
 8555SOL    HW226565   2.930   0.843   3.594
 8556SOL     OW26566   1.918   6.096   5.143
 8556SOL    HW126567   1.904   6.100   5.242
 8556SOL    HW226568   1.875   6.013   5.106
 8557SOL     OW26569   6.682   6.798   2.273
 8557SOL    HW126570   6.649   6.866   2.339
 8557SOL    HW226571   6.729   6.725   2.322
 8558SOL     OW26572   2.541   4.643   3.224
 8558SOL    HW126573   2.491   4.729   3.217
 8558SOL    HW226574   2.624   4.657   3.279
 8559SOL     OW26575   1.810   0.421   2.433
 8559SOL    HW126576   1.840   0.335   2.390
 8559SOL    HW226577   1.710   0.422   2.438
 8560SOL     OW26578   0.746   6.307   1.634
 8560SOL    HW126579   0.788   6.219   1.612
 8560SOL    HW226580   0.692   6.299   1.718
 8561SOL     OW26581   3.302   0.642   2.784
 8561SOL    HW126582   3.217   0.645   2.730
 8561SOL    HW226583   3.363   0.573   2.745
 8562SOL     OW26584   4.125   6.461   5.997
 8562SOL    HW126585   4.102   6.500   6.086
 8562SOL    HW226586   4.154   6.366   6.008
 8563SOL     OW26587   1.339   4.708   1.046
 8563SOL    HW126588   1.250   4.690   1.088
 8563SOL    HW226589   1.327   4.766   0.965
 8564SOL     OW26590   3.040   0.414   5.052
 8564SOL    HW126591   2.986   0.330   5.042
 8564SOL    HW226592   3.005   0.483   4.988
 8565SOL     OW26593   3.147   5.399   1.128
 8565SOL    HW126594   3.111   5.317   1.174
 8565SOL    HW226595   3.084   5.426   1.055
 8566SOL     OW26596   0.604   6.832   1.552
 8566SOL    HW126597   0.671   6.810   1.481
 8566SOL    HW226598   0.651   6.859   1.636
 8567SOL     OW26599   0.505   2.034   3.241
 8567SOL    HW126600   0.596   2.070   3.263
 8567SOL    HW226601   0.435   2.091   3.284
 8568SOL     OW26602   5.946   1.220   6.614
 8568SOL    HW126603   5.912   1.184   6.528
 8568SOL    HW226604   5.896   1.180   6.690
 8569SOL     OW26605   4.554   1.547   6.083
 8569SOL    HW126606   4.568   1.536   5.984
 8569SOL    HW226607   4.469   1.502   6.109
 8570SOL     OW26608   1.748   1.863   4.810
 8570SOL    HW126609   1.812   1.881   4.735
 8570SOL    HW226610   1.665   1.822   4.773
 8571SOL     OW26611   0.215   5.889   5.323
 8571SOL    HW126612   0.259   5.899   5.413
 8571SOL    HW226613   0.194   5.793   5.307
 8572SOL     OW26614   2.510   4.924   6.364
 8572SOL    HW126615   2.415   4.923   6.332
 8572SOL    HW226616   2.560   4.848   6.322
 8573SOL     OW26617   3.720   6.356   6.190
 8573SOL    HW126618   3.816   6.384   6.192
 8573SOL    HW226619   3.697   6.320   6.100
 8574SOL     OW26620   7.002   6.719   6.373
 8574SOL    HW126621   0.069   6.737   6.414
 8574SOL    HW226622   7.015   6.672   6.285
 8575SOL     OW26623   2.017   2.783   3.611
 8575SOL    HW126624   1.992   2.686   3.613
 8575SOL    HW226625   2.117   2.791   3.603
 8576SOL     OW26626   1.449   4.212   5.789
 8576SOL    HW126627   1.479   4.304   5.763
 8576SOL    HW226628   1.365   4.189   5.740
 8577SOL     OW26629   1.510   6.620   4.321
 8577SOL    HW126630   1.502   6.573   4.233
 8577SOL    HW226631   1.580   6.691   4.315
 8578SOL     OW26632   5.880   6.788   4.613
 8578SOL    HW126633   5.789   6.756   4.588
 8578SOL    HW226634   5.883   6.808   4.711
 8579SOL     OW26635   2.475   0.744   2.082
 8579SOL    HW126636   2.539   0.704   2.147
 8579SOL    HW226637   2.479   0.693   1.995
 8580SOL     OW26638   2.401   5.825   1.052
 8580SOL    HW126639   2.323   5.874   1.092
 8580SOL    HW226640   2.471   5.891   1.024
 8581SOL     OW26641   3.530   3.613   1.188
 8581SOL    HW126642   3.461   3.589   1.256
 8581SOL    HW226643   3.489   3.670   1.117
 8582SOL     OW26644   4.777   4.105   4.630
 8582SOL    HW126645   4.740   4.196   4.609
 8582SOL    HW226646   4.740   4.073   4.717
 8583SOL     OW26647   4.656   0.900   4.252
 8583SOL    HW126648   4.595   0.970   4.289
 8583SOL    HW226649   4.748   0.913   4.288
 8584SOL     OW26650   0.476   5.437   6.698
 8584SOL    HW126651   0.378   5.421   6.711
 8584SOL    HW226652   0.523   5.349   6.689
 8585SOL     OW26653   6.900   6.952   6.375
 8585SOL    HW126654   6.928   6.856   6.376
 8585SOL    HW226655   6.873   6.977   6.282
 8586SOL     OW26656   3.104   6.534   1.930
 8586SOL    HW126657   3.156   6.459   1.889
 8586SOL    HW226658   3.166   6.592   1.984
 8587SOL     OW26659   1.561   0.165   4.127
 8587SOL    HW126660   1.549   0.247   4.072
 8587SOL    HW226661   1.488   0.159   4.195
 8588SOL     OW26662   3.789   0.648   0.705
 8588SOL    HW126663   3.882   0.612   0.719
 8588SOL    HW226664   3.795   0.736   0.658
 8589SOL     OW26665   5.348   2.436   5.754
 8589SOL    HW126666   5.334   2.401   5.662
 8589SOL    HW226667   5.446   2.445   5.773
 8590SOL     OW26668   6.914   6.470   2.935
 8590SOL    HW126669   6.850   6.401   2.902
 8590SOL    HW226670   6.870   6.560   2.933
 8591SOL     OW26671   0.535   4.193   0.289
 8591SOL    HW126672   0.535   4.148   0.199
 8591SOL    HW226673   0.478   4.141   0.352
 8592SOL     OW26674   6.048   2.423   6.914
 8592SOL    HW126675   5.971   2.437   6.852
 8592SOL    HW226676   6.122   2.486   6.890
 8593SOL     OW26677   2.556   1.565   0.546
 8593SOL    HW126678   2.504   1.506   0.484
 8593SOL    HW226679   2.619   1.510   0.600
 8594SOL     OW26680   4.481   2.388   5.238
 8594SOL    HW126681   4.555   2.436   5.285
 8594SOL    HW226682   4.477   2.417   5.143
 8595SOL     OW26683   0.442   1.758   3.158
 8595SOL    HW126684   0.469   1.845   3.200
 8595SOL    HW226685   0.400   1.699   3.228
 8596SOL     OW26686   1.121   4.825   3.060
 8596SOL    HW126687   1.121   4.922   3.035
 8596SOL    HW226688   1.057   4.775   3.002
 8597SOL     OW26689   4.518   1.941   0.943
 8597SOL    HW126690   4.570   1.915   0.862
 8597SOL    HW226691   4.540   1.879   1.019
 8598SOL     OW26692   6.030   0.167   0.391
 8598SOL    HW126693   5.944   0.143   0.435
 8598SOL    HW226694   6.029   0.263   0.364
 8599SOL     OW26695   1.426   2.448   4.886
 8599SOL    HW126696   1.422   2.531   4.942
 8599SOL    HW226697   1.512   2.400   4.905
 8600SOL     OW26698   5.384   4.527   5.643
 8600SOL    HW126699   5.395   4.541   5.545
 8600SOL    HW226700   5.363   4.614   5.687
 8601SOL     OW26701   1.208   1.656   4.574
 8601SOL    HW126702   1.130   1.606   4.611
 8601SOL    HW226703   1.245   1.607   4.495
 8602SOL     OW26704   3.010   6.254   2.145
 8602SOL    HW126705   2.979   6.163   2.118
 8602SOL    HW226706   2.941   6.298   2.203
 8603SOL     OW26707   4.954   6.007   1.033
 8603SOL    HW126708   4.933   6.028   1.129
 8603SOL    HW226709   4.869   5.983   0.985
 8604SOL     OW26710   0.430   2.855   5.029
 8604SOL    HW126711   0.422   2.889   5.122
 8604SOL    HW226712   0.520   2.813   5.016
 8605SOL     OW26713   2.548   5.483   4.119
 8605SOL    HW126714   2.614   5.472   4.045
 8605SOL    HW226715   2.505   5.395   4.138
 8606SOL     OW26716   1.633   3.237   6.467
 8606SOL    HW126717   1.715   3.204   6.512
 8606SOL    HW226718   1.553   3.218   6.525
 8607SOL     OW26719   3.342   5.245   6.690
 8607SOL    HW126720   3.417   5.191   6.651
 8607SOL    HW226721   3.346   5.338   6.652
 8608SOL     OW26722   3.170   4.886   2.696
 8608SOL    HW126723   3.148   4.868   2.791
 8608SOL    HW226724   3.108   4.956   2.660
 8609SOL     OW26725   5.336   0.608   2.837
 8609SOL    HW126726   5.252   0.566   2.870
 8609SOL    HW226727   5.387   0.541   2.783
 8610SOL     OW26728   0.706   1.777   2.962
 8610SOL    HW126729   0.644   1.814   3.031
 8610SOL    HW226730   0.661   1.777   2.872
 8611SOL     OW26731   3.238   2.073   4.849
 8611SOL    HW126732   3.187   2.074   4.763
 8611SOL    HW226733   3.209   2.150   4.907
 8612SOL     OW26734   2.572   3.352   0.328
 8612SOL    HW126735   2.578   3.252   0.329
 8612SOL    HW226736   2.651   3.391   0.376
 8613SOL     OW26737   2.788   1.408   1.334
 8613SOL    HW126738   2.811   1.378   1.241
 8613SOL    HW226739   2.761   1.504   1.332
 8614SOL     OW26740   1.187   2.887   3.371
 8614SOL    HW126741   1.264   2.841   3.327
 8614SOL    HW226742   1.216   2.978   3.400
 8615SOL     OW26743   3.954   1.692   5.135
 8615SOL    HW126744   3.927   1.775   5.086
 8615SOL    HW226745   3.915   1.612   5.089
 8616SOL     OW26746   3.138   4.550   1.691
 8616SOL    HW126747   3.047   4.540   1.730
 8616SOL    HW226748   3.179   4.635   1.724
 8617SOL     OW26749   6.489   1.556   5.682
 8617SOL    HW126750   6.557   1.590   5.747
 8617SOL    HW226751   6.439   1.633   5.642
 8618SOL     OW26752   5.952   5.021   0.892
 8618SOL    HW126753   5.952   5.032   0.991
 8618SOL    HW226754   5.885   4.952   0.865
 8619SOL     OW26755   3.722   4.855   2.277
 8619SOL    HW126756   3.698   4.809   2.192
 8619SOL    HW226757   3.647   4.847   2.342
 8620SOL     OW26758   1.141   0.359   3.273
 8620SOL    HW126759   1.214   0.313   3.324
 8620SOL    HW226760   1.063   0.297   3.264
 8621SOL     OW26761   5.756   1.601   3.010
 8621SOL    HW126762   5.676   1.661   3.011
 8621SOL    HW226763   5.833   1.649   2.967
 8622SOL     OW26764   5.628   3.389   1.065
 8622SOL    HW126765   5.605   3.469   1.120
 8622SOL    HW226766   5.614   3.306   1.119
 8623SOL     OW26767   0.412   3.671   4.574
 8623SOL    HW126768   0.406   3.675   4.475
 8623SOL    HW226769   0.479   3.601   4.600
 8624SOL     OW26770   1.582   4.053   4.774
 8624SOL    HW126771   1.666   4.000   4.788
 8624SOL    HW226772   1.536   4.066   4.862
 8625SOL     OW26773   4.319   0.630   6.358
 8625SOL    HW126774   4.380   0.654   6.282
 8625SOL    HW226775   4.225   0.657   6.334
 8626SOL     OW26776   3.024   2.983   6.366
 8626SOL    HW126777   3.077   2.983   6.451
 8626SOL    HW226778   3.026   3.075   6.325
 8627SOL     OW26779   0.604   1.530   3.312
 8627SOL    HW126780   0.698   1.526   3.345
 8627SOL    HW226781   0.543   1.556   3.387
 8628SOL     OW26782   6.495   6.279   0.744
 8628SOL    HW126783   6.548   6.344   0.798
 8628SOL    HW226784   6.485   6.313   0.651
 8629SOL     OW26785   2.006   5.671   4.960
 8629SOL    HW126786   1.974   5.578   4.981
 8629SOL    HW226787   2.065   5.668   4.879
 8630SOL     OW26788   5.344   4.500   4.060
 8630SOL    HW126789   5.246   4.481   4.067
 8630SOL    HW226790   5.378   4.533   4.148
 8631SOL     OW26791   0.700   5.338   6.222
 8631SOL    HW126792   0.630   5.305   6.286
 8631SOL    HW226793   0.708   5.275   6.145
 8632SOL     OW26794   4.049   4.850   5.082
 8632SOL    HW126795   4.005   4.936   5.056
 8632SOL    HW226796   3.987   4.798   5.141
 8633SOL     OW26797   5.675   2.189   5.601
 8633SOL    HW126798   5.626   2.250   5.664
 8633SOL    HW226799   5.749   2.238   5.557
 8634SOL     OW26800   4.895   3.447   0.270
 8634SOL    HW126801   4.813   3.506   0.270
 8634SOL    HW226802   4.873   3.360   0.313
 8635SOL     OW26803   5.366   3.244   6.369
 8635SOL    HW126804   5.407   3.241   6.461
 8635SOL    HW226805   5.350   3.151   6.337
 8636SOL     OW26806   5.817   6.089   0.770
 8636SOL    HW126807   5.786   6.183   0.786
 8636SOL    HW226808   5.906   6.090   0.725
 8637SOL     OW26809   2.692   0.797   6.767
 8637SOL    HW126810   2.618   0.810   6.833
 8637SOL    HW226811   2.722   0.887   6.733
 8638SOL     OW26812   3.383   2.176   5.254
 8638SOL    HW126813   3.410   2.131   5.168
 8638SOL    HW226814   3.289   2.210   5.245
 8639SOL     OW26815   5.250   2.472   0.298
 8639SOL    HW126816   5.213   2.544   0.357
 8639SOL    HW226817   5.254   2.386   0.348
 8640SOL     OW26818   4.184   4.108   6.656
 8640SOL    HW126819   4.145   4.132   6.745
 8640SOL    HW226820   4.150   4.171   6.586
 8641SOL     OW26821   4.736   4.682   3.765
 8641SOL    HW126822   4.744   4.774   3.803
 8641SOL    HW226823   4.644   4.647   3.783
 8642SOL     OW26824   1.154   6.150   3.465
 8642SOL    HW126825   1.237   6.193   3.502
 8642SOL    HW226826   1.180   6.072   3.407
 8643SOL     OW26827   3.031   0.662   6.630
 8643SOL    HW126828   2.941   0.625   6.654
 8643SOL    HW226829   3.102   0.596   6.653
 8644SOL     OW26830   5.074   2.304   5.222
 8644SOL    HW126831   5.067   2.236   5.295
 8644SOL    HW226832   4.987   2.310   5.174
 8645SOL     OW26833   4.192   4.117   1.216
 8645SOL    HW126834   4.244   4.150   1.296
 8645SOL    HW226835   4.237   4.036   1.179
 8646SOL     OW26836   0.014   2.091   0.298
 8646SOL    HW126837   6.946   2.054   0.276
 8646SOL    HW226838   0.061   2.115   0.213
 8647SOL     OW26839   2.715   5.542   6.536
 8647SOL    HW126840   2.755   5.511   6.622
 8647SOL    HW226841   2.785   5.586   6.480
 8648SOL     OW26842   6.503   0.067   2.845
 8648SOL    HW126843   6.461   0.123   2.916
 8648SOL    HW226844   6.558   7.018   2.888
 8649SOL     OW26845   5.704   5.453   5.938
 8649SOL    HW126846   5.671   5.369   5.895
 8649SOL    HW226847   5.629   5.518   5.945
 8650SOL     OW26848   2.124   4.798   4.258
 8650SOL    HW126849   2.182   4.830   4.333
 8650SOL    HW226850   2.120   4.698   4.260
 8651SOL     OW26851   4.020   0.640   0.270
 8651SOL    HW126852   3.937   0.658   0.217
 8651SOL    HW226853   4.028   0.542   0.288
 8652SOL     OW26854   1.711   5.513   3.685
 8652SOL    HW126855   1.765   5.591   3.715
 8652SOL    HW226856   1.766   5.429   3.692
 8653SOL     OW26857   6.892   0.727   6.280
 8653SOL    HW126858   6.894   0.648   6.341
 8653SOL    HW226859   6.797   0.756   6.266
 8654SOL     OW26860   0.753   5.161   2.127
 8654SOL    HW126861   0.830   5.218   2.155
 8654SOL    HW226862   0.777   5.112   2.043
 8655SOL     OW26863   6.230   1.078   4.567
 8655SOL    HW126864   6.188   1.108   4.481
 8655SOL    HW226865   6.288   0.998   4.549
 8656SOL     OW26866   6.937   0.122   0.969
 8656SOL    HW126867   6.898   0.167   0.889
 8656SOL    HW226868   6.931   0.023   0.958
 8657SOL     OW26869   5.045   5.213   0.027
 8657SOL    HW126870   4.990   5.224   0.110
 8657SOL    HW226871   5.133   5.261   0.040
 8658SOL     OW26872   6.451   6.060   0.403
 8658SOL    HW126873   6.486   6.065   0.496
 8658SOL    HW226874   6.503   5.993   0.350
 8659SOL     OW26875   4.858   1.948   2.291
 8659SOL    HW126876   4.846   1.933   2.193
 8659SOL    HW226877   4.883   1.862   2.335
 8660SOL     OW26878   6.987   3.470   1.919
 8660SOL    HW126879   0.055   3.434   1.942
 8660SOL    HW226880   6.917   3.408   1.952
 8661SOL     OW26881   6.391   4.026   1.197
 8661SOL    HW126882   6.469   3.963   1.190
 8661SOL    HW226883   6.311   3.977   1.231
 8662SOL     OW26884   4.280   5.759   1.042
 8662SOL    HW126885   4.186   5.725   1.047
 8662SOL    HW226886   4.343   5.682   1.035
 8663SOL     OW26887   2.973   5.796   2.411
 8663SOL    HW126888   2.902   5.833   2.351
 8663SOL    HW226889   2.945   5.805   2.506
 8664SOL     OW26890   1.707   6.519   1.759
 8664SOL    HW126891   1.784   6.544   1.701
 8664SOL    HW226892   1.643   6.461   1.707
 8665SOL     OW26893   5.777   5.417   5.094
 8665SOL    HW126894   5.716   5.429   5.016
 8665SOL    HW226895   5.753   5.333   5.143
 8666SOL     OW26896   5.886   1.387   3.742
 8666SOL    HW126897   5.852   1.294   3.758
 8666SOL    HW226898   5.872   1.411   3.646
 8667SOL     OW26899   3.841   2.149   3.803
 8667SOL    HW126900   3.846   2.144   3.703
 8667SOL    HW226901   3.869   2.241   3.832
 8668SOL     OW26902   4.834   3.268   3.481
 8668SOL    HW126903   4.747   3.285   3.527
 8668SOL    HW226904   4.851   3.170   3.477
 8669SOL     OW26905   1.221   6.411   6.429
 8669SOL    HW126906   1.308   6.447   6.397
 8669SOL    HW226907   1.223   6.312   6.429
 8670SOL     OW26908   4.389   5.078   5.875
 8670SOL    HW126909   4.442   5.029   5.944
 8670SOL    HW226910   4.374   5.018   5.797
 8671SOL     OW26911   5.268   1.649   2.871
 8671SOL    HW126912   5.212   1.606   2.800
 8671SOL    HW226913   5.349   1.691   2.829
 8672SOL     OW26914   1.321   5.361   3.950
 8672SOL    HW126915   1.380   5.298   4.001
 8672SOL    HW226916   1.226   5.348   3.979
 8673SOL     OW26917   5.008   2.759   6.962
 8673SOL    HW126918   4.911   2.736   6.954
 8673SOL    HW226919   5.023   2.808   0.025
 8674SOL     OW26920   4.799   6.348   2.984
 8674SOL    HW126921   4.805   6.394   3.072
 8674SOL    HW226922   4.807   6.415   2.911
 8675SOL     OW26923   3.854   2.179   4.987
 8675SOL    HW126924   3.946   2.175   4.949
 8675SOL    HW226925   3.857   2.222   5.077
 8676SOL     OW26926   5.416   6.550   3.281
 8676SOL    HW126927   5.415   6.631   3.222
 8676SOL    HW226928   5.505   6.504   3.270
 8677SOL     OW26929   2.181   5.541   6.140
 8677SOL    HW126930   2.207   5.467   6.201
 8677SOL    HW226931   2.262   5.597   6.119
 8678SOL     OW26932   0.086   0.436   1.974
 8678SOL    HW126933   0.142   0.401   1.899
 8678SOL    HW226934   0.003   0.477   1.937
 8679SOL     OW26935   0.330   2.284   3.271
 8679SOL    HW126936   0.420   2.316   3.240
 8679SOL    HW226937   0.271   2.269   3.192
 8680SOL     OW26938   0.171   3.367   6.885
 8680SOL    HW126939   0.204   3.457   6.856
 8680SOL    HW226940   0.170   3.362   6.985
 8681SOL     OW26941   4.645   4.919   1.238
 8681SOL    HW126942   4.548   4.942   1.253
 8681SOL    HW226943   4.700   5.002   1.246
 8682SOL     OW26944   5.507   6.605   2.622
 8682SOL    HW126945   5.539   6.519   2.582
 8682SOL    HW226946   5.586   6.661   2.648
 8683SOL     OW26947   1.862   2.278   4.252
 8683SOL    HW126948   1.901   2.323   4.172
 8683SOL    HW226949   1.822   2.190   4.225
 8684SOL     OW26950   6.234   2.940   4.872
 8684SOL    HW126951   6.177   2.883   4.931
 8684SOL    HW226952   6.330   2.913   4.883
 8685SOL     OW26953   0.226   2.068   6.590
 8685SOL    HW126954   0.196   1.987   6.640
 8685SOL    HW226955   0.310   2.104   6.631
 8686SOL     OW26956   0.186   1.291   3.025
 8686SOL    HW126957   0.218   1.350   3.099
 8686SOL    HW226958   0.144   1.209   3.063
 8687SOL     OW26959   4.604   5.140   2.004
 8687SOL    HW126960   4.680   5.135   2.069
 8687SOL    HW226961   4.640   5.139   1.911
 8688SOL     OW26962   0.487   5.406   5.761
 8688SOL    HW126963   0.423   5.336   5.730
 8688SOL    HW226964   0.575   5.392   5.716
 8689SOL     OW26965   4.045   3.472   0.978
 8689SOL    HW126966   3.960   3.524   0.990
 8689SOL    HW226967   4.121   3.535   0.964
 8690SOL     OW26968   1.472   4.134   3.877
 8690SOL    HW126969   1.457   4.224   3.917
 8690SOL    HW226970   1.564   4.103   3.899
 8691SOL     OW26971   4.001   1.795   5.959
 8691SOL    HW126972   3.989   1.871   6.023
 8691SOL    HW226973   3.927   1.728   5.972
 8692SOL     OW26974   3.077   1.552   4.798
 8692SOL    HW126975   3.105   1.562   4.703
 8692SOL    HW226976   3.064   1.455   4.819
 8693SOL     OW26977   5.242   0.355   0.577
 8693SOL    HW126978   5.257   0.268   0.530
 8693SOL    HW226979   5.292   0.427   0.529
 8694SOL     OW26980   5.164   0.792   4.737
 8694SOL    HW126981   5.191   0.706   4.781
 8694SOL    HW226982   5.064   0.800   4.738
 8695SOL     OW26983   4.298   2.657   5.985
 8695SOL    HW126984   4.304   2.756   5.980
 8695SOL    HW226985   4.254   2.630   6.071
 8696SOL     OW26986   2.019   5.123   5.238
 8696SOL    HW126987   2.088   5.162   5.298
 8696SOL    HW226988   2.059   5.049   5.184
 8697SOL     OW26989   0.390   3.651   6.069
 8697SOL    HW126990   0.300   3.636   6.028
 8697SOL    HW226991   0.410   3.577   6.133
 8698SOL     OW26992   4.606   5.868   5.045
 8698SOL    HW126993   4.607   5.803   5.121
 8698SOL    HW226994   4.627   5.820   4.960
 8699SOL     OW26995   0.714   2.713   5.047
 8699SOL    HW126996   0.747   2.702   5.141
 8699SOL    HW226997   0.737   2.632   4.994
 8700SOL     OW26998   1.030   0.411   4.405
 8700SOL    HW126999   1.087   0.486   4.438
 8700SOL    HW227000   0.951   0.401   4.465
 8701SOL     OW27001   1.439   1.050   6.984
 8701SOL    HW127002   1.413   0.957   7.010
 8701SOL    HW227003   1.451   1.054   6.885
 8702SOL     OW27004   5.698   4.830   1.562
 8702SOL    HW127005   5.691   4.926   1.535
 8702SOL    HW227006   5.608   4.786   1.554
 8703SOL     OW27007   2.781   5.059   0.366
 8703SOL    HW127008   2.868   5.067   0.414
 8703SOL    HW227009   2.717   5.007   0.423
 8704SOL     OW27010   0.447   4.081   3.475
 8704SOL    HW127011   0.359   4.120   3.504
 8704SOL    HW227012   0.495   4.146   3.417
 8705SOL     OW27013   5.249   0.920   6.584
 8705SOL    HW127014   5.159   0.964   6.594
 8705SOL    HW227015   5.302   0.935   6.667
 8706SOL     OW27016   5.135   2.491   6.869
 8706SOL    HW127017   5.103   2.419   6.807
 8706SOL    HW227018   5.075   2.571   6.860
 8707SOL     OW27019   0.290   1.520   5.935
 8707SOL    HW127020   0.383   1.532   5.900
 8707SOL    HW227021   0.266   1.599   5.992
 8708SOL     OW27022   4.167   1.401   2.763
 8708SOL    HW127023   4.102   1.335   2.801
 8708SOL    HW227024   4.134   1.435   2.675
 8709SOL     OW27025   7.014   6.949   0.340
 8709SOL    HW127026   0.000   6.851   0.321
 8709SOL    HW227027   6.993   6.998   0.256
 8710SOL     OW27028   2.005   3.087   3.768
 8710SOL    HW127029   2.072   3.055   3.835
 8710SOL    HW227030   1.951   3.009   3.736
 8711SOL     OW27031   1.854   6.740   2.823
 8711SOL    HW127032   1.830   6.828   2.863
 8711SOL    HW227033   1.810   6.667   2.875
 8712SOL     OW27034   3.801   1.733   4.905
 8712SOL    HW127035   3.744   1.656   4.876
 8712SOL    HW227036   3.752   1.785   4.975
 8713SOL     OW27037   6.301   3.120   3.148
 8713SOL    HW127038   6.219   3.169   3.177
 8713SOL    HW227039   6.305   3.116   3.048
 8714SOL     OW27040   1.153   6.783   5.493
 8714SOL    HW127041   1.220   6.849   5.458
 8714SOL    HW227042   1.194   6.731   5.568
 8715SOL     OW27043   4.201   0.698   1.141
 8715SOL    HW127044   4.144   0.761   1.089
 8715SOL    HW227045   4.264   0.750   1.199
 8716SOL     OW27046   6.895   0.228   1.214
 8716SOL    HW127047   6.907   0.204   1.117
 8716SOL    HW227048   6.862   0.322   1.221
 8717SOL     OW27049   2.938   3.767   5.009
 8717SOL    HW127050   3.036   3.781   4.996
 8717SOL    HW227051   2.916   3.670   4.994
 8718SOL     OW27052   1.224   3.165   5.579
 8718SOL    HW127053   1.288   3.242   5.572
 8718SOL    HW227054   1.130   3.199   5.578
 8719SOL     OW27055   4.428   0.179   0.034
 8719SOL    HW127056   4.503   0.123   0.068
 8719SOL    HW227057   4.453   0.219   6.968
 8720SOL     OW27058   0.232   5.521   5.978
 8720SOL    HW127059   0.306   5.460   6.006
 8720SOL    HW227060   0.259   5.616   5.993
 8721SOL     OW27061   6.592   2.355   1.742
 8721SOL    HW127062   6.600   2.283   1.673
 8721SOL    HW227063   6.496   2.379   1.755
 8722SOL     OW27064   3.712   1.197   0.778
 8722SOL    HW127065   3.620   1.231   0.760
 8722SOL    HW227066   3.716   1.160   0.871
 8723SOL     OW27067   4.525   6.648   2.049
 8723SOL    HW127068   4.620   6.652   2.080
 8723SOL    HW227069   4.515   6.575   1.980
 8724SOL     OW27070   5.180   0.056   4.672
 8724SOL    HW127071   5.210   0.051   4.577
 8724SOL    HW227072   5.081   0.070   4.675
 8725SOL     OW27073   1.552   5.842   5.597
 8725SOL    HW127074   1.518   5.759   5.641
 8725SOL    HW227075   1.551   5.918   5.662
 8726SOL     OW27076   0.403   1.002   2.998
 8726SOL    HW127077   0.384   1.001   2.900
 8726SOL    HW227078   0.484   1.058   3.015
 8727SOL     OW27079   5.332   0.146   2.374
 8727SOL    HW127080   5.415   0.136   2.319
 8727SOL    HW227081   5.266   0.203   2.325
 8728SOL     OW27082   6.559   0.985   2.478
 8728SOL    HW127083   6.623   1.061   2.470
 8728SOL    HW227084   6.473   1.010   2.433
 8729SOL     OW27085   3.654   4.800   5.736
 8729SOL    HW127086   3.608   4.767   5.654
 8729SOL    HW227087   3.655   4.900   5.736
 8730SOL     OW27088   5.259   4.439   2.458
 8730SOL    HW127089   5.329   4.489   2.509
 8730SOL    HW227090   5.171   4.448   2.503
 8731SOL     OW27091   1.510   2.976   2.916
 8731SOL    HW127092   1.504   3.048   2.847
 8731SOL    HW227093   1.421   2.965   2.961
 8732SOL     OW27094   5.752   4.920   1.874
 8732SOL    HW127095   5.737   4.939   1.777
 8732SOL    HW227096   5.732   4.824   1.892
 8733SOL     OW27097   1.937   5.803   1.508
 8733SOL    HW127098   1.966   5.825   1.601
 8733SOL    HW227099   1.992   5.726   1.473
 8734SOL     OW27100   0.990   3.962   2.439
 8734SOL    HW127101   1.051   3.891   2.473
 8734SOL    HW227102   0.933   3.925   2.366
 8735SOL     OW27103   0.908   2.555   0.007
 8735SOL    HW127104   0.992   2.539   0.059
 8735SOL    HW227105   0.846   2.612   0.061
 8736SOL     OW27106   0.286   5.570   0.634
 8736SOL    HW127107   0.192   5.602   0.623
 8736SOL    HW227108   0.328   5.559   0.543
 8737SOL     OW27109   1.896   6.488   0.149
 8737SOL    HW127110   1.861   6.515   0.239
 8737SOL    HW227111   1.868   6.557   0.081
 8738SOL     OW27112   2.899   5.769   4.093
 8738SOL    HW127113   2.926   5.676   4.066
 8738SOL    HW227114   2.933   5.835   4.025
 8739SOL     OW27115   5.625   5.753   6.635
 8739SOL    HW127116   5.642   5.767   6.733
 8739SOL    HW227117   5.667   5.667   6.607
 8740SOL     OW27118   3.935   1.343   4.787
 8740SOL    HW127119   3.864   1.272   4.785
 8740SOL    HW227120   3.974   1.353   4.695
 8741SOL     OW27121   2.397   1.392   2.498
 8741SOL    HW127122   2.347   1.422   2.417
 8741SOL    HW227123   2.495   1.389   2.478
 8742SOL     OW27124   4.883   6.567   1.910
 8742SOL    HW127125   4.878   6.559   1.811
 8742SOL    HW227126   4.854   6.480   1.952
 8743SOL     OW27127   1.553   0.013   2.135
 8743SOL    HW127128   1.517   0.106   2.130
 8743SOL    HW227129   1.508   6.980   2.065
 8744SOL     OW27130   3.842   2.904   0.015
 8744SOL    HW127131   3.753   2.866   0.041
 8744SOL    HW227132   3.856   2.890   6.940
 8745SOL     OW27133   6.470   1.648   6.018
 8745SOL    HW127134   6.462   1.748   6.021
 8745SOL    HW227135   6.549   1.623   5.962
 8746SOL     OW27136   4.490   5.543   4.284
 8746SOL    HW127137   4.435   5.621   4.253
 8746SOL    HW227138   4.495   5.476   4.210
 8747SOL     OW27139   0.047   2.089   3.365
 8747SOL    HW127140   7.020   2.156   3.310
 8747SOL    HW227141   0.140   2.121   3.380
 8748SOL     OW27142   0.162   1.226   4.393
 8748SOL    HW127143   0.165   1.132   4.427
 8748SOL    HW227144   0.112   1.228   4.306
 8749SOL     OW27145   2.403   0.695   5.118
 8749SOL    HW127146   2.421   0.619   5.055
 8749SOL    HW227147   2.471   0.695   5.191
 8750SOL     OW27148   3.179   4.131   4.918
 8750SOL    HW127149   3.250   4.148   4.987
 8750SOL    HW227150   3.095   4.178   4.945
 8751SOL     OW27151   6.194   1.926   2.152
 8751SOL    HW127152   6.160   2.008   2.106
 8751SOL    HW227153   6.292   1.915   2.131
 8752SOL     OW27154   3.572   3.070   6.135
 8752SOL    HW127155   3.509   3.002   6.097
 8752SOL    HW227156   3.559   3.075   6.234
 8753SOL     OW27157   3.175   1.641   6.151
 8753SOL    HW127158   3.130   1.564   6.105
 8753SOL    HW227159   3.132   1.727   6.123
 8754SOL     OW27160   1.627   3.705   5.654
 8754SOL    HW127161   1.533   3.737   5.642
 8754SOL    HW227162   1.652   3.648   5.577
 8755SOL     OW27163   2.616   1.277   0.915
 8755SOL    HW127164   2.641   1.204   0.851
 8755SOL    HW227165   2.526   1.313   0.890
 8756SOL     OW27166   1.352   3.034   4.283
 8756SOL    HW127167   1.275   2.977   4.258
 8756SOL    HW227168   1.378   3.091   4.205
 8757SOL     OW27169   3.670   5.879   6.411
 8757SOL    HW127170   3.576   5.845   6.406
 8757SOL    HW227171   3.717   5.835   6.487
 8758SOL     OW27172   5.178   6.128   2.979
 8758SOL    HW127173   5.088   6.095   2.952
 8758SOL    HW227174   5.169   6.219   3.019
 8759SOL     OW27175   4.456   3.059   6.519
 8759SOL    HW127176   4.485   3.114   6.440
 8759SOL    HW227177   4.453   2.963   6.493
 8760SOL     OW27178   2.889   0.779   5.498
 8760SOL    HW127179   2.937   0.856   5.458
 8760SOL    HW227180   2.808   0.812   5.548
 8761SOL     OW27181   6.139   2.281   1.636
 8761SOL    HW127182   6.160   2.245   1.545
 8761SOL    HW227183   6.050   2.248   1.666
 8762SOL     OW27184   0.913   4.775   3.435
 8762SOL    HW127185   0.834   4.794   3.494
 8762SOL    HW227186   0.984   4.844   3.452
 8763SOL     OW27187   6.368   6.879   6.277
 8763SOL    HW127188   6.272   6.887   6.250
 8763SOL    HW227189   6.373   6.842   6.370
 8764SOL     OW27190   5.082   0.057   5.504
 8764SOL    HW127191   5.057   0.099   5.592
 8764SOL    HW227192   5.128   0.125   5.447
 8765SOL     OW27193   5.023   0.277   3.762
 8765SOL    HW127194   5.082   0.357   3.773
 8765SOL    HW227195   4.934   0.296   3.802
 8766SOL     OW27196   4.431   4.756   4.679
 8766SOL    HW127197   4.377   4.799   4.751
 8766SOL    HW227198   4.466   4.668   4.711
 8767SOL     OW27199   4.958   5.847   2.777
 8767SOL    HW127200   4.973   5.940   2.743
 8767SOL    HW227201   4.874   5.810   2.737
 8768SOL     OW27202   1.385   2.407   0.362
 8768SOL    HW127203   1.450   2.360   0.302
 8768SOL    HW227204   1.303   2.430   0.311
 8769SOL     OW27205   0.064   0.879   3.308
 8769SOL    HW127206   0.103   0.831   3.387
 8769SOL    HW227207   7.003   0.833   3.280
 8770SOL     OW27208   4.404   4.554   2.068
 8770SOL    HW127209   4.415   4.455   2.067
 8770SOL    HW227210   4.490   4.597   2.040
 8771SOL     OW27211   0.975   1.562   6.499
 8771SOL    HW127212   0.901   1.495   6.493
 8771SOL    HW227213   0.983   1.594   6.594
 8772SOL     OW27214   4.362   0.723   6.757
 8772SOL    HW127215   4.314   0.688   6.838
 8772SOL    HW227216   4.445   0.772   6.786
 8773SOL     OW27217   5.586   2.890   3.700
 8773SOL    HW127218   5.586   2.829   3.621
 8773SOL    HW227219   5.567   2.836   3.783
 8774SOL     OW27220   1.296   1.295   0.049
 8774SOL    HW127221   1.350   1.216   0.081
 8774SOL    HW227222   1.325   1.377   0.098
 8775SOL     OW27223   5.435   0.402   5.582
 8775SOL    HW127224   5.497   0.324   5.587
 8775SOL    HW227225   5.488   0.485   5.564
 8776SOL     OW27226   4.686   3.070   0.560
 8776SOL    HW127227   4.741   3.125   0.497
 8776SOL    HW227228   4.610   3.126   0.595
 8777SOL     OW27229   6.125   4.147   3.655
 8777SOL    HW127230   6.069   4.128   3.575
 8777SOL    HW227231   6.219   4.165   3.627
 8778SOL     OW27232   5.751   3.357   5.832
 8778SOL    HW127233   5.851   3.355   5.833
 8778SOL    HW227234   5.715   3.274   5.876
 8779SOL     OW27235   2.880   5.017   2.564
 8779SOL    HW127236   2.862   5.113   2.584
 8779SOL    HW227237   2.917   5.009   2.471
 8780SOL     OW27238   0.546   6.711   2.792
 8780SOL    HW127239   0.468   6.655   2.821
 8780SOL    HW227240   0.513   6.789   2.739
 8781SOL     OW27241   4.841   0.833   3.963
 8781SOL    HW127242   4.833   0.929   3.937
 8781SOL    HW227243   4.750   0.793   3.971
 8782SOL     OW27244   6.734   7.022   1.793
 8782SOL    HW127245   6.727   6.987   1.887
 8782SOL    HW227246   6.761   6.947   1.733
 8783SOL     OW27247   6.357   4.083   3.870
 8783SOL    HW127248   6.449   4.059   3.839
 8783SOL    HW227249   6.362   4.164   3.930
 8784SOL     OW27250   0.037   5.278   5.626
 8784SOL    HW127251   0.011   5.216   5.700
 8784SOL    HW227252   7.023   5.369   5.644
 8785SOL     OW27253   5.374   4.762   0.467
 8785SOL    HW127254   5.298   4.742   0.405
 8785SOL    HW227255   5.461   4.754   0.418
 8786SOL     OW27256   2.948   0.989   0.386
 8786SOL    HW127257   2.937   1.035   0.473
 8786SOL    HW227258   2.940   0.890   0.399
 8787SOL     OW27259   2.989   1.440   1.769
 8787SOL    HW127260   2.901   1.486   1.779
 8787SOL    HW227261   3.019   1.446   1.674
 8788SOL     OW27262   6.207   6.969   5.534
 8788SOL    HW127263   6.110   6.992   5.545
 8788SOL    HW227264   6.249   0.012   5.471
 8789SOL     OW27265   5.892   6.257   4.426
 8789SOL    HW127266   5.834   6.268   4.345
 8789SOL    HW227267   5.986   6.284   4.404
 8790SOL     OW27268   6.836   0.055   6.149
 8790SOL    HW127269   6.912   0.109   6.184
 8790SOL    HW227270   6.761   0.116   6.123
 8791SOL     OW27271   5.208   6.798   5.226
 8791SOL    HW127272   5.149   6.810   5.146
 8791SOL    HW227273   5.303   6.788   5.197
 8792SOL     OW27274   2.799   5.687   3.549
 8792SOL    HW127275   2.779   5.593   3.520
 8792SOL    HW227276   2.757   5.751   3.484
 8793SOL     OW27277   0.921   4.266   2.358
 8793SOL    HW127278   0.949   4.213   2.438
 8793SOL    HW227279   0.959   4.222   2.276
 8794SOL     OW27280   4.922   0.121   2.594
 8794SOL    HW127281   4.882   0.090   2.681
 8794SOL    HW227282   5.012   0.079   2.582
 8795SOL     OW27283   1.023   4.112   5.887
 8795SOL    HW127284   1.001   4.052   5.810
 8795SOL    HW227285   1.005   4.207   5.861
 8796SOL     OW27286   4.797   1.954   4.275
 8796SOL    HW127287   4.730   1.919   4.210
 8796SOL    HW227288   4.849   1.878   4.314
 8797SOL     OW27289   0.458   0.292   6.999
 8797SOL    HW127290   0.367   0.310   0.012
 8797SOL    HW227291   0.451   0.239   6.914
 8798SOL     OW27292   5.037   5.760   6.374
 8798SOL    HW127293   5.130   5.783   6.349
 8798SOL    HW227294   4.985   5.735   6.293
 8799SOL     OW27295   2.767   4.690   3.449
 8799SOL    HW127296   2.718   4.767   3.490
 8799SOL    HW227297   2.860   4.686   3.488
 8800SOL     OW27298   6.086   4.550   5.977
 8800SOL    HW127299   6.054   4.457   5.992
 8800SOL    HW227300   6.072   4.575   5.882
 8801SOL     OW27301   6.806   0.997   4.136
 8801SOL    HW127302   6.738   1.009   4.208
 8801SOL    HW227303   6.763   1.011   4.047
 8802SOL     OW27304   2.230   0.063   6.551
 8802SOL    HW127305   2.301   0.109   6.605
 8802SOL    HW227306   2.160   0.130   6.524
 8803SOL     OW27307   0.077   6.298   0.061
 8803SOL    HW127308   7.005   6.265   0.057
 8803SOL    HW227309   0.139   6.224   0.037
 8804SOL     OW27310   2.553   6.719   1.825
 8804SOL    HW127311   2.528   6.634   1.872
 8804SOL    HW227312   2.613   6.773   1.884
 8805SOL     OW27313   3.376   6.274   3.592
 8805SOL    HW127314   3.422   6.186   3.580
 8805SOL    HW227315   3.361   6.316   3.503
 8806SOL     OW27316   3.336   4.824   1.836
 8806SOL    HW127317   3.351   4.908   1.784
 8806SOL    HW227318   3.424   4.777   1.850
 8807SOL     OW27319   5.380   0.667   0.239
 8807SOL    HW127320   5.449   0.608   0.198
 8807SOL    HW227321   5.363   0.638   0.333
 8808SOL     OW27322   6.059   2.872   6.802
 8808SOL    HW127323   6.054   2.941   6.874
 8808SOL    HW227324   5.968   2.857   6.764
 8809SOL     OW27325   3.648   5.226   3.282
 8809SOL    HW127326   3.560   5.209   3.237
 8809SOL    HW227327   3.718   5.242   3.212
 8810SOL     OW27328   6.111   0.571   4.849
 8810SOL    HW127329   6.107   0.485   4.900
 8810SOL    HW227330   6.037   0.575   4.783
 8811SOL     OW27331   3.346   1.505   2.390
 8811SOL    HW127332   3.297   1.455   2.462
 8811SOL    HW227333   3.375   1.594   2.424
 8812SOL     OW27334   2.142   0.782   0.445
 8812SOL    HW127335   2.151   0.684   0.426
 8812SOL    HW227336   2.121   0.795   0.542
 8813SOL     OW27337   2.354   5.559   2.834
 8813SOL    HW127338   2.432   5.550   2.896
 8813SOL    HW227339   2.269   5.539   2.883
 8814SOL     OW27340   6.713   0.503   0.688
 8814SOL    HW127341   6.638   0.443   0.717
 8814SOL    HW227342   6.743   0.558   0.766
 8815SOL     OW27343   5.782   6.805   1.054
 8815SOL    HW127344   5.775   6.887   1.112
 8815SOL    HW227345   5.694   6.759   1.051
 8816SOL     OW27346   1.160   6.272   0.593
 8816SOL    HW127347   1.068   6.306   0.610
 8816SOL    HW227348   1.169   6.250   0.496
 8817SOL     OW27349   0.027   4.907   3.689
 8817SOL    HW127350   0.082   4.974   3.640
 8817SOL    HW227351   0.024   4.930   3.787
 8818SOL     OW27352   0.635   4.762   4.520
 8818SOL    HW127353   0.629   4.805   4.610
 8818SOL    HW227354   0.629   4.663   4.530
 8819SOL     OW27355   5.352   4.955   5.073
 8819SOL    HW127356   5.288   4.990   5.005
 8819SOL    HW227357   5.437   4.926   5.028
 8820SOL     OW27358   2.360   0.925   5.334
 8820SOL    HW127359   2.448   0.914   5.380
 8820SOL    HW227360   2.374   0.964   5.243
 8821SOL     OW27361   1.748   6.001   0.753
 8821SOL    HW127362   1.694   6.023   0.834
 8821SOL    HW227363   1.695   6.023   0.671
 8822SOL     OW27364   0.967   0.558   4.085
 8822SOL    HW127365   0.976   0.650   4.121
 8822SOL    HW227366   0.900   0.507   4.139
 8823SOL     OW27367   2.175   0.957   2.917
 8823SOL    HW127368   2.273   0.946   2.935
 8823SOL    HW227369   2.162   0.979   2.820
 8824SOL     OW27370   1.329   1.821   0.117
 8824SOL    HW127371   1.345   1.760   0.039
 8824SOL    HW227372   1.357   1.775   0.202
 8825SOL     OW27373   1.976   0.907   1.804
 8825SOL    HW127374   1.975   0.885   1.902
 8825SOL    HW227375   2.003   1.003   1.792
 8826SOL     OW27376   1.038   3.769   0.527
 8826SOL    HW127377   1.103   3.698   0.500
 8826SOL    HW227378   1.027   3.834   0.452
 8827SOL     OW27379   4.679   0.896   2.632
 8827SOL    HW127380   4.635   0.966   2.688
 8827SOL    HW227381   4.730   0.940   2.558
 8828SOL     OW27382   4.156   5.760   6.191
 8828SOL    HW127383   4.223   5.687   6.199
 8828SOL    HW227384   4.067   5.721   6.166
 8829SOL     OW27385   5.104   2.767   1.214
 8829SOL    HW127386   5.131   2.813   1.299
 8829SOL    HW227387   5.020   2.807   1.179
 8830SOL     OW27388   1.267   1.750   2.745
 8830SOL    HW127389   1.250   1.802   2.829
 8830SOL    HW227390   1.313   1.807   2.678
 8831SOL     OW27391   4.516   2.315   3.847
 8831SOL    HW127392   4.424   2.283   3.823
 8831SOL    HW227393   4.543   2.388   3.784
 8832SOL     OW27394   6.866   6.683   3.167
 8832SOL    HW127395   6.854   6.734   3.252
 8832SOL    HW227396   6.922   6.737   3.103
 8833SOL     OW27397   2.602   5.198   6.124
 8833SOL    HW127398   2.612   5.133   6.199
 8833SOL    HW227399   2.638   5.287   6.153
 8834SOL     OW27400   5.865   3.887   4.901
 8834SOL    HW127401   5.906   3.811   4.850
 8834SOL    HW227402   5.880   3.872   4.999
 8835SOL     OW27403   4.778   0.857   5.851
 8835SOL    HW127404   4.844   0.811   5.792
 8835SOL    HW227405   4.729   0.789   5.906
 8836SOL     OW27406   5.018   1.776   0.419
 8836SOL    HW127407   5.105   1.759   0.372
 8836SOL    HW227408   4.976   1.689   0.443
 8837SOL     OW27409   6.806   6.586   2.428
 8837SOL    HW127410   6.814   6.609   2.525
 8837SOL    HW227411   6.871   6.514   2.405
 8838SOL     OW27412   1.840   5.068   3.321
 8838SOL    HW127413   1.806   5.081   3.228
 8838SOL    HW227414   1.772   5.017   3.375
 8839SOL     OW27415   4.901   5.322   1.707
 8839SOL    HW127416   4.843   5.399   1.682
 8839SOL    HW227417   4.881   5.244   1.646
 8840SOL     OW27418   6.961   1.807   2.999
 8840SOL    HW127419   7.012   1.868   2.938
 8840SOL    HW227420   6.968   1.841   3.093
 8841SOL     OW27421   0.526   0.532   4.426
 8841SOL    HW127422   0.619   0.564   4.413
 8841SOL    HW227423   0.493   0.489   4.343
 8842SOL     OW27424   3.749   2.980   2.879
 8842SOL    HW127425   3.681   3.052   2.893
 8842SOL    HW227426   3.770   2.937   2.967
 8843SOL     OW27427   1.940   3.419   5.638
 8843SOL    HW127428   1.921   3.324   5.611
 8843SOL    HW227429   2.039   3.434   5.640
 8844SOL     OW27430   0.893   1.153   5.628
 8844SOL    HW127431   0.962   1.151   5.556
 8844SOL    HW227432   0.803   1.164   5.588
 8845SOL     OW27433   3.508   3.642   0.714
 8845SOL    HW127434   3.557   3.677   0.634
 8845SOL    HW227435   3.525   3.702   0.792
 8846SOL     OW27436   3.815   4.957   4.403
 8846SOL    HW127437   3.760   4.971   4.321
 8846SOL    HW227438   3.759   4.973   4.484
 8847SOL     OW27439   2.617   1.652   2.694
 8847SOL    HW127440   2.531   1.607   2.719
 8847SOL    HW227441   2.637   1.635   2.598
 8848SOL     OW27442   2.463   1.801   2.081
 8848SOL    HW127443   2.511   1.714   2.089
 8848SOL    HW227444   2.524   1.868   2.038
 8849SOL     OW27445   3.069   6.199   3.368
 8849SOL    HW127446   3.036   6.182   3.461
 8849SOL    HW227447   3.067   6.298   3.351
 8850SOL     OW27448   1.732   1.706   6.537
 8850SOL    HW127449   1.634   1.692   6.552
 8850SOL    HW227450   1.777   1.618   6.524
 8851SOL     OW27451   1.005   5.296   1.952
 8851SOL    HW127452   1.064   5.268   1.876
 8851SOL    HW227453   1.022   5.236   2.030
 8852SOL     OW27454   4.834   3.787   5.538
 8852SOL    HW127455   4.852   3.752   5.446
 8852SOL    HW227456   4.769   3.726   5.585
 8853SOL     OW27457   2.755   1.055   6.970
 8853SOL    HW127458   2.672   1.097   6.933
 8853SOL    HW227459   2.749   1.051   0.047
 8854SOL     OW27460   3.726   1.457   6.086
 8854SOL    HW127461   3.654   1.397   6.051
 8854SOL    HW227462   3.737   1.535   6.025
 8855SOL     OW27463   0.622   6.135   1.097
 8855SOL    HW127464   0.660   6.114   1.187
 8855SOL    HW227465   0.664   6.075   1.029
 8856SOL     OW27466   0.273   6.910   6.221
 8856SOL    HW127467   0.241   6.973   6.150
 8856SOL    HW227468   0.276   6.817   6.185
 8857SOL     OW27469   7.016   1.617   4.395
 8857SOL    HW127470   0.019   1.714   4.395
 8857SOL    HW227471   0.056   1.566   4.455
 8858SOL     OW27472   1.132   2.226   4.924
 8858SOL    HW127473   1.133   2.308   4.867
 8858SOL    HW227474   1.038   2.199   4.943
 8859SOL     OW27475   6.563   0.476   3.864
 8859SOL    HW127476   6.633   0.438   3.804
 8859SOL    HW227477   6.520   0.403   3.916
 8860SOL     OW27478   0.670   3.161   2.770
 8860SOL    HW127479   0.627   3.246   2.799
 8860SOL    HW227480   0.734   3.131   2.841
 8861SOL     OW27481   4.309   1.536   5.930
 8861SOL    HW127482   4.278   1.628   5.907
 8861SOL    HW227483   4.308   1.479   5.848
 8862SOL     OW27484   5.564   1.043   3.959
 8862SOL    HW127485   5.638   0.975   3.957
 8862SOL    HW227486   5.594   1.124   4.009
 8863SOL     OW27487   1.581   4.818   4.535
 8863SOL    HW127488   1.484   4.829   4.511
 8863SOL    HW227489   1.629   4.776   4.458
 8864SOL     OW27490   3.373   4.218   5.824
 8864SOL    HW127491   3.288   4.211   5.877
 8864SOL    HW227492   3.377   4.145   5.756
 8865SOL     OW27493   2.940   1.385   6.253
 8865SOL    HW127494   2.889   1.349   6.175
 8865SOL    HW227495   2.929   1.323   6.331
 8866SOL     OW27496   4.984   6.914   2.960
 8866SOL    HW127497   4.959   6.874   3.048
 8866SOL    HW227498   5.074   6.957   2.968
 8867SOL     OW27499   5.842   3.376   2.045
 8867SOL    HW127500   5.875   3.464   2.081
 8867SOL    HW227501   5.746   3.363   2.072
 8868SOL     OW27502   6.837   2.686   0.960
 8868SOL    HW127503   6.917   2.743   0.978
 8868SOL    HW227504   6.822   2.624   1.036
 8869SOL     OW27505   4.162   6.416   4.769
 8869SOL    HW127506   4.231   6.463   4.713
 8869SOL    HW227507   4.200   6.397   4.860
 8870SOL     OW27508   3.603   0.246   6.981
 8870SOL    HW127509   3.587   0.294   6.894
 8870SOL    HW227510   3.700   0.252   7.004
 8871SOL     OW27511   1.791   0.806   3.992
 8871SOL    HW127512   1.767   0.888   3.940
 8871SOL    HW227513   1.851   0.748   3.937
 8872SOL     OW27514   1.525   4.109   5.066
 8872SOL    HW127515   1.459   4.171   5.110
 8872SOL    HW227516   1.604   4.097   5.125
 8873SOL     OW27517   1.121   6.173   1.683
 8873SOL    HW127518   1.201   6.115   1.672
 8873SOL    HW227519   1.150   6.268   1.691
 8874SOL     OW27520   2.087   5.728   2.483
 8874SOL    HW127521   2.103   5.827   2.480
 8874SOL    HW227522   2.078   5.692   2.390
 8875SOL     OW27523   6.803   2.908   5.345
 8875SOL    HW127524   6.823   2.926   5.441
 8875SOL    HW227525   6.806   2.810   5.328
 8876SOL     OW27526   1.974   6.822   4.686
 8876SOL    HW127527   1.972   6.723   4.671
 8876SOL    HW227528   1.956   6.841   4.782
 8877SOL     OW27529   3.126   1.221   3.990
 8877SOL    HW127530   3.112   1.161   3.912
 8877SOL    HW227531   3.102   1.172   4.074
 8878SOL     OW27532   6.338   4.883   0.025
 8878SOL    HW127533   6.389   4.880   6.962
 8878SOL    HW227534   6.386   4.828   0.094
 8879SOL     OW27535   4.966   4.556   1.955
 8879SOL    HW127536   5.045   4.618   1.957
 8879SOL    HW227537   4.884   4.609   1.935
 8880SOL     OW27538   4.741   5.778   4.832
 8880SOL    HW127539   4.789   5.866   4.825
 8880SOL    HW227540   4.724   5.742   4.740
 8881SOL     OW27541   5.803   6.762   3.888
 8881SOL    HW127542   5.765   6.732   3.801
 8881SOL    HW227543   5.750   6.838   3.924
 8882SOL     OW27544   5.674   1.098   1.198
 8882SOL    HW127545   5.771   1.080   1.182
 8882SOL    HW227546   5.655   1.101   1.296
 8883SOL     OW27547   1.548   6.072   6.346
 8883SOL    HW127548   1.591   6.122   6.271
 8883SOL    HW227549   1.611   6.069   6.424
 8884SOL     OW27550   6.102   3.938   6.242
 8884SOL    HW127551   6.127   3.893   6.156
 8884SOL    HW227552   6.115   4.037   6.233
 8885SOL     OW27553   6.732   3.584   0.677
 8885SOL    HW127554   6.750   3.525   0.756
 8885SOL    HW227555   6.634   3.603   0.672
 8886SOL     OW27556   3.120   6.965   5.095
 8886SOL    HW127557   3.210   6.921   5.103
 8886SOL    HW227558   3.112   0.015   5.163
 8887SOL     OW27559   3.323   1.369   0.951
 8887SOL    HW127560   3.259   1.431   0.905
 8887SOL    HW227561   3.392   1.422   0.999
 8888SOL     OW27562   2.128   1.773   6.184
 8888SOL    HW127563   2.093   1.789   6.092
 8888SOL    HW227564   2.145   1.861   6.230
 8889SOL     OW27565   6.980   0.366   6.033
 8889SOL    HW127566   0.037   0.425   6.017
 8889SOL    HW227567   6.901   0.404   5.986
 8890SOL     OW27568   6.633   5.850   3.812
 8890SOL    HW127569   6.541   5.852   3.850
 8890SOL    HW227570   6.697   5.890   3.878
 8891SOL     OW27571   5.103   3.704   6.811
 8891SOL    HW127572   5.138   3.764   6.739
 8891SOL    HW227573   5.171   3.695   6.883
 8892SOL     OW27574   3.726   5.845   3.414
 8892SOL    HW127575   3.630   5.836   3.439
 8892SOL    HW227576   3.759   5.759   3.374
 8893SOL     OW27577   0.639   5.905   3.289
 8893SOL    HW127578   0.573   5.979   3.296
 8893SOL    HW227579   0.714   5.920   3.354
 8894SOL     OW27580   4.155   2.872   6.715
 8894SOL    HW127581   4.117   2.952   6.669
 8894SOL    HW227582   4.177   2.802   6.647
 8895SOL     OW27583   6.705   2.488   2.499
 8895SOL    HW127584   6.694   2.556   2.427
 8895SOL    HW227585   6.670   2.524   2.585
 8896SOL     OW27586   2.491   3.482   5.360
 8896SOL    HW127587   2.574   3.498   5.412
 8896SOL    HW227588   2.431   3.562   5.368
 8897SOL     OW27589   1.881   2.488   3.248
 8897SOL    HW127590   1.967   2.526   3.282
 8897SOL    HW227591   1.811   2.497   3.318
 8898SOL     OW27592   5.182   2.938   2.802
 8898SOL    HW127593   5.132   2.851   2.808
 8898SOL    HW227594   5.269   2.928   2.850
 8899SOL     OW27595   1.659   5.544   0.982
 8899SOL    HW127596   1.699   5.635   0.976
 8899SOL    HW227597   1.706   5.491   1.053
 8900SOL     OW27598   6.093   2.942   2.786
 8900SOL    HW127599   6.085   2.846   2.759
 8900SOL    HW227600   6.131   2.995   2.710
 8901SOL     OW27601   2.095   0.876   4.932
 8901SOL    HW127602   2.041   0.813   4.876
 8901SOL    HW227603   2.146   0.938   4.872
 8902SOL     OW27604   2.170   0.017   0.424
 8902SOL    HW127605   2.189   0.031   0.522
 8902SOL    HW227606   2.254   7.016   0.377
 8903SOL     OW27607   1.048   1.520   4.979
 8903SOL    HW127608   1.024   1.469   4.897
 8903SOL    HW227609   1.109   1.596   4.956
 8904SOL     OW27610   5.972   6.377   4.079
 8904SOL    HW127611   5.939   6.291   4.117
 8904SOL    HW227612   5.908   6.450   4.102
 8905SOL     OW27613   0.895   4.765   4.093
 8905SOL    HW127614   0.956   4.709   4.037
 8905SOL    HW227615   0.885   4.724   4.184
 8906SOL     OW27616   0.254   6.087   0.013
 8906SOL    HW127617   0.322   6.156   0.039
 8906SOL    HW227618   0.301   6.007   6.999
 8907SOL     OW27619   2.654   2.326   5.042
 8907SOL    HW127620   2.671   2.392   5.115
 8907SOL    HW227621   2.739   2.279   5.019
 8908SOL     OW27622   1.235   4.260   6.615
 8908SOL    HW127623   1.299   4.305   6.554
 8908SOL    HW227624   1.145   4.255   6.571
 8909SOL     OW27625   2.901   0.879   6.317
 8909SOL    HW127626   2.906   0.781   6.299
 8909SOL    HW227627   2.981   0.924   6.276
 8910SOL     OW27628   0.189   2.518   6.065
 8910SOL    HW127629   0.128   2.497   5.988
 8910SOL    HW227630   0.230   2.608   6.050
 8911SOL     OW27631   3.844   2.164   4.580
 8911SOL    HW127632   3.786   2.152   4.499
 8911SOL    HW227633   3.811   2.105   4.654
 8912SOL     OW27634   3.150   3.373   0.086
 8912SOL    HW127635   3.183   3.349   0.178
 8912SOL    HW227636   3.129   3.290   0.035
 8913SOL     OW27637   5.119   5.016   5.653
 8913SOL    HW127638   5.150   4.921   5.646
 8913SOL    HW227639   5.019   5.018   5.661
 8914SOL     OW27640   4.600   0.439   4.844
 8914SOL    HW127641   4.693   0.442   4.806
 8914SOL    HW227642   4.603   0.402   4.936
 8915SOL     OW27643   0.667   2.920   3.910
 8915SOL    HW127644   0.580   2.952   3.949
 8915SOL    HW227645   0.734   2.995   3.914
 8916SOL     OW27646   6.849   3.837   0.662
 8916SOL    HW127647   6.912   3.844   0.739
 8916SOL    HW227648   6.797   3.751   0.670
 8917SOL     OW27649   6.695   3.321   0.403
 8917SOL    HW127650   6.772   3.260   0.420
 8917SOL    HW227651   6.672   3.318   0.305
 8918SOL     OW27652   6.351   4.206   0.988
 8918SOL    HW127653   6.334   4.289   1.040
 8918SOL    HW227654   6.344   4.127   1.048
 8919SOL     OW27655   3.810   4.198   0.687
 8919SOL    HW127656   3.897   4.245   0.677
 8919SOL    HW227657   3.797   4.135   0.610
 8920SOL     OW27658   0.439   0.158   6.775
 8920SOL    HW127659   0.524   0.136   6.727
 8920SOL    HW227660   0.362   0.156   6.711
 8921SOL     OW27661   2.089   2.454   2.725
 8921SOL    HW127662   2.036   2.523   2.677
 8921SOL    HW227663   2.059   2.450   2.821
 8922SOL     OW27664   3.965   5.118   1.766
 8922SOL    HW127665   3.881   5.064   1.762
 8922SOL    HW227666   3.964   5.186   1.694
 8923SOL     OW27667   1.856   3.014   6.525
 8923SOL    HW127668   1.783   2.970   6.576
 8923SOL    HW227669   1.877   2.960   6.444
 8924SOL     OW27670   3.817   5.412   5.486
 8924SOL    HW127671   3.912   5.382   5.491
 8924SOL    HW227672   3.788   5.445   5.575
 8925SOL     OW27673   0.965   1.332   2.374
 8925SOL    HW127674   0.972   1.236   2.348
 8925SOL    HW227675   1.012   1.347   2.461
 8926SOL     OW27676   6.781   3.428   5.989
 8926SOL    HW127677   6.818   3.363   6.055
 8926SOL    HW227678   6.686   3.450   6.012
 8927SOL     OW27679   0.343   1.191   4.777
 8927SOL    HW127680   0.331   1.120   4.708
 8927SOL    HW227681   0.256   1.209   4.823
 8928SOL     OW27682   0.757   0.284   6.054
 8928SOL    HW127683   0.742   0.212   5.987
 8928SOL    HW227684   0.774   0.243   6.144
 8929SOL     OW27685   6.359   2.831   4.489
 8929SOL    HW127686   6.286   2.775   4.528
 8929SOL    HW227687   6.320   2.895   4.423
 8930SOL     OW27688   1.682   3.745   3.770
 8930SOL    HW127689   1.682   3.705   3.862
 8930SOL    HW227690   1.747   3.821   3.767
 8931SOL     OW27691   2.373   3.095   0.572
 8931SOL    HW127692   2.285   3.141   0.558
 8931SOL    HW227693   2.357   2.999   0.595
 8932SOL     OW27694   6.462   0.868   1.128
 8932SOL    HW127695   6.430   0.844   1.036
 8932SOL    HW227696   6.532   0.803   1.157
 8933SOL     OW27697   1.956   3.093   5.767
 8933SOL    HW127698   1.934   3.158   5.840
 8933SOL    HW227699   2.000   3.012   5.806
 8934SOL     OW27700   3.661   5.023   4.626
 8934SOL    HW127701   3.610   5.087   4.569
 8934SOL    HW227702   3.602   4.948   4.654
 8935SOL     OW27703   6.789   4.483   1.238
 8935SOL    HW127704   6.730   4.425   1.294
 8935SOL    HW227705   6.843   4.426   1.176
 8936SOL     OW27706   0.999   3.482   2.573
 8936SOL    HW127707   1.067   3.471   2.645
 8936SOL    HW227708   1.023   3.423   2.496
 8937SOL     OW27709   6.974   6.667   4.115
 8937SOL    HW127710   0.001   6.721   4.047
 8937SOL    HW227711   0.015   6.632   4.183
 8938SOL     OW27712   0.365   0.550   0.484
 8938SOL    HW127713   0.379   0.649   0.478
 8938SOL    HW227714   0.437   0.503   0.433
 8939SOL     OW27715   5.801   4.788   4.307
 8939SOL    HW127716   5.778   4.691   4.308
 8939SOL    HW227717   5.776   4.828   4.396
 8940SOL     OW27718   5.917   1.501   1.895
 8940SOL    HW127719   5.879   1.591   1.917
 8940SOL    HW227720   5.844   1.433   1.902
 8941SOL     OW27721   5.870   2.619   4.495
 8941SOL    HW127722   5.840   2.531   4.533
 8941SOL    HW227723   5.820   2.693   4.539
 8942SOL     OW27724   6.373   5.394   5.796
 8942SOL    HW127725   6.320   5.472   5.760
 8942SOL    HW227726   6.468   5.403   5.767
 8943SOL     OW27727   3.900   5.589   0.440
 8943SOL    HW127728   3.850   5.670   0.412
 8943SOL    HW227729   3.865   5.509   0.391
 8944SOL     OW27730   5.491   5.876   4.541
 8944SOL    HW127731   5.491   5.782   4.577
 8944SOL    HW227732   5.441   5.878   4.455
 8945SOL     OW27733   0.948   1.492   4.024
 8945SOL    HW127734   0.922   1.403   4.061
 8945SOL    HW227735   0.866   1.548   4.011
 8946SOL     OW27736   2.777   1.244   3.814
 8946SOL    HW127737   2.806   1.285   3.727
 8946SOL    HW227738   2.843   1.174   3.841
 8947SOL     OW27739   2.377   3.438   5.844
 8947SOL    HW127740   2.434   3.465   5.922
 8947SOL    HW227741   2.424   3.369   5.790
 8948SOL     OW27742   6.112   5.963   3.908
 8948SOL    HW127743   6.117   6.062   3.896
 8948SOL    HW227744   6.030   5.928   3.862
 8949SOL     OW27745   4.149   6.334   0.885
 8949SOL    HW127746   4.193   6.422   0.903
 8949SOL    HW227747   4.098   6.305   0.966
 8950SOL     OW27748   3.834   4.388   0.093
 8950SOL    HW127749   3.919   4.358   0.136
 8950SOL    HW227750   3.778   4.436   0.161
 8951SOL     OW27751   2.154   0.880   4.592
 8951SOL    HW127752   2.245   0.842   4.608
 8951SOL    HW227753   2.146   0.969   4.638
 8952SOL     OW27754   0.547   5.119   3.180
 8952SOL    HW127755   0.575   5.086   3.270
 8952SOL    HW227756   0.523   5.216   3.187
 8953SOL     OW27757   1.151   4.253   0.622
 8953SOL    HW127758   1.195   4.207   0.544
 8953SOL    HW227759   1.080   4.194   0.660
 8954SOL     OW27760   6.852   6.797   4.315
 8954SOL    HW127761   6.941   6.808   4.360
 8954SOL    HW227762   6.865   6.748   4.228
 8955SOL     OW27763   6.857   5.081   3.259
 8955SOL    HW127764   6.951   5.060   3.233
 8955SOL    HW227765   6.836   5.040   3.348
 8956SOL     OW27766   2.292   1.596   6.326
 8956SOL    HW127767   2.234   1.667   6.288
 8956SOL    HW227768   2.385   1.607   6.291
 8957SOL     OW27769   1.428   4.812   1.565
 8957SOL    HW127770   1.440   4.727   1.617
 8957SOL    HW227771   1.426   4.790   1.467
 8958SOL     OW27772   0.480   2.411   5.030
 8958SOL    HW127773   0.472   2.320   4.989
 8958SOL    HW227774   0.469   2.405   5.129
 8959SOL     OW27775   1.796   4.287   2.071
 8959SOL    HW127776   1.885   4.316   2.037
 8959SOL    HW227777   1.806   4.254   2.165
 8960SOL     OW27778   4.495   6.060   3.422
 8960SOL    HW127779   4.490   6.063   3.522
 8960SOL    HW227780   4.579   6.105   3.391
 8961SOL     OW27781   3.197   1.464   3.637
 8961SOL    HW127782   3.157   1.535   3.694
 8961SOL    HW227783   3.261   1.410   3.691
 8962SOL     OW27784   6.201   5.442   2.242
 8962SOL    HW127785   6.267   5.401   2.179
 8962SOL    HW227786   6.123   5.476   2.190
 8963SOL     OW27787   3.489   0.454   5.054
 8963SOL    HW127788   3.418   0.516   5.022
 8963SOL    HW227789   3.551   0.431   4.979
 8964SOL     OW27790   5.780   3.061   3.408
 8964SOL    HW127791   5.683   3.040   3.391
 8964SOL    HW227792   5.825   2.981   3.449
 8965SOL     OW27793   2.313   5.427   0.369
 8965SOL    HW127794   2.401   5.380   0.357
 8965SOL    HW227795   2.325   5.504   0.432
 8966SOL     OW27796   6.794   3.974   6.819
 8966SOL    HW127797   6.840   4.061   6.801
 8966SOL    HW227798   6.720   3.962   6.754
 8967SOL     OW27799   4.026   0.336   1.670
 8967SOL    HW127800   4.035   0.431   1.700
 8967SOL    HW227801   4.115   0.292   1.669
 8968SOL     OW27802   4.207   5.572   2.875
 8968SOL    HW127803   4.214   5.623   2.961
 8968SOL    HW227804   4.111   5.570   2.846
 8969SOL     OW27805   6.407   0.070   3.339
 8969SOL    HW127806   6.388   0.158   3.381
 8969SOL    HW227807   6.378   7.019   3.400
 8970SOL     OW27808   2.464   3.447   6.774
 8970SOL    HW127809   2.423   3.457   6.683
 8970SOL    HW227810   2.449   3.354   6.808
 8971SOL     OW27811   5.605   5.282   1.777
 8971SOL    HW127812   5.540   5.274   1.853
 8971SOL    HW227813   5.580   5.218   1.705
 8972SOL     OW27814   4.311   3.524   0.082
 8972SOL    HW127815   4.395   3.542   0.031
 8972SOL    HW227816   4.312   3.430   0.116
 8973SOL     OW27817   0.217   3.537   3.402
 8973SOL    HW127818   0.263   3.551   3.314
 8973SOL    HW227819   0.227   3.442   3.430
 8974SOL     OW27820   1.389   3.456   3.812
 8974SOL    HW127821   1.304   3.406   3.830
 8974SOL    HW227822   1.461   3.392   3.785
 8975SOL     OW27823   1.188   6.239   0.197
 8975SOL    HW127824   1.117   6.212   0.262
 8975SOL    HW227825   1.169   6.196   0.108
 8976SOL     OW27826   0.505   5.173   0.441
 8976SOL    HW127827   0.561   5.192   0.522
 8976SOL    HW227828   0.425   5.119   0.468
 8977SOL     OW27829   6.944   3.340   6.764
 8977SOL    HW127830   6.894   3.422   6.735
 8977SOL    HW227831   7.018   3.366   6.825
 8978SOL     OW27832   5.006   6.852   4.305
 8978SOL    HW127833   5.061   6.934   4.290
 8978SOL    HW227834   4.912   6.877   4.325
 8979SOL     OW27835   0.478   4.427   5.247
 8979SOL    HW127836   0.456   4.383   5.334
 8979SOL    HW227837   0.491   4.525   5.263
 8980SOL     OW27838   4.572   2.713   5.053
 8980SOL    HW127839   4.508   2.775   5.098
 8980SOL    HW227840   4.522   2.645   4.999
 8981SOL     OW27841   4.169   1.994   5.067
 8981SOL    HW127842   4.154   2.063   4.995
 8981SOL    HW227843   4.227   1.921   5.032
 8982SOL     OW27844   1.738   1.528   1.454
 8982SOL    HW127845   1.651   1.521   1.406
 8982SOL    HW227846   1.784   1.613   1.427
 8983SOL     OW27847   1.029   5.496   0.457
 8983SOL    HW127848   1.048   5.443   0.374
 8983SOL    HW227849   0.958   5.563   0.437
 8984SOL     OW27850   5.986   6.476   3.640
 8984SOL    HW127851   6.045   6.497   3.562
 8984SOL    HW227852   6.017   6.529   3.720
 8985SOL     OW27853   2.359   1.386   0.789
 8985SOL    HW127854   2.301   1.333   0.851
 8985SOL    HW227855   2.331   1.482   0.792
 8986SOL     OW27856   4.170   4.990   2.093
 8986SOL    HW127857   4.263   4.959   2.078
 8986SOL    HW227858   4.170   5.067   2.157
 8987SOL     OW27859   4.623   6.848   0.517
 8987SOL    HW127860   4.622   6.760   0.468
 8987SOL    HW227861   4.587   6.835   0.609
 8988SOL     OW27862   1.818   4.162   0.324
 8988SOL    HW127863   1.870   4.173   0.240
 8988SOL    HW227864   1.755   4.085   0.315
 8989SOL     OW27865   4.783   4.215   1.915
 8989SOL    HW127866   4.807   4.243   1.822
 8989SOL    HW227867   4.689   4.244   1.935
 8990SOL     OW27868   2.087   6.092   2.172
 8990SOL    HW127869   1.996   6.130   2.162
 8990SOL    HW227870   2.155   6.163   2.158
 8991SOL     OW27871   1.581   1.968   6.538
 8991SOL    HW127872   1.487   1.943   6.563
 8991SOL    HW227873   1.640   1.957   6.618
 8992SOL     OW27874   6.618   2.174   6.462
 8992SOL    HW127875   6.611   2.260   6.413
 8992SOL    HW227876   6.584   2.186   6.556
 8993SOL     OW27877   5.063   2.685   2.774
 8993SOL    HW127878   5.079   2.645   2.684
 8993SOL    HW227879   4.965   2.699   2.788
 8994SOL     OW27880   0.660   4.816   4.781
 8994SOL    HW127881   0.582   4.783   4.833
 8994SOL    HW227882   0.745   4.784   4.823
 8995SOL     OW27883   1.090   2.460   6.533
 8995SOL    HW127884   1.100   2.469   6.434
 8995SOL    HW227885   1.143   2.531   6.579
 8996SOL     OW27886   6.545   5.149   1.600
 8996SOL    HW127887   6.488   5.223   1.636
 8996SOL    HW227888   6.634   5.151   1.644
 8997SOL     OW27889   4.472   1.414   6.658
 8997SOL    HW127890   4.528   1.343   6.615
 8997SOL    HW227891   4.467   1.494   6.597
 8998SOL     OW27892   0.119   3.313   5.248
 8998SOL    HW127893   0.117   3.349   5.155
 8998SOL    HW227894   0.038   3.345   5.297
 8999SOL     OW27895   5.215   6.926   0.401
 8999SOL    HW127896   5.120   6.901   0.382
 8999SOL    HW227897   5.255   6.861   0.466
 9000SOL     OW27898   2.516   4.478   6.884
 9000SOL    HW127899   2.533   4.574   6.905
 9000SOL    HW227900   2.443   4.443   6.942
 9001SOL     OW27901   0.639   5.751   2.916
 9001SOL    HW127902   0.586   5.702   2.985
 9001SOL    HW227903   0.596   5.840   2.898
 9002SOL     OW27904   6.685   4.986   4.824
 9002SOL    HW127905   6.618   5.023   4.760
 9002SOL    HW227906   6.748   5.058   4.852
 9003SOL     OW27907   5.285   2.553   1.132
 9003SOL    HW127908   5.227   2.631   1.158
 9003SOL    HW227909   5.249   2.470   1.174
 9004SOL     OW27910   5.098   6.789   1.886
 9004SOL    HW127911   5.063   6.867   1.938
 9004SOL    HW227912   5.043   6.708   1.906
 9005SOL     OW27913   4.672   1.757   5.097
 9005SOL    HW127914   4.733   1.688   5.058
 9005SOL    HW227915   4.586   1.714   5.123
 9006SOL     OW27916   2.632   6.371   0.617
 9006SOL    HW127917   2.582   6.430   0.554
 9006SOL    HW227918   2.634   6.278   0.581
 9007SOL     OW27919   3.741   6.784   4.153
 9007SOL    HW127920   3.711   6.716   4.220
 9007SOL    HW227921   3.785   6.738   4.076
 9008SOL     OW27922   0.055   5.418   3.004
 9008SOL    HW127923   0.113   5.392   3.082
 9008SOL    HW227924   0.108   5.475   2.941
 9009SOL     OW27925   2.668   0.612   0.383
 9009SOL    HW127926   2.646   0.517   0.359
 9009SOL    HW227927   2.610   0.674   0.329
 9010SOL     OW27928   0.550   6.969   4.607
 9010SOL    HW127929   0.634   6.921   4.631
 9010SOL    HW227930   0.572   0.025   4.549
 9011SOL     OW27931   4.122   2.151   1.576
 9011SOL    HW127932   4.103   2.062   1.617
 9011SOL    HW227933   4.058   2.219   1.613
 9012SOL     OW27934   3.436   4.294   1.101
 9012SOL    HW127935   3.447   4.340   1.189
 9012SOL    HW227936   3.366   4.223   1.109
 9013SOL     OW27937   0.268   5.979   3.903
 9013SOL    HW127938   0.261   5.960   4.000
 9013SOL    HW227939   0.287   6.077   3.889
 9014SOL     OW27940   0.645   0.744   7.021
 9014SOL    HW127941   0.561   0.792   0.026
 9014SOL    HW227942   0.715   0.812   7.000
 9015SOL     OW27943   6.132   1.988   0.955
 9015SOL    HW127944   6.203   1.945   0.898
 9015SOL    HW227945   6.043   1.952   0.928
 9016SOL     OW27946   0.466   6.421   6.464
 9016SOL    HW127947   0.406   6.384   6.393
 9016SOL    HW227948   0.530   6.486   6.423
 9017SOL     OW27949   4.227   2.364   1.770
 9017SOL    HW127950   4.277   2.334   1.851
 9017SOL    HW227951   4.271   2.326   1.688
 9018SOL     OW27952   4.546   1.306   5.847
 9018SOL    HW127953   4.578   1.303   5.753
 9018SOL    HW227954   4.623   1.291   5.909
 9019SOL     OW27955   0.132   0.718   1.514
 9019SOL    HW127956   0.215   0.710   1.569
 9019SOL    HW227957   0.116   0.631   1.466
 9020SOL     OW27958   1.526   3.321   1.544
 9020SOL    HW127959   1.494   3.408   1.507
 9020SOL    HW227960   1.622   3.330   1.571
 9021SOL     OW27961   6.638   0.044   3.805
 9021SOL    HW127962   6.709   0.114   3.800
 9021SOL    HW227963   6.681   6.976   3.810
 9022SOL     OW27964   2.950   1.533   0.865
 9022SOL    HW127965   2.891   1.490   0.797
 9022SOL    HW227966   3.046   1.521   0.839
 9023SOL     OW27967   3.343   3.364   2.297
 9023SOL    HW127968   3.333   3.280   2.244
 9023SOL    HW227969   3.385   3.343   2.385
 9024SOL     OW27970   0.411   5.161   5.058
 9024SOL    HW127971   0.362   5.179   5.143
 9024SOL    HW227972   0.424   5.247   5.008
 9025SOL     OW27973   0.594   5.821   0.419
 9025SOL    HW127974   0.532   5.871   0.479
 9025SOL    HW227975   0.577   5.845   0.324
 9026SOL     OW27976   4.072   3.466   2.054
 9026SOL    HW127977   4.122   3.379   2.058
 9026SOL    HW227978   4.065   3.504   2.146
 9027SOL     OW27979   1.205   1.725   4.017
 9027SOL    HW127980   1.299   1.730   4.049
 9027SOL    HW227981   1.143   1.713   4.095
 9028SOL     OW27982   2.557   3.905   6.512
 9028SOL    HW127983   2.571   3.923   6.415
 9028SOL    HW227984   2.617   3.963   6.567
 9029SOL     OW27985   3.276   5.191   4.838
 9029SOL    HW127986   3.304   5.120   4.773
 9029SOL    HW227987   3.306   5.166   4.930
 9030SOL     OW27988   1.953   1.485   3.542
 9030SOL    HW127989   1.870   1.491   3.486
 9030SOL    HW227990   2.033   1.506   3.485
 9031SOL     OW27991   4.417   6.167   4.528
 9031SOL    HW127992   4.478   6.157   4.606
 9031SOL    HW227993   4.347   6.096   4.531
 9032SOL     OW27994   3.211   3.122   1.091
 9032SOL    HW127995   3.146   3.046   1.104
 9032SOL    HW227996   3.248   3.118   0.998
 9033SOL     OW27997   1.852   5.287   3.730
 9033SOL    HW127998   1.917   5.212   3.741
 9033SOL    HW227999   1.782   5.281   3.801
 9034SOL     OW28000   2.730   0.543   5.066
 9034SOL    HW128001   2.735   0.630   5.017
 9034SOL    HW228002   2.712   0.469   5.001
 9035SOL     OW28003   1.177   4.972   5.442
 9035SOL    HW128004   1.219   4.981   5.352
 9035SOL    HW228005   1.180   5.060   5.490
 9036SOL     OW28006   1.851   1.057   5.381
 9036SOL    HW128007   1.756   1.068   5.351
 9036SOL    HW228008   1.854   1.017   5.472
 9037SOL     OW28009   1.506   3.733   5.906
 9037SOL    HW128010   1.576   3.694   5.965
 9037SOL    HW228011   1.507   3.687   5.817
 9038SOL     OW28012   5.292   6.815   5.954
 9038SOL    HW128013   5.273   6.833   5.858
 9038SOL    HW228014   5.271   6.719   5.974
 9039SOL     OW28015   2.667   4.672   4.354
 9039SOL    HW128016   2.747   4.696   4.410
 9039SOL    HW228017   2.603   4.619   4.409
 9040SOL     OW28018   2.569   2.122   2.670
 9040SOL    HW128019   2.653   2.163   2.635
 9040SOL    HW228020   2.550   2.155   2.762
 9041SOL     OW28021   0.871   2.321   2.106
 9041SOL    HW128022   0.894   2.325   2.203
 9041SOL    HW228023   0.926   2.252   2.061
 9042SOL     OW28024   2.178   0.079   3.515
 9042SOL    HW128025   2.242   0.153   3.493
 9042SOL    HW228026   2.202   0.038   3.603
 9043SOL     OW28027   2.737   1.617   6.778
 9043SOL    HW128028   2.771   1.670   6.856
 9043SOL    HW228029   2.811   1.564   6.738
 9044SOL     OW28030   5.673   1.902   1.791
 9044SOL    HW128031   5.634   1.875   1.703
 9044SOL    HW228032   5.745   1.837   1.817
 9045SOL     OW28033   2.879   1.393   2.628
 9045SOL    HW128034   2.919   1.465   2.573
 9045SOL    HW228035   2.798   1.356   2.582
 9046SOL     OW28036   3.407   4.039   4.797
 9046SOL    HW128037   3.327   4.088   4.831
 9046SOL    HW228038   3.466   4.013   4.874
 9047SOL     OW28039   1.073   2.809   5.708
 9047SOL    HW128040   1.117   2.727   5.746
 9047SOL    HW228041   1.130   2.846   5.635
 9048SOL     OW28042   6.490   2.098   5.877
 9048SOL    HW128043   6.480   2.020   5.939
 9048SOL    HW228044   6.535   2.173   5.925
 9049SOL     OW28045   3.848   0.166   6.141
 9049SOL    HW128046   3.774   0.225   6.110
 9049SOL    HW228047   3.917   0.220   6.189
 9050SOL     OW28048   0.050   4.201   5.900
 9050SOL    HW128049   0.135   4.153   5.920
 9050SOL    HW228050   0.063   4.300   5.912
 9051SOL     OW28051   4.185   6.065   0.780
 9051SOL    HW128052   4.171   6.159   0.811
 9051SOL    HW228053   4.274   6.058   0.735
 9052SOL     OW28054   1.599   2.243   3.348
 9052SOL    HW128055   1.509   2.201   3.340
 9052SOL    HW228056   1.639   2.253   3.257
 9053SOL     OW28057   1.574   1.740   3.073
 9053SOL    HW128058   1.505   1.670   3.056
 9053SOL    HW228059   1.664   1.698   3.077
 9054SOL     OW28060   1.525   0.270   2.509
 9054SOL    HW128061   1.517   0.336   2.434
 9054SOL    HW228062   1.524   0.178   2.471
 9055SOL     OW28063   6.483   3.183   3.425
 9055SOL    HW128064   6.397   3.196   3.375
 9055SOL    HW228065   6.503   3.265   3.479
 9056SOL     OW28066   6.782   0.883   1.392
 9056SOL    HW128067   6.718   0.929   1.454
 9056SOL    HW228068   6.875   0.912   1.413
 9057SOL     OW28069   6.094   4.924   5.684
 9057SOL    HW128070   6.192   4.924   5.662
 9057SOL    HW228071   6.082   4.924   5.783
 9058SOL     OW28072   2.092   1.843   3.795
 9058SOL    HW128073   2.113   1.746   3.780
 9058SOL    HW228074   2.033   1.852   3.875
 9059SOL     OW28075   1.415   1.210   5.087
 9059SOL    HW128076   1.438   1.261   5.004
 9059SOL    HW228077   1.318   1.188   5.087
 9060SOL     OW28078   6.687   3.121   2.353
 9060SOL    HW128079   6.622   3.060   2.398
 9060SOL    HW228080   6.640   3.203   2.321
 9061SOL     OW28081   3.155   5.706   1.997
 9061SOL    HW128082   3.119   5.748   1.914
 9061SOL    HW228083   3.253   5.726   2.004
 9062SOL     OW28084   1.820   5.900   2.168
 9062SOL    HW128085   1.771   5.935   2.088
 9062SOL    HW228086   1.765   5.913   2.250
 9063SOL     OW28087   2.404   0.055   2.895
 9063SOL    HW128088   2.472   0.129   2.897
 9063SOL    HW228089   2.352   0.056   2.980
 9064SOL     OW28090   6.277   2.922   5.959
 9064SOL    HW128091   6.279   3.012   5.915
 9064SOL    HW228092   6.287   2.851   5.889
 9065SOL     OW28093   3.101   6.549   6.416
 9065SOL    HW128094   3.083   6.648   6.417
 9065SOL    HW228095   3.147   6.523   6.500
 9066SOL     OW28096   5.498   6.915   0.546
 9066SOL    HW128097   5.540   6.929   0.456
 9066SOL    HW228098   5.570   6.913   0.616
 9067SOL     OW28099   6.166   0.457   4.198
 9067SOL    HW128100   6.233   0.384   4.214
 9067SOL    HW228101   6.076   0.417   4.182
 9068SOL     OW28102   2.885   0.393   5.576
 9068SOL    HW128103   2.836   0.421   5.658
 9068SOL    HW228104   2.966   0.451   5.563
 9069SOL     OW28105   2.623   2.353   1.966
 9069SOL    HW128106   2.573   2.425   2.014
 9069SOL    HW228107   2.712   2.339   2.010
 9070SOL     OW28108   1.224   3.297   5.885
 9070SOL    HW128109   1.251   3.393   5.892
 9070SOL    HW228110   1.304   3.238   5.898
 9071SOL     OW28111   5.679   0.133   0.805
 9071SOL    HW128112   5.665   0.035   0.791
 9071SOL    HW228113   5.591   0.180   0.806
 9072SOL     OW28114   6.405   1.220   2.359
 9072SOL    HW128115   6.339   1.233   2.432
 9072SOL    HW228116   6.397   1.293   2.292
 9073SOL     OW28117   3.484   6.584   0.444
 9073SOL    HW128118   3.440   6.509   0.493
 9073SOL    HW228119   3.421   6.661   0.436
 9074SOL     OW28120   2.364   1.056   1.721
 9074SOL    HW128121   2.322   1.052   1.631
 9074SOL    HW228122   2.425   0.978   1.734
 9075SOL     OW28123   1.351   1.117   2.398
 9075SOL    HW128124   1.379   1.059   2.474
 9075SOL    HW228125   1.357   1.066   2.313
 9076SOL     OW28126   5.848   1.993   5.121
 9076SOL    HW128127   5.877   2.039   5.204
 9076SOL    HW228128   5.793   1.913   5.144
 9077SOL     OW28129   5.304   6.595   7.013
 9077SOL    HW128130   5.371   6.652   6.967
 9077SOL    HW228131   5.247   6.652   0.049
 9078SOL     OW28132   4.500   3.796   6.345
 9078SOL    HW128133   4.402   3.778   6.333
 9078SOL    HW228134   4.521   3.802   6.442
 9079SOL     OW28135   2.496   6.526   3.882
 9079SOL    HW128136   2.489   6.623   3.906
 9079SOL    HW228137   2.574   6.512   3.820
 9080SOL     OW28138   5.683   2.200   7.010
 9080SOL    HW128139   5.652   2.288   6.973
 9080SOL    HW228140   5.782   2.202   0.001
 9081SOL     OW28141   3.902   6.294   3.039
 9081SOL    HW128142   3.936   6.307   2.946
 9081SOL    HW228143   3.864   6.202   3.049
 9082SOL     OW28144   2.525   6.625   5.214
 9082SOL    HW128145   2.456   6.555   5.195
 9082SOL    HW228146   2.560   6.613   5.307
 9083SOL     OW28147   3.970   4.726   5.961
 9083SOL    HW128148   4.043   4.766   6.016
 9083SOL    HW228149   3.891   4.787   5.960
 9084SOL     OW28150   3.247   3.792   5.616
 9084SOL    HW128151   3.214   3.832   5.530
 9084SOL    HW228152   3.347   3.797   5.618
 9085SOL     OW28153   1.944   4.692   1.217
 9085SOL    HW128154   1.867   4.670   1.276
 9085SOL    HW228155   1.920   4.769   1.158
 9086SOL     OW28156   0.727   4.201   0.460
 9086SOL    HW128157   0.658   4.208   0.388
 9086SOL    HW228158   0.699   4.133   0.527
 9087SOL     OW28159   4.809   2.434   1.864
 9087SOL    HW128160   4.837   2.514   1.810
 9087SOL    HW228161   4.847   2.441   1.956
 9088SOL     OW28162   5.403   6.217   0.742
 9088SOL    HW128163   5.370   6.289   0.681
 9088SOL    HW228164   5.397   6.249   0.837
 9089SOL     OW28165   4.959   6.450   5.320
 9089SOL    HW128166   4.941   6.362   5.362
 9089SOL    HW228167   5.015   6.506   5.381
 9090SOL     OW28168   0.100   0.087   3.123
 9090SOL    HW128169   0.135   0.020   3.058
 9090SOL    HW228170   0.172   0.111   3.188
 9091SOL     OW28171   3.503   3.811   0.926
 9091SOL    HW128172   3.557   3.892   0.904
 9091SOL    HW228173   3.406   3.835   0.925
 9092SOL     OW28174   0.368   1.710   0.969
 9092SOL    HW128175   0.295   1.663   1.018
 9092SOL    HW228176   0.339   1.804   0.948
 9093SOL     OW28177   1.114   6.656   6.318
 9093SOL    HW128178   1.203   6.691   6.288
 9093SOL    HW228179   1.127   6.568   6.364
 9094SOL     OW28180   6.217   5.312   2.799
 9094SOL    HW128181   6.172   5.394   2.835
 9094SOL    HW228182   6.176   5.286   2.712
 9095SOL     OW28183   4.589   4.581   6.063
 9095SOL    HW128184   4.528   4.511   6.026
 9095SOL    HW228185   4.680   4.542   6.076
 9096SOL     OW28186   6.095   3.482   1.709
 9096SOL    HW128187   6.026   3.447   1.645
 9096SOL    HW228188   6.094   3.428   1.793
 9097SOL     OW28189   0.701   1.797   0.207
 9097SOL    HW128190   0.657   1.760   0.126
 9097SOL    HW228191   0.796   1.766   0.210
 9098SOL     OW28192   3.735   1.710   5.951
 9098SOL    HW128193   3.713   1.708   5.854
 9098SOL    HW228194   3.694   1.792   5.992
 9099SOL     OW28195   2.528   2.509   5.719
 9099SOL    HW128196   2.500   2.423   5.677
 9099SOL    HW228197   2.545   2.578   5.648
 9100SOL     OW28198   0.663   3.617   4.200
 9100SOL    HW128199   0.653   3.523   4.169
 9100SOL    HW228200   0.680   3.676   4.121
 9101SOL     OW28201   2.124   2.512   3.075
 9101SOL    HW128202   2.209   2.471   3.108
 9101SOL    HW228203   2.052   2.442   3.073
 9102SOL     OW28204   2.896   0.073   1.847
 9102SOL    HW128205   2.979   0.054   1.900
 9102SOL    HW228206   2.892   0.170   1.825
 9103SOL     OW28207   6.366   3.152   6.445
 9103SOL    HW128208   6.460   3.177   6.424
 9103SOL    HW228209   6.303   3.216   6.401
 9104SOL     OW28210   0.302   6.621   1.859
 9104SOL    HW128211   0.369   6.694   1.862
 9104SOL    HW228212   0.311   6.562   1.940
 9105SOL     OW28213   1.330   1.762   6.600
 9105SOL    HW128214   1.382   1.690   6.555
 9105SOL    HW228215   1.254   1.790   6.542
 9106SOL     OW28216   0.388   2.928   0.858
 9106SOL    HW128217   0.435   2.978   0.785
 9106SOL    HW228218   0.455   2.875   0.909
 9107SOL     OW28219   3.801   0.726   6.086
 9107SOL    HW128220   3.837   0.649   6.033
 9107SOL    HW228221   3.784   0.698   6.180
 9108SOL     OW28222   4.833   4.152   5.795
 9108SOL    HW128223   4.779   4.090   5.737
 9108SOL    HW228224   4.916   4.179   5.746
 9109SOL     OW28225   6.805   2.910   3.637
 9109SOL    HW128226   6.865   2.986   3.613
 9109SOL    HW228227   6.714   2.945   3.659
 9110SOL     OW28228   1.539   5.224   4.355
 9110SOL    HW128229   1.498   5.300   4.406
 9110SOL    HW228230   1.586   5.163   4.419
 9111SOL     OW28231   4.529   2.052   0.541
 9111SOL    HW128232   4.597   2.044   0.467
 9111SOL    HW228233   4.572   2.029   0.628
 9112SOL     OW28234   0.669   5.264   2.778
 9112SOL    HW128235   0.680   5.325   2.856
 9112SOL    HW228236   0.694   5.170   2.805
 9113SOL     OW28237   4.840   1.606   2.814
 9113SOL    HW128238   4.760   1.561   2.854
 9113SOL    HW228239   4.847   1.582   2.717
 9114SOL     OW28240   1.079   4.874   2.175
 9114SOL    HW128241   1.086   4.854   2.077
 9114SOL    HW228242   1.082   4.789   2.227
 9115SOL     OW28243   0.116   5.752   4.020
 9115SOL    HW128244   0.129   5.791   3.929
 9115SOL    HW228245   0.021   5.726   4.032
 9116SOL     OW28246   6.984   1.070   1.840
 9116SOL    HW128247   0.026   1.096   1.912
 9116SOL    HW228248   6.994   0.973   1.819
 9117SOL     OW28249   5.057   2.423   0.103
 9117SOL    HW128250   5.060   2.460   0.010
 9117SOL    HW228251   5.137   2.454   0.154
 9118SOL     OW28252   6.862   3.675   0.125
 9118SOL    HW128253   6.844   3.578   0.116
 9118SOL    HW228254   6.932   3.690   0.196
 9119SOL     OW28255   4.286   0.285   2.501
 9119SOL    HW128256   4.327   0.376   2.496
 9119SOL    HW228257   4.311   0.233   2.419
 9120SOL     OW28258   6.405   1.911   6.062
 9120SOL    HW128259   6.309   1.908   6.035
 9120SOL    HW228260   6.411   1.935   6.159
 9121SOL     OW28261   4.215   0.361   5.357
 9121SOL    HW128262   4.193   0.414   5.439
 9121SOL    HW228263   4.283   0.292   5.379
 9122SOL     OW28264   2.356   4.314   2.324
 9122SOL    HW128265   2.407   4.399   2.337
 9122SOL    HW228266   2.306   4.293   2.408
 9123SOL     OW28267   2.127   0.519   3.612
 9123SOL    HW128268   2.135   0.618   3.598
 9123SOL    HW228269   2.062   0.481   3.546
 9124SOL     OW28270   5.499   5.780   0.374
 9124SOL    HW128271   5.455   5.793   0.463
 9124SOL    HW228272   5.596   5.758   0.387
 9125SOL     OW28273   4.842   4.372   0.179
 9125SOL    HW128274   4.888   4.311   0.114
 9125SOL    HW228275   4.759   4.328   0.213
 9126SOL     OW28276   6.005   3.378   1.233
 9126SOL    HW128277   5.929   3.404   1.293
 9126SOL    HW228278   6.080   3.343   1.288
 9127SOL     OW28279   6.664   1.644   6.490
 9127SOL    HW128280   6.655   1.728   6.436
 9127SOL    HW228281   6.645   1.665   6.586
 9128SOL     OW28282   6.195   2.622   5.245
 9128SOL    HW128283   6.108   2.578   5.263
 9128SOL    HW228284   6.227   2.669   5.328
 9129SOL     OW28285   0.332   2.791   7.008
 9129SOL    HW128286   0.305   2.766   0.078
 9129SOL    HW228287   0.306   2.886   6.991
 9130SOL     OW28288   0.535   2.914   6.256
 9130SOL    HW128289   0.472   2.876   6.322
 9130SOL    HW228290   0.619   2.943   6.302
 9131SOL     OW28291   5.447   2.928   5.884
 9131SOL    HW128292   5.361   2.896   5.844
 9131SOL    HW228293   5.445   2.916   5.983
 9132SOL     OW28294   0.475   5.441   4.485
 9132SOL    HW128295   0.502   5.444   4.388
 9132SOL    HW228296   0.493   5.530   4.527
 9133SOL     OW28297   4.256   6.216   1.578
 9133SOL    HW128298   4.289   6.246   1.667
 9133SOL    HW228299   4.307   6.263   1.506
 9134SOL     OW28300   3.574   5.581   1.552
 9134SOL    HW128301   3.605   5.579   1.457
 9134SOL    HW228302   3.625   5.513   1.604
 9135SOL     OW28303   6.477   0.317   1.539
 9135SOL    HW128304   6.434   0.259   1.470
 9135SOL    HW228305   6.431   0.303   1.627
 9136SOL     OW28306   5.392   6.330   0.049
 9136SOL    HW128307   5.478   6.325   7.020
 9136SOL    HW228308   5.344   6.414   0.026
 9137SOL     OW28309   4.957   1.287   0.506
 9137SOL    HW128310   4.891   1.262   0.436
 9137SOL    HW228311   5.044   1.243   0.487
 9138SOL     OW28312   0.236   5.604   6.642
 9138SOL    HW128313   0.213   5.512   6.672
 9138SOL    HW228314   0.152   5.654   6.618
 9139SOL     OW28315   1.902   2.114   3.433
 9139SOL    HW128316   1.883   2.049   3.360
 9139SOL    HW228317   1.820   2.170   3.450
 9140SOL     OW28318   7.020   3.354   2.362
 9140SOL    HW128319   6.964   3.431   2.331
 9140SOL    HW228320   6.962   3.287   2.409
 9141SOL     OW28321   5.687   6.983   1.457
 9141SOL    HW128322   5.698   7.005   1.554
 9141SOL    HW228323   5.742   6.903   1.435
 9142SOL     OW28324   0.962   3.219   1.062
 9142SOL    HW128325   1.049   3.262   1.087
 9142SOL    HW228326   0.952   3.132   1.111
 9143SOL     OW28327   6.189   2.759   0.228
 9143SOL    HW128328   6.206   2.660   0.228
 9143SOL    HW228329   6.241   2.802   0.302
 9144SOL     OW28330   2.383   4.863   5.011
 9144SOL    HW128331   2.333   4.811   4.941
 9144SOL    HW228332   2.474   4.825   5.022
 9145SOL     OW28333   0.419   5.531   6.971
 9145SOL    HW128334   0.504   5.516   7.021
 9145SOL    HW228335   0.436   5.517   6.873
 9146SOL     OW28336   5.176   2.982   3.534
 9146SOL    HW128337   5.244   3.055   3.526
 9146SOL    HW228338   5.191   2.914   3.462
 9147SOL     OW28339   5.789   0.001   5.126
 9147SOL    HW128340   5.740   0.031   5.044
 9147SOL    HW228341   5.724   6.997   5.197
 9148SOL     OW28342   5.018   6.187   2.086
 9148SOL    HW128343   5.047   6.270   2.133
 9148SOL    HW228344   5.095   6.123   2.080
 9149SOL     OW28345   5.017   3.792   2.545
 9149SOL    HW128346   4.973   3.810   2.458
 9149SOL    HW228347   5.112   3.762   2.530
 9150SOL     OW28348   3.074   5.133   1.192
 9150SOL    HW128349   3.007   5.151   1.120
 9150SOL    HW228350   3.027   5.105   1.276
 9151SOL     OW28351   1.100   4.442   3.641
 9151SOL    HW128352   1.105   4.449   3.541
 9151SOL    HW228353   1.192   4.432   3.678
 9152SOL     OW28354   2.258   4.086   4.370
 9152SOL    HW128355   2.266   3.991   4.340
 9152SOL    HW228356   2.348   4.119   4.399
 9153SOL     OW28357   0.757   3.099   0.298
 9153SOL    HW128358   0.814   3.081   0.218
 9153SOL    HW228359   0.703   3.018   0.319
 9154SOL     OW28360   5.799   4.843   5.214
 9154SOL    HW128361   5.881   4.847   5.272
 9154SOL    HW228362   5.722   4.885   5.263
 9155SOL     OW28363   1.615   4.382   2.521
 9155SOL    HW128364   1.524   4.370   2.480
 9155SOL    HW228365   1.658   4.292   2.532
 9156SOL     OW28366   0.496   2.221   0.690
 9156SOL    HW128367   0.484   2.258   0.782
 9156SOL    HW228368   0.518   2.295   0.626
 9157SOL     OW28369   2.708   4.256   6.821
 9157SOL    HW128370   2.640   4.330   6.818
 9157SOL    HW228371   2.701   4.208   6.908
 9158SOL     OW28372   6.600   3.986   4.567
 9158SOL    HW128373   6.634   3.995   4.474
 9158SOL    HW228374   6.608   4.074   4.614
 9159SOL     OW28375   1.408   0.613   2.806
 9159SOL    HW128376   1.444   0.540   2.864
 9159SOL    HW228377   1.395   0.579   2.713
 9160SOL     OW28378   0.208   6.414   5.983
 9160SOL    HW128379   0.244   6.321   5.992
 9160SOL    HW228380   0.116   6.410   5.946
 9161SOL     OW28381   5.500   5.211   3.335
 9161SOL    HW128382   5.470   5.121   3.301
 9161SOL    HW228383   5.568   5.198   3.407
 9162SOL     OW28384   4.180   0.587   3.331
 9162SOL    HW128385   4.100   0.595   3.391
 9162SOL    HW228386   4.196   0.674   3.285
 9163SOL     OW28387   6.790   2.557   4.329
 9163SOL    HW128388   6.760   2.515   4.415
 9163SOL    HW228389   6.719   2.619   4.295
 9164SOL     OW28390   1.751   0.787   6.789
 9164SOL    HW128391   1.672   0.774   6.849
 9164SOL    HW228392   1.781   0.882   6.793
 9165SOL     OW28393   5.714   1.736   6.419
 9165SOL    HW128394   5.683   1.793   6.495
 9165SOL    HW228395   5.723   1.641   6.448
 9166SOL     OW28396   4.460   5.994   0.933
 9166SOL    HW128397   4.465   6.014   0.835
 9166SOL    HW228398   4.406   5.912   0.947
 9167SOL     OW28399   2.166   1.945   5.552
 9167SOL    HW128400   2.212   2.013   5.496
 9167SOL    HW228401   2.209   1.941   5.642
 9168SOL     OW28402   6.761   5.845   6.533
 9168SOL    HW128403   6.858   5.871   6.541
 9168SOL    HW228404   6.715   5.909   6.471
 9169SOL     OW28405   6.589   6.691   6.671
 9169SOL    HW128406   6.603   6.681   6.769
 9169SOL    HW228407   6.622   6.781   6.642
 9170SOL     OW28408   2.063   0.261   6.458
 9170SOL    HW128409   2.041   0.209   6.375
 9170SOL    HW228410   1.995   0.333   6.471
 9171SOL     OW28411   3.212   6.254   0.924
 9171SOL    HW128412   3.144   6.181   0.937
 9171SOL    HW228413   3.304   6.215   0.932
 9172SOL     OW28414   4.849   1.108   3.888
 9172SOL    HW128415   4.879   1.159   3.807
 9172SOL    HW228416   4.757   1.138   3.914
 9173SOL     OW28417   6.131   4.368   5.647
 9173SOL    HW128418   6.080   4.305   5.588
 9173SOL    HW228419   6.214   4.323   5.679
 9174SOL     OW28420   0.446   5.539   0.403
 9174SOL    HW128421   0.473   5.443   0.409
 9174SOL    HW228422   0.524   5.597   0.428
 9175SOL     OW28423   1.199   6.955   6.542
 9175SOL    HW128424   1.107   6.916   6.542
 9175SOL    HW228425   1.239   6.947   6.633
 9176SOL     OW28426   3.163   0.327   1.855
 9176SOL    HW128427   3.211   0.413   1.839
 9176SOL    HW228428   3.085   0.320   1.792
 9177SOL     OW28429   0.953   3.432   4.391
 9177SOL    HW128430   0.956   3.343   4.346
 9177SOL    HW228431   0.913   3.500   4.329
 9178SOL     OW28432   2.084   5.131   6.859
 9178SOL    HW128433   1.990   5.105   6.839
 9178SOL    HW228434   2.091   5.165   6.953
 9179SOL     OW28435   1.505   5.664   4.343
 9179SOL    HW128436   1.492   5.606   4.263
 9179SOL    HW228437   1.537   5.754   4.315
 9180SOL     OW28438   6.252   2.368   3.401
 9180SOL    HW128439   6.226   2.359   3.305
 9180SOL    HW228440   6.248   2.279   3.446
 9181SOL     OW28441   6.238   2.464   4.725
 9181SOL    HW128442   6.174   2.438   4.796
 9181SOL    HW228443   6.329   2.477   4.764
 9182SOL     OW28444   2.634   0.074   3.072
 9182SOL    HW128445   2.629   6.997   3.069
 9182SOL    HW228446   2.677   0.108   2.988
 9183SOL     OW28447   4.629   4.663   6.471
 9183SOL    HW128448   4.728   4.652   6.461
 9183SOL    HW228449   4.608   4.759   6.486
 9184SOL     OW28450   4.266   2.532   0.975
 9184SOL    HW128451   4.252   2.507   0.879
 9184SOL    HW228452   4.306   2.624   0.980
 9185SOL     OW28453   6.910   6.545   4.628
 9185SOL    HW128454   6.845   6.563   4.555
 9185SOL    HW228455   6.927   6.629   4.680
 9186SOL     OW28456   5.420   0.081   4.770
 9186SOL    HW128457   5.448   0.166   4.727
 9186SOL    HW228458   5.322   0.066   4.755
 9187SOL     OW28459   3.836   2.129   0.151
 9187SOL    HW128460   3.878   2.039   0.140
 9187SOL    HW228461   3.806   2.141   0.246
 9188SOL     OW28462   1.904   0.277   1.144
 9188SOL    HW128463   1.907   0.331   1.228
 9188SOL    HW228464   1.809   0.259   1.120
 9189SOL     OW28465   3.508   6.238   2.359
 9189SOL    HW128466   3.439   6.222   2.288
 9189SOL    HW228467   3.519   6.155   2.414
 9190SOL     OW28468   0.467   3.127   5.867
 9190SOL    HW128469   0.518   3.213   5.872
 9190SOL    HW228470   0.408   3.118   5.947
 9191SOL     OW28471   5.800   1.094   6.448
 9191SOL    HW128472   5.702   1.081   6.462
 9191SOL    HW228473   5.815   1.158   6.373
 9192SOL     OW28474   6.851   2.443   6.316
 9192SOL    HW128475   6.937   2.393   6.315
 9192SOL    HW228476   6.868   2.540   6.300
 9193SOL     OW28477   4.171   3.573   4.897
 9193SOL    HW128478   4.140   3.643   4.833
 9193SOL    HW228479   4.268   3.555   4.881
 9194SOL     OW28480   2.702   0.108   2.568
 9194SOL    HW128481   2.725   0.011   2.572
 9194SOL    HW228482   2.752   0.150   2.492
 9195SOL     OW28483   1.763   3.325   2.983
 9195SOL    HW128484   1.789   3.294   2.891
 9195SOL    HW228485   1.676   3.374   2.979
 9196SOL     OW28486   5.106   6.731   3.950
 9196SOL    HW128487   5.114   6.751   3.852
 9196SOL    HW228488   5.188   6.682   3.980
 9197SOL     OW28489   3.267   5.083   1.017
 9197SOL    HW128490   3.216   5.102   1.101
 9197SOL    HW228491   3.365   5.086   1.036
 9198SOL     OW28492   6.320   4.256   0.099
 9198SOL    HW128493   6.371   4.241   0.184
 9198SOL    HW228494   6.261   4.336   0.109
 9199SOL     OW28495   0.600   2.443   5.798
 9199SOL    HW128496   0.618   2.541   5.795
 9199SOL    HW228497   0.633   2.406   5.886
 9200SOL     OW28498   2.671   6.219   5.711
 9200SOL    HW128499   2.749   6.241   5.769
 9200SOL    HW228500   2.691   6.137   5.657
 9201SOL     OW28501   0.045   3.117   0.242
 9201SOL    HW128502   0.052   3.019   0.220
 9201SOL    HW228503   0.105   3.138   0.319
 9202SOL     OW28504   0.753   5.681   4.183
 9202SOL    HW128505   0.819   5.673   4.258
 9202SOL    HW228506   0.765   5.605   4.119
 9203SOL     OW28507   6.254   2.857   6.348
 9203SOL    HW128508   6.222   2.934   6.404
 9203SOL    HW228509   6.343   2.826   6.382
 9204SOL     OW28510   4.946   3.652   4.111
 9204SOL    HW128511   4.944   3.719   4.186
 9204SOL    HW228512   4.900   3.568   4.141
 9205SOL     OW28513   5.186   5.692   3.196
 9205SOL    HW128514   5.248   5.705   3.118
 9205SOL    HW228515   5.095   5.723   3.171
 9206SOL     OW28516   3.088   6.612   3.703
 9206SOL    HW128517   3.168   6.625   3.644
 9206SOL    HW228518   3.119   6.595   3.797
 9207SOL     OW28519   4.115   5.064   6.974
 9207SOL    HW128520   4.146   4.995   6.909
 9207SOL    HW228521   4.062   5.134   6.926
 9208SOL     OW28522   5.885   3.662   2.142
 9208SOL    HW128523   5.849   3.741   2.093
 9208SOL    HW228524   5.866   3.671   2.239
 9209SOL     OW28525   4.558   0.708   1.440
 9209SOL    HW128526   4.491   0.638   1.464
 9209SOL    HW228527   4.510   0.794   1.421
 9210SOL     OW28528   0.868   0.893   1.313
 9210SOL    HW128529   0.924   0.818   1.279
 9210SOL    HW228530   0.786   0.902   1.257
 9211SOL     OW28531   5.700   3.244   6.812
 9211SOL    HW128532   5.760   3.221   6.888
 9211SOL    HW228533   5.660   3.160   6.775
 9212SOL     OW28534   5.189   4.189   4.331
 9212SOL    HW128535   5.092   4.211   4.323
 9212SOL    HW228536   5.215   4.128   4.257
 9213SOL     OW28537   4.494   5.861   4.570
 9213SOL    HW128538   4.527   5.933   4.631
 9213SOL    HW228539   4.507   5.889   4.475
 9214SOL     OW28540   0.205   2.606   5.394
 9214SOL    HW128541   0.182   2.529   5.454
 9214SOL    HW228542   0.163   2.593   5.305
 9215SOL     OW28543   1.241   4.322   2.969
 9215SOL    HW128544   1.167   4.310   3.034
 9215SOL    HW228545   1.207   4.368   2.887
 9216SOL     OW28546   2.481   6.666   3.564
 9216SOL    HW128547   2.514   6.754   3.598
 9216SOL    HW228548   2.538   6.636   3.488
 9217SOL     OW28549   6.419   2.405   0.181
 9217SOL    HW128550   6.328   2.439   0.156
 9217SOL    HW228551   6.449   2.338   0.114
 9218SOL     OW28552   4.397   0.695   0.118
 9218SOL    HW128553   4.312   0.698   0.066
 9218SOL    HW228554   4.426   0.789   0.140
 9219SOL     OW28555   5.014   3.582   6.413
 9219SOL    HW128556   4.988   3.678   6.400
 9219SOL    HW228557   4.938   3.532   6.454
 9220SOL     OW28558   1.554   6.558   2.556
 9220SOL    HW128559   1.493   6.512   2.620
 9220SOL    HW228560   1.534   6.527   2.463
 9221SOL     OW28561   2.545   6.922   3.654
 9221SOL    HW128562   2.548   6.974   3.569
 9221SOL    HW228563   2.514   6.981   3.728
 9222SOL     OW28564   2.763   5.639   5.188
 9222SOL    HW128565   2.707   5.720   5.169
 9222SOL    HW228566   2.794   5.598   5.102
 9223SOL     OW28567   1.422   3.218   4.037
 9223SOL    HW128568   1.325   3.228   4.063
 9223SOL    HW228569   1.469   3.305   4.053
 9224SOL     OW28570   1.311   4.743   3.629
 9224SOL    HW128571   1.274   4.768   3.718
 9224SOL    HW228572   1.333   4.645   3.627
 9225SOL     OW28573   3.604   6.248   5.866
 9225SOL    HW128574   3.601   6.345   5.841
 9225SOL    HW228575   3.695   6.211   5.846
 9226SOL     OW28576   0.354   6.793   1.467
 9226SOL    HW128577   0.448   6.808   1.496
 9226SOL    HW228578   0.315   6.716   1.519
 9227SOL     OW28579   2.046   6.359   1.463
 9227SOL    HW128580   2.062   6.351   1.365
 9227SOL    HW228581   2.076   6.275   1.509
 9228SOL     OW28582   2.383   2.253   0.279
 9228SOL    HW128583   2.414   2.199   0.357
 9228SOL    HW228584   2.333   2.195   0.215
 9229SOL     OW28585   1.121   4.466   5.562
 9229SOL    HW128586   1.147   4.514   5.478
 9229SOL    HW228587   1.053   4.519   5.612
 9230SOL     OW28588   5.127   3.017   3.178
 9230SOL    HW128589   5.053   3.080   3.154
 9230SOL    HW228590   5.205   3.032   3.117
 9231SOL     OW28591   1.456   3.032   5.477
 9231SOL    HW128592   1.547   3.017   5.516
 9231SOL    HW228593   1.403   3.091   5.538
 9232SOL     OW28594   3.216   5.253   0.257
 9232SOL    HW128595   3.208   5.308   0.173
 9232SOL    HW228596   3.182   5.160   0.238
 9233SOL     OW28597   0.015   6.644   0.860
 9233SOL    HW128598   0.061   6.651   0.772
 9233SOL    HW228599   6.997   6.553   0.870
 9234SOL     OW28600   2.780   5.730   0.771
 9234SOL    HW128601   2.773   5.814   0.824
 9234SOL    HW228602   2.705   5.669   0.796
 9235SOL     OW28603   1.969   2.763   3.089
 9235SOL    HW128604   2.017   2.676   3.088
 9235SOL    HW228605   1.933   2.783   2.998
 9236SOL     OW28606   1.566   3.904   0.481
 9236SOL    HW128607   1.594   3.934   0.390
 9236SOL    HW228608   1.612   3.819   0.505
 9237SOL     OW28609   0.422   5.620   3.030
 9237SOL    HW128610   0.344   5.625   2.968
 9237SOL    HW228611   0.405   5.678   3.110
 9238SOL     OW28612   2.514   2.589   6.154
 9238SOL    HW128613   2.570   2.618   6.076
 9238SOL    HW228614   2.432   2.646   6.159
 9239SOL     OW28615   0.122   4.477   5.938
 9239SOL    HW128616   0.143   4.511   6.030
 9239SOL    HW228617   0.189   4.513   5.873
 9240SOL     OW28618   4.933   3.189   1.861
 9240SOL    HW128619   4.878   3.115   1.900
 9240SOL    HW228620   4.877   3.271   1.850
 9241SOL     OW28621   0.247   4.870   0.391
 9241SOL    HW128622   0.211   4.960   0.416
 9241SOL    HW228623   0.194   4.833   0.315
 9242SOL     OW28624   1.630   3.926   1.274
 9242SOL    HW128625   1.565   3.972   1.334
 9242SOL    HW228626   1.620   3.827   1.285
 9243SOL     OW28627   6.559   0.568   1.495
 9243SOL    HW128628   6.487   0.635   1.516
 9243SOL    HW228629   6.530   0.477   1.526
 9244SOL     OW28630   2.965   5.801   6.075
 9244SOL    HW128631   2.903   5.875   6.100
 9244SOL    HW228632   2.916   5.715   6.072
 9245SOL     OW28633   0.782   5.187   3.607
 9245SOL    HW128634   0.864   5.243   3.594
 9245SOL    HW228635   0.768   5.172   3.705
 9246SOL     OW28636   6.112   0.286   2.689
 9246SOL    HW128637   6.052   0.304   2.611
 9246SOL    HW228638   6.205   0.270   2.656
 9247SOL     OW28639   2.489   6.020   3.186
 9247SOL    HW128640   2.448   5.966   3.113
 9247SOL    HW228641   2.568   6.070   3.150
 9248SOL     OW28642   2.926   1.755   4.380
 9248SOL    HW128643   2.877   1.672   4.354
 9248SOL    HW228644   2.977   1.790   4.302
 9249SOL     OW28645   3.778   4.665   1.412
 9249SOL    HW128646   3.778   4.764   1.423
 9249SOL    HW228647   3.754   4.642   1.318
 9250SOL     OW28648   5.693   3.416   4.609
 9250SOL    HW128649   5.730   3.478   4.541
 9250SOL    HW228650   5.765   3.391   4.675
 9251SOL     OW28651   4.161   1.816   2.458
 9251SOL    HW128652   4.236   1.795   2.519
 9251SOL    HW228653   4.197   1.836   2.366
 9252SOL     OW28654   5.489   0.933   4.528
 9252SOL    HW128655   5.526   0.848   4.491
 9252SOL    HW228656   5.530   0.952   4.617
 9253SOL     OW28657   5.508   5.215   5.502
 9253SOL    HW128658   5.410   5.198   5.500
 9253SOL    HW228659   5.525   5.313   5.513
 9254SOL     OW28660   4.612   5.187   3.197
 9254SOL    HW128661   4.631   5.243   3.277
 9254SOL    HW228662   4.518   5.151   3.202
 9255SOL     OW28663   4.913   3.715   7.010
 9255SOL    HW128664   4.847   3.790   7.001
 9255SOL    HW228665   4.973   3.714   6.930
 9256SOL     OW28666   3.092   0.556   2.633
 9256SOL    HW128667   3.108   0.565   2.535
 9256SOL    HW228668   3.107   0.462   2.662
 9257SOL     OW28669   6.513   5.310   3.292
 9257SOL    HW128670   6.520   5.267   3.202
 9257SOL    HW228671   6.526   5.240   3.363
 9258SOL     OW28672   4.130   3.190   2.053
 9258SOL    HW128673   4.109   3.178   2.149
 9258SOL    HW228674   4.218   3.147   2.032
 9259SOL     OW28675   0.437   1.674   0.654
 9259SOL    HW128676   0.386   1.679   0.739
 9259SOL    HW228677   0.396   1.605   0.594
 9260SOL     OW28678   5.968   2.043   5.401
 9260SOL    HW128679   5.925   2.035   5.492
 9260SOL    HW228680   6.021   2.127   5.397
 9261SOL     OW28681   3.892   1.221   0.282
 9261SOL    HW128682   3.829   1.149   0.254
 9261SOL    HW228683   3.896   1.226   0.382
 9262SOL     OW28684   6.899   5.787   5.115
 9262SOL    HW128685   6.942   5.849   5.180
 9262SOL    HW228686   6.836   5.838   5.056
 9263SOL     OW28687   3.934   6.685   2.477
 9263SOL    HW128688   3.844   6.643   2.491
 9263SOL    HW228689   3.943   6.767   2.533
 9264SOL     OW28690   4.845   3.993   0.873
 9264SOL    HW128691   4.910   4.062   0.843
 9264SOL    HW228692   4.781   3.974   0.798
 9265SOL     OW28693   3.581   2.562   6.839
 9265SOL    HW128694   3.661   2.577   6.898
 9265SOL    HW228695   3.557   2.649   6.794
 9266SOL     OW28696   1.294   6.179   0.826
 9266SOL    HW128697   1.319   6.092   0.783
 9266SOL    HW228698   1.227   6.226   0.769
 9267SOL     OW28699   0.128   1.721   4.725
 9267SOL    HW128700   0.178   1.758   4.648
 9267SOL    HW228701   0.030   1.718   4.703
 9268SOL     OW28702   1.837   6.939   2.448
 9268SOL    HW128703   1.888   6.854   2.457
 9268SOL    HW228704   1.743   6.925   2.478
 9269SOL     OW28705   5.013   1.075   6.607
 9269SOL    HW128706   5.001   1.174   6.610
 9269SOL    HW228707   4.926   1.030   6.627
 9270SOL     OW28708   4.390   6.578   6.150
 9270SOL    HW128709   4.300   6.548   6.180
 9270SOL    HW228710   4.420   6.656   6.205
 9271SOL     OW28711   6.183   0.132   1.033
 9271SOL    HW128712   6.089   0.166   1.030
 9271SOL    HW228713   6.199   0.072   0.954
 9272SOL     OW28714   1.344   5.687   5.461
 9272SOL    HW128715   1.420   5.623   5.473
 9272SOL    HW228716   1.273   5.669   5.529
 9273SOL     OW28717   5.833   5.823   3.035
 9273SOL    HW128718   5.930   5.798   3.028
 9273SOL    HW228719   5.778   5.741   3.050
 9274SOL     OW28720   6.621   1.419   0.312
 9274SOL    HW128721   6.620   1.517   0.331
 9274SOL    HW228722   6.709   1.393   0.273
 9275SOL     OW28723   6.498   0.491   6.800
 9275SOL    HW128724   6.405   0.493   6.764
 9275SOL    HW228725   6.550   0.568   6.763
 9276SOL     OW28726   2.089   4.483   1.203
 9276SOL    HW128727   2.036   4.567   1.197
 9276SOL    HW228728   2.106   4.448   1.111
 9277SOL     OW28729   4.728   4.415   1.433
 9277SOL    HW128730   4.699   4.510   1.445
 9277SOL    HW228731   4.648   4.357   1.417
 9278SOL     OW28732   1.872   6.865   5.543
 9278SOL    HW128733   1.874   6.789   5.608
 9278SOL    HW228734   1.804   6.846   5.472
 9279SOL     OW28735   2.896   0.169   1.442
 9279SOL    HW128736   2.968   0.110   1.406
 9279SOL    HW228737   2.820   0.112   1.474
 9280SOL     OW28738   2.164   1.601   2.335
 9280SOL    HW128739   2.086   1.654   2.369
 9280SOL    HW228740   2.149   1.504   2.356
 9281SOL     OW28741   3.102   4.142   6.637
 9281SOL    HW128742   3.083   4.059   6.689
 9281SOL    HW228743   3.115   4.218   6.700
 9282SOL     OW28744   5.464   1.404   3.323
 9282SOL    HW128745   5.533   1.387   3.394
 9282SOL    HW228746   5.449   1.502   3.315
 9283SOL     OW28747   4.830   0.449   4.109
 9283SOL    HW128748   4.748   0.468   4.163
 9283SOL    HW228749   4.893   0.527   4.115
 9284SOL     OW28750   2.891   2.917   5.394
 9284SOL    HW128751   2.945   2.991   5.353
 9284SOL    HW228752   2.797   2.924   5.362
 9285SOL     OW28753   4.893   3.444   1.373
 9285SOL    HW128754   4.939   3.496   1.302
 9285SOL    HW228755   4.800   3.479   1.385
 9286SOL     OW28756   5.430   5.853   1.052
 9286SOL    HW128757   5.372   5.911   0.993
 9286SOL    HW228758   5.487   5.912   1.109
 9287SOL     OW28759   3.520   5.118   6.533
 9287SOL    HW128760   3.545   5.156   6.444
 9287SOL    HW228761   3.588   5.049   6.560
 9288SOL     OW28762   4.545   1.238   2.670
 9288SOL    HW128763   4.645   1.244   2.679
 9288SOL    HW228764   4.518   1.274   2.580
 9289SOL     OW28765   4.419   0.487   1.481
 9289SOL    HW128766   4.459   0.421   1.417
 9289SOL    HW228767   4.408   0.445   1.570
 9290SOL     OW28768   5.308   0.773   3.641
 9290SOL    HW128769   5.240   0.845   3.654
 9290SOL    HW228770   5.290   0.726   3.554
 9291SOL     OW28771   1.425   5.169   5.619
 9291SOL    HW128772   1.330   5.188   5.593
 9291SOL    HW228773   1.487   5.203   5.548
 9292SOL     OW28774   2.155   2.535   5.975
 9292SOL    HW128775   2.067   2.542   6.022
 9292SOL    HW228776   2.228   2.569   6.034
 9293SOL     OW28777   6.745   3.653   6.779
 9293SOL    HW128778   6.785   3.678   6.867
 9293SOL    HW228779   6.646   3.671   6.781
 9294SOL     OW28780   5.200   0.915   6.042
 9294SOL    HW128781   5.118   0.968   6.022
 9294SOL    HW228782   5.280   0.961   6.004
 9295SOL     OW28783   5.156   0.567   5.257
 9295SOL    HW128784   5.243   0.616   5.251
 9295SOL    HW228785   5.106   0.576   5.171
 9296SOL     OW28786   1.971   5.422   6.746
 9296SOL    HW128787   1.999   5.483   6.820
 9296SOL    HW228788   2.048   5.364   6.720
 9297SOL     OW28789   1.100   6.813   3.050
 9297SOL    HW128790   1.094   6.910   3.077
 9297SOL    HW228791   1.166   6.804   2.976
 9298SOL     OW28792   1.069   6.351   6.915
 9298SOL    HW128793   1.089   6.407   6.835
 9298SOL    HW228794   1.090   6.402   6.998
 9299SOL     OW28795   0.373   1.861   4.078
 9299SOL    HW128796   0.432   1.937   4.050
 9299SOL    HW228797   0.304   1.894   4.142
 9300SOL     OW28798   0.621   4.488   5.776
 9300SOL    HW128799   0.601   4.395   5.745
 9300SOL    HW228800   0.681   4.533   5.710
 9301SOL     OW28801   5.641   5.396   4.475
 9301SOL    HW128802   5.715   5.407   4.541
 9301SOL    HW228803   5.614   5.485   4.439
 9302SOL     OW28804   2.127   3.657   3.924
 9302SOL    HW128805   2.052   3.633   3.986
 9302SOL    HW228806   2.177   3.575   3.897
 9303SOL     OW28807   3.223   3.901   0.539
 9303SOL    HW128808   3.187   3.988   0.506
 9303SOL    HW228809   3.168   3.871   0.617
 9304SOL     OW28810   4.123   4.595   1.448
 9304SOL    HW128811   4.061   4.530   1.493
 9304SOL    HW228812   4.206   4.548   1.419
 9305SOL     OW28813   3.866   1.145   0.561
 9305SOL    HW128814   3.954   1.185   0.588
 9305SOL    HW228815   3.796   1.169   0.628
 9306SOL     OW28816   0.978   3.789   5.465
 9306SOL    HW128817   1.015   3.696   5.460
 9306SOL    HW228818   0.878   3.785   5.463
 9307SOL     OW28819   1.191   4.221   0.936
 9307SOL    HW128820   1.196   4.268   0.848
 9307SOL    HW228821   1.167   4.286   1.008
 9308SOL     OW28822   1.848   3.606   1.504
 9308SOL    HW128823   1.903   3.686   1.479
 9308SOL    HW228824   1.753   3.633   1.515
 9309SOL     OW28825   3.359   5.594   6.020
 9309SOL    HW128826   3.351   5.515   5.961
 9309SOL    HW228827   3.449   5.636   6.007
 9310SOL     OW28828   5.707   5.691   5.768
 9310SOL    HW128829   5.617   5.729   5.790
 9310SOL    HW228830   5.723   5.609   5.823
 9311SOL     OW28831   5.116   4.703   0.985
 9311SOL    HW128832   5.183   4.727   0.915
 9311SOL    HW228833   5.153   4.631   1.044
 9312SOL     OW28834   1.483   3.215   0.991
 9312SOL    HW128835   1.528   3.222   1.080
 9312SOL    HW228836   1.478   3.120   0.962
 9313SOL     OW28837   6.996   0.390   1.588
 9313SOL    HW128838   6.945   0.323   1.641
 9313SOL    HW228839   6.959   0.481   1.604
 9314SOL     OW28840   6.326   3.660   6.855
 9314SOL    HW128841   6.381   3.691   6.778
 9314SOL    HW228842   6.340   3.722   6.933
 9315SOL     OW28843   6.863   0.129   5.670
 9315SOL    HW128844   6.936   0.128   5.739
 9315SOL    HW228845   6.898   0.094   5.583
 9316SOL     OW28846   5.894   6.162   5.540
 9316SOL    HW128847   5.953   6.082   5.534
 9316SOL    HW228848   5.806   6.137   5.581
 9317SOL     OW28849   4.537   5.629   3.963
 9317SOL    HW128850   4.539   5.692   3.886
 9317SOL    HW228851   4.621   5.638   4.017
 9318SOL     OW28852   6.267   0.488   6.654
 9318SOL    HW128853   6.203   0.422   6.693
 9318SOL    HW228854   6.255   0.490   6.554
 9319SOL     OW28855   2.366   3.011   1.271
 9319SOL    HW128856   2.391   3.092   1.326
 9319SOL    HW228857   2.389   2.928   1.322
 9320SOL     OW28858   3.976   0.601   5.432
 9320SOL    HW128859   4.048   0.648   5.483
 9320SOL    HW228860   3.889   0.610   5.480
 9321SOL     OW28861   0.913   0.402   4.662
 9321SOL    HW128862   0.820   0.369   4.672
 9321SOL    HW228863   0.921   0.494   4.701
 9322SOL     OW28864   0.150   3.945   6.810
 9322SOL    HW128865   0.204   3.909   6.886
 9322SOL    HW228866   0.163   3.886   6.730
 9323SOL     OW28867   0.976   1.006   4.659
 9323SOL    HW128868   0.963   1.080   4.725
 9323SOL    HW228869   0.923   1.025   4.577
 9324SOL     OW28870   1.876   4.186   2.322
 9324SOL    HW128871   1.866   4.247   2.401
 9324SOL    HW228872   1.847   4.094   2.348
 9325SOL     OW28873   6.411   0.123   6.798
 9325SOL    HW128874   6.356   0.203   6.820
 9325SOL    HW228875   6.477   0.147   6.726
 9326SOL     OW28876   2.643   4.989   6.902
 9326SOL    HW128877   2.610   5.018   6.812
 9326SOL    HW228878   2.644   4.889   6.907
 9327SOL     OW28879   4.374   0.151   2.273
 9327SOL    HW128880   4.470   0.123   2.273
 9327SOL    HW228881   4.330   0.115   2.191
 9328SOL     OW28882   2.289   0.700   4.340
 9328SOL    HW128883   2.237   0.767   4.394
 9328SOL    HW228884   2.228   0.657   4.273
 9329SOL     OW28885   6.043   4.207   0.970
 9329SOL    HW128886   6.138   4.173   0.972
 9329SOL    HW228887   5.987   4.152   1.032
 9330SOL     OW28888   6.729   0.385   5.518
 9330SOL    HW128889   6.800   0.327   5.556
 9330SOL    HW228890   6.648   0.330   5.496
 9331SOL     OW28891   2.801   1.241   6.458
 9331SOL    HW128892   2.721   1.259   6.400
 9331SOL    HW228893   2.788   1.155   6.508
 9332SOL     OW28894   3.437   4.905   0.413
 9332SOL    HW128895   3.440   4.926   0.511
 9332SOL    HW228896   3.352   4.940   0.374
 9333SOL     OW28897   3.341   5.484   6.531
 9333SOL    HW128898   3.407   5.559   6.523
 9333SOL    HW228899   3.355   5.419   6.457
 9334SOL     OW28900   4.499   6.701   5.254
 9334SOL    HW128901   4.499   6.601   5.246
 9334SOL    HW228902   4.526   6.742   5.167
 9335SOL     OW28903   1.625   1.176   6.499
 9335SOL    HW128904   1.674   1.261   6.515
 9335SOL    HW228905   1.564   1.186   6.420
 9336SOL     OW28906   4.417   0.294   4.669
 9336SOL    HW128907   4.469   0.361   4.721
 9336SOL    HW228908   4.321   0.298   4.695
 9337SOL     OW28909   4.283   1.178   5.254
 9337SOL    HW128910   4.290   1.161   5.155
 9337SOL    HW228911   4.272   1.091   5.302
 9338SOL     OW28912   6.328   7.021   1.221
 9338SOL    HW128913   6.330   0.070   1.290
 9338SOL    HW228914   6.279   0.032   1.140
 9339SOL     OW28915   6.134   6.334   0.112
 9339SOL    HW128916   6.112   6.429   0.135
 9339SOL    HW228917   6.210   6.333   0.047
 9340SOL     OW28918   3.876   5.014   3.163
 9340SOL    HW128919   3.910   5.108   3.166
 9340SOL    HW228920   3.821   4.995   3.245
 9341SOL     OW28921   5.446   5.034   1.310
 9341SOL    HW128922   5.393   5.083   1.241
 9341SOL    HW228923   5.518   4.982   1.266
 9342SOL     OW28924   2.755   6.798   4.525
 9342SOL    HW128925   2.733   6.736   4.600
 9342SOL    HW228926   2.765   6.745   4.440
 9343SOL     OW28927   4.710   4.352   2.252
 9343SOL    HW128928   4.656   4.343   2.336
 9343SOL    HW228929   4.655   4.322   2.174
 9344SOL     OW28930   5.444   6.285   1.692
 9344SOL    HW128931   5.401   6.261   1.780
 9344SOL    HW228932   5.408   6.372   1.661
 9345SOL     OW28933   6.390   5.110   0.981
 9345SOL    HW128934   6.331   5.087   1.059
 9345SOL    HW228935   6.458   5.177   1.010
 9346SOL     OW28936   4.449   0.560   2.158
 9346SOL    HW128937   4.541   0.524   2.167
 9346SOL    HW228938   4.447   0.633   2.090
 9347SOL     OW28939   3.227   5.650   0.537
 9347SOL    HW128940   3.309   5.629   0.591
 9347SOL    HW228941   3.146   5.631   0.592
 9348SOL     OW28942   3.085   5.563   3.286
 9348SOL    HW128943   3.134   5.595   3.367
 9348SOL    HW228944   3.058   5.642   3.230
 9349SOL     OW28945   6.407   4.850   1.987
 9349SOL    HW128946   6.320   4.872   1.942
 9349SOL    HW228947   6.412   4.897   2.075
 9350SOL     OW28948   6.653   1.711   4.871
 9350SOL    HW128949   6.582   1.697   4.802
 9350SOL    HW228950   6.614   1.758   4.950
 9351SOL     OW28951   3.683   6.728   6.260
 9351SOL    HW128952   3.641   6.734   6.169
 9351SOL    HW228953   3.726   6.816   6.282
 9352SOL     OW28954   3.565   2.209   6.288
 9352SOL    HW128955   3.561   2.154   6.372
 9352SOL    HW228956   3.627   2.165   6.223
 9353SOL     OW28957   1.104   4.620   1.156
 9353SOL    HW128958   1.107   4.521   1.168
 9353SOL    HW228959   1.011   4.648   1.129
 9354SOL     OW28960   0.373   1.818   6.066
 9354SOL    HW128961   0.463   1.775   6.057
 9354SOL    HW228962   0.320   1.770   6.136
 9355SOL     OW28963   0.380   1.360   4.578
 9355SOL    HW128964   0.374   1.306   4.662
 9355SOL    HW228965   0.294   1.408   4.563
 9356SOL     OW28966   4.535   5.950   1.918
 9356SOL    HW128967   4.525   5.898   2.003
 9356SOL    HW228968   4.629   5.982   1.909
 9357SOL     OW28969   2.330   3.756   6.584
 9357SOL    HW128970   2.321   3.663   6.548
 9357SOL    HW228971   2.411   3.799   6.544
 9358SOL     OW28972   6.166   3.142   2.599
 9358SOL    HW128973   6.094   3.094   2.550
 9358SOL    HW228974   6.243   3.159   2.537
 9359SOL     OW28975   0.694   3.846   5.470
 9359SOL    HW128976   0.656   3.926   5.424
 9359SOL    HW228977   0.632   3.817   5.543
 9360SOL     OW28978   1.736   6.041   6.575
 9360SOL    HW128979   1.831   6.039   6.543
 9360SOL    HW228980   1.725   5.972   6.647
 9361SOL     OW28981   1.251   6.403   3.158
 9361SOL    HW128982   1.283   6.378   3.250
 9361SOL    HW228983   1.194   6.485   3.164
 9362SOL     OW28984   2.015   3.153   2.668
 9362SOL    HW128985   1.925   3.197   2.667
 9362SOL    HW228986   2.048   3.142   2.574
 9363SOL     OW28987   4.074   6.710   2.251
 9363SOL    HW128988   4.045   6.798   2.213
 9363SOL    HW228989   4.017   6.687   2.329
 9364SOL     OW28990   3.753   2.798   6.355
 9364SOL    HW128991   3.754   2.807   6.255
 9364SOL    HW228992   3.836   2.751   6.385
 9365SOL     OW28993   2.311   2.247   4.198
 9365SOL    HW128994   2.399   2.222   4.237
 9365SOL    HW228995   2.274   2.170   4.145
 9366SOL     OW28996   3.609   6.577   6.654
 9366SOL    HW128997   3.611   6.537   6.746
 9366SOL    HW228998   3.590   6.505   6.587
 9367SOL     OW28999   6.944   6.205   2.204
 9367SOL    HW129000   0.001   6.162   2.162
 9367SOL    HW229001   6.915   6.283   2.149
 9368SOL     OW29002   3.079   1.419   3.358
 9368SOL    HW129003   3.100   1.420   3.456
 9368SOL    HW229004   2.980   1.406   3.346
 9369SOL     OW29005   6.586   6.621   4.857
 9369SOL    HW129006   6.614   6.697   4.799
 9369SOL    HW229007   6.490   6.599   4.839
 9370SOL     OW29008   5.077   0.822   2.644
 9370SOL    HW129009   5.074   0.726   2.672
 9370SOL    HW229010   5.071   0.881   2.725
 9371SOL     OW29011   2.320   4.717   0.616
 9371SOL    HW129012   2.414   4.687   0.636
 9371SOL    HW229013   2.305   4.714   0.517
 9372SOL     OW29014   5.215   6.009   2.617
 9372SOL    HW129015   5.139   6.071   2.635
 9372SOL    HW229016   5.301   6.059   2.624
 9373SOL     OW29017   4.571   2.034   2.539
 9373SOL    HW129018   4.515   2.089   2.601
 9373SOL    HW229019   4.580   1.941   2.576
 9374SOL     OW29020   0.904   3.861   0.154
 9374SOL    HW129021   0.828   3.820   0.205
 9374SOL    HW229022   0.870   3.936   0.098
 9375SOL     OW29023   0.268   1.218   2.372
 9375SOL    HW129024   0.332   1.283   2.410
 9375SOL    HW229025   0.315   1.159   2.306
 9376SOL     OW29026   2.612   4.377   1.318
 9376SOL    HW129027   2.612   4.277   1.326
 9376SOL    HW229028   2.517   4.409   1.315
 9377SOL     OW29029   2.331   5.052   4.281
 9377SOL    HW129030   2.249   5.086   4.325
 9377SOL    HW229031   2.385   4.998   4.346
 9378SOL     OW29032   1.815   1.252   4.571
 9378SOL    HW129033   1.755   1.238   4.492
 9378SOL    HW229034   1.889   1.314   4.546
 9379SOL     OW29035   3.915   5.886   5.530
 9379SOL    HW129036   3.965   5.818   5.583
 9379SOL    HW229037   3.963   5.974   5.534
 9380SOL     OW29038   5.565   5.170   4.609
 9380SOL    HW129039   5.602   5.088   4.566
 9380SOL    HW229040   5.597   5.251   4.559
 9381SOL     OW29041   3.832   2.871   6.053
 9381SOL    HW129042   3.765   2.944   6.066
 9381SOL    HW229043   3.789   2.795   6.004
 9382SOL     OW29044   3.639   0.925   3.523
 9382SOL    HW129045   3.657   0.835   3.564
 9382SOL    HW229046   3.649   0.919   3.424
 9383SOL     OW29047   0.919   5.902   4.549
 9383SOL    HW129048   0.960   5.872   4.635
 9383SOL    HW229049   0.937   5.834   4.477
 9384SOL     OW29050   4.303   0.336   2.041
 9384SOL    HW129051   4.343   0.359   2.130
 9384SOL    HW229052   4.351   0.257   2.003
 9385SOL     OW29053   4.275   1.001   3.912
 9385SOL    HW129054   4.293   1.067   3.840
 9385SOL    HW229055   4.268   0.909   3.873
 9386SOL     OW29056   2.198   6.092   5.144
 9386SOL    HW129057   2.100   6.096   5.125
 9386SOL    HW229058   2.246   6.157   5.085
 9387SOL     OW29059   3.082   1.710   6.806
 9387SOL    HW129060   3.180   1.689   6.799
 9387SOL    HW229061   3.044   1.722   6.715
 9388SOL     OW29062   2.881   5.796   2.677
 9388SOL    HW129063   2.916   5.745   2.756
 9388SOL    HW229064   2.790   5.761   2.654
 9389SOL     OW29065   1.895   0.174   3.736
 9389SOL    HW129066   1.859   0.257   3.695
 9389SOL    HW229067   1.865   0.094   3.683
 9390SOL     OW29068   5.104   4.767   5.529
 9390SOL    HW129069   5.175   4.802   5.469
 9390SOL    HW229070   5.027   4.831   5.530
 9391SOL     OW29071   2.767   1.604   4.992
 9391SOL    HW129072   2.721   1.521   5.020
 9391SOL    HW229073   2.773   1.607   4.892
 9392SOL     OW29074   6.274   6.470   4.990
 9392SOL    HW129075   6.272   6.465   5.090
 9392SOL    HW229076   6.219   6.396   4.952
 9393SOL     OW29077   3.398   6.270   6.519
 9393SOL    HW129078   3.434   6.346   6.466
 9393SOL    HW229079   3.465   6.196   6.523
 9394SOL     OW29080   0.127   1.134   2.056
 9394SOL    HW129081   0.227   1.125   2.056
 9394SOL    HW229082   0.099   1.196   2.130
 9395SOL     OW29083   2.746   1.003   1.347
 9395SOL    HW129084   2.711   0.959   1.264
 9395SOL    HW229085   2.846   0.999   1.346
 9396SOL     OW29086   1.953   4.855   3.767
 9396SOL    HW129087   1.940   4.857   3.866
 9396SOL    HW229088   2.028   4.792   3.744
 9397SOL     OW29089   4.993   0.142   6.392
 9397SOL    HW129090   5.036   0.191   6.316
 9397SOL    HW229091   5.062   0.114   6.458
 9398SOL     OW29092   6.394   0.529   5.257
 9398SOL    HW129093   6.302   0.546   5.221
 9398SOL    HW229094   6.389   0.516   5.356
 9399SOL     OW29095   1.070   1.869   5.952
 9399SOL    HW129096   1.087   1.880   5.854
 9399SOL    HW229097   1.077   1.772   5.977
 9400SOL     OW29098   4.488   0.727   1.955
 9400SOL    HW129099   4.565   0.711   1.895
 9400SOL    HW229100   4.410   0.760   1.902
 9401SOL     OW29101   6.446   0.703   3.614
 9401SOL    HW129102   6.535   0.746   3.630
 9401SOL    HW229103   6.406   0.740   3.530
 9402SOL     OW29104   1.147   5.338   2.833
 9402SOL    HW129105   1.170   5.372   2.925
 9402SOL    HW229106   1.142   5.414   2.770
 9403SOL     OW29107   6.288   1.207   2.975
 9403SOL    HW129108   6.235   1.283   3.013
 9403SOL    HW229109   6.316   1.229   2.882
 9404SOL     OW29110   1.548   3.073   0.384
 9404SOL    HW129111   1.593   3.081   0.473
 9404SOL    HW229112   1.558   2.980   0.350
 9405SOL     OW29113   2.178   4.868   3.234
 9405SOL    HW129114   2.125   4.789   3.203
 9405SOL    HW229115   2.148   4.895   3.326
 9406SOL     OW29116   0.067   2.772   5.832
 9406SOL    HW129117   7.015   2.805   5.889
 9406SOL    HW229118   0.152   2.777   5.882
 9407SOL     OW29119   2.843   5.134   3.434
 9407SOL    HW129120   2.841   5.186   3.520
 9407SOL    HW229121   2.897   5.185   3.366
 9408SOL     OW29122   6.725   2.485   6.573
 9408SOL    HW129123   6.794   2.483   6.501
 9408SOL    HW229124   6.742   2.563   6.633
 9409SOL     OW29125   5.829   5.988   0.393
 9409SOL    HW129126   5.739   6.016   0.427
 9409SOL    HW229127   5.897   5.999   0.465
 9410SOL     OW29128   2.970   0.388   1.283
 9410SOL    HW129129   2.919   0.473   1.296
 9410SOL    HW229130   2.936   0.319   1.347
 9411SOL     OW29131   3.334   3.116   2.173
 9411SOL    HW129132   3.396   3.131   2.096
 9411SOL    HW229133   3.380   3.063   2.244
 9412SOL     OW29134   0.185   1.546   2.754
 9412SOL    HW129135   0.230   1.458   2.737
 9412SOL    HW229136   0.241   1.601   2.816
 9413SOL     OW29137   3.908   5.861   3.625
 9413SOL    HW129138   3.818   5.856   3.583
 9413SOL    HW229139   3.972   5.805   3.573
 9414SOL     OW29140   2.630   0.824   3.317
 9414SOL    HW129141   2.684   0.824   3.233
 9414SOL    HW229142   2.542   0.868   3.300
 9415SOL     OW29143   2.659   6.751   1.553
 9415SOL    HW129144   2.710   6.837   1.556
 9415SOL    HW229145   2.596   6.747   1.630
 9416SOL     OW29146   0.114   2.507   0.577
 9416SOL    HW129147   0.106   2.453   0.661
 9416SOL    HW229148   0.121   2.446   0.498
 9417SOL     OW29149   4.778   0.747   0.767
 9417SOL    HW129150   4.811   0.686   0.694
 9417SOL    HW229151   4.799   0.842   0.742
 9418SOL     OW29152   4.237   0.025   1.217
 9418SOL    HW129153   4.161   0.069   1.170
 9418SOL    HW229154   4.273   0.086   1.287
 9419SOL     OW29155   3.018   4.655   5.844
 9419SOL    HW129156   3.003   4.694   5.935
 9419SOL    HW229157   3.107   4.685   5.809
 9420SOL     OW29158   6.145   4.026   5.598
 9420SOL    HW129159   6.052   3.990   5.603
 9420SOL    HW229160   6.175   4.028   5.503
 9421SOL     OW29161   2.272   6.293   4.398
 9421SOL    HW129162   2.252   6.372   4.340
 9421SOL    HW229163   2.215   6.215   4.369
 9422SOL     OW29164   3.270   5.374   3.144
 9422SOL    HW129165   3.350   5.367   3.085
 9422SOL    HW229166   3.243   5.469   3.152
 9423SOL     OW29167   2.772   6.814   3.773
 9423SOL    HW129168   2.678   6.839   3.751
 9423SOL    HW229169   2.775   6.778   3.867
 9424SOL     OW29170   4.736   1.185   4.962
 9424SOL    HW129171   4.679   1.259   4.997
 9424SOL    HW229172   4.694   1.097   4.983
 9425SOL     OW29173   5.967   3.708   0.934
 9425SOL    HW129174   5.991   3.801   0.961
 9425SOL    HW229175   5.891   3.710   0.870
 9426SOL     OW29176   3.995   1.970   6.138
 9426SOL    HW129177   3.917   1.938   6.192
 9426SOL    HW229178   4.056   2.023   6.197
 9427SOL     OW29179   2.609   5.096   3.026
 9427SOL    HW129180   2.526   5.082   2.972
 9427SOL    HW229181   2.684   5.122   2.966
 9428SOL     OW29182   6.901   1.358   1.054
 9428SOL    HW129183   6.878   1.333   1.148
 9428SOL    HW229184   7.000   1.368   1.046
 9429SOL     OW29185   2.042   3.536   2.701
 9429SOL    HW129186   2.094   3.484   2.769
 9429SOL    HW229187   2.043   3.488   2.614
 9430SOL     OW29188   0.475   3.939   3.743
 9430SOL    HW129189   0.458   3.849   3.704
 9430SOL    HW229190   0.476   4.008   3.670
 9431SOL     OW29191   6.477   3.972   0.507
 9431SOL    HW129192   6.576   3.964   0.500
 9431SOL    HW229193   6.452   3.992   0.601
 9432SOL     OW29194   5.386   0.277   3.537
 9432SOL    HW129195   5.367   0.318   3.447
 9432SOL    HW229196   5.385   0.178   3.529
 9433SOL     OW29197   3.391   6.232   3.079
 9433SOL    HW129198   3.385   6.136   3.051
 9433SOL    HW229199   3.457   6.279   3.020
 9434SOL     OW29200   5.421   5.673   2.960
 9434SOL    HW129201   5.389   5.599   2.900
 9434SOL    HW229202   5.405   5.761   2.915
 9435SOL     OW29203   0.327   2.616   4.912
 9435SOL    HW129204   0.322   2.707   4.952
 9435SOL    HW229205   0.381   2.555   4.971
 9436SOL     OW29206   1.494   2.516   1.119
 9436SOL    HW129207   1.579   2.559   1.148
 9436SOL    HW229208   1.514   2.439   1.058
 9437SOL     OW29209   1.328   6.071   2.854
 9437SOL    HW129210   1.275   6.072   2.938
 9437SOL    HW229211   1.344   6.165   2.824
 9438SOL     OW29212   0.192   0.265   1.678
 9438SOL    HW129213   0.210   0.175   1.638
 9438SOL    HW229214   0.129   0.316   1.619
 9439SOL     OW29215   0.629   3.593   1.285
 9439SOL    HW129216   0.694   3.530   1.243
 9439SOL    HW229217   0.643   3.685   1.248
 9440SOL     OW29218   3.952   5.383   3.444
 9440SOL    HW129219   4.030   5.322   3.428
 9440SOL    HW229220   3.908   5.359   3.531
 9441SOL     OW29221   6.495   4.188   5.395
 9441SOL    HW129222   6.565   4.136   5.346
 9441SOL    HW229223   6.452   4.253   5.332
 9442SOL     OW29224   4.812   3.435   0.988
 9442SOL    HW129225   4.750   3.449   0.911
 9442SOL    HW229226   4.845   3.340   0.987
 9443SOL     OW29227   2.508   5.264   0.774
 9443SOL    HW129228   2.513   5.218   0.862
 9443SOL    HW229229   2.412   5.271   0.746
 9444SOL     OW29230   1.272   3.297   0.837
 9444SOL    HW129231   1.361   3.261   0.866
 9444SOL    HW229232   1.206   3.222   0.832
 9445SOL     OW29233   6.083   2.794   3.314
 9445SOL    HW129234   6.168   2.846   3.307
 9445SOL    HW229235   6.019   2.827   3.244
 9446SOL     OW29236   6.359   5.459   3.680
 9446SOL    HW129237   6.347   5.478   3.582
 9446SOL    HW229238   6.456   5.461   3.703
 9447SOL     OW29239   6.026   4.445   3.461
 9447SOL    HW129240   5.952   4.380   3.481
 9447SOL    HW229241   6.046   4.444   3.363
 9448SOL     OW29242   0.426   6.955   6.916
 9448SOL    HW129243   0.336   6.914   6.900
 9448SOL    HW229244   0.431   0.020   6.869
 9449SOL     OW29245   6.433   6.946   0.381
 9449SOL    HW129246   6.481   0.004   0.348
 9449SOL    HW229247   6.498   6.870   0.391
 9450SOL     OW29248   1.854   5.099   4.518
 9450SOL    HW129249   1.765   5.092   4.563
 9450SOL    HW229250   1.858   5.032   4.444
 9451SOL     OW29251   4.474   0.444   5.968
 9451SOL    HW129252   4.551   0.406   5.917
 9451SOL    HW229253   4.420   0.369   6.007
 9452SOL     OW29254   1.751   3.678   0.626
 9452SOL    HW129255   1.827   3.684   0.690
 9452SOL    HW229256   1.665   3.688   0.675
 9453SOL     OW29257   2.450   4.913   3.229
 9453SOL    HW129258   2.468   5.004   3.194
 9453SOL    HW229259   2.352   4.897   3.233
 9454SOL     OW29260   3.554   3.409   6.526
 9454SOL    HW129261   3.642   3.373   6.556
 9454SOL    HW229262   3.567   3.498   6.484
 9455SOL     OW29263   2.434   1.572   3.492
 9455SOL    HW129264   2.390   1.661   3.478
 9455SOL    HW229265   2.524   1.572   3.448
 9456SOL     OW29266   0.017   3.516   0.910
 9456SOL    HW129267   6.957   3.464   0.888
 9456SOL    HW229268   0.053   3.487   0.998
 9457SOL     OW29269   1.632   3.604   5.107
 9457SOL    HW129270   1.728   3.632   5.120
 9457SOL    HW229271   1.605   3.620   5.012
 9458SOL     OW29272   1.192   2.805   0.122
 9458SOL    HW129273   1.205   2.888   0.068
 9458SOL    HW229274   1.263   2.739   0.100
 9459SOL     OW29275   5.564   4.437   3.674
 9459SOL    HW129276   5.578   4.513   3.611
 9459SOL    HW229277   5.653   4.405   3.708
 9460SOL     OW29278   1.166   3.277   3.824
 9460SOL    HW129279   1.165   3.271   3.924
 9460SOL    HW229280   1.125   3.195   3.785
 9461SOL     OW29281   0.091   2.080   1.692
 9461SOL    HW129282   0.024   2.038   1.754
 9461SOL    HW229283   0.073   2.048   1.599
 9462SOL     OW29284   2.045   3.936   3.159
 9462SOL    HW129285   1.974   3.940   3.089
 9462SOL    HW229286   2.105   4.015   3.151
 9463SOL     OW29287   6.177   0.294   1.693
 9463SOL    HW129288   6.165   0.365   1.762
 9463SOL    HW229289   6.172   0.336   1.602
 9464SOL     OW29290   5.783   0.579   0.794
 9464SOL    HW129291   5.865   0.523   0.800
 9464SOL    HW229292   5.794   0.661   0.850
 9465SOL     OW29293   1.557   4.559   2.043
 9465SOL    HW129294   1.498   4.492   2.088
 9465SOL    HW229295   1.501   4.618   1.985
 9466SOL     OW29296   3.895   4.392   5.883
 9466SOL    HW129297   3.854   4.314   5.836
 9466SOL    HW229298   3.826   4.461   5.902
 9467SOL     OW29299   1.473   2.082   2.580
 9467SOL    HW129300   1.565   2.089   2.620
 9467SOL    HW229301   1.463   2.147   2.505
 9468SOL     OW29302   5.897   3.664   6.654
 9468SOL    HW129303   5.905   3.751   6.701
 9468SOL    HW229304   5.908   3.678   6.555
 9469SOL     OW29305   6.360   4.950   1.693
 9469SOL    HW129306   6.443   4.997   1.663
 9469SOL    HW229307   6.301   5.013   1.742
 9470SOL     OW29308   5.072   3.100   5.923
 9470SOL    HW129309   5.089   3.135   6.015
 9470SOL    HW229310   4.976   3.116   5.899
 9471SOL     OW29311   6.870   1.680   4.689
 9471SOL    HW129312   6.804   1.695   4.762
 9471SOL    HW229313   6.867   1.757   4.625
 9472SOL     OW29314   6.447   2.648   5.512
 9472SOL    HW129315   6.534   2.599   5.513
 9472SOL    HW229316   6.374   2.586   5.539
 9473SOL     OW29317   2.408   5.521   6.959
 9473SOL    HW129318   2.452   5.471   6.884
 9473SOL    HW229319   2.347   5.459   7.010
 9474SOL     OW29320   0.414   2.984   0.233
 9474SOL    HW129321   0.424   3.071   0.184
 9474SOL    HW229322   0.501   2.935   0.233
 9475SOL     OW29323   3.548   3.125   6.981
 9475SOL    HW129324   3.484   3.112   6.905
 9475SOL    HW229325   3.533   3.215   7.022
 9476SOL     OW29326   3.779   4.155   4.919
 9476SOL    HW129327   3.761   4.108   4.833
 9476SOL    HW229328   3.800   4.252   4.900
 9477SOL     OW29329   0.599   2.788   0.972
 9477SOL    HW129330   0.558   2.726   1.039
 9477SOL    HW229331   0.682   2.828   1.010
 9478SOL     OW29332   5.059   3.130   0.631
 9478SOL    HW129333   5.120   3.197   0.588
 9478SOL    HW229334   5.018   3.072   0.561
 9479SOL     OW29335   4.168   6.427   6.589
 9479SOL    HW129336   4.074   6.458   6.574
 9479SOL    HW229337   4.175   6.329   6.567
 9480SOL     OW29338   5.745   4.856   0.831
 9480SOL    HW129339   5.687   4.778   0.854
 9480SOL    HW229340   5.707   4.905   0.753
 9481SOL     OW29341   4.874   3.068   2.180
 9481SOL    HW129342   4.843   3.055   2.274
 9481SOL    HW229343   4.797   3.051   2.117
 9482SOL     OW29344   0.593   1.211   3.002
 9482SOL    HW129345   0.607   1.310   2.999
 9482SOL    HW229346   0.634   1.168   2.922
 9483SOL     OW29347   1.829   1.394   1.050
 9483SOL    HW129348   1.769   1.415   0.973
 9483SOL    HW229349   1.887   1.473   1.070
 9484SOL     OW29350   4.317   0.616   3.947
 9484SOL    HW129351   4.341   0.548   4.015
 9484SOL    HW229352   4.245   0.675   3.983
 9485SOL     OW29353   0.724   0.600   0.474
 9485SOL    HW129354   0.659   0.645   0.413
 9485SOL    HW229355   0.674   0.543   0.539
 9486SOL     OW29356   4.046   6.453   1.340
 9486SOL    HW129357   4.133   6.488   1.374
 9486SOL    HW229358   4.049   6.353   1.335
 9487SOL     OW29359   3.585   3.506   3.919
 9487SOL    HW129360   3.676   3.493   3.881
 9487SOL    HW229361   3.590   3.500   4.019
 9488SOL     OW29362   2.557   6.312   1.058
 9488SOL    HW129363   2.501   6.316   0.975
 9488SOL    HW229364   2.637   6.371   1.047
 9489SOL     OW29365   4.613   4.137   1.429
 9489SOL    HW129366   4.616   4.042   1.397
 9489SOL    HW229367   4.686   4.152   1.496
 9490SOL     OW29368   6.270   4.651   2.495
 9490SOL    HW129369   6.250   4.746   2.518
 9490SOL    HW229370   6.248   4.592   2.573
 9491SOL     OW29371   6.027   4.903   4.121
 9491SOL    HW129372   5.958   4.851   4.170
 9491SOL    HW229373   5.983   4.954   4.047
 9492SOL     OW29374   3.711   2.923   4.137
 9492SOL    HW129375   3.623   2.883   4.108
 9492SOL    HW229376   3.718   2.919   4.236
 9493SOL     OW29377   3.277   5.622   4.181
 9493SOL    HW129378   3.192   5.642   4.229
 9493SOL    HW229379   3.332   5.558   4.234
 9494SOL     OW29380   4.889   3.493   2.056
 9494SOL    HW129381   4.894   3.507   1.957
 9494SOL    HW229382   4.796   3.465   2.081
 9495SOL     OW29383   6.577   1.737   3.664
 9495SOL    HW129384   6.515   1.659   3.665
 9495SOL    HW229385   6.585   1.773   3.571
 9496SOL     OW29386   6.621   3.728   1.773
 9496SOL    HW129387   6.614   3.785   1.691
 9496SOL    HW229388   6.638   3.633   1.746
 9497SOL     OW29389   5.684   6.363   5.746
 9497SOL    HW129390   5.658   6.271   5.717
 9497SOL    HW229391   5.733   6.358   5.833
 9498SOL     OW29392   4.039   6.670   4.698
 9498SOL    HW129393   4.091   6.749   4.729
 9498SOL    HW229394   4.082   6.586   4.733
 9499SOL     OW29395   2.306   5.498   6.526
 9499SOL    HW129396   2.385   5.470   6.581
 9499SOL    HW229397   2.296   5.436   6.449
 9500SOL     OW29398   5.340   0.176   0.984
 9500SOL    HW129399   5.378   0.216   0.900
 9500SOL    HW229400   5.351   0.077   0.981
 9501SOL     OW29401   3.016   1.036   4.501
 9501SOL    HW129402   2.973   1.125   4.515
 9501SOL    HW229403   3.099   1.047   4.447
 9502SOL     OW29404   5.429   3.040   5.037
 9502SOL    HW129405   5.423   3.128   4.989
 9502SOL    HW229406   5.391   2.968   4.980
 9503SOL     OW29407   0.534   1.396   1.170
 9503SOL    HW129408   0.479   1.437   1.243
 9503SOL    HW229409   0.491   1.416   1.082
 9504SOL     OW29410   0.422   2.814   0.506
 9504SOL    HW129411   0.394   2.765   0.589
 9504SOL    HW229412   0.366   2.784   0.429
 9505SOL     OW29413   4.895   4.524   3.911
 9505SOL    HW129414   4.892   4.439   3.859
 9505SOL    HW229415   4.826   4.588   3.876
 9506SOL     OW29416   1.135   1.886   6.431
 9506SOL    HW129417   1.110   1.877   6.334
 9506SOL    HW229418   1.051   1.891   6.486
 9507SOL     OW29419   1.339   2.190   3.247
 9507SOL    HW129420   1.308   2.285   3.248
 9507SOL    HW229421   1.322   2.151   3.156
 9508SOL     OW29422   6.141   2.234   1.368
 9508SOL    HW129423   6.221   2.295   1.373
 9508SOL    HW229424   6.104   2.237   1.275
 9509SOL     OW29425   0.845   1.243   4.077
 9509SOL    HW129426   0.919   1.177   4.065
 9509SOL    HW229427   0.757   1.196   4.068
 9510SOL     OW29428   1.482   3.838   3.268
 9510SOL    HW129429   1.438   3.877   3.188
 9510SOL    HW229430   1.581   3.857   3.265
 9511SOL     OW29431   1.564   0.740   0.574
 9511SOL    HW129432   1.521   0.816   0.527
 9511SOL    HW229433   1.494   0.673   0.600
 9512SOL     OW29434   6.229   1.640   1.473
 9512SOL    HW129435   6.155   1.644   1.540
 9512SOL    HW229436   6.251   1.545   1.452
 9513SOL     OW29437   2.171   3.773   6.808
 9513SOL    HW129438   2.222   3.713   6.869
 9513SOL    HW229439   2.212   3.771   6.717
 9514SOL     OW29440   2.128   5.281   5.998
 9514SOL    HW129441   2.137   5.352   6.068
 9514SOL    HW229442   2.216   5.264   5.956
 9515SOL     OW29443   2.042   5.705   1.035
 9515SOL    HW129444   2.061   5.800   1.057
 9515SOL    HW229445   1.988   5.701   0.950
 9516SOL     OW29446   5.818   4.638   5.795
 9516SOL    HW129447   5.788   4.688   5.876
 9516SOL    HW229448   5.772   4.550   5.791
 9517SOL     OW29449   2.205   4.476   0.736
 9517SOL    HW129450   2.243   4.568   0.723
 9517SOL    HW229451   2.130   4.462   0.671
 9518SOL     OW29452   2.233   2.063   0.188
 9518SOL    HW129453   2.201   2.029   0.099
 9518SOL    HW229454   2.159   2.056   0.255
 9519SOL     OW29455   3.782   3.496   4.910
 9519SOL    HW129456   3.793   3.575   4.850
 9519SOL    HW229457   3.685   3.478   4.923
 9520SOL     OW29458   1.601   1.490   3.660
 9520SOL    HW129459   1.639   1.518   3.572
 9520SOL    HW229460   1.663   1.425   3.705
 9521SOL     OW29461   4.861   5.074   1.609
 9521SOL    HW129462   4.815   5.009   1.669
 9521SOL    HW229463   4.955   5.043   1.591
 9522SOL     OW29464   3.009   5.501   1.375
 9522SOL    HW129465   2.912   5.522   1.369
 9522SOL    HW229466   3.042   5.469   1.286
 9523SOL     OW29467   2.565   4.646   5.145
 9523SOL    HW129468   2.568   4.590   5.228
 9523SOL    HW229469   2.648   4.629   5.092
 9524SOL     OW29470   3.450   3.252   1.225
 9524SOL    HW129471   3.449   3.204   1.313
 9524SOL    HW229472   3.359   3.249   1.184
 9525SOL     OW29473   2.356   2.618   5.478
 9525SOL    HW129474   2.366   2.560   5.397
 9525SOL    HW229475   2.443   2.665   5.496
 9526SOL     OW29476   5.716   5.087   1.523
 9526SOL    HW129477   5.618   5.108   1.535
 9526SOL    HW229478   5.768   5.173   1.525
 9527SOL     OW29479   0.581   0.698   4.109
 9527SOL    HW129480   0.680   0.697   4.125
 9527SOL    HW229481   0.539   0.620   4.155
 9528SOL     OW29482   6.900   1.290   0.221
 9528SOL    HW129483   6.829   1.284   0.152
 9528SOL    HW229484   6.988   1.265   0.182
 9529SOL     OW29485   6.528   3.209   5.895
 9529SOL    HW129486   6.564   3.120   5.866
 9529SOL    HW229487   6.440   3.225   5.851
 9530SOL     OW29488   1.466   4.250   2.126
 9530SOL    HW129489   1.432   4.157   2.112
 9530SOL    HW229490   1.564   4.247   2.145
 9531SOL     OW29491   4.562   5.012   2.976
 9531SOL    HW129492   4.592   5.104   3.000
 9531SOL    HW229493   4.530   4.965   3.058
 9532SOL     OW29494   6.685   6.990   2.089
 9532SOL    HW129495   6.689   6.922   2.163
 9532SOL    HW229496   6.702   0.058   2.127
 9533SOL     OW29497   6.843   6.219   5.730
 9533SOL    HW129498   6.795   6.157   5.792
 9533SOL    HW229499   6.869   6.169   5.647
 9534SOL     OW29500   0.388   3.781   4.884
 9534SOL    HW129501   0.319   3.796   4.813
 9534SOL    HW229502   0.441   3.699   4.862
 9535SOL     OW29503   2.006   1.095   6.141
 9535SOL    HW129504   2.058   1.170   6.100
 9535SOL    HW229505   1.970   1.125   6.230
 9536SOL     OW29506   2.709   4.223   5.801
 9536SOL    HW129507   2.624   4.173   5.782
 9536SOL    HW229508   2.779   4.196   5.735
 9537SOL     OW29509   2.909   6.801   3.144
 9537SOL    HW129510   2.932   6.709   3.113
 9537SOL    HW229511   2.963   6.824   3.224
 9538SOL     OW29512   6.137   1.936   3.540
 9538SOL    HW129513   6.166   1.912   3.448
 9538SOL    HW229514   6.152   1.858   3.601
 9539SOL     OW29515   2.908   3.991   5.173
 9539SOL    HW129516   2.822   3.993   5.223
 9539SOL    HW229517   2.913   3.908   5.118
 9540SOL     OW29518   5.969   4.115   4.416
 9540SOL    HW129519   5.887   4.135   4.470
 9540SOL    HW229520   6.013   4.033   4.453
 9541SOL     OW29521   4.189   0.442   5.613
 9541SOL    HW129522   4.280   0.407   5.638
 9541SOL    HW229523   4.119   0.384   5.653
 9542SOL     OW29524   5.109   4.400   4.522
 9542SOL    HW129525   5.186   4.345   4.490
 9542SOL    HW229526   5.024   4.349   4.509
 9543SOL     OW29527   3.685   0.877   5.414
 9543SOL    HW129528   3.663   0.822   5.333
 9543SOL    HW229529   3.615   0.947   5.427
 9544SOL     OW29530   6.815   1.495   3.807
 9544SOL    HW129531   6.882   1.440   3.857
 9544SOL    HW229532   6.770   1.557   3.870
 9545SOL     OW29533   5.819   5.210   4.047
 9545SOL    HW129534   5.786   5.175   4.135
 9545SOL    HW229535   5.918   5.203   4.043
 9546SOL     OW29536   3.641   2.198   5.617
 9546SOL    HW129537   3.622   2.249   5.533
 9546SOL    HW229538   3.561   2.144   5.643
 9547SOL     OW29539   2.116   6.581   4.764
 9547SOL    HW129540   2.134   6.626   4.851
 9547SOL    HW229541   2.198   6.533   4.733
 9548SOL     OW29542   6.395   5.566   6.427
 9548SOL    HW129543   6.343   5.498   6.375
 9548SOL    HW229544   6.393   5.653   6.379
 9549SOL     OW29545   2.800   2.898   0.988
 9549SOL    HW129546   2.883   2.911   0.935
 9549SOL    HW229547   2.731   2.852   0.932
 9550SOL     OW29548   0.564   1.205   0.404
 9550SOL    HW129549   0.575   1.120   0.454
 9550SOL    HW229550   0.606   1.280   0.455
 9551SOL     OW29551   5.735   1.287   4.303
 9551SOL    HW129552   5.696   1.255   4.217
 9551SOL    HW229553   5.672   1.266   4.378
 9552SOL     OW29554   1.617   6.235   3.149
 9552SOL    HW129555   1.572   6.303   3.091
 9552SOL    HW229556   1.649   6.280   3.233
 9553SOL     OW29557   6.168   3.850   6.744
 9553SOL    HW129558   6.199   3.763   6.783
 9553SOL    HW229559   6.228   3.876   6.669
 9554SOL     OW29560   2.405   0.397   1.215
 9554SOL    HW129561   2.455   0.443   1.289
 9554SOL    HW229562   2.315   0.369   1.249
 9555SOL     OW29563   1.084   1.002   2.628
 9555SOL    HW129564   1.173   0.967   2.597
 9555SOL    HW229565   1.095   1.045   2.718
 9556SOL     OW29566   1.440   1.897   1.383
 9556SOL    HW129567   1.396   1.809   1.362
 9556SOL    HW229568   1.462   1.900   1.481
 9557SOL     OW29569   0.296   0.400   2.814
 9557SOL    HW129570   0.228   0.460   2.771
 9557SOL    HW229571   0.280   0.398   2.913
 9558SOL     OW29572   6.346   6.344   4.571
 9558SOL    HW129573   6.440   6.336   4.540
 9558SOL    HW229574   6.285   6.347   4.491
 9559SOL     OW29575   0.732   4.156   0.928
 9559SOL    HW129576   0.791   4.225   0.887
 9559SOL    HW229577   0.783   4.105   0.997
 9560SOL     OW29578   1.235   1.891   3.318
 9560SOL    HW129579   1.188   1.884   3.406
 9560SOL    HW229580   1.177   1.852   3.246
 9561SOL     OW29581   1.350   6.435   0.287
 9561SOL    HW129582   1.285   6.373   0.244
 9561SOL    HW229583   1.376   6.507   0.222
 9562SOL     OW29584   3.299   0.393   5.525
 9562SOL    HW129585   3.218   0.451   5.536
 9562SOL    HW229586   3.381   0.450   5.520
 9563SOL     OW29587   6.555   0.075   0.955
 9563SOL    HW129588   6.612   0.059   0.874
 9563SOL    HW229589   6.499   7.016   0.972
 9564SOL     OW29590   3.232   0.365   0.369
 9564SOL    HW129591   3.311   0.400   0.320
 9564SOL    HW229592   3.181   0.302   0.310
 9565SOL     OW29593   4.074   6.153   4.723
 9565SOL    HW129594   4.116   6.243   4.713
 9565SOL    HW229595   4.137   6.092   4.770
 9566SOL     OW29596   2.628   4.792   6.637
 9566SOL    HW129597   2.652   4.802   6.540
 9566SOL    HW229598   2.530   4.807   6.649
 9567SOL     OW29599   5.710   4.835   6.484
 9567SOL    HW129600   5.755   4.852   6.396
 9567SOL    HW229601   5.704   4.920   6.536
 9568SOL     OW29602   4.489   2.362   6.374
 9568SOL    HW129603   4.558   2.292   6.394
 9568SOL    HW229604   4.489   2.431   6.446
 9569SOL     OW29605   0.100   0.677   2.752
 9569SOL    HW129606   0.073   0.773   2.758
 9569SOL    HW229607   0.171   0.667   2.682
 9570SOL     OW29608   0.977   3.003   2.500
 9570SOL    HW129609   0.990   2.910   2.466
 9570SOL    HW229610   1.001   3.068   2.428
 9571SOL     OW29611   2.523   3.947   6.874
 9571SOL    HW129612   2.464   4.026   6.857
 9571SOL    HW229613   2.619   3.976   6.870
 9572SOL     OW29614   2.359   5.632   1.784
 9572SOL    HW129615   2.335   5.713   1.731
 9572SOL    HW229616   2.316   5.637   1.874
 9573SOL     OW29617   1.190   0.991   6.589
 9573SOL    HW129618   1.230   0.964   6.501
 9573SOL    HW229619   1.137   0.916   6.626
 9574SOL     OW29620   3.929   3.623   4.528
 9574SOL    HW129621   3.975   3.640   4.441
 9574SOL    HW229622   3.833   3.599   4.510
 9575SOL     OW29623   5.643   1.739   0.857
 9575SOL    HW129624   5.573   1.702   0.917
 9575SOL    HW229625   5.665   1.673   0.785
 9576SOL     OW29626   2.642   0.238   2.266
 9576SOL    HW129627   2.617   0.311   2.202
 9576SOL    HW229628   2.591   0.155   2.243
 9577SOL     OW29629   1.150   0.652   4.491
 9577SOL    HW129630   1.071   0.700   4.530
 9577SOL    HW229631   1.215   0.720   4.455
 9578SOL     OW29632   0.540   4.447   3.610
 9578SOL    HW129633   0.597   4.515   3.658
 9578SOL    HW229634   0.494   4.390   3.678
 9579SOL     OW29635   1.874   5.323   2.847
 9579SOL    HW129636   1.824   5.374   2.778
 9579SOL    HW229637   1.966   5.360   2.856
 9580SOL     OW29638   4.341   3.125   1.081
 9580SOL    HW129639   4.398   3.099   1.004
 9580SOL    HW229640   4.309   3.042   1.128
 9581SOL     OW29641   1.417   5.327   6.262
 9581SOL    HW129642   1.475   5.310   6.183
 9581SOL    HW229643   1.445   5.412   6.306
 9582SOL     OW29644   4.857   4.695   4.637
 9582SOL    HW129645   4.867   4.626   4.709
 9582SOL    HW229646   4.920   4.771   4.656
 9583SOL     OW29647   3.580   4.878   1.214
 9583SOL    HW129648   3.512   4.812   1.184
 9583SOL    HW229649   3.667   4.832   1.233
 9584SOL     OW29650   6.802   6.489   0.329
 9584SOL    HW129651   6.840   6.396   0.332
 9584SOL    HW229652   6.877   6.555   0.325
 9585SOL     OW29653   6.197   0.278   3.199
 9585SOL    HW129654   6.269   0.299   3.265
 9585SOL    HW229655   6.226   0.306   3.107
 9586SOL     OW29656   5.784   3.780   2.826
 9586SOL    HW129657   5.734   3.743   2.747
 9586SOL    HW229658   5.882   3.765   2.813
 9587SOL     OW29659   6.395   0.619   2.748
 9587SOL    HW129660   6.417   0.683   2.822
 9587SOL    HW229661   6.362   0.671   2.669
 9588SOL     OW29662   0.476   1.366   2.473
 9588SOL    HW129663   0.482   1.411   2.562
 9588SOL    HW229664   0.550   1.300   2.464
 9589SOL     OW29665   2.539   5.488   5.957
 9589SOL    HW129666   2.625   5.537   5.944
 9589SOL    HW229667   2.482   5.537   6.023
 9590SOL     OW29668   0.227   4.295   2.143
 9590SOL    HW129669   0.228   4.335   2.052
 9590SOL    HW229670   0.319   4.264   2.167
 9591SOL     OW29671   3.121   6.253   6.900
 9591SOL    HW129672   3.028   6.247   6.937
 9591SOL    HW229673   3.131   6.339   6.849
 9592SOL     OW29674   3.778   4.565   1.665
 9592SOL    HW129675   3.787   4.598   1.571
 9592SOL    HW229676   3.685   4.582   1.698
 9593SOL     OW29677   6.531   0.346   4.725
 9593SOL    HW129678   6.449   0.329   4.670
 9593SOL    HW229679   6.518   0.429   4.779
 9594SOL     OW29680   1.471   5.897   3.006
 9594SOL    HW129681   1.405   5.825   2.984
 9594SOL    HW229682   1.437   5.985   2.972
 9595SOL     OW29683   1.896   4.146   5.162
 9595SOL    HW129684   1.861   4.053   5.165
 9595SOL    HW229685   1.992   4.147   5.188
 9596SOL     OW29686   0.606   5.922   0.161
 9596SOL    HW129687   0.696   5.917   0.117
 9596SOL    HW229688   0.535   5.897   0.096
 9597SOL     OW29689   0.397   4.713   0.585
 9597SOL    HW129690   0.337   4.652   0.637
 9597SOL    HW229691   0.342   4.768   0.521
 9598SOL     OW29692   0.741   3.599   5.310
 9598SOL    HW129693   0.698   3.670   5.367
 9598SOL    HW229694   0.803   3.642   5.245
 9599SOL     OW29695   3.345   0.264   5.252
 9599SOL    HW129696   3.276   0.259   5.179
 9599SOL    HW229697   3.431   0.299   5.214
 9600SOL     OW29698   2.454   6.879   7.005
 9600SOL    HW129699   2.512   6.874   0.064
 9600SOL    HW229700   2.474   6.801   6.946
 9601SOL     OW29701   6.183   4.140   6.899
 9601SOL    HW129702   6.234   4.173   6.978
 9601SOL    HW229703   6.220   4.051   6.870
 9602SOL     OW29704   6.468   4.945   6.797
 9602SOL    HW129705   6.446   5.041   6.780
 9602SOL    HW229706   6.560   4.925   6.764
 9603SOL     OW29707   3.273   0.906   4.731
 9603SOL    HW129708   3.178   0.930   4.710
 9603SOL    HW229709   3.289   0.810   4.708
 9604SOL     OW29710   5.033   0.496   0.665
 9604SOL    HW129711   4.970   0.453   0.731
 9604SOL    HW229712   5.101   0.428   0.635
 9605SOL     OW29713   0.926   5.071   4.973
 9605SOL    HW129714   0.935   4.972   4.965
 9605SOL    HW229715   0.830   5.095   4.984
 9606SOL     OW29716   1.730   6.267   5.036
 9606SOL    HW129717   1.728   6.309   4.946
 9606SOL    HW229718   1.808   6.204   5.042
 9607SOL     OW29719   1.041   2.175   1.941
 9607SOL    HW129720   1.115   2.113   1.964
 9607SOL    HW229721   0.963   2.123   1.904
 9608SOL     OW29722   6.471   6.598   1.604
 9608SOL    HW129723   6.468   6.563   1.698
 9608SOL    HW229724   6.547   6.554   1.555
 9609SOL     OW29725   1.791   3.914   5.725
 9609SOL    HW129726   1.735   3.833   5.709
 9609SOL    HW229727   1.766   3.986   5.661
 9610SOL     OW29728   1.500   4.430   3.953
 9610SOL    HW129729   1.599   4.424   3.940
 9610SOL    HW229730   1.475   4.389   4.040
 9611SOL     OW29731   0.117   6.911   6.883
 9611SOL    HW129732   0.084   6.958   6.801
 9611SOL    HW229733   0.118   6.812   6.866
 9612SOL     OW29734   6.555   3.256   1.342
 9612SOL    HW129735   6.614   3.333   1.318
 9612SOL    HW229736   6.476   3.255   1.281
 9613SOL     OW29737   3.772   6.473   3.422
 9613SOL    HW129738   3.866   6.472   3.388
 9613SOL    HW229739   3.724   6.553   3.387
 9614SOL     OW29740   3.733   2.937   1.181
 9614SOL    HW129741   3.767   2.843   1.176
 9614SOL    HW229742   3.701   2.966   1.090
 9615SOL     OW29743   0.975   6.861   2.422
 9615SOL    HW129744   1.048   6.908   2.372
 9615SOL    HW229745   0.984   6.880   2.520
 9616SOL     OW29746   4.579   3.814   0.733
 9616SOL    HW129747   4.518   3.765   0.670
 9616SOL    HW229748   4.606   3.901   0.693
 9617SOL     OW29749   1.166   3.607   4.641
 9617SOL    HW129750   1.171   3.700   4.606
 9617SOL    HW229751   1.085   3.561   4.604
 9618SOL     OW29752   4.923   0.127   6.048
 9618SOL    HW129753   4.967   0.196   6.105
 9618SOL    HW229754   4.991   0.060   6.018
 9619SOL     OW29755   1.347   0.558   0.619
 9619SOL    HW129756   1.344   0.488   0.690
 9619SOL    HW229757   1.300   0.640   0.651
 9620SOL     OW29758   5.620   1.537   6.742
 9620SOL    HW129759   5.699   1.541   6.803
 9620SOL    HW229760   5.643   1.483   6.661
 9621SOL     OW29761   1.790   1.523   2.837
 9621SOL    HW129762   1.734   1.587   2.785
 9621SOL    HW229763   1.732   1.449   2.873
 9622SOL     OW29764   6.229   0.926   6.578
 9622SOL    HW129765   6.257   1.015   6.614
 9622SOL    HW229766   6.142   0.935   6.530
 9623SOL     OW29767   4.083   5.370   5.488
 9623SOL    HW129768   4.165   5.402   5.440
 9623SOL    HW229769   4.097   5.378   5.587
 9624SOL     OW29770   5.479   3.956   3.981
 9624SOL    HW129771   5.537   3.894   3.927
 9624SOL    HW229772   5.436   4.023   3.920
 9625SOL     OW29773   5.219   4.748   6.708
 9625SOL    HW129774   5.266   4.782   6.790
 9625SOL    HW229775   5.240   4.651   6.696
 9626SOL     OW29776   2.054   5.848   5.644
 9626SOL    HW129777   2.075   5.837   5.741
 9626SOL    HW229778   1.958   5.825   5.627
 9627SOL     OW29779   6.867   4.137   4.605
 9627SOL    HW129780   6.958   4.169   4.582
 9627SOL    HW229781   6.864   4.037   4.595
 9628SOL     OW29782   6.258   4.572   0.390
 9628SOL    HW129783   6.227   4.485   0.427
 9628SOL    HW229784   6.339   4.557   0.332
 9629SOL     OW29785   6.529   5.695   2.337
 9629SOL    HW129786   6.534   5.763   2.410
 9629SOL    HW229787   6.585   5.726   2.259
 9630SOL     OW29788   6.401   6.250   5.646
 9630SOL    HW129789   6.443   6.338   5.668
 9630SOL    HW229790   6.458   6.176   5.679
 9631SOL     OW29791   4.674   1.868   0.722
 9631SOL    HW129792   4.772   1.879   0.742
 9631SOL    HW229793   4.663   1.803   0.647
 9632SOL     OW29794   2.605   5.578   1.643
 9632SOL    HW129795   2.508   5.581   1.670
 9632SOL    HW229796   2.660   5.627   1.710
 9633SOL     OW29797   3.630   4.175   0.227
 9633SOL    HW129798   3.644   4.272   0.213
 9633SOL    HW229799   3.584   4.135   0.148
 9634SOL     OW29800   0.264   5.922   3.625
 9634SOL    HW129801   0.274   5.921   3.724
 9634SOL    HW229802   0.339   5.871   3.583
 9635SOL     OW29803   2.240   4.321   5.383
 9635SOL    HW129804   2.337   4.300   5.369
 9635SOL    HW229805   2.215   4.401   5.329
 9636SOL     OW29806   4.700   1.693   6.230
 9636SOL    HW129807   4.635   1.646   6.170
 9636SOL    HW229808   4.740   1.771   6.181
 9637SOL     OW29809   3.890   2.686   0.830
 9637SOL    HW129810   3.876   2.683   0.929
 9637SOL    HW229811   3.802   2.676   0.783
 9638SOL     OW29812   7.011   3.179   5.752
 9638SOL    HW129813   0.069   3.179   5.694
 9638SOL    HW229814   6.975   3.272   5.759
 9639SOL     OW29815   4.158   2.260   2.054
 9639SOL    HW129816   4.180   2.244   2.150
 9639SOL    HW229817   4.116   2.350   2.044
 9640SOL     OW29818   3.155   0.926   2.866
 9640SOL    HW129819   3.237   0.881   2.832
 9640SOL    HW229820   3.084   0.858   2.884
 9641SOL     OW29821   5.496   5.485   1.620
 9641SOL    HW129822   5.569   5.438   1.670
 9641SOL    HW229823   5.408   5.443   1.641
 9642SOL     OW29824   1.471   6.166   4.510
 9642SOL    HW129825   1.385   6.211   4.534
 9642SOL    HW229826   1.514   6.130   4.593
 9643SOL     OW29827   5.032   4.085   3.548
 9643SOL    HW129828   5.002   4.178   3.569
 9643SOL    HW229829   5.068   4.082   3.454
 9644SOL     OW29830   1.038   5.645   5.576
 9644SOL    HW129831   0.965   5.711   5.591
 9644SOL    HW229832   1.120   5.675   5.625
 9645SOL     OW29833   2.820   4.804   4.067
 9645SOL    HW129834   2.754   4.728   4.064
 9645SOL    HW229835   2.859   4.818   3.976
 9646SOL     OW29836   2.735   5.039   1.800
 9646SOL    HW129837   2.797   4.994   1.736
 9646SOL    HW229838   2.749   5.002   1.892
 9647SOL     OW29839   6.984   6.742   2.617
 9647SOL    HW129840   0.035   6.678   2.636
 9647SOL    HW229841   7.009   6.800   2.540
 9648SOL     OW29842   3.809   2.613   6.648
 9648SOL    HW129843   3.877   2.629   6.577
 9648SOL    HW229844   3.719   2.598   6.606
 9649SOL     OW29845   1.925   4.303   0.069
 9649SOL    HW129846   1.951   4.380   0.011
 9649SOL    HW229847   1.834   4.270   0.041
 9650SOL     OW29848   4.897   5.170   3.148
 9650SOL    HW129849   4.797   5.171   3.150
 9650SOL    HW229850   4.932   5.264   3.148
 9651SOL     OW29851   5.372   1.438   0.922
 9651SOL    HW129852   5.302   1.398   0.982
 9651SOL    HW229853   5.373   1.537   0.934
 9652SOL     OW29854   1.427   4.766   1.890
 9652SOL    HW129855   1.341   4.717   1.873
 9652SOL    HW229856   1.408   4.864   1.897
 9653SOL     OW29857   4.966   5.277   4.591
 9653SOL    HW129858   4.913   5.225   4.658
 9653SOL    HW229859   5.044   5.222   4.560
 9654SOL     OW29860   3.182   3.167   3.270
 9654SOL    HW129861   3.146   3.259   3.251
 9654SOL    HW229862   3.117   3.117   3.328
 9655SOL     OW29863   0.183   1.776   0.386
 9655SOL    HW129864   0.150   1.732   0.470
 9655SOL    HW229865   0.259   1.836   0.408
 9656SOL     OW29866   4.298   2.899   1.247
 9656SOL    HW129867   4.303   2.847   1.162
 9656SOL    HW229868   4.311   2.838   1.324
 9657SOL     OW29869   5.317   3.453   2.516
 9657SOL    HW129870   5.326   3.437   2.418
 9657SOL    HW229871   5.382   3.522   2.545
 9658SOL     OW29872   5.307   1.647   2.326
 9658SOL    HW129873   5.337   1.585   2.253
 9658SOL    HW229874   5.228   1.609   2.373
 9659SOL     OW29875   0.489   3.599   6.681
 9659SOL    HW129876   0.569   3.578   6.737
 9659SOL    HW229877   0.514   3.664   6.610
 9660SOL     OW29878   0.545   7.002   3.300
 9660SOL    HW129879   0.638   0.013   3.315
 9660SOL    HW229880   0.538   6.907   3.331
 9661SOL     OW29881   3.672   6.375   1.379
 9661SOL    HW129882   3.710   6.361   1.470
 9661SOL    HW229883   3.656   6.473   1.364
 9662SOL     OW29884   4.043   3.033   5.920
 9662SOL    HW129885   3.979   2.956   5.923
 9662SOL    HW229886   4.063   3.063   6.013
 9663SOL     OW29887   6.757   6.036   2.291
 9663SOL    HW129888   6.665   6.075   2.291
 9663SOL    HW229889   6.822   6.105   2.258
 9664SOL     OW29890   5.686   5.175   4.282
 9664SOL    HW129891   5.707   5.251   4.344
 9664SOL    HW229892   5.594   5.140   4.302
 9665SOL     OW29893   5.857   6.382   6.319
 9665SOL    HW129894   5.782   6.356   6.380
 9665SOL    HW229895   5.903   6.300   6.285
 9666SOL     OW29896   6.518   4.019   2.344
 9666SOL    HW129897   6.574   4.019   2.262
 9666SOL    HW229898   6.524   4.109   2.388
 9667SOL     OW29899   3.957   3.670   6.936
 9667SOL    HW129900   3.957   3.686   0.012
 9667SOL    HW229901   3.882   3.607   6.912
 9668SOL     OW29902   0.523   0.731   6.148
 9668SOL    HW129903   0.536   0.764   6.241
 9668SOL    HW229904   0.612   0.717   6.104
 9669SOL     OW29905   2.105   0.087   1.719
 9669SOL    HW129906   2.163   0.013   1.752
 9669SOL    HW229907   2.100   0.159   1.788
 9670SOL     OW29908   0.062   4.813   5.953
 9670SOL    HW129909   0.105   4.788   6.041
 9670SOL    HW229910   0.122   4.877   5.905
 9671SOL     OW29911   0.207   4.229   6.999
 9671SOL    HW129912   0.191   4.135   0.007
 9671SOL    HW229913   0.128   4.286   0.000
 9672SOL     OW29914   1.569   5.491   3.454
 9672SOL    HW129915   1.535   5.400   3.431
 9672SOL    HW229916   1.600   5.492   3.549
 9673SOL     OW29917   4.265   3.916   1.578
 9673SOL    HW129918   4.184   3.946   1.630
 9673SOL    HW229919   4.236   3.858   1.502
 9674SOL     OW29920   3.149   0.010   3.507
 9674SOL    HW129921   3.204   7.013   3.587
 9674SOL    HW229922   3.190   0.085   3.455
 9675SOL     OW29923   5.730   2.383   6.445
 9675SOL    HW129924   5.740   2.482   6.435
 9675SOL    HW229925   5.789   2.351   6.519
 9676SOL     OW29926   1.438   3.332   5.577
 9676SOL    HW129927   1.483   3.321   5.665
 9676SOL    HW229928   1.477   3.411   5.530
 9677SOL     OW29929   0.041   5.723   4.646
 9677SOL    HW129930   6.972   5.714   4.684
 9677SOL    HW229931   0.084   5.805   4.683
 9678SOL     OW29932   3.122   3.940   3.899
 9678SOL    HW129933   3.059   3.877   3.945
 9678SOL    HW229934   3.082   3.969   3.812
 9679SOL     OW29935   2.921   0.633   3.552
 9679SOL    HW129936   2.977   0.671   3.479
 9679SOL    HW229937   2.842   0.587   3.512
 9680SOL     OW29938   4.255   1.121   3.508
 9680SOL    HW129939   4.344   1.084   3.481
 9680SOL    HW229940   4.218   1.178   3.434
 9681SOL     OW29941   2.893   1.922   0.790
 9681SOL    HW129942   2.808   1.891   0.748
 9681SOL    HW229943   2.890   2.021   0.803
 9682SOL     OW29944   4.682   4.213   3.519
 9682SOL    HW129945   4.733   4.288   3.561
 9682SOL    HW229946   4.673   4.230   3.421
 9683SOL     OW29947   3.416   6.475   1.733
 9683SOL    HW129948   3.410   6.445   1.638
 9683SOL    HW229949   3.350   6.423   1.788
 9684SOL     OW29950   0.751   3.269   6.160
 9684SOL    HW129951   0.795   3.357   6.180
 9684SOL    HW229952   0.808   3.218   6.095
 9685SOL     OW29953   4.021   4.522   0.612
 9685SOL    HW129954   3.996   4.602   0.666
 9685SOL    HW229955   4.097   4.474   0.657
 9686SOL     OW29956   0.701   3.190   6.776
 9686SOL    HW129957   0.731   3.225   6.864
 9686SOL    HW229958   0.713   3.091   6.773
 9687SOL     OW29959   0.883   0.826   4.123
 9687SOL    HW129960   0.939   0.883   4.062
 9687SOL    HW229961   0.824   0.885   4.178
 9688SOL     OW29962   1.292   2.803   1.294
 9688SOL    HW129963   1.293   2.731   1.225
 9688SOL    HW229964   1.337   2.771   1.377
 9689SOL     OW29965   0.839   4.506   6.327
 9689SOL    HW129966   0.766   4.482   6.264
 9689SOL    HW229967   0.927   4.500   6.281
 9690SOL     OW29968   6.227   5.724   6.910
 9690SOL    HW129969   6.202   5.821   6.916
 9690SOL    HW229970   6.144   5.668   6.911
 9691SOL     OW29971   3.530   5.109   1.085
 9691SOL    HW129972   3.528   5.164   1.169
 9691SOL    HW229973   3.553   5.015   1.107
 9692SOL     OW29974   3.895   5.825   1.827
 9692SOL    HW129975   3.962   5.802   1.757
 9692SOL    HW229976   3.825   5.885   1.789
 9693SOL     OW29977   5.319   3.838   2.719
 9693SOL    HW129978   5.367   3.925   2.714
 9693SOL    HW229979   5.310   3.799   2.628
 9694SOL     OW29980   3.007   1.492   1.492
 9694SOL    HW129981   3.038   1.584   1.465
 9694SOL    HW229982   2.952   1.453   1.418
 9695SOL     OW29983   0.457   3.022   3.280
 9695SOL    HW129984   0.429   2.926   3.274
 9695SOL    HW229985   0.414   3.074   3.207
 9696SOL     OW29986   5.388   2.988   1.361
 9696SOL    HW129987   5.377   2.997   1.460
 9696SOL    HW229988   5.422   2.897   1.339
 9697SOL     OW29989   0.270   5.004   0.020
 9697SOL    HW129990   0.344   4.964   0.073
 9697SOL    HW229991   0.252   5.097   0.052
 9698SOL     OW29992   5.358   1.965   5.989
 9698SOL    HW129993   5.268   1.921   5.983
 9698SOL    HW229994   5.372   2.020   5.907
 9699SOL     OW29995   6.348   5.898   6.594
 9699SOL    HW129996   6.423   5.962   6.613
 9699SOL    HW229997   6.352   5.870   6.498
 9700SOL     OW29998   4.634   5.457   5.015
 9700SOL    HW129999   4.544   5.491   4.988
 9700SOL    HW230000   4.675   5.409   4.937
 9701SOL     OW30001   4.169   4.985   5.613
 9701SOL    HW130002   4.219   4.919   5.668
 9701SOL    HW230003   4.209   4.990   5.521
 9702SOL     OW30004   4.272   1.091   6.734
 9702SOL    HW130005   4.291   1.093   6.833
 9702SOL    HW230006   4.357   1.103   6.684
 9703SOL     OW30007   4.857   3.787   3.649
 9703SOL    HW130008   4.857   3.795   3.749
 9703SOL    HW230009   4.951   3.789   3.615
 9704SOL     OW30010   3.616   6.619   1.849
 9704SOL    HW130011   3.584   6.690   1.911
 9704SOL    HW230012   3.538   6.576   1.803
 9705SOL     OW30013   5.642   4.231   5.621
 9705SOL    HW130014   5.708   4.286   5.671
 9705SOL    HW230015   5.672   4.136   5.619
 9706SOL     OW30016   2.225   2.859   0.850
 9706SOL    HW130017   2.166   2.800   0.904
 9706SOL    HW230018   2.261   2.932   0.907
 9707SOL     OW30019   6.111   4.394   2.222
 9707SOL    HW130020   6.054   4.404   2.303
 9707SOL    HW230021   6.139   4.484   2.189
 9708SOL     OW30022   1.219   1.954   3.837
 9708SOL    HW130023   1.196   1.915   3.748
 9708SOL    HW230024   1.218   1.882   3.907
 9709SOL     OW30025   5.198   6.361   3.178
 9709SOL    HW130026   5.282   6.408   3.203
 9709SOL    HW230027   5.132   6.427   3.142
 9710SOL     OW30028   0.066   1.867   1.444
 9710SOL    HW130029   0.042   1.943   1.385
 9710SOL    HW230030   7.016   1.798   1.442
 9711SOL     OW30031   3.613   5.410   6.023
 9711SOL    HW130032   3.609   5.311   6.012
 9711SOL    HW230033   3.590   5.455   5.937
 9712SOL     OW30034   5.493   4.133   6.458
 9712SOL    HW130035   5.467   4.094   6.546
 9712SOL    HW230036   5.555   4.210   6.473
 9713SOL     OW30037   1.692   4.348   3.223
 9713SOL    HW130038   1.608   4.365   3.173
 9713SOL    HW230039   1.671   4.332   3.320
 9714SOL     OW30040   4.275   6.295   6.335
 9714SOL    HW130041   4.270   6.221   6.402
 9714SOL    HW230042   4.313   6.376   6.377
 9715SOL     OW30043   5.685   4.537   0.276
 9715SOL    HW130044   5.586   4.544   0.265
 9715SOL    HW230045   5.712   4.441   0.282
 9716SOL     OW30046   3.738   4.986   6.641
 9716SOL    HW130047   3.686   4.911   6.684
 9716SOL    HW230048   3.796   5.030   6.710
 9717SOL     OW30049   5.439   6.002   5.939
 9717SOL    HW130050   5.350   5.977   5.977
 9717SOL    HW230051   5.429   6.021   5.841
 9718SOL     OW30052   5.248   3.301   0.512
 9718SOL    HW130053   5.242   3.348   0.600
 9718SOL    HW230054   5.253   3.368   0.439
 9719SOL     OW30055   6.653   0.761   5.874
 9719SOL    HW130056   6.587   0.728   5.941
 9719SOL    HW230057   6.609   0.769   5.785
 9720SOL     OW30058   0.641   5.058   2.341
 9720SOL    HW130059   0.625   5.135   2.404
 9720SOL    HW230060   0.687   5.091   2.259
 9721SOL     OW30061   0.369   2.026   0.560
 9721SOL    HW130062   0.418   2.106   0.596
 9721SOL    HW230063   0.418   1.990   0.481
 9722SOL     OW30064   4.413   1.194   4.601
 9722SOL    HW130065   4.404   1.159   4.508
 9722SOL    HW230066   4.386   1.291   4.603
 9723SOL     OW30067   3.179   7.006   3.196
 9723SOL    HW130068   3.206   0.015   3.106
 9723SOL    HW230069   3.085   6.971   3.192
 9724SOL     OW30070   1.693   4.963   0.150
 9724SOL    HW130071   1.610   4.909   0.138
 9724SOL    HW230072   1.681   5.026   0.226
 9725SOL     OW30073   4.973   5.319   5.708
 9725SOL    HW130074   4.906   5.337   5.636
 9725SOL    HW230075   5.064   5.347   5.678
 9726SOL     OW30076   5.146   1.401   3.784
 9726SOL    HW130077   5.112   1.312   3.755
 9726SOL    HW230078   5.199   1.442   3.709
 9727SOL     OW30079   1.153   2.504   0.161
 9727SOL    HW130080   1.115   2.554   0.239
 9727SOL    HW230081   1.236   2.550   0.129
 9728SOL     OW30082   1.675   0.128   5.583
 9728SOL    HW130083   1.699   0.078   5.666
 9728SOL    HW230084   1.748   0.117   5.515
 9729SOL     OW30085   1.285   4.653   3.227
 9729SOL    HW130086   1.327   4.601   3.153
 9729SOL    HW230087   1.228   4.726   3.188
 9730SOL     OW30088   1.898   4.180   3.505
 9730SOL    HW130089   1.810   4.164   3.462
 9730SOL    HW230090   1.962   4.216   3.436
 9731SOL     OW30091   5.174   4.447   1.085
 9731SOL    HW130092   5.224   4.399   1.013
 9731SOL    HW230093   5.080   4.412   1.089
 9732SOL     OW30094   6.878   5.096   2.477
 9732SOL    HW130095   6.820   5.164   2.432
 9732SOL    HW230096   6.974   5.120   2.464
 9733SOL     OW30097   5.291   5.414   0.365
 9733SOL    HW130098   5.257   5.325   0.394
 9733SOL    HW230099   5.313   5.470   0.445
 9734SOL     OW30100   6.361   1.795   0.854
 9734SOL    HW130101   6.417   1.792   0.771
 9734SOL    HW230102   6.405   1.740   0.926
 9735SOL     OW30103   2.053   3.678   3.644
 9735SOL    HW130104   2.071   3.583   3.618
 9735SOL    HW230105   2.080   3.691   3.740
 9736SOL     OW30106   5.962   1.802   6.312
 9736SOL    HW130107   5.866   1.786   6.336
 9736SOL    HW230108   6.017   1.724   6.343
 9737SOL     OW30109   5.935   2.890   3.111
 9737SOL    HW130110   5.844   2.867   3.075
 9737SOL    HW230111   5.963   2.980   3.078
 9738SOL     OW30112   2.251   0.501   0.435
 9738SOL    HW130113   2.168   0.456   0.400
 9738SOL    HW230114   2.290   0.559   0.363
 9739SOL     OW30115   5.827   5.354   1.334
 9739SOL    HW130116   5.838   5.386   1.240
 9739SOL    HW230117   5.829   5.432   1.396
 9740SOL     OW30118   6.930   1.048   3.497
 9740SOL    HW130119   6.923   1.148   3.495
 9740SOL    HW230120   6.977   1.017   3.414
 9741SOL     OW30121   3.793   1.874   2.617
 9741SOL    HW130122   3.710   1.927   2.636
 9741SOL    HW230123   3.791   1.789   2.669
 9742SOL     OW30124   4.898   1.271   0.756
 9742SOL    HW130125   4.942   1.282   0.667
 9742SOL    HW230126   4.889   1.361   0.800
 9743SOL     OW30127   6.759   3.205   4.734
 9743SOL    HW130128   6.695   3.143   4.689
 9743SOL    HW230129   6.800   3.159   4.813
 9744SOL     OW30130   2.076   6.827   2.164
 9744SOL    HW130131   1.990   6.869   2.134
 9744SOL    HW230132   2.063   6.728   2.173
 9745SOL     OW30133   5.506   2.684   6.457
 9745SOL    HW130134   5.575   2.673   6.386
 9745SOL    HW230135   5.419   2.647   6.425
 9746SOL     OW30136   6.491   0.231   5.406
 9746SOL    HW130137   6.557   0.269   5.341
 9746SOL    HW230138   6.415   0.190   5.356
 9747SOL     OW30139   2.550   0.761   1.317
 9747SOL    HW130140   2.515   0.832   1.379
 9747SOL    HW230141   2.545   0.794   1.222
 9748SOL     OW30142   0.081   0.479   3.352
 9748SOL    HW130143   0.101   0.401   3.293
 9748SOL    HW230144   0.031   0.548   3.300
 9749SOL     OW30145   2.708   0.306   4.350
 9749SOL    HW130146   2.786   0.353   4.307
 9749SOL    HW230147   2.739   0.219   4.388
 9750SOL     OW30148   6.025   3.781   3.124
 9750SOL    HW130149   5.967   3.700   3.133
 9750SOL    HW230150   5.982   3.846   3.061
 9751SOL     OW30151   2.311   1.058   0.319
 9751SOL    HW130152   2.213   1.044   0.305
 9751SOL    HW230153   2.326   1.091   0.413
 9752SOL     OW30154   4.122   2.212   4.872
 9752SOL    HW130155   4.146   2.216   4.775
 9752SOL    HW230156   4.149   2.298   4.916
 9753SOL     OW30157   6.888   5.541   6.261
 9753SOL    HW130158   6.967   5.598   6.237
 9753SOL    HW230159   6.807   5.599   6.271
 9754SOL     OW30160   1.934   0.656   0.149
 9754SOL    HW130161   1.897   0.627   0.061
 9754SOL    HW230162   1.861   0.660   0.217
 9755SOL     OW30163   3.474   3.883   4.542
 9755SOL    HW130164   3.493   3.873   4.640
 9755SOL    HW230165   3.437   3.974   4.525
 9756SOL     OW30166   5.611   3.247   0.409
 9756SOL    HW130167   5.667   3.182   0.462
 9756SOL    HW230168   5.557   3.197   0.342
 9757SOL     OW30169   5.878   3.986   3.992
 9757SOL    HW130170   5.818   3.907   3.974
 9757SOL    HW230171   5.865   4.054   3.920
 9758SOL     OW30172   2.944   0.194   6.598
 9758SOL    HW130173   3.024   0.187   6.658
 9758SOL    HW230174   2.974   0.197   6.503
 9759SOL     OW30175   1.286   0.293   7.016
 9759SOL    HW130176   1.223   0.240   0.050
 9759SOL    HW230177   1.234   0.360   6.963
 9760SOL     OW30178   4.928   2.606   5.549
 9760SOL    HW130179   4.939   2.705   5.537
 9760SOL    HW230180   4.933   2.561   5.461
 9761SOL     OW30181   6.599   1.456   2.111
 9761SOL    HW130182   6.641   1.405   2.186
 9761SOL    HW230183   6.501   1.465   2.127
 9762SOL     OW30184   3.283   1.697   4.604
 9762SOL    HW130185   3.196   1.739   4.630
 9762SOL    HW230186   3.357   1.763   4.615
 9763SOL     OW30187   4.813   1.662   2.515
 9763SOL    HW130188   4.835   1.642   2.419
 9763SOL    HW230189   4.875   1.732   2.549
 9764SOL     OW30190   0.320   2.783   3.242
 9764SOL    HW130191   0.238   2.762   3.189
 9764SOL    HW230192   0.327   2.719   3.319
 9765SOL     OW30193   6.762   0.243   3.370
 9765SOL    HW130194   6.825   0.171   3.341
 9765SOL    HW230195   6.680   0.203   3.410
 9766SOL     OW30196   2.654   6.638   2.309
 9766SOL    HW130197   2.621   6.604   2.397
 9766SOL    HW230198   2.752   6.618   2.300
 9767SOL     OW30199   3.888   1.062   5.371
 9767SOL    HW130200   3.807   1.003   5.378
 9767SOL    HW230201   3.929   1.051   5.281
 9768SOL     OW30202   5.736   1.723   2.020
 9768SOL    HW130203   5.698   1.632   2.040
 9768SOL    HW230204   5.746   1.774   2.105
 9769SOL     OW30205   3.852   1.447   2.991
 9769SOL    HW130206   3.933   1.469   3.044
 9769SOL    HW230207   3.779   1.416   3.052
 9770SOL     OW30208   4.586   1.327   6.353
 9770SOL    HW130209   4.522   1.391   6.312
 9770SOL    HW230210   4.679   1.364   6.347
 9771SOL     OW30211   2.904   6.405   0.192
 9771SOL    HW130212   2.912   6.371   0.098
 9771SOL    HW230213   2.968   6.480   0.206
 9772SOL     OW30214   2.094   6.054   1.491
 9772SOL    HW130215   2.174   6.104   1.459
 9772SOL    HW230216   2.038   6.027   1.413
 9773SOL     OW30217   4.814   5.596   4.001
 9773SOL    HW130218   4.780   5.515   4.049
 9773SOL    HW230219   4.823   5.575   3.903
 9774SOL     OW30220   0.413   5.234   1.676
 9774SOL    HW130221   0.433   5.137   1.660
 9774SOL    HW230222   0.390   5.248   1.772
 9775SOL     OW30223   2.300   0.758   3.675
 9775SOL    HW130224   2.333   0.852   3.678
 9775SOL    HW230225   2.378   0.695   3.679
 9776SOL     OW30226   1.222   4.567   4.953
 9776SOL    HW130227   1.193   4.514   5.033
 9776SOL    HW230228   1.321   4.578   4.956
 9777SOL     OW30229   6.645   5.817   6.843
 9777SOL    HW130230   6.618   5.770   6.759
 9777SOL    HW230231   6.661   5.913   6.824
 9778SOL     OW30232   7.015   0.888   4.288
 9778SOL    HW130233   6.940   0.931   4.238
 9778SOL    HW230234   0.051   0.837   4.224
 9779SOL     OW30235   1.245   1.523   4.346
 9779SOL    HW130236   1.203   1.463   4.278
 9779SOL    HW230237   1.330   1.481   4.380
 9780SOL     OW30238   1.768   2.553   1.241
 9780SOL    HW130239   1.839   2.503   1.191
 9780SOL    HW230240   1.710   2.488   1.291
 9781SOL     OW30241   2.100   3.585   4.404
 9781SOL    HW130242   2.119   3.561   4.500
 9781SOL    HW230243   2.108   3.503   4.347
 9782SOL     OW30244   0.237   1.109   1.247
 9782SOL    HW130245   0.212   1.078   1.155
 9782SOL    HW230246   0.336   1.102   1.259
 9783SOL     OW30247   3.899   2.167   2.954
 9783SOL    HW130248   3.815   2.163   3.008
 9783SOL    HW230249   3.886   2.119   2.867
 9784SOL     OW30250   3.195   1.621   5.043
 9784SOL    HW130251   3.135   1.604   4.965
 9784SOL    HW230252   3.140   1.624   5.127
 9785SOL     OW30253   1.071   2.462   6.213
 9785SOL    HW130254   1.064   2.520   6.132
 9785SOL    HW230255   0.979   2.432   6.240
 9786SOL     OW30256   2.213   4.321   0.463
 9786SOL    HW130257   2.276   4.264   0.517
 9786SOL    HW230258   2.119   4.301   0.490
 9787SOL     OW30259   4.002   3.854   2.141
 9787SOL    HW130260   3.962   3.772   2.099
 9787SOL    HW230261   4.017   3.924   2.070
 9788SOL     OW30262   0.962   1.143   3.696
 9788SOL    HW130263   0.976   1.079   3.620
 9788SOL    HW230264   0.868   1.177   3.693
 9789SOL     OW30265   1.884   5.492   0.814
 9789SOL    HW130266   1.812   5.523   0.876
 9789SOL    HW230267   1.898   5.560   0.742
 9790SOL     OW30268   6.567   4.401   6.715
 9790SOL    HW130269   6.665   4.416   6.723
 9790SOL    HW230270   6.519   4.459   6.781
 9791SOL     OW30271   0.560   1.339   2.021
 9791SOL    HW130272   0.589   1.357   1.927
 9791SOL    HW230273   0.637   1.352   2.083
 9792SOL     OW30274   4.128   4.896   0.619
 9792SOL    HW130275   4.148   4.820   0.556
 9792SOL    HW230276   4.177   4.978   0.589
 9793SOL     OW30277   4.203   6.481   2.953
 9793SOL    HW130278   4.120   6.538   2.956
 9793SOL    HW230279   4.246   6.481   3.043
 9794SOL     OW30280   0.007   4.392   0.041
 9794SOL    HW130281   6.939   4.355   0.021
 9794SOL    HW230282   0.026   4.382   0.138
 9795SOL     OW30283   2.140   1.626   4.370
 9795SOL    HW130284   2.155   1.694   4.298
 9795SOL    HW230285   2.173   1.661   4.457
 9796SOL     OW30286   3.350   2.647   1.734
 9796SOL    HW130287   3.258   2.632   1.699
 9796SOL    HW230288   3.377   2.742   1.720
 9797SOL     OW30289   2.347   5.227   0.064
 9797SOL    HW130290   2.407   5.239   0.143
 9797SOL    HW230291   2.253   5.217   0.096
 9798SOL     OW30292   2.313   0.388   1.838
 9798SOL    HW130293   2.376   0.329   1.888
 9798SOL    HW230294   2.320   0.370   1.740
 9799SOL     OW30295   3.006   3.174   4.857
 9799SOL    HW130296   3.055   3.105   4.909
 9799SOL    HW230297   2.918   3.192   4.901
 9800SOL     OW30298   3.704   5.740   4.706
 9800SOL    HW130299   3.798   5.712   4.725
 9800SOL    HW230300   3.659   5.765   4.791
 9801SOL     OW30301   4.548   4.243   0.131
 9801SOL    HW130302   4.506   4.332   0.150
 9801SOL    HW230303   4.556   4.229   0.033
 9802SOL     OW30304   0.092   3.900   1.294
 9802SOL    HW130305   0.099   3.979   1.355
 9802SOL    HW230306   0.006   3.906   1.242
 9803SOL     OW30307   0.984   2.362   6.813
 9803SOL    HW130308   0.920   2.383   6.886
 9803SOL    HW230309   0.980   2.433   6.743
 9804SOL     OW30310   2.045   6.332   2.696
 9804SOL    HW130311   1.957   6.357   2.655
 9804SOL    HW230312   2.045   6.358   2.793
 9805SOL     OW30313   1.817   6.745   3.949
 9805SOL    HW130314   1.909   6.747   3.909
 9805SOL    HW230315   1.786   6.651   3.956
 9806SOL     OW30316   1.196   0.601   6.891
 9806SOL    HW130317   1.175   0.583   6.987
 9806SOL    HW230318   1.112   0.624   6.842
 9807SOL     OW30319   3.065   4.489   0.049
 9807SOL    HW130320   3.015   4.575   0.043
 9807SOL    HW230321   3.153   4.505   0.094
 9808SOL     OW30322   3.965   0.248   5.447
 9808SOL    HW130323   4.052   0.275   5.404
 9808SOL    HW230324   3.984   0.204   5.535
 9809SOL     OW30325   1.590   2.535   6.085
 9809SOL    HW130326   1.509   2.587   6.059
 9809SOL    HW230327   1.646   2.517   6.004
 9810SOL     OW30328   2.394   2.781   3.820
 9810SOL    HW130329   2.487   2.757   3.847
 9810SOL    HW230330   2.340   2.697   3.809
 9811SOL     OW30331   5.314   4.584   3.131
 9811SOL    HW130332   5.310   4.647   3.209
 9811SOL    HW230333   5.355   4.497   3.160
 9812SOL     OW30334   3.207   2.111   5.633
 9812SOL    HW130335   3.294   2.077   5.670
 9812SOL    HW230336   3.207   2.211   5.635
 9813SOL     OW30337   5.459   1.334   0.653
 9813SOL    HW130338   5.402   1.318   0.734
 9813SOL    HW230339   5.464   1.433   0.635
 9814SOL     OW30340   0.010   0.023   0.091
 9814SOL    HW130341   0.033   0.115   0.060
 9814SOL    HW230342   0.035   6.980   0.021
 9815SOL     OW30343   5.306   4.274   3.379
 9815SOL    HW130344   5.230   4.214   3.354
 9815SOL    HW230345   5.272   4.350   3.435
 9816SOL     OW30346   0.314   1.267   6.009
 9816SOL    HW130347   0.308   1.363   5.980
 9816SOL    HW230348   0.319   1.263   6.109
 9817SOL     OW30349   2.811   0.328   3.280
 9817SOL    HW130350   2.829   0.257   3.349
 9817SOL    HW230351   2.863   0.308   3.197
 9818SOL     OW30352   1.516   0.580   4.633
 9818SOL    HW130353   1.570   0.513   4.583
 9818SOL    HW230354   1.432   0.537   4.666
 9819SOL     OW30355   4.853   3.126   3.900
 9819SOL    HW130356   4.914   3.202   3.923
 9819SOL    HW230357   4.823   3.081   3.983
 9820SOL     OW30358   4.419   3.479   6.613
 9820SOL    HW130359   4.363   3.451   6.535
 9820SOL    HW230360   4.413   3.410   6.685
 9821SOL     OW30361   5.188   0.805   6.919
 9821SOL    HW130362   5.223   0.726   6.869
 9821SOL    HW230363   5.150   0.775   7.006
 9822SOL     OW30364   2.650   6.181   3.658
 9822SOL    HW130365   2.569   6.126   3.678
 9822SOL    HW230366   2.710   6.183   3.738
 9823SOL     OW30367   2.604   1.221   6.805
 9823SOL    HW130368   2.693   1.216   6.759
 9823SOL    HW230369   2.553   1.300   6.772
 9824SOL     OW30370   1.861   4.918   4.264
 9824SOL    HW130371   1.776   4.865   4.258
 9824SOL    HW230372   1.936   4.863   4.228
 9825SOL     OW30373   5.123   5.738   4.264
 9825SOL    HW130374   5.114   5.670   4.336
 9825SOL    HW230375   5.034   5.781   4.248
 9826SOL     OW30376   4.609   5.421   5.661
 9826SOL    HW130377   4.538   5.490   5.646
 9826SOL    HW230378   4.698   5.459   5.636
 9827SOL     OW30379   1.766   4.062   3.928
 9827SOL    HW130380   1.793   4.157   3.943
 9827SOL    HW230381   1.817   4.025   3.850
 9828SOL     OW30382   1.910   2.141   5.304
 9828SOL    HW130383   1.871   2.050   5.318
 9828SOL    HW230384   2.005   2.141   5.336
 9829SOL     OW30385   4.428   5.419   6.546
 9829SOL    HW130386   4.482   5.462   6.473
 9829SOL    HW230387   4.424   5.480   6.625
 9830SOL     OW30388   4.874   2.183   1.794
 9830SOL    HW130389   4.845   2.140   1.879
 9830SOL    HW230390   4.869   2.282   1.803
 9831SOL     OW30391   1.591   5.065   1.979
 9831SOL    HW130392   1.620   5.104   2.066
 9831SOL    HW230393   1.661   5.003   1.945
 9832SOL     OW30394   4.695   5.685   2.421
 9832SOL    HW130395   4.649   5.697   2.333
 9832SOL    HW230396   4.665   5.598   2.461
 9833SOL     OW30397   3.276   3.250   4.640
 9833SOL    HW130398   3.178   3.232   4.634
 9833SOL    HW230399   3.324   3.165   4.661
 9834SOL     OW30400   2.488   4.254   5.283
 9834SOL    HW130401   2.583   4.280   5.266
 9834SOL    HW230402   2.467   4.170   5.233
 9835SOL     OW30403   4.396   3.492   5.347
 9835SOL    HW130404   4.313   3.491   5.292
 9835SOL    HW230405   4.472   3.525   5.292
 9836SOL     OW30406   6.662   4.039   3.465
 9836SOL    HW130407   6.625   4.010   3.553
 9836SOL    HW230408   6.757   4.070   3.477
 9837SOL     OW30409   3.730   0.144   2.431
 9837SOL    HW130410   3.806   0.091   2.467
 9837SOL    HW230411   3.765   0.214   2.368
 9838SOL     OW30412   1.733   6.806   0.541
 9838SOL    HW130413   1.749   6.774   0.634
 9838SOL    HW230414   1.653   6.867   0.540
 9839SOL     OW30415   5.075   0.017   3.748
 9839SOL    HW130416   5.069   0.114   3.726
 9839SOL    HW230417   4.984   6.998   3.741
 9840SOL     OW30418   5.392   1.718   0.997
 9840SOL    HW130419   5.454   1.722   1.075
 9840SOL    HW230420   5.315   1.779   1.013
 9841SOL     OW30421   1.578   4.094   5.360
 9841SOL    HW130422   1.502   4.035   5.333
 9841SOL    HW230423   1.542   4.178   5.402
 9842SOL     OW30424   3.308   2.925   1.751
 9842SOL    HW130425   3.386   2.988   1.760
 9842SOL    HW230426   3.229   2.963   1.800
 9843SOL     OW30427   6.681   0.797   1.949
 9843SOL    HW130428   6.687   0.892   1.919
 9843SOL    HW230429   6.772   0.755   1.946
 9844SOL     OW30430   6.733   1.104   3.199
 9844SOL    HW130431   6.754   1.188   3.148
 9844SOL    HW230432   6.637   1.080   3.185
 9845SOL     OW30433   1.929   2.916   3.331
 9845SOL    HW130434   1.888   2.882   3.415
 9845SOL    HW230435   1.907   2.854   3.255
 9846SOL     OW30436   3.555   2.369   1.391
 9846SOL    HW130437   3.536   2.458   1.432
 9846SOL    HW230438   3.649   2.368   1.355
 9847SOL     OW30439   3.804   2.943   3.546
 9847SOL    HW130440   3.707   2.957   3.524
 9847SOL    HW230441   3.816   2.947   3.645
 9848SOL     OW30442   4.329   3.103   5.387
 9848SOL    HW130443   4.364   3.194   5.409
 9848SOL    HW230444   4.363   3.037   5.453
 9849SOL     OW30445   1.040   0.129   5.716
 9849SOL    HW130446   1.036   0.031   5.736
 9849SOL    HW230447   0.950   0.169   5.732
 9850SOL     OW30448   6.313   6.938   3.759
 9850SOL    HW130449   6.344   6.994   3.836
 9850SOL    HW230450   6.219   6.963   3.735
 9851SOL     OW30451   0.007   0.170   4.516
 9851SOL    HW130452   0.018   0.154   4.418
 9851SOL    HW230453   6.946   0.222   4.532
 9852SOL     OW30454   3.186   1.707   4.182
 9852SOL    HW130455   3.185   1.624   4.127
 9852SOL    HW230456   3.240   1.693   4.264
 9853SOL     OW30457   5.148   4.097   4.889
 9853SOL    HW130458   5.065   4.127   4.937
 9853SOL    HW230459   5.226   4.151   4.921
 9854SOL     OW30460   6.720   6.070   4.665
 9854SOL    HW130461   6.750   6.155   4.623
 9854SOL    HW230462   6.714   6.082   4.764
 9855SOL     OW30463   2.058   3.533   1.134
 9855SOL    HW130464   1.968   3.490   1.139
 9855SOL    HW230465   2.095   3.546   1.226
 9856SOL     OW30466   4.927   4.314   4.305
 9856SOL    HW130467   4.848   4.289   4.249
 9856SOL    HW230468   4.917   4.408   4.338
 9857SOL     OW30469   5.051   3.420   2.608
 9857SOL    HW130470   5.148   3.421   2.582
 9857SOL    HW230471   5.018   3.513   2.619
 9858SOL     OW30472   6.699   0.149   1.443
 9858SOL    HW130473   6.746   0.182   1.362
 9858SOL    HW230474   6.625   0.212   1.467
 9859SOL     OW30475   6.356   6.251   2.523
 9859SOL    HW130476   6.337   6.224   2.617
 9859SOL    HW230477   6.274   6.243   2.468
 9860SOL     OW30478   1.952   2.506   3.608
 9860SOL    HW130479   1.935   2.460   3.695
 9860SOL    HW230480   1.882   2.478   3.542
 9861SOL     OW30481   2.704   0.554   3.412
 9861SOL    HW130482   2.719   0.491   3.336
 9861SOL    HW230483   2.678   0.644   3.377
 9862SOL     OW30484   3.242   2.771   6.950
 9862SOL    HW130485   3.284   2.697   7.003
 9862SOL    HW230486   3.150   2.744   6.923
 9863SOL     OW30487   3.251   6.683   2.102
 9863SOL    HW130488   3.279   6.778   2.118
 9863SOL    HW230489   3.242   6.636   2.190
 9864SOL     OW30490   3.145   0.306   3.748
 9864SOL    HW130491   3.172   0.347   3.661
 9864SOL    HW230492   3.221   0.312   3.812
 9865SOL     OW30493   1.462   6.880   4.507
 9865SOL    HW130494   1.514   6.795   4.521
 9865SOL    HW230495   1.477   6.914   4.414
 9866SOL     OW30496   5.140   4.342   5.918
 9866SOL    HW130497   5.164   4.328   5.822
 9866SOL    HW230498   5.222   4.368   5.969
 9867SOL     OW30499   6.877   1.787   0.862
 9867SOL    HW130500   6.951   1.793   0.929
 9867SOL    HW230501   6.872   1.873   0.811
 9868SOL     OW30502   0.224   3.331   4.782
 9868SOL    HW130503   0.299   3.390   4.813
 9868SOL    HW230504   0.256   3.272   4.709
 9869SOL     OW30505   0.568   2.356   1.549
 9869SOL    HW130506   0.642   2.288   1.549
 9869SOL    HW230507   0.480   2.309   1.548
 9870SOL     OW30508   4.094   5.554   2.589
 9870SOL    HW130509   4.117   5.585   2.496
 9870SOL    HW230510   4.102   5.455   2.594
 9871SOL     OW30511   6.524   4.692   5.818
 9871SOL    HW130512   6.495   4.605   5.858
 9871SOL    HW230513   6.462   4.716   5.743
 9872SOL     OW30514   3.143   5.548   5.054
 9872SOL    HW130515   3.187   5.517   4.970
 9872SOL    HW230516   3.197   5.516   5.133
 9873SOL     OW30517   2.259   2.430   0.743
 9873SOL    HW130518   2.212   2.342   0.743
 9873SOL    HW230519   2.231   2.482   0.662
 9874SOL     OW30520   5.500   3.334   4.964
 9874SOL    HW130521   5.531   3.410   5.021
 9874SOL    HW230522   5.421   3.364   4.910
 9875SOL     OW30523   6.251   5.557   1.937
 9875SOL    HW130524   6.349   5.564   1.960
 9875SOL    HW230525   6.197   5.602   2.009
 9876SOL     OW30526   5.494   0.700   3.821
 9876SOL    HW130527   5.444   0.715   3.735
 9876SOL    HW230528   5.438   0.647   3.884
 9877SOL     OW30529   6.344   4.602   4.463
 9877SOL    HW130530   6.283   4.635   4.535
 9877SOL    HW230531   6.371   4.678   4.405
 9878SOL     OW30532   2.868   3.961   5.681
 9878SOL    HW130533   2.910   4.047   5.652
 9878SOL    HW230534   2.876   3.951   5.780
 9879SOL     OW30535   4.970   5.751   5.228
 9879SOL    HW130536   5.041   5.709   5.285
 9879SOL    HW230537   5.003   5.760   5.134
 9880SOL     OW30538   3.314   1.015   0.478
 9880SOL    HW130539   3.296   1.000   0.381
 9880SOL    HW230540   3.350   0.931   0.518
 9881SOL     OW30541   0.296   1.500   5.289
 9881SOL    HW130542   0.333   1.502   5.197
 9881SOL    HW230543   0.249   1.586   5.308
 9882SOL     OW30544   1.607   3.514   5.407
 9882SOL    HW130545   1.680   3.580   5.386
 9882SOL    HW230546   1.611   3.439   5.341
 9883SOL     OW30547   1.468   6.340   0.980
 9883SOL    HW130548   1.420   6.427   0.989
 9883SOL    HW230549   1.414   6.278   0.922
 9884SOL     OW30550   4.773   1.471   1.027
 9884SOL    HW130551   4.779   1.508   0.935
 9884SOL    HW230552   4.689   1.506   1.071
 9885SOL     OW30553   6.835   2.146   4.601
 9885SOL    HW130554   6.774   2.223   4.622
 9885SOL    HW230555   6.919   2.181   4.559
 9886SOL     OW30556   1.156   5.189   1.522
 9886SOL    HW130557   1.085   5.258   1.508
 9886SOL    HW230558   1.181   5.150   1.433
 9887SOL     OW30559   3.865   0.270   0.048
 9887SOL    HW130560   3.866   0.192   0.111
 9887SOL    HW230561   3.947   0.268   7.013
 9888SOL     OW30562   5.257   5.473   2.805
 9888SOL    HW130563   5.177   5.437   2.854
 9888SOL    HW230564   5.237   5.567   2.775
 9889SOL     OW30565   6.105   4.741   1.005
 9889SOL    HW130566   6.079   4.796   0.925
 9889SOL    HW230567   6.202   4.717   0.998
 9890SOL     OW30568   0.575   2.241   1.219
 9890SOL    HW130569   0.635   2.313   1.183
 9890SOL    HW230570   0.616   2.202   1.302
 9891SOL     OW30571   6.194   3.221   1.413
 9891SOL    HW130572   6.276   3.227   1.471
 9891SOL    HW230573   6.113   3.212   1.471
 9892SOL     OW30574   1.031   5.204   2.578
 9892SOL    HW130575   1.084   5.242   2.502
 9892SOL    HW230576   1.064   5.241   2.664
 9893SOL     OW30577   6.645   0.321   2.390
 9893SOL    HW130578   6.703   0.394   2.426
 9893SOL    HW230579   6.622   0.258   2.464
 9894SOL     OW30580   3.234   2.044   6.730
 9894SOL    HW130581   3.256   2.129   6.779
 9894SOL    HW230582   3.139   2.020   6.747
 9895SOL     OW30583   5.223   3.511   5.400
 9895SOL    HW130584   5.300   3.448   5.409
 9895SOL    HW230585   5.161   3.479   5.329
 9896SOL     OW30586   5.203   1.210   0.429
 9896SOL    HW130587   5.265   1.288   0.433
 9896SOL    HW230588   5.208   1.169   0.338
 9897SOL     OW30589   5.429   6.877   2.166
 9897SOL    HW130590   5.494   6.947   2.196
 9897SOL    HW230591   5.347   6.881   2.223
 9898SOL     OW30592   0.901   4.597   5.670
 9898SOL    HW130593   0.882   4.651   5.752
 9898SOL    HW230594   0.866   4.646   5.590
 9899SOL     OW30595   0.543   5.318   2.445
 9899SOL    HW130596   0.637   5.320   2.480
 9899SOL    HW230597   0.541   5.356   2.353
 9900SOL     OW30598   1.807   3.359   2.482
 9900SOL    HW130599   1.837   3.288   2.418
 9900SOL    HW230600   1.886   3.412   2.513
 9901SOL     OW30601   2.657   0.732   0.113
 9901SOL    HW130602   2.607   0.786   0.181
 9901SOL    HW230603   2.604   0.728   0.029
 9902SOL     OW30604   3.997   4.147   1.034
 9902SOL    HW130605   4.079   4.178   1.083
 9902SOL    HW230606   4.020   4.065   0.981
 9903SOL     OW30607   5.344   2.064   1.689
 9903SOL    HW130608   5.270   2.115   1.733
 9903SOL    HW230609   5.316   1.969   1.678
 9904SOL     OW30610   0.493   3.387   6.162
 9904SOL    HW130611   0.426   3.321   6.128
 9904SOL    HW230612   0.585   3.351   6.147
 9905SOL     OW30613   1.716   0.598   6.314
 9905SOL    HW130614   1.787   0.614   6.245
 9905SOL    HW230615   1.744   0.523   6.374
 9906SOL     OW30616   1.632   3.436   0.495
 9906SOL    HW130617   1.659   3.500   0.567
 9906SOL    HW230618   1.571   3.367   0.533
 9907SOL     OW30619   1.816   0.990   2.114
 9907SOL    HW130620   1.911   0.966   2.095
 9907SOL    HW230621   1.810   1.088   2.133
 9908SOL     OW30622   0.695   2.719   5.805
 9908SOL    HW130623   0.736   2.723   5.714
 9908SOL    HW230624   0.666   2.811   5.832
 9909SOL     OW30625   3.915   0.630   2.631
 9909SOL    HW130626   3.931   0.541   2.675
 9909SOL    HW230627   3.819   0.655   2.639
 9910SOL     OW30628   1.676   4.964   1.494
 9910SOL    HW130629   1.603   4.980   1.560
 9910SOL    HW230630   1.763   4.993   1.533
 9911SOL     OW30631   3.553   5.816   2.339
 9911SOL    HW130632   3.463   5.812   2.296
 9911SOL    HW230633   3.600   5.728   2.326
 9912SOL     OW30634   4.558   1.056   2.034
 9912SOL    HW130635   4.485   1.113   1.996
 9912SOL    HW230636   4.642   1.110   2.041
 9913SOL     OW30637   5.949   3.112   1.159
 9913SOL    HW130638   5.906   3.085   1.072
 9913SOL    HW230639   5.931   3.208   1.177
 9914SOL     OW30640   0.018   6.797   5.174
 9914SOL    HW130641   0.090   6.778   5.108
 9914SOL    HW230642   6.979   6.719   5.179
 9915SOL     OW30643   5.677   2.156   3.254
 9915SOL    HW130644   5.740   2.116   3.187
 9915SOL    HW230645   5.728   2.191   3.332
 9916SOL     OW30646   1.775   2.225   3.916
 9916SOL    HW130647   1.714   2.280   3.972
 9916SOL    HW230648   1.731   2.202   3.830
 9917SOL     OW30649   3.647   3.760   5.167
 9917SOL    HW130650   3.618   3.719   5.254
 9917SOL    HW230651   3.717   3.702   5.125
 9918SOL     OW30652   1.118   2.937   2.159
 9918SOL    HW130653   1.208   2.896   2.178
 9918SOL    HW230654   1.129   3.013   2.095
 9919SOL     OW30655   2.167   5.989   2.418
 9919SOL    HW130656   2.172   6.078   2.463
 9919SOL    HW230657   2.125   6.000   2.327
 9920SOL     OW30658   4.225   0.692   2.680
 9920SOL    HW130659   4.130   0.695   2.651
 9920SOL    HW230660   4.271   0.616   2.635
 9921SOL     OW30661   4.524   0.077   4.985
 9921SOL    HW130662   4.448   0.113   5.039
 9921SOL    HW230663   4.604   0.136   4.998
 9922SOL     OW30664   4.591   4.362   1.176
 9922SOL    HW130665   4.615   4.390   1.083
 9922SOL    HW230666   4.671   4.319   1.219
 9923SOL     OW30667   6.184   3.153   0.280
 9923SOL    HW130668   6.255   3.219   0.254
 9923SOL    HW230669   6.094   3.196   0.273
 9924SOL     OW30670   4.998   1.816   2.671
 9924SOL    HW130671   5.052   1.900   2.663
 9924SOL    HW230672   4.966   1.807   2.765
 9925SOL     OW30673   1.156   5.037   3.699
 9925SOL    HW130674   1.217   5.117   3.700
 9925SOL    HW230675   1.136   5.012   3.604
 9926SOL     OW30676   4.444   2.819   0.639
 9926SOL    HW130677   4.463   2.849   0.546
 9926SOL    HW230678   4.414   2.723   0.638
 9927SOL     OW30679   1.246   1.157   0.843
 9927SOL    HW130680   1.336   1.113   0.846
 9927SOL    HW230681   1.175   1.088   0.859
 9928SOL     OW30682   5.362   3.634   2.902
 9928SOL    HW130683   5.300   3.643   2.981
 9928SOL    HW230684   5.340   3.705   2.835
 9929SOL     OW30685   3.153   3.992   4.673
 9929SOL    HW130686   3.192   4.064   4.617
 9929SOL    HW230687   3.127   4.029   4.762
 9930SOL     OW30688   0.652   0.260   6.507
 9930SOL    HW130689   0.645   0.352   6.544
 9930SOL    HW230690   0.605   0.256   6.418
 9931SOL     OW30691   0.326   5.574   3.756
 9931SOL    HW130692   0.269   5.512   3.810
 9931SOL    HW230693   0.282   5.591   3.667
 9932SOL     OW30694   2.819   2.069   6.115
 9932SOL    HW130695   2.852   2.091   6.023
 9932SOL    HW230696   2.880   2.108   6.183
 9933SOL     OW30697   1.585   6.906   4.010
 9933SOL    HW130698   1.593   7.004   4.027
 9933SOL    HW230699   1.670   6.873   3.968
 9934SOL     OW30700   6.307   1.771   6.707
 9934SOL    HW130701   6.327   1.676   6.734
 9934SOL    HW230702   6.383   1.830   6.733
 9935SOL     OW30703   3.096   0.233   0.912
 9935SOL    HW130704   3.024   0.229   0.843
 9935SOL    HW230705   3.108   0.143   0.954
 9936SOL     OW30706   6.219   4.944   0.675
 9936SOL    HW130707   6.160   4.871   0.710
 9936SOL    HW230708   6.165   5.006   0.617
 9937SOL     OW30709   0.835   1.502   1.925
 9937SOL    HW130710   0.804   1.418   1.880
 9937SOL    HW230711   0.888   1.479   2.007
 9938SOL     OW30712   5.520   6.256   4.221
 9938SOL    HW130713   5.462   6.287   4.296
 9938SOL    HW230714   5.478   6.178   4.175
 9939SOL     OW30715   3.190   3.244   0.685
 9939SOL    HW130716   3.197   3.228   0.783
 9939SOL    HW230717   3.280   3.268   0.648
 9940SOL     OW30718   1.552   0.447   2.248
 9940SOL    HW130719   1.500   0.405   2.174
 9940SOL    HW230720   1.628   0.499   2.209
 9941SOL     OW30721   2.968   5.130   6.130
 9941SOL    HW130722   2.919   5.112   6.045
 9941SOL    HW230723   2.904   5.131   6.207
 9942SOL     OW30724   3.691   5.571   2.327
 9942SOL    HW130725   3.646   5.507   2.388
 9942SOL    HW230726   3.790   5.560   2.334
 9943SOL     OW30727   1.011   4.259   6.471
 9943SOL    HW130728   1.012   4.351   6.432
 9943SOL    HW230729   0.940   4.204   6.428
 9944SOL     OW30730   1.141   4.760   6.320
 9944SOL    HW130731   1.133   4.716   6.410
 9944SOL    HW230732   1.217   4.719   6.270
 9945SOL     OW30733   4.903   5.082   6.884
 9945SOL    HW130734   4.818   5.132   6.901
 9945SOL    HW230735   4.976   5.120   6.940
 9946SOL     OW30736   5.991   0.106   3.242
 9946SOL    HW130737   6.069   0.165   3.258
 9946SOL    HW230738   5.964   0.112   3.145
 9947SOL     OW30739   2.900   2.254   4.816
 9947SOL    HW130740   2.976   2.259   4.881
 9947SOL    HW230741   2.916   2.320   4.742
 9948SOL     OW30742   6.205   5.915   4.772
 9948SOL    HW130743   6.220   6.012   4.755
 9948SOL    HW230744   6.167   5.873   4.690
 9949SOL     OW30745   0.204   4.698   3.618
 9949SOL    HW130746   0.128   4.753   3.653
 9949SOL    HW230747   0.208   4.611   3.667
 9950SOL     OW30748   6.193   6.089   6.898
 9950SOL    HW130749   6.171   6.187   6.898
 9950SOL    HW230750   6.127   6.040   6.955
 9951SOL     OW30751   0.928   2.520   3.441
 9951SOL    HW130752   0.877   2.537   3.357
 9951SOL    HW230753   0.898   2.433   3.481
 9952SOL     OW30754   2.321   3.631   1.037
 9952SOL    HW130755   2.312   3.702   0.968
 9952SOL    HW230756   2.232   3.588   1.054
 9953SOL     OW30757   6.010   2.123   3.908
 9953SOL    HW130758   6.087   2.185   3.892
 9953SOL    HW230759   5.924   2.174   3.899
 9954SOL     OW30760   1.205   6.918   4.854
 9954SOL    HW130761   1.204   6.832   4.803
 9954SOL    HW230762   1.265   6.908   4.934
 9955SOL     OW30763   3.979   3.508   6.393
 9955SOL    HW130764   3.992   3.551   6.304
 9955SOL    HW230765   3.947   3.576   6.458
 9956SOL     OW30766   0.703   5.098   3.857
 9956SOL    HW130767   0.774   5.028   3.856
 9956SOL    HW230768   0.624   5.066   3.908
 9957SOL     OW30769   5.831   0.473   1.933
 9957SOL    HW130770   5.776   0.499   2.011
 9957SOL    HW230771   5.914   0.427   1.964
 9958SOL     OW30772   2.594   6.687   6.903
 9958SOL    HW130773   2.610   6.600   6.858
 9958SOL    HW230774   2.681   6.735   6.915
 9959SOL     OW30775   4.139   3.602   3.601
 9959SOL    HW130776   4.238   3.609   3.610
 9959SOL    HW230777   4.111   3.621   3.507
 9960SOL     OW30778   0.857   6.771   2.074
 9960SOL    HW130779   0.769   6.724   2.072
 9960SOL    HW230780   0.914   6.732   2.146
 9961SOL     OW30781   1.362   5.213   3.641
 9961SOL    HW130782   1.402   5.185   3.554
 9961SOL    HW230783   1.400   5.301   3.669
 9962SOL     OW30784   4.396   0.521   2.552
 9962SOL    HW130785   4.373   0.591   2.485
 9962SOL    HW230786   4.495   0.518   2.564
 9963SOL     OW30787   2.294   2.715   5.824
 9963SOL    HW130788   2.212   2.670   5.859
 9963SOL    HW230789   2.368   2.649   5.815
 9964SOL     OW30790   4.319   5.321   5.954
 9964SOL    HW130791   4.415   5.348   5.944
 9964SOL    HW230792   4.310   5.223   5.937
 9965SOL     OW30793   3.619   4.717   5.379
 9965SOL    HW130794   3.529   4.712   5.338
 9965SOL    HW230795   3.646   4.813   5.389
 9966SOL     OW30796   2.296   5.548   2.569
 9966SOL    HW130797   2.333   5.536   2.661
 9966SOL    HW230798   2.203   5.584   2.574
 9967SOL     OW30799   5.018   5.562   2.008
 9967SOL    HW130800   5.064   5.475   1.993
 9967SOL    HW230801   4.919   5.549   2.000
 9968SOL     OW30802   3.233   5.629   6.782
 9968SOL    HW130803   3.249   5.602   6.687
 9968SOL    HW230804   3.219   5.547   6.838
 9969SOL     OW30805   0.826   3.153   3.947
 9969SOL    HW130806   0.847   3.148   4.044
 9969SOL    HW230807   0.850   3.243   3.911
 9970SOL     OW30808   6.501   4.561   2.346
 9970SOL    HW130809   6.423   4.603   2.393
 9970SOL    HW230810   6.479   4.547   2.250
 9971SOL     OW30811   2.601   4.531   0.241
 9971SOL    HW130812   2.684   4.489   0.202
 9971SOL    HW230813   2.521   4.476   0.216
 9972SOL     OW30814   3.703   4.828   0.077
 9972SOL    HW130815   3.638   4.810   0.150
 9972SOL    HW230816   3.702   4.751   0.012
 9973SOL     OW30817   3.685   1.957   5.090
 9973SOL    HW130818   3.698   1.951   5.189
 9973SOL    HW230819   3.697   2.051   5.061
 9974SOL     OW30820   6.759   3.570   3.305
 9974SOL    HW130821   6.836   3.506   3.298
 9974SOL    HW230822   6.730   3.576   3.401
 9975SOL     OW30823   0.025   4.651   6.983
 9975SOL    HW130824   0.030   4.558   7.021
 9975SOL    HW230825   6.965   4.659   6.927
 9976SOL     OW30826   6.407   5.552   5.073
 9976SOL    HW130827   6.417   5.482   5.144
 9976SOL    HW230828   6.495   5.564   5.026
 9977SOL     OW30829   6.700   5.443   5.837
 9977SOL    HW130830   6.687   5.432   5.936
 9977SOL    HW230831   6.782   5.394   5.808
 9978SOL     OW30832   6.174   2.141   4.665
 9978SOL    HW130833   6.196   2.121   4.569
 9978SOL    HW230834   6.247   2.107   4.723
 9979SOL     OW30835   6.498   4.725   6.210
 9979SOL    HW130836   6.490   4.653   6.140
 9979SOL    HW230837   6.568   4.790   6.182
 9980SOL     OW30838   1.448   1.058   6.684
 9980SOL    HW130839   1.522   1.075   6.619
 9980SOL    HW230840   1.360   1.064   6.637
 9981SOL     OW30841   2.408   2.067   1.518
 9981SOL    HW130842   2.460   2.037   1.438
 9981SOL    HW230843   2.386   1.987   1.575
 9982SOL     OW30844   0.931   1.991   3.020
 9982SOL    HW130845   0.954   2.070   2.963
 9982SOL    HW230846   0.850   1.946   2.983
 9983SOL     OW30847   0.995   1.548   1.462
 9983SOL    HW130848   0.915   1.522   1.407
 9983SOL    HW230849   1.061   1.595   1.403
 9984SOL     OW30850   1.038   0.511   0.679
 9984SOL    HW130851   0.963   0.449   0.701
 9984SOL    HW230852   1.116   0.491   0.738
 9985SOL     OW30853   3.469   0.315   1.348
 9985SOL    HW130854   3.477   0.411   1.376
 9985SOL    HW230855   3.499   0.305   1.254
 9986SOL     OW30856   4.772   4.367   6.426
 9986SOL    HW130857   4.866   4.340   6.406
 9986SOL    HW230858   4.726   4.292   6.474
 9987SOL     OW30859   5.388   1.985   2.639
 9987SOL    HW130860   5.488   1.983   2.636
 9987SOL    HW230861   5.353   2.037   2.560
 9988SOL     OW30862   0.227   5.555   4.766
 9988SOL    HW130863   0.195   5.468   4.728
 9988SOL    HW230864   0.167   5.629   4.735
 9989SOL     OW30865   5.151   3.658   3.129
 9989SOL    HW130866   5.178   3.577   3.181
 9989SOL    HW230867   5.070   3.637   3.075
 9990SOL     OW30868   2.402   6.887   3.219
 9990SOL    HW130869   2.442   6.965   3.267
 9990SOL    HW230870   2.475   6.833   3.178
 9991SOL     OW30871   1.246   2.967   4.556
 9991SOL    HW130872   1.260   2.944   4.460
 9991SOL    HW230873   1.235   2.883   4.609
 9992SOL     OW30874   4.711   3.535   0.521
 9992SOL    HW130875   4.676   3.484   0.442
 9992SOL    HW230876   4.786   3.484   0.563
 9993SOL     OW30877   4.322   6.515   2.690
 9993SOL    HW130878   4.297   6.472   2.776
 9993SOL    HW230879   4.298   6.454   2.614
 9994SOL     OW30880   6.744   4.007   4.330
 9994SOL    HW130881   6.818   4.073   4.343
 9994SOL    HW230882   6.780   3.925   4.285
 9995SOL     OW30883   3.099   0.263   3.302
 9995SOL    HW130884   3.113   0.167   3.278
 9995SOL    HW230885   3.046   0.309   3.231
 9996SOL     OW30886   2.937   2.121   1.370
 9996SOL    HW130887   2.886   2.126   1.456
 9996SOL    HW230888   3.014   2.185   1.374
 9997SOL     OW30889   4.241   1.848   0.983
 9997SOL    HW130890   4.206   1.830   1.075
 9997SOL    HW230891   4.316   1.915   0.989
 9998SOL     OW30892   6.430   3.735   2.338
 9998SOL    HW130893   6.424   3.711   2.241
 9998SOL    HW230894   6.479   3.821   2.348
 9999SOL     OW30895   6.254   4.969   4.599
 9999SOL    HW130896   6.350   4.994   4.586
 9999SOL    HW230897   6.202   4.991   4.516
10000SOL     OW30898   6.353   1.956   6.352
10000SOL    HW130899   6.328   2.052   6.335
10000SOL    HW230900   6.269   1.902   6.363
10001SOL     OW30901   5.392   1.065   1.677
10001SOL    HW130902   5.332   1.011   1.736
10001SOL    HW230903   5.487   1.048   1.703
10002SOL     OW30904   1.551   0.966   1.586
10002SOL    HW130905   1.636   1.003   1.550
10002SOL    HW230906   1.566   0.873   1.618
10003SOL     OW30907   3.870   2.154   3.530
10003SOL    HW130908   3.925   2.205   3.464
10003SOL    HW230909   3.789   2.117   3.484
10004SOL     OW30910   5.324   2.859   4.747
10004SOL    HW130911   5.283   2.795   4.682
10004SOL    HW230912   5.283   2.844   4.838
10005SOL     OW30913   4.685   5.697   3.190
10005SOL    HW130914   4.764   5.708   3.130
10005SOL    HW230915   4.708   5.730   3.281
10006SOL     OW30916   5.536   1.201   4.480
10006SOL    HW130917   5.529   1.102   4.470
10006SOL    HW230918   5.475   1.246   4.414
10007SOL     OW30919   0.761   4.412   4.825
10007SOL    HW130920   0.781   4.353   4.903
10007SOL    HW230921   0.665   4.442   4.829
10008SOL     OW30922   4.117   1.312   3.970
10008SOL    HW130923   4.173   1.267   3.900
10008SOL    HW230924   4.146   1.407   3.981
10009SOL     OW30925   2.161   3.587   1.384
10009SOL    HW130926   2.176   3.549   1.475
10009SOL    HW230927   2.099   3.666   1.390
10010SOL     OW30928   2.099   6.618   0.414
10010SOL    HW130929   2.193   6.606   0.446
10010SOL    HW230930   2.098   6.678   0.334
10011SOL     OW30931   0.511   2.370   5.324
10011SOL    HW130932   0.589   2.320   5.287
10011SOL    HW230933   0.543   2.452   5.371
10012SOL     OW30934   4.869   6.797   2.749
10012SOL    HW130935   4.902   6.837   2.834
10012SOL    HW230936   4.813   6.864   2.700
10013SOL     OW30937   2.268   1.737   4.587
10013SOL    HW130938   2.261   1.747   4.686
10013SOL    HW230939   2.227   1.817   4.542
10014SOL     OW30940   6.778   2.180   0.236
10014SOL    HW130941   6.776   2.177   0.336
10014SOL    HW230942   6.806   2.271   0.206
10015SOL     OW30943   3.152   4.164   0.445
10015SOL    HW130944   3.055   4.183   0.461
10015SOL    HW230945   3.203   4.250   0.439
10016SOL     OW30946   2.357   0.018   4.635
10016SOL    HW130947   2.327   0.100   4.586
10016SOL    HW230948   2.277   6.992   4.671
10017SOL     OW30949   1.680   2.190   2.180
10017SOL    HW130950   1.656   2.109   2.127
10017SOL    HW230951   1.626   2.192   2.264
10018SOL     OW30952   6.036   5.532   6.152
10018SOL    HW130953   5.995   5.479   6.078
10018SOL    HW230954   5.967   5.593   6.191
10019SOL     OW30955   0.893   2.260   3.493
10019SOL    HW130956   0.975   2.221   3.537
10019SOL    HW230957   0.813   2.238   3.548
10020SOL     OW30958   0.041   2.006   0.992
10020SOL    HW130959   6.996   2.044   0.929
10020SOL    HW230960   0.127   1.992   0.943
10021SOL     OW30961   0.816   2.723   1.576
10021SOL    HW130962   0.874   2.669   1.637
10021SOL    HW230963   0.776   2.799   1.627
10022SOL     OW30964   3.968   6.825   1.050
10022SOL    HW130965   3.975   6.913   1.096
10022SOL    HW230966   3.941   6.838   0.955
10023SOL     OW30967   1.991   5.329   5.761
10023SOL    HW130968   1.946   5.244   5.733
10023SOL    HW230969   1.993   5.334   5.861
10024SOL     OW30970   2.260   6.809   1.878
10024SOL    HW130971   2.215   6.792   1.966
10024SOL    HW230972   2.358   6.820   1.893
10025SOL     OW30973   1.387   1.429   0.939
10025SOL    HW130974   1.345   1.343   0.909
10025SOL    HW230975   1.485   1.426   0.922
10026SOL     OW30976   4.967   6.211   3.701
10026SOL    HW130977   4.938   6.260   3.783
10026SOL    HW230978   5.062   6.237   3.679
10027SOL     OW30979   1.095   4.837   5.089
10027SOL    HW130980   1.045   4.809   5.171
10027SOL    HW230981   1.098   4.761   5.024
10028SOL     OW30982   1.282   1.601   1.386
10028SOL    HW130983   1.346   1.532   1.354
10028SOL    HW230984   1.253   1.658   1.310
10029SOL     OW30985   3.153   1.731   3.434
10029SOL    HW130986   3.119   1.655   3.489
10029SOL    HW230987   3.249   1.717   3.412
10030SOL     OW30988   2.411   6.784   3.913
10030SOL    HW130989   2.315   6.766   3.892
10030SOL    HW230990   2.429   6.882   3.907
10031SOL     OW30991   6.098   4.954   3.478
10031SOL    HW130992   6.160   4.899   3.422
10031SOL    HW230993   6.081   5.042   3.433
10032SOL     OW30994   3.265   0.828   5.275
10032SOL    HW130995   3.296   0.864   5.363
10032SOL    HW230996   3.230   0.735   5.288
10033SOL     OW30997   4.624   2.195   4.061
10033SOL    HW130998   4.662   2.104   4.043
10033SOL    HW230999   4.573   2.226   3.980
10034SOL     OW31000   2.968   0.052   4.192
10034SOL    HW131001   2.984   0.125   4.125
10034SOL    HW231002   2.883   0.004   4.170
10035SOL     OW31003   0.013   4.457   2.266
10035SOL    HW131004   0.042   4.511   2.345
10035SOL    HW231005   0.092   4.409   2.228
10036SOL     OW31006   5.585   1.515   1.348
10036SOL    HW131007   5.660   1.461   1.387
10036SOL    HW231008   5.521   1.454   1.302
10037SOL     OW31009   5.692   1.370   0.824
10037SOL    HW131010   5.724   1.379   0.918
10037SOL    HW231011   5.593   1.385   0.820
10038SOL     OW31012   4.214   1.291   6.451
10038SOL    HW131013   4.241   1.331   6.539
10038SOL    HW231014   4.122   1.254   6.459
10039SOL     OW31015   3.200   0.510   4.341
10039SOL    HW131016   3.164   0.423   4.373
10039SOL    HW231017   3.172   0.583   4.404
10040SOL     OW31018   4.118   5.917   6.421
10040SOL    HW131019   4.157   5.872   6.340
10040SOL    HW231020   4.030   5.958   6.397
10041SOL     OW31021   4.419   5.879   5.952
10041SOL    HW131022   4.327   5.899   5.918
10041SOL    HW231023   4.441   5.941   6.027
10042SOL     OW31024   1.089   1.730   4.260
10042SOL    HW131025   1.144   1.656   4.298
10042SOL    HW231026   0.996   1.724   4.296
10043SOL     OW31027   6.565   2.190   4.831
10043SOL    HW131028   6.652   2.215   4.873
10043SOL    HW231029   6.580   2.167   4.735
10044SOL     OW31030   2.859   1.343   5.346
10044SOL    HW131031   2.926   1.282   5.389
10044SOL    HW231032   2.767   1.310   5.366
10045SOL     OW31033   4.221   0.318   2.998
10045SOL    HW131034   4.281   0.310   2.919
10045SOL    HW231035   4.202   0.415   3.016
10046SOL     OW31036   2.475   4.068   0.959
10046SOL    HW131037   2.455   3.974   0.933
10046SOL    HW231038   2.469   4.127   0.879
10047SOL     OW31039   0.479   3.995   5.178
10047SOL    HW131040   0.416   4.059   5.222
10047SOL    HW231041   0.427   3.919   5.138
10048SOL     OW31042   6.179   0.699   3.098
10048SOL    HW131043   6.168   0.795   3.074
10048SOL    HW231044   6.218   0.691   3.190
10049SOL     OW31045   0.489   1.660   6.659
10049SOL    HW131046   0.421   1.635   6.728
10049SOL    HW231047   0.537   1.743   6.688
10050SOL     OW31048   5.403   3.782   4.777
10050SOL    HW131049   5.427   3.689   4.748
10050SOL    HW231050   5.304   3.788   4.788
10051SOL     OW31051   6.087   3.476   5.939
10051SOL    HW131052   6.168   3.513   5.984
10051SOL    HW231053   6.081   3.378   5.956
10052SOL     OW31054   1.774   1.967   3.218
10052SOL    HW131055   1.683   1.936   3.247
10052SOL    HW231056   1.790   1.938   3.123
10053SOL     OW31057   4.013   5.980   3.107
10053SOL    HW131058   3.931   6.034   3.129
10053SOL    HW231059   4.021   5.904   3.171
10054SOL     OW31060   5.688   6.017   6.696
10054SOL    HW131061   5.783   5.994   6.718
10054SOL    HW231062   5.648   5.944   6.641
10055SOL     OW31063   5.654   0.965   4.744
10055SOL    HW131064   5.658   1.064   4.758
10055SOL    HW231065   5.661   0.919   4.832
10056SOL     OW31066   5.142   4.414   2.837
10056SOL    HW131067   5.203   4.493   2.835
10056SOL    HW231068   5.082   4.416   2.757
10057SOL     OW31069   4.421   2.445   5.551
10057SOL    HW131070   4.520   2.451   5.558
10057SOL    HW231071   4.389   2.364   5.601
10058SOL     OW31072   6.557   2.919   5.525
10058SOL    HW131073   6.657   2.915   5.526
10058SOL    HW231074   6.520   2.827   5.509
10059SOL     OW31075   6.558   1.003   0.450
10059SOL    HW131076   6.601   0.912   0.447
10059SOL    HW231077   6.505   1.017   0.367
10060SOL     OW31078   1.733   2.887   2.050
10060SOL    HW131079   1.648   2.835   2.038
10060SOL    HW231080   1.740   2.918   2.145
10061SOL     OW31081   4.510   1.111   4.342
10061SOL    HW131082   4.574   1.176   4.381
10061SOL    HW231083   4.485   1.140   4.249
10062SOL     OW31084   5.750   0.747   3.744
10062SOL    HW131085   5.661   0.729   3.786
10062SOL    HW231086   5.744   0.831   3.690
10063SOL     OW31087   2.962   0.861   4.093
10063SOL    HW131088   2.924   0.780   4.049
10063SOL    HW231089   3.048   0.836   4.140
10064SOL     OW31090   4.876   6.813   0.134
10064SOL    HW131091   4.830   6.735   0.175
10064SOL    HW231092   4.874   6.891   0.197
10065SOL     OW31093   3.161   0.043   2.887
10065SOL    HW131094   3.134   0.112   2.819
10065SOL    HW231095   3.123   6.977   2.862
10066SOL     OW31096   0.295   2.645   4.626
10066SOL    HW131097   0.240   2.728   4.624
10066SOL    HW231098   0.302   2.612   4.720
10067SOL     OW31099   0.301   3.778   5.130
10067SOL    HW131100   0.355   3.717   5.187
10067SOL    HW231101   0.325   3.765   5.034
10068SOL     OW31102   0.241   3.584   3.128
10068SOL    HW131103   0.195   3.619   3.047
10068SOL    HW231104   0.340   3.586   3.114
10069SOL     OW31105   3.086   5.541   2.325
10069SOL    HW131106   3.040   5.622   2.364
10069SOL    HW231107   3.072   5.540   2.226
10070SOL     OW31108   0.225   5.950   5.067
10070SOL    HW131109   0.228   5.940   5.166
10070SOL    HW231110   0.194   6.042   5.043
10071SOL     OW31111   6.587   6.325   4.457
10071SOL    HW131112   6.612   6.276   4.373
10071SOL    HW231113   6.661   6.388   4.482
10072SOL     OW31114   0.165   6.348   4.112
10072SOL    HW131115   0.158   6.411   4.190
10072SOL    HW231116   0.249   6.367   4.062
10073SOL     OW31117   6.170   4.685   4.097
10073SOL    HW131118   6.104   4.615   4.125
10073SOL    HW231119   6.142   4.773   4.134
10074SOL     OW31120   2.258   0.189   5.764
10074SOL    HW131121   2.220   0.147   5.846
10074SOL    HW231122   2.187   0.200   5.695
10075SOL     OW31123   1.744   2.587   2.395
10075SOL    HW131124   1.830   2.638   2.401
10075SOL    HW231125   1.758   2.494   2.430
10076SOL     OW31126   6.121   6.231   3.898
10076SOL    HW131127   6.072   6.305   3.943
10076SOL    HW231128   6.178   6.268   3.825
10077SOL     OW31129   4.440   3.266   0.176
10077SOL    HW131130   4.403   3.235   0.264
10077SOL    HW231131   4.523   3.214   0.155
10078SOL     OW31132   6.654   6.139   4.222
10078SOL    HW131133   6.604   6.194   4.155
10078SOL    HW231134   6.604   6.055   4.240
10079SOL     OW31135   5.996   2.909   3.545
10079SOL    HW131136   6.038   2.999   3.544
10079SOL    HW231137   6.016   2.862   3.458
10080SOL     OW31138   4.927   0.678   5.676
10080SOL    HW131139   4.926   0.581   5.700
10080SOL    HW231140   4.941   0.687   5.577
10081SOL     OW31141   0.377   1.388   0.211
10081SOL    HW131142   0.380   1.289   0.202
10081SOL    HW231143   0.446   1.429   0.152
10082SOL     OW31144   0.672   5.267   1.610
10082SOL    HW131145   0.585   5.274   1.660
10082SOL    HW231146   0.718   5.356   1.611
10083SOL     OW31147   4.177   0.863   3.624
10083SOL    HW131148   4.199   0.946   3.573
10083SOL    HW231149   4.257   0.803   3.628
10084SOL     OW31150   1.958   0.490   5.648
10084SOL    HW131151   1.968   0.396   5.681
10084SOL    HW231152   1.992   0.497   5.554
10085SOL     OW31153   2.896   6.433   0.782
10085SOL    HW131154   2.829   6.472   0.719
10085SOL    HW231155   2.980   6.487   0.779
10086SOL     OW31156   6.027   6.052   2.598
10086SOL    HW131157   6.036   6.115   2.521
10086SOL    HW231158   6.090   5.976   2.587
10087SOL     OW31159   6.702   5.596   3.900
10087SOL    HW131160   6.680   5.677   3.846
10087SOL    HW231161   6.680   5.514   3.849
10088SOL     OW31162   7.007   6.728   2.222
10088SOL    HW131163   0.003   6.722   2.124
10088SOL    HW231164   6.955   6.649   2.251
10089SOL     OW31165   2.941   1.833   3.786
10089SOL    HW131166   2.895   1.747   3.767
10089SOL    HW231167   2.885   1.909   3.755
10090SOL     OW31168   0.489   5.085   2.007
10090SOL    HW131169   0.569   5.073   2.065
10090SOL    HW231170   0.416   5.023   2.038
10091SOL     OW31171   6.865   5.464   6.544
10091SOL    HW131172   6.803   5.539   6.522
10091SOL    HW231173   6.813   5.382   6.567
10092SOL     OW31174   2.135   2.990   6.078
10092SOL    HW131175   2.201   3.011   6.150
10092SOL    HW231176   2.161   3.037   5.994
10093SOL     OW31177   4.732   3.404   5.379
10093SOL    HW131178   4.719   3.442   5.471
10093SOL    HW231179   4.702   3.471   5.311
10094SOL     OW31180   3.284   5.481   1.865
10094SOL    HW131181   3.263   5.383   1.869
10094SOL    HW231182   3.213   5.532   1.914
10095SOL     OW31183   5.585   1.835   4.428
10095SOL    HW131184   5.577   1.901   4.353
10095SOL    HW231185   5.556   1.745   4.396
10096SOL     OW31186   4.386   5.848   2.789
10096SOL    HW131187   4.299   5.891   2.765
10096SOL    HW231188   4.431   5.901   2.862
10097SOL     OW31189   1.515   2.161   6.977
10097SOL    HW131190   1.510   2.178   6.879
10097SOL    HW231191   1.573   2.081   6.994
10098SOL     OW31192   2.821   0.352   5.305
10098SOL    HW131193   2.842   0.352   5.403
10098SOL    HW231194   2.886   0.412   5.258
10099SOL     OW31195   1.136   4.956   1.692
10099SOL    HW131196   1.118   5.041   1.643
10099SOL    HW231197   1.184   4.893   1.632
10100SOL     OW31198   5.044   5.920   5.678
10100SOL    HW131199   5.089   5.887   5.761
10100SOL    HW231200   4.957   5.872   5.666
10101SOL     OW31201   6.625   2.996   2.004
10101SOL    HW131202   6.667   2.969   1.917
10101SOL    HW231203   6.685   2.969   2.080
10102SOL     OW31204   0.008   0.846   2.155
10102SOL    HW131205   6.967   0.889   2.219
10102SOL    HW231206   0.020   0.905   2.075
10103SOL     OW31207   2.551   0.760   5.788
10103SOL    HW131208   2.536   0.720   5.697
10103SOL    HW231209   2.529   0.857   5.786
10104SOL     OW31210   1.402   1.884   5.019
10104SOL    HW131211   1.405   1.967   4.964
10104SOL    HW231212   1.493   1.862   5.054
10105SOL     OW31213   2.229   0.441   6.262
10105SOL    HW131214   2.185   0.360   6.300
10105SOL    HW231215   2.287   0.414   6.185
10106SOL     OW31216   3.736   6.882   0.498
10106SOL    HW131217   3.648   6.877   0.546
10106SOL    HW231218   3.758   6.791   0.460
10107SOL     OW31219   5.396   1.568   5.838
10107SOL    HW131220   5.433   1.483   5.798
10107SOL    HW231221   5.378   1.554   5.935
10108SOL     OW31222   6.858   1.021   0.321
10108SOL    HW131223   6.791   1.008   0.394
10108SOL    HW231224   6.858   1.117   0.293
10109SOL     OW31225   0.110   1.207   0.455
10109SOL    HW131226   0.145   1.228   0.364
10109SOL    HW231227   0.029   1.149   0.447
10110SOL     OW31228   4.979   4.908   3.787
10110SOL    HW131229   4.902   4.904   3.850
10110SOL    HW231230   5.029   4.821   3.791
10111SOL     OW31231   6.367   3.456   3.812
10111SOL    HW131232   6.412   3.442   3.724
10111SOL    HW231233   6.432   3.437   3.886
10112SOL     OW31234   5.857   3.578   3.097
10112SOL    HW131235   5.943   3.549   3.055
10112SOL    HW231236   5.801   3.626   3.029
10113SOL     OW31237   4.458   0.052   0.434
10113SOL    HW131238   4.510   7.007   0.486
10113SOL    HW231239   4.521   0.120   0.396
10114SOL     OW31240   4.010   2.184   2.477
10114SOL    HW131241   3.911   2.176   2.459
10114SOL    HW231242   4.039   2.108   2.535
10115SOL     OW31243   4.479   2.074   4.945
10115SOL    HW131244   4.459   2.163   4.903
10115SOL    HW231245   4.570   2.044   4.917
10116SOL     OW31246   0.857   0.330   6.928
10116SOL    HW131247   0.881   0.379   6.844
10116SOL    HW231248   0.898   0.376   7.007
10117SOL     OW31249   6.123   6.390   6.162
10117SOL    HW131250   6.057   6.409   6.090
10117SOL    HW231251   6.101   6.304   6.206
10118SOL     OW31252   2.412   4.461   3.713
10118SOL    HW131253   2.398   4.539   3.652
10118SOL    HW231254   2.387   4.377   3.665
10119SOL     OW31255   6.701   4.855   3.877
10119SOL    HW131256   6.602   4.858   3.889
10119SOL    HW231257   6.725   4.781   3.815
10120SOL     OW31258   1.847   3.717   4.424
10120SOL    HW131259   1.931   3.662   4.417
10120SOL    HW231260   1.872   3.812   4.445
10121SOL     OW31261   5.614   4.290   6.686
10121SOL    HW131262   5.708   4.263   6.666
10121SOL    HW231263   5.600   4.385   6.660
10122SOL     OW31264   5.294   2.471   3.118
10122SOL    HW131265   5.233   2.452   3.195
10122SOL    HW231266   5.307   2.388   3.065
10123SOL     OW31267   5.462   6.242   1.076
10123SOL    HW131268   5.364   6.220   1.081
10123SOL    HW231269   5.515   6.164   1.110
10124SOL     OW31270   1.480   4.552   0.630
10124SOL    HW131271   1.563   4.596   0.665
10124SOL    HW231272   1.446   4.603   0.551
10125SOL     OW31273   2.277   1.265   1.141
10125SOL    HW131274   2.201   1.265   1.206
10125SOL    HW231275   2.337   1.342   1.159
10126SOL     OW31276   0.295   0.230   0.289
10126SOL    HW131277   0.209   0.216   0.337
10126SOL    HW231278   0.319   0.147   0.239
10127SOL     OW31279   1.879   3.368   0.342
10127SOL    HW131280   1.844   3.286   0.297
10127SOL    HW231281   1.823   3.389   0.422
10128SOL     OW31282   3.152   1.136   6.291
10128SOL    HW131283   3.090   1.143   6.369
10128SOL    HW231284   3.131   1.209   6.225
10129SOL     OW31285   6.427   1.064   2.722
10129SOL    HW131286   6.483   1.132   2.769
10129SOL    HW231287   6.483   1.016   2.654
10130SOL     OW31288   0.812   3.337   1.423
10130SOL    HW131289   0.824   3.366   1.328
10130SOL    HW231290   0.878   3.265   1.444
10131SOL     OW31291   2.097   6.898   4.418
10131SOL    HW131292   2.071   6.879   4.513
10131SOL    HW231293   2.024   6.870   4.357
10132SOL     OW31294   1.930   0.787   3.180
10132SOL    HW131295   1.870   0.718   3.221
10132SOL    HW231296   1.959   0.756   3.089
10133SOL     OW31297   4.689   6.565   0.715
10133SOL    HW131298   4.603   6.610   0.740
10133SOL    HW231299   4.761   6.592   0.778
10134SOL     OW31300   5.621   1.508   2.076
10134SOL    HW131301   5.667   1.434   2.126
10134SOL    HW231302   5.538   1.534   2.126
10135SOL     OW31303   5.235   2.582   3.548
10135SOL    HW131304   5.254   2.504   3.488
10135SOL    HW231305   5.156   2.632   3.514
10136SOL     OW31306   5.181   2.096   2.053
10136SOL    HW131307   5.220   2.024   2.111
10136SOL    HW231308   5.147   2.170   2.110
10137SOL     OW31309   0.472   4.736   4.928
10137SOL    HW131310   0.447   4.789   5.009
10137SOL    HW231311   0.475   4.639   4.952
10138SOL     OW31312   5.136   3.548   0.343
10138SOL    HW131313   5.049   3.504   0.320
10138SOL    HW231314   5.119   3.633   0.393
10139SOL     OW31315   2.990   3.285   4.610
10139SOL    HW131316   3.019   3.214   4.547
10139SOL    HW231317   2.959   3.244   4.696
10140SOL     OW31318   0.422   6.322   0.034
10140SOL    HW131319   0.375   6.403   0.069
10140SOL    HW231320   0.512   6.348   7.022
10141SOL     OW31321   4.382   1.318   5.455
10141SOL    HW131322   4.317   1.382   5.497
10141SOL    HW231323   4.336   1.269   5.381
10142SOL     OW31324   6.117   6.098   6.016
10142SOL    HW131325   6.140   6.007   5.982
10142SOL    HW231326   6.125   6.164   5.941
10143SOL     OW31327   5.405   2.246   0.879
10143SOL    HW131328   5.446   2.333   0.849
10143SOL    HW231329   5.406   2.182   0.803
10144SOL     OW31330   4.585   0.098   6.245
10144SOL    HW131331   4.539   0.115   6.332
10144SOL    HW231332   4.551   0.162   6.176
10145SOL     OW31333   3.634   5.877   3.039
10145SOL    HW131334   3.681   5.935   3.106
10145SOL    HW231335   3.702   5.836   2.977
10146SOL     OW31336   5.991   4.157   4.859
10146SOL    HW131337   5.931   4.086   4.897
10146SOL    HW231338   5.936   4.228   4.816
10147SOL     OW31339   4.797   4.030   6.581
10147SOL    HW131340   4.840   4.046   6.492
10147SOL    HW231341   4.728   3.959   6.572
10148SOL     OW31342   5.878   4.932   6.979
10148SOL    HW131343   5.874   4.970   6.886
10148SOL    HW231344   5.917   5.000   0.018
10149SOL     OW31345   5.502   3.559   1.473
10149SOL    HW131346   5.512   3.648   1.516
10149SOL    HW231347   5.509   3.569   1.374
10150SOL     OW31348   3.891   2.885   1.778
10150SOL    HW131349   3.795   2.858   1.772
10150SOL    HW231350   3.900   2.963   1.840
10151SOL     OW31351   1.329   6.895   0.051
10151SOL    HW131352   1.333   6.816   0.113
10151SOL    HW231353   1.407   6.955   0.068
10152SOL     OW31354   6.641   6.005   3.491
10152SOL    HW131355   6.725   5.973   3.536
10152SOL    HW231356   6.645   5.982   3.394
10153SOL     OW31357   5.165   6.356   4.057
10153SOL    HW131358   5.100   6.357   4.133
10153SOL    HW231359   5.183   6.261   4.029
10154SOL     OW31360   4.096   6.437   5.252
10154SOL    HW131361   4.011   6.489   5.263
10154SOL    HW231362   4.080   6.361   5.189
10155SOL     OW31363   5.086   2.134   5.415
10155SOL    HW131364   5.106   2.162   5.509
10155SOL    HW231365   5.107   2.036   5.405
10156SOL     OW31366   5.516   0.566   1.678
10156SOL    HW131367   5.573   0.488   1.652
10156SOL    HW231368   5.419   0.540   1.675
10157SOL     OW31369   0.196   2.295   0.372
10157SOL    HW131370   0.139   2.216   0.351
10157SOL    HW231371   0.169   2.371   0.313
10158SOL     OW31372   6.287   6.020   1.373
10158SOL    HW131373   6.227   6.099   1.386
10158SOL    HW231374   6.382   6.047   1.387
10159SOL     OW31375   3.652   2.895   2.221
10159SOL    HW131376   3.622   2.954   2.295
10159SOL    HW231377   3.715   2.825   2.256
10160SOL     OW31378   1.556   3.573   3.208
10160SOL    HW131379   1.652   3.547   3.219
10160SOL    HW231380   1.546   3.671   3.225
10161SOL     OW31381   3.405   4.263   6.642
10161SOL    HW131382   3.391   4.163   6.644
10161SOL    HW231383   3.356   4.305   6.718
10162SOL     OW31384   2.644   5.255   0.551
10162SOL    HW131385   2.677   5.161   0.551
10162SOL    HW231386   2.585   5.270   0.630
10163SOL     OW31387   0.422   3.976   6.768
10163SOL    HW131388   0.333   4.019   6.756
10163SOL    HW231389   0.493   4.046   6.780
10164SOL     OW31390   5.964   3.563   5.091
10164SOL    HW131391   5.990   3.467   5.084
10164SOL    HW231392   5.865   3.571   5.094
10165SOL     OW31393   6.482   2.184   3.321
10165SOL    HW131394   6.444   2.190   3.413
10165SOL    HW231395   6.411   2.205   3.254
10166SOL     OW31396   2.157   1.790   1.404
10166SOL    HW131397   2.090   1.826   1.470
10166SOL    HW231398   2.133   1.696   1.382
10167SOL     OW31399   0.327   5.642   0.162
10167SOL    HW131400   0.361   5.597   0.080
10167SOL    HW231401   0.360   5.593   0.243
10168SOL     OW31402   6.734   2.438   5.858
10168SOL    HW131403   6.722   2.380   5.939
10168SOL    HW231404   6.698   2.390   5.778
10169SOL     OW31405   0.208   3.269   3.498
10169SOL    HW131406   0.218   3.196   3.566
10169SOL    HW231407   0.133   3.245   3.436
10170SOL     OW31408   6.210   5.395   6.314
10170SOL    HW131409   6.160   5.458   6.255
10170SOL    HW231410   6.145   5.339   6.365
10171SOL     OW31411   0.642   2.610   4.364
10171SOL    HW131412   0.736   2.635   4.384
10171SOL    HW231413   0.581   2.651   4.432
10172SOL     OW31414   0.774   6.316   4.262
10172SOL    HW131415   0.813   6.265   4.340
10172SOL    HW231416   0.776   6.414   4.282
10173SOL     OW31417   2.123   3.032   0.435
10173SOL    HW131418   2.186   2.958   0.410
10173SOL    HW231419   2.034   2.993   0.457
10174SOL     OW31420   4.986   4.765   3.412
10174SOL    HW131421   4.934   4.850   3.411
10174SOL    HW231422   4.955   4.707   3.488
10175SOL     OW31423   5.289   2.330   3.442
10175SOL    HW131424   5.328   2.306   3.531
10175SOL    HW231425   5.191   2.313   3.443
10176SOL     OW31426   6.578   2.346   5.631
10176SOL    HW131427   6.496   2.336   5.687
10176SOL    HW231428   6.555   2.330   5.535
10177SOL     OW31429   1.899   0.902   0.419
10177SOL    HW131430   1.990   0.860   0.419
10177SOL    HW231431   1.834   0.841   0.373
10178SOL     OW31432   1.004   0.655   0.430
10178SOL    HW131433   0.909   0.632   0.448
10178SOL    HW231434   1.062   0.616   0.502
10179SOL     OW31435   0.894   3.338   6.648
10179SOL    HW131436   0.902   3.277   6.568
10179SOL    HW231437   0.826   3.301   6.711
10180SOL     OW31438   5.106   0.519   1.115
10180SOL    HW131439   5.180   0.463   1.152
10180SOL    HW231440   5.032   0.459   1.084
10181SOL     OW31441   0.493   2.578   1.135
10181SOL    HW131442   0.512   2.571   1.233
10181SOL    HW231443   0.402   2.616   1.121
10182SOL     OW31444   5.127   0.744   0.647
10182SOL    HW131445   5.065   0.665   0.647
10182SOL    HW231446   5.173   0.750   0.735
10183SOL     OW31447   5.912   2.752   5.757
10183SOL    HW131448   5.813   2.761   5.773
10183SOL    HW231449   5.952   2.843   5.747
10184SOL     OW31450   4.437   2.749   6.404
10184SOL    HW131451   4.481   2.681   6.463
10184SOL    HW231452   4.503   2.781   6.336
10185SOL     OW31453   6.511   5.614   2.015
10185SOL    HW131454   6.537   5.562   2.096
10185SOL    HW231455   6.588   5.616   1.951
10186SOL     OW31456   4.930   3.801   4.368
10186SOL    HW131457   4.919   3.715   4.418
10186SOL    HW231458   4.980   3.867   4.424
10187SOL     OW31459   1.550   3.700   6.468
10187SOL    HW131460   1.627   3.638   6.487
10187SOL    HW231461   1.585   3.793   6.456
10188SOL     OW31462   2.507   5.367   6.745
10188SOL    HW131463   2.580   5.300   6.732
10188SOL    HW231464   2.423   5.320   6.772
10189SOL     OW31465   0.886   1.060   6.115
10189SOL    HW131466   0.821   1.121   6.161
10189SOL    HW231467   0.847   1.029   6.029
10190SOL     OW31468   3.880   2.849   1.484
10190SOL    HW131469   3.865   2.750   1.476
10190SOL    HW231470   3.904   2.872   1.578
10191SOL     OW31471   4.849   5.464   6.810
10191SOL    HW131472   4.811   5.384   6.857
10191SOL    HW231473   4.882   5.530   6.877
10192SOL     OW31474   3.548   1.700   5.418
10192SOL    HW131475   3.535   1.612   5.371
10192SOL    HW231476   3.485   1.767   5.380
10193SOL     OW31477   2.981   3.888   2.611
10193SOL    HW131478   2.994   3.803   2.662
10193SOL    HW231479   3.036   3.960   2.652
10194SOL     OW31480   4.893   1.010   4.346
10194SOL    HW131481   4.899   0.990   4.444
10194SOL    HW231482   4.969   1.069   4.319
10195SOL     OW31483   6.781   6.597   1.609
10195SOL    HW131484   6.819   6.679   1.568
10195SOL    HW231485   6.786   6.605   1.709
10196SOL     OW31486   4.684   1.929   3.996
10196SOL    HW131487   4.741   1.853   3.966
10196SOL    HW231488   4.594   1.923   3.953
10197SOL     OW31489   5.002   2.141   4.117
10197SOL    HW131490   4.948   2.097   4.189
10197SOL    HW231491   4.969   2.234   4.103
10198SOL     OW31492   3.977   0.198   1.403
10198SOL    HW131493   4.028   0.114   1.421
10198SOL    HW231494   3.956   0.243   1.490
10199SOL     OW31495   0.772   2.108   0.084
10199SOL    HW131496   0.789   2.014   0.115
10199SOL    HW231497   0.755   2.108   7.008
10200SOL     OW31498   4.875   2.901   5.427
10200SOL    HW131499   4.923   2.962   5.490
10200SOL    HW231500   4.783   2.938   5.409
10201SOL     OW31501   0.555   6.233   0.611
10201SOL    HW131502   0.617   6.208   0.685
10201SOL    HW231503   0.516   6.323   0.629
10202SOL     OW31504   2.257   4.460   6.939
10202SOL    HW131505   2.218   4.508   6.861
10202SOL    HW231506   2.241   4.513   7.022
10203SOL     OW31507   0.820   3.046   1.951
10203SOL    HW131508   0.844   3.092   2.036
10203SOL    HW231509   0.868   2.959   1.945
10204SOL     OW31510   3.503   5.783   6.899
10204SOL    HW131511   3.420   5.728   6.908
10204SOL    HW231512   3.567   5.737   6.838
10205SOL     OW31513   3.247   0.853   2.326
10205SOL    HW131514   3.283   0.925   2.385
10205SOL    HW231515   3.150   0.839   2.345
10206SOL     OW31516   5.371   6.946   6.738
10206SOL    HW131517   5.390   0.005   6.792
10206SOL    HW231518   5.414   6.867   6.780
10207SOL     OW31519   1.806   1.604   6.810
10207SOL    HW131520   1.828   1.656   6.893
10207SOL    HW231521   1.763   1.665   6.743
10208SOL     OW31522   6.384   4.475   3.784
10208SOL    HW131523   6.437   4.446   3.704
10208SOL    HW231524   6.286   4.471   3.762
10209SOL     OW31525   0.226   0.109   6.060
10209SOL    HW131526   0.239   0.155   6.147
10209SOL    HW231527   0.314   0.093   6.016
10210SOL     OW31528   5.443   6.887   1.523
10210SOL    HW131529   5.529   6.931   1.496
10210SOL    HW231530   5.411   6.928   1.609
10211SOL     OW31531   3.990   6.246   5.085
10211SOL    HW131532   3.958   6.185   5.013
10211SOL    HW231533   3.928   6.241   5.163
10212SOL     OW31534   0.033   0.023   5.039
10212SOL    HW131535   7.011   0.025   4.949
10212SOL    HW231536   0.015   6.958   5.083
10213SOL     OW31537   5.478   2.833   2.560
10213SOL    HW131538   5.479   2.812   2.658
10213SOL    HW231539   5.417   2.911   2.543
10214SOL     OW31540   1.014   1.738   2.100
10214SOL    HW131541   0.983   1.647   2.129
10214SOL    HW231542   1.097   1.730   2.046
10215SOL     OW31543   3.445   2.885   4.055
10215SOL    HW131544   3.465   2.825   3.977
10215SOL    HW231545   3.346   2.895   4.065
10216SOL     OW31546   0.533   0.029   1.197
10216SOL    HW131547   0.529   6.958   1.162
10216SOL    HW231548   0.457   0.082   1.160
10217SOL     OW31549   2.057   1.765   3.147
10217SOL    HW131550   2.082   1.856   3.113
10217SOL    HW231551   2.068   1.762   3.247
10218SOL     OW31552   1.685   0.573   1.649
10218SOL    HW131553   1.586   0.585   1.640
10218SOL    HW231554   1.731   0.660   1.630
10219SOL     OW31555   0.122   2.918   2.463
10219SOL    HW131556   0.114   2.993   2.529
10219SOL    HW231557   0.218   2.895   2.451
10220SOL     OW31558   4.052   1.789   1.232
10220SOL    HW131559   4.069   1.708   1.288
10220SOL    HW231560   3.973   1.839   1.268
10221SOL     OW31561   1.822   3.346   4.292
10221SOL    HW131562   1.921   3.350   4.284
10221SOL    HW231563   1.797   3.297   4.376
10222SOL     OW31564   2.643   3.793   5.535
10222SOL    HW131565   2.662   3.698   5.513
10222SOL    HW231566   2.718   3.832   5.589
10223SOL     OW31567   1.988   6.510   6.456
10223SOL    HW131568   2.028   6.423   6.428
10223SOL    HW231569   1.983   6.514   6.556
10224SOL     OW31570   0.602   1.510   5.220
10224SOL    HW131571   0.684   1.465   5.255
10224SOL    HW231572   0.592   1.600   5.263
10225SOL     OW31573   2.241   6.251   5.901
10225SOL    HW131574   2.268   6.298   5.985
10225SOL    HW231575   2.305   6.274   5.827
10226SOL     OW31576   2.545   0.923   6.547
10226SOL    HW131577   2.539   0.872   6.462
10226SOL    HW231578   2.641   0.933   6.574
10227SOL     OW31579   5.334   4.358   0.858
10227SOL    HW131580   5.421   4.322   0.891
10227SOL    HW231581   5.350   4.426   0.787
10228SOL     OW31582   0.986   6.085   1.927
10228SOL    HW131583   1.026   6.097   1.836
10228SOL    HW231584   0.901   6.033   1.920
10229SOL     OW31585   1.458   1.751   4.072
10229SOL    HW131586   1.503   1.725   4.158
10229SOL    HW231587   1.478   1.847   4.053
10230SOL     OW31588   6.392   6.436   3.112
10230SOL    HW131589   6.384   6.534   3.133
10230SOL    HW231590   6.359   6.420   3.018
10231SOL     OW31591   6.283   5.551   4.837
10231SOL    HW131592   6.338   5.549   4.921
10231SOL    HW231593   6.330   5.605   4.768
10232SOL     OW31594   2.844   1.042   4.819
10232SOL    HW131595   2.794   0.998   4.894
10232SOL    HW231596   2.780   1.090   4.760
10233SOL     OW31597   4.996   3.463   5.253
10233SOL    HW131598   4.933   3.486   5.180
10233SOL    HW231599   4.945   3.435   5.334
10234SOL     OW31600   5.558   0.174   0.272
10234SOL    HW131601   5.583   0.246   0.206
10234SOL    HW231602   5.639   0.145   0.322
10235SOL     OW31603   4.092   3.157   0.344
10235SOL    HW131604   4.008   3.154   0.398
10235SOL    HW231605   4.072   3.133   0.249
10236SOL     OW31606   2.153   0.727   1.727
10236SOL    HW131607   2.193   0.750   1.638
10236SOL    HW231608   2.093   0.802   1.756
10237SOL     OW31609   6.731   4.044   0.251
10237SOL    HW131610   6.699   3.992   0.171
10237SOL    HW231611   6.763   4.134   0.221
10238SOL     OW31612   3.208   3.829   3.318
10238SOL    HW131613   3.264   3.892   3.372
10238SOL    HW231614   3.112   3.850   3.332
10239SOL     OW31615   1.994   4.075   5.785
10239SOL    HW131616   2.076   4.041   5.740
10239SOL    HW231617   1.915   4.022   5.755
10240SOL     OW31618   1.456   4.434   3.104
10240SOL    HW131619   1.459   4.470   3.011
10240SOL    HW231620   1.379   4.370   3.113
10241SOL     OW31621   6.827   0.589   2.441
10241SOL    HW131622   6.881   0.511   2.471
10241SOL    HW231623   6.864   0.624   2.355
10242SOL     OW31624   6.678   1.291   0.057
10242SOL    HW131625   6.630   1.305   6.994
10242SOL    HW231626   6.618   1.316   0.133
10243SOL     OW31627   1.484   5.046   1.694
10243SOL    HW131628   1.526   5.049   1.784
10243SOL    HW231629   1.441   4.957   1.680
10244SOL     OW31630   1.270   4.111   0.369
10244SOL    HW131631   1.235   4.149   0.283
10244SOL    HW231632   1.342   4.170   0.405
10245SOL     OW31633   2.961   4.743   0.003
10245SOL    HW131634   2.954   4.842   0.015
10245SOL    HW231635   2.899   4.714   6.953
10246SOL     OW31636   3.394   4.181   3.812
10246SOL    HW131637   3.446   4.161   3.895
10246SOL    HW231638   3.307   4.131   3.815
10247SOL     OW31639   6.905   5.165   5.857
10247SOL    HW131640   6.932   5.255   5.890
10247SOL    HW231641   6.812   5.145   5.888
10248SOL     OW31642   2.891   0.092   2.300
10248SOL    HW131643   2.803   0.139   2.292
10248SOL    HW231644   2.964   0.155   2.272
10249SOL     OW31645   3.361   0.287   6.188
10249SOL    HW131646   3.343   0.376   6.230
10249SOL    HW231647   3.287   0.264   6.124
10250SOL     OW31648   6.738   3.033   1.356
10250SOL    HW131649   6.712   2.961   1.291
10250SOL    HW231650   6.724   3.122   1.313
10251SOL     OW31651   3.003   1.577   5.227
10251SOL    HW131652   2.931   1.590   5.159
10251SOL    HW231653   2.977   1.503   5.289
10252SOL     OW31654   4.447   4.905   0.298
10252SOL    HW131655   4.482   4.997   0.277
10252SOL    HW231656   4.383   4.877   0.226
10253SOL     OW31657   3.310   6.144   0.207
10253SOL    HW131658   3.325   6.058   0.159
10253SOL    HW231659   3.213   6.155   0.228
10254SOL     OW31660   4.622   1.025   4.687
10254SOL    HW131661   4.561   1.081   4.631
10254SOL    HW231662   4.608   1.046   4.783
10255SOL     OW31663   2.133   6.974   1.360
10255SOL    HW131664   2.155   6.915   1.438
10255SOL    HW231665   2.069   0.022   1.388
10256SOL     OW31666   6.108   1.012   1.739
10256SOL    HW131667   6.075   1.018   1.645
10256SOL    HW231668   6.155   1.097   1.764
10257SOL     OW31669   2.002   5.357   4.917
10257SOL    HW131670   1.970   5.266   4.945
10257SOL    HW231671   1.951   5.387   4.836
10258SOL     OW31672   3.505   0.896   4.319
10258SOL    HW131673   3.587   0.871   4.370
10258SOL    HW231674   3.529   0.920   4.225
10259SOL     OW31675   0.264   4.324   2.810
10259SOL    HW131676   0.303   4.278   2.731
10259SOL    HW231677   0.180   4.278   2.837
10260SOL     OW31678   0.507   0.964   3.902
10260SOL    HW131679   0.546   0.878   3.934
10260SOL    HW231680   0.521   0.972   3.803
10261SOL     OW31681   6.877   5.983   3.240
10261SOL    HW131682   6.918   6.058   3.291
10261SOL    HW231683   6.780   6.003   3.224
10262SOL     OW31684   1.916   6.859   4.188
10262SOL    HW131685   1.920   6.759   4.196
10262SOL    HW231686   1.915   6.885   4.092
10263SOL     OW31687   5.213   0.670   6.466
10263SOL    HW131688   5.209   0.685   6.367
10263SOL    HW231689   5.244   0.753   6.511
10264SOL     OW31690   6.041   2.308   5.448
10264SOL    HW131691   6.044   2.326   5.546
10264SOL    HW231692   5.988   2.379   5.403
10265SOL     OW31693   2.482   2.164   3.324
10265SOL    HW131694   2.401   2.170   3.382
10265SOL    HW231695   2.542   2.091   3.356
10266SOL     OW31696   3.337   2.856   4.891
10266SOL    HW131697   3.335   2.833   4.989
10266SOL    HW231698   3.427   2.835   4.853
10267SOL     OW31699   0.209   1.412   6.951
10267SOL    HW131700   0.112   1.438   6.956
10267SOL    HW231701   0.236   1.369   0.014
10268SOL     OW31702   5.536   5.171   2.233
10268SOL    HW131703   5.484   5.093   2.269
10268SOL    HW231704   5.628   5.141   2.208
10269SOL     OW31705   0.162   3.414   6.300
10269SOL    HW131706   0.190   3.385   6.208
10269SOL    HW231707   0.241   3.449   6.350
10270SOL     OW31708   3.007   4.933   3.214
10270SOL    HW131709   2.995   5.020   3.166
10270SOL    HW231710   2.990   4.946   3.311
10271SOL     OW31711   3.649   2.338   0.121
10271SOL    HW131712   3.716   2.267   0.103
10271SOL    HW231713   3.682   2.425   0.084
10272SOL     OW31714   0.699   0.358   4.934
10272SOL    HW131715   0.612   0.372   4.982
10272SOL    HW231716   0.680   0.336   4.838
10273SOL     OW31717   3.407   5.609   2.655
10273SOL    HW131718   3.385   5.700   2.620
10273SOL    HW231719   3.453   5.556   2.585
10274SOL     OW31720   6.684   5.141   3.826
10274SOL    HW131721   6.784   5.142   3.831
10274SOL    HW231722   6.652   5.048   3.844
10275SOL     OW31723   0.965   0.014   1.722
10275SOL    HW131724   0.948   0.112   1.726
10275SOL    HW231725   0.996   7.004   1.811
10276SOL     OW31726   5.786   5.159   5.196
10276SOL    HW131727   5.743   5.091   5.254
10276SOL    HW231728   5.829   5.113   5.118
10277SOL     OW31729   2.294   5.554   4.530
10277SOL    HW131730   2.287   5.576   4.628
10277SOL    HW231731   2.237   5.475   4.510
10278SOL     OW31732   6.904   0.502   4.651
10278SOL    HW131733   6.840   0.565   4.695
10278SOL    HW231734   6.856   0.448   4.582
10279SOL     OW31735   3.127   5.413   4.512
10279SOL    HW131736   3.047   5.473   4.521
10279SOL    HW231737   3.103   5.321   4.542
10280SOL     OW31738   1.132   4.316   1.189
10280SOL    HW131739   1.034   4.325   1.205
10280SOL    HW231740   1.169   4.243   1.247
10281SOL     OW31741   5.964   1.136   2.699
10281SOL    HW131742   5.964   1.164   2.603
10281SOL    HW231743   6.020   1.054   2.710
10282SOL     OW31744   5.888   4.215   4.176
10282SOL    HW131745   5.921   4.169   4.258
10282SOL    HW231746   5.932   4.177   4.095
10283SOL     OW31747   1.003   3.630   1.121
10283SOL    HW131748   1.100   3.626   1.098
10283SOL    HW231749   0.951   3.662   1.042
10284SOL     OW31750   5.333   3.038   5.321
10284SOL    HW131751   5.270   2.961   5.328
10284SOL    HW231752   5.362   3.049   5.226
10285SOL     OW31753   5.442   1.301   1.254
10285SOL    HW131754   5.514   1.251   1.206
10285SOL    HW231755   5.435   1.267   1.348
10286SOL     OW31756   3.179   1.686   3.802
10286SOL    HW131757   3.094   1.738   3.802
10286SOL    HW231758   3.250   1.737   3.850
10287SOL     OW31759   2.194   6.196   1.004
10287SOL    HW131760   2.277   6.194   0.948
10287SOL    HW231761   2.115   6.209   0.944
10288SOL     OW31762   4.959   5.775   3.087
10288SOL    HW131763   4.953   5.800   2.990
10288SOL    HW231764   4.981   5.856   3.141
10289SOL     OW31765   3.023   0.414   2.071
10289SOL    HW131766   3.091   0.382   2.137
10289SOL    HW231767   3.034   0.363   1.985
10290SOL     OW31768   2.733   3.462   1.720
10290SOL    HW131769   2.657   3.411   1.679
10290SOL    HW231770   2.806   3.399   1.746
10291SOL     OW31771   3.404   1.758   3.652
10291SOL    HW131772   3.392   1.856   3.667
10291SOL    HW231773   3.329   1.708   3.695
10292SOL     OW31774   1.750   0.144   4.937
10292SOL    HW131775   1.849   0.137   4.945
10292SOL    HW231776   1.727   0.217   4.872
10293SOL     OW31777   1.950   5.125   2.642
10293SOL    HW131778   1.976   5.198   2.704
10293SOL    HW231779   2.000   5.041   2.666
10294SOL     OW31780   5.520   3.178   2.494
10294SOL    HW131781   5.427   3.144   2.503
10294SOL    HW231782   5.550   3.218   2.581
10295SOL     OW31783   5.561   4.736   6.240
10295SOL    HW131784   5.522   4.828   6.228
10295SOL    HW231785   5.487   4.672   6.260
10296SOL     OW31786   4.736   2.909   0.067
10296SOL    HW131787   4.788   2.908   0.152
10296SOL    HW231788   4.654   2.852   0.079
10297SOL     OW31789   2.273   0.102   6.929
10297SOL    HW131790   2.340   0.034   6.960
10297SOL    HW231791   2.298   0.134   6.837
10298SOL     OW31792   3.527   5.018   2.126
10298SOL    HW131793   3.588   4.940   2.112
10298SOL    HW231794   3.581   5.102   2.131
10299SOL     OW31795   4.672   5.772   2.682
10299SOL    HW131796   4.689   5.739   2.589
10299SOL    HW231797   4.594   5.721   2.720
10300SOL     OW31798   1.113   4.485   3.376
10300SOL    HW131799   1.036   4.547   3.370
10300SOL    HW231800   1.193   4.526   3.332
10301SOL     OW31801   5.541   2.342   4.471
10301SOL    HW131802   5.546   2.421   4.410
10301SOL    HW231803   5.532   2.259   4.417
10302SOL     OW31804   1.071   5.736   3.575
10302SOL    HW131805   1.033   5.662   3.519
10302SOL    HW231806   1.171   5.735   3.567
10303SOL     OW31807   1.775   5.598   2.452
10303SOL    HW131808   1.720   5.579   2.371
10303SOL    HW231809   1.844   5.667   2.430
10304SOL     OW31810   5.217   0.361   2.228
10304SOL    HW131811   5.119   0.353   2.212
10304SOL    HW231812   5.234   0.429   2.300
10305SOL     OW31813   0.655   4.234   6.766
10305SOL    HW131814   0.628   4.262   6.674
10305SOL    HW231815   0.748   4.197   6.764
10306SOL     OW31816   4.265   6.582   0.012
10306SOL    HW131817   4.194   6.622   0.070
10306SOL    HW231818   4.276   6.485   0.035
10307SOL     OW31819   2.216   1.982   4.498
10307SOL    HW131820   2.247   2.068   4.539
10307SOL    HW231821   2.205   1.994   4.399
10308SOL     OW31822   2.080   4.531   4.306
10308SOL    HW131823   2.007   4.535   4.238
10308SOL    HW231824   2.056   4.464   4.376
10309SOL     OW31825   5.894   1.272   4.655
10309SOL    HW131826   5.804   1.308   4.680
10309SOL    HW231827   5.883   1.181   4.614
10310SOL     OW31828   3.814   3.242   1.784
10310SOL    HW131829   3.832   3.168   1.849
10310SOL    HW231830   3.814   3.330   1.832
10311SOL     OW31831   0.964   6.239   1.152
10311SOL    HW131832   1.034   6.255   1.222
10311SOL    HW231833   0.883   6.198   1.193
10312SOL     OW31834   2.639   6.287   1.705
10312SOL    HW131835   2.700   6.366   1.700
10312SOL    HW231836   2.606   6.264   1.614
10313SOL     OW31837   4.611   0.182   0.844
10313SOL    HW131838   4.541   0.125   0.888
10313SOL    HW231839   4.574   0.222   0.760
10314SOL     OW31840   6.951   0.285   2.477
10314SOL    HW131841   0.025   0.291   2.502
10314SOL    HW231842   6.923   0.189   2.474
10315SOL     OW31843   6.085   5.939   4.211
10315SOL    HW131844   6.158   5.975   4.270
10315SOL    HW231845   6.120   5.930   4.117
10316SOL     OW31846   6.511   2.487   4.828
10316SOL    HW131847   6.540   2.393   4.810
10316SOL    HW231848   6.554   2.520   4.912
10317SOL     OW31849   3.663   6.162   5.503
10317SOL    HW131850   3.717   6.245   5.492
10317SOL    HW231851   3.693   6.114   5.586
10318SOL     OW31852   5.357   6.044   6.466
10318SOL    HW131853   5.301   6.097   6.530
10318SOL    HW231854   5.382   6.102   6.388
10319SOL     OW31855   2.103   2.239   5.464
10319SOL    HW131856   2.113   2.325   5.414
10319SOL    HW231857   2.006   2.225   5.486
10320SOL     OW31858   0.931   0.513   2.476
10320SOL    HW131859   0.956   0.568   2.555
10320SOL    HW231860   0.934   0.416   2.501
10321SOL     OW31861   4.409   0.780   2.866
10321SOL    HW131862   4.374   0.873   2.880
10321SOL    HW231863   4.351   0.733   2.799
10322SOL     OW31864   6.664   5.765   6.253
10322SOL    HW131865   6.630   5.849   6.295
10322SOL    HW231866   6.593   5.725   6.195
10323SOL     OW31867   6.227   3.229   6.091
10323SOL    HW131868   6.255   3.134   6.080
10323SOL    HW231869   6.309   3.287   6.098
10324SOL     OW31870   3.097   3.415   3.144
10324SOL    HW131871   3.066   3.365   3.063
10324SOL    HW231872   3.042   3.499   3.154
10325SOL     OW31873   7.006   3.610   2.945
10325SOL    HW131874   6.989   3.673   2.869
10325SOL    HW231875   6.958   3.643   3.026
10326SOL     OW31876   4.013   4.062   6.889
10326SOL    HW131877   3.927   4.113   6.881
10326SOL    HW231878   4.064   4.095   6.969
10327SOL     OW31879   2.624   2.024   1.931
10327SOL    HW131880   2.623   2.077   1.846
10327SOL    HW231881   2.707   2.044   1.982
10328SOL     OW31882   6.067   2.868   0.890
10328SOL    HW131883   6.047   2.770   0.901
10328SOL    HW231884   5.981   2.919   0.888
10329SOL     OW31885   3.691   0.645   3.624
10329SOL    HW131886   3.766   0.651   3.690
10329SOL    HW231887   3.727   0.614   3.536
10330SOL     OW31888   3.534   5.819   1.684
10330SOL    HW131889   3.569   5.736   1.640
10330SOL    HW231890   3.435   5.821   1.676
10331SOL     OW31891   6.620   0.741   3.990
10331SOL    HW131892   6.618   0.735   4.090
10331SOL    HW231893   6.647   0.652   3.952
10332SOL     OW31894   5.882   1.448   0.400
10332SOL    HW131895   5.978   1.459   0.375
10332SOL    HW231896   5.829   1.422   0.319
10333SOL     OW31897   6.711   4.709   4.233
10333SOL    HW131898   6.741   4.794   4.190
10333SOL    HW231899   6.791   4.659   4.268
10334SOL     OW31900   2.375   5.985   4.023
10334SOL    HW131901   2.404   5.891   4.038
10334SOL    HW231902   2.286   5.985   3.976
10335SOL     OW31903   2.611   5.117   6.649
10335SOL    HW131904   2.694   5.154   6.607
10335SOL    HW231905   2.556   5.073   6.578
10336SOL     OW31906   5.648   0.077   3.207
10336SOL    HW131907   5.747   0.086   3.199
10336SOL    HW231908   5.604   0.133   3.136
10337SOL     OW31909   6.605   6.437   5.728
10337SOL    HW131910   6.671   6.365   5.708
10337SOL    HW231911   6.625   6.478   5.816
10338SOL     OW31912   2.406   6.348   2.364
10338SOL    HW131913   2.488   6.293   2.346
10338SOL    HW231914   2.428   6.418   2.432
10339SOL     OW31915   2.749   5.809   0.190
10339SOL    HW131916   2.674   5.794   0.254
10339SOL    HW231917   2.721   5.780   0.098
10340SOL     OW31918   1.055   5.165   0.871
10340SOL    HW131919   0.980   5.135   0.812
10340SOL    HW231920   1.123   5.213   0.816
10341SOL     OW31921   2.106   3.704   1.804
10341SOL    HW131922   2.133   3.638   1.874
10341SOL    HW231923   2.149   3.680   1.717
10342SOL     OW31924   1.434   6.152   5.695
10342SOL    HW131925   1.407   6.223   5.630
10342SOL    HW231926   1.352   6.117   5.742
10343SOL     OW31927   2.289   3.881   0.896
10343SOL    HW131928   2.213   3.882   0.961
10343SOL    HW231929   2.254   3.879   0.803
10344SOL     OW31930   4.222   3.372   1.611
10344SOL    HW131931   4.158   3.368   1.535
10344SOL    HW231932   4.239   3.467   1.635
10345SOL     OW31933   1.578   0.682   5.904
10345SOL    HW131934   1.651   0.697   5.970
10345SOL    HW231935   1.595   0.598   5.853
10346SOL     OW31936   6.116   0.929   1.043
10346SOL    HW131937   6.030   0.881   1.054
10346SOL    HW231938   6.172   0.883   0.974
10347SOL     OW31939   5.129   2.785   2.505
10347SOL    HW131940   5.178   2.704   2.474
10347SOL    HW231941   5.193   2.862   2.511
10348SOL     OW31942   6.453   1.832   0.048
10348SOL    HW131943   6.503   1.866   0.128
10348SOL    HW231944   6.357   1.817   0.073
10349SOL     OW31945   6.416   1.050   0.230
10349SOL    HW131946   6.320   1.036   0.209
10349SOL    HW231947   6.471   1.029   0.149
10350SOL     OW31948   2.214   6.350   5.539
10350SOL    HW131949   2.138   6.402   5.578
10350SOL    HW231950   2.190   6.254   5.533
10351SOL     OW31951   5.487   4.994   6.148
10351SOL    HW131952   5.515   5.084   6.179
10351SOL    HW231953   5.393   4.998   6.113
10352SOL     OW31954   5.808   1.549   6.940
10352SOL    HW131955   5.804   1.642   6.976
10352SOL    HW231956   5.886   1.541   6.878
10353SOL     OW31957   5.859   2.234   4.357
10353SOL    HW131958   5.938   2.186   4.319
10353SOL    HW231959   5.863   2.230   4.457
10354SOL     OW31960   6.910   1.997   1.850
10354SOL    HW131961   6.866   1.908   1.856
10354SOL    HW231962   6.896   2.047   1.936
10355SOL     OW31963   1.484   0.981   0.836
10355SOL    HW131964   1.559   0.993   0.771
10355SOL    HW231965   1.515   0.922   0.911
10356SOL     OW31966   6.702   3.351   5.421
10356SOL    HW131967   6.665   3.280   5.362
10356SOL    HW231968   6.728   3.311   5.509
10357SOL     OW31969   3.443   2.475   5.825
10357SOL    HW131970   3.412   2.408   5.758
10357SOL    HW231971   3.445   2.434   5.916
10358SOL     OW31972   0.415   3.033   3.955
10358SOL    HW131973   0.339   2.969   3.953
10358SOL    HW231974   0.381   3.126   3.939
10359SOL     OW31975   5.486   1.341   1.888
10359SOL    HW131976   5.466   1.259   1.942
10359SOL    HW231977   5.529   1.410   1.947
10360SOL     OW31978   4.604   5.157   1.720
10360SOL    HW131979   4.524   5.153   1.660
10360SOL    HW231980   4.687   5.173   1.665
10361SOL     OW31981   2.701   1.147   2.896
10361SOL    HW131982   2.608   1.183   2.890
10361SOL    HW231983   2.717   1.111   2.988
10362SOL     OW31984   0.417   5.346   2.849
10362SOL    HW131985   0.433   5.431   2.900
10362SOL    HW231986   0.505   5.309   2.817
10363SOL     OW31987   5.195   3.205   1.394
10363SOL    HW131988   5.226   3.118   1.434
10363SOL    HW231989   5.178   3.271   1.467
10364SOL     OW31990   4.342   4.158   1.432
10364SOL    HW131991   4.441   4.170   1.421
10364SOL    HW231992   4.324   4.069   1.474
10365SOL     OW31993   4.905   3.977   6.824
10365SOL    HW131994   5.000   3.962   6.797
10365SOL    HW231995   4.851   4.000   6.743
10366SOL     OW31996   3.003   6.981   3.793
10366SOL    HW131997   2.945   0.036   3.773
10366SOL    HW231998   2.973   6.902   3.740
10367SOL     OW31999   6.900   1.572   1.638
10367SOL    HW132000   6.997   1.547   1.637
10367SOL    HW232001   6.844   1.490   1.652
10368SOL     OW32002   2.147   1.327   2.401
10368SOL    HW132003   2.101   1.248   2.362
10368SOL    HW232004   2.136   1.327   2.500
10369SOL     OW32005   3.128   6.998   5.846
10369SOL    HW132006   3.136   0.001   5.750
10369SOL    HW232007   3.206   6.942   5.872
10370SOL     OW32008   0.210   1.233   5.137
10370SOL    HW132009   0.181   1.138   5.148
10370SOL    HW232010   0.278   1.255   5.207
10371SOL     OW32011   1.802   6.390   4.451
10371SOL    HW132012   1.809   6.359   4.546
10371SOL    HW232013   1.796   6.311   4.390
10372SOL     OW32014   2.083   1.042   7.018
10372SOL    HW132015   2.176   1.064   0.023
10372SOL    HW232016   2.024   1.121   0.012
10373SOL     OW32017   1.429   5.960   4.926
10373SOL    HW132018   1.426   5.994   5.020
10373SOL    HW232019   1.356   6.003   4.873
10374SOL     OW32020   3.190   0.814   3.911
10374SOL    HW132021   3.189   0.719   3.944
10374SOL    HW232022   3.284   0.848   3.910
10375SOL     OW32023   2.121   2.212   6.052
10375SOL    HW132024   2.172   2.148   5.994
10375SOL    HW232025   2.181   2.287   6.080
10376SOL     OW32026   1.216   5.945   3.276
10376SOL    HW132027   1.132   5.895   3.253
10376SOL    HW232028   1.282   5.882   3.317
10377SOL     OW32029   0.129   0.643   2.383
10377SOL    HW132030   0.180   0.727   2.368
10377SOL    HW232031   0.054   0.637   2.318
10378SOL     OW32032   5.822   5.675   5.529
10378SOL    HW132033   5.892   5.614   5.566
10378SOL    HW232034   5.762   5.704   5.603
10379SOL     OW32035   2.662   6.087   4.096
10379SOL    HW132036   2.692   6.012   4.154
10379SOL    HW232037   2.563   6.101   4.108
10380SOL     OW32038   0.925   2.630   4.791
10380SOL    HW132039   0.900   2.721   4.824
10380SOL    HW232040   0.843   2.573   4.787
10381SOL     OW32041   4.365   3.927   1.198
10381SOL    HW132042   4.429   3.917   1.275
10381SOL    HW232043   4.371   3.845   1.140
10382SOL     OW32044   2.191   5.065   1.654
10382SOL    HW132045   2.262   5.097   1.715
10382SOL    HW232046   2.202   5.108   1.564
10383SOL     OW32047   1.153   3.975   1.057
10383SOL    HW132048   1.161   4.062   1.009
10383SOL    HW232049   1.192   3.983   1.149
10384SOL     OW32050   6.540   0.253   1.156
10384SOL    HW132051   6.463   0.304   1.117
10384SOL    HW232052   6.549   0.165   1.110
10385SOL     OW32053   4.197   6.011   5.912
10385SOL    HW132054   4.224   6.101   5.946
10385SOL    HW232055   4.103   5.992   5.940
10386SOL     OW32056   6.803   1.368   5.380
10386SOL    HW132057   6.845   1.293   5.430
10386SOL    HW232058   6.800   1.346   5.282
10387SOL     OW32059   4.526   1.812   2.792
10387SOL    HW132060   4.520   1.763   2.705
10387SOL    HW232061   4.527   1.745   2.867
10388SOL     OW32062   2.275   5.633   2.038
10388SOL    HW132063   2.314   5.686   2.114
10388SOL    HW232064   2.176   5.635   2.044
10389SOL     OW32065   6.306   5.238   0.431
10389SOL    HW132066   6.392   5.194   0.459
10389SOL    HW232067   6.230   5.174   0.445
10390SOL     OW32068   2.147   3.242   1.027
10390SOL    HW132069   2.076   3.190   1.075
10390SOL    HW232070   2.122   3.339   1.024
10391SOL     OW32071   0.378   6.354   3.173
10391SOL    HW132072   0.314   6.315   3.107
10391SOL    HW232073   0.459   6.387   3.125
10392SOL     OW32074   6.610   4.951   5.288
10392SOL    HW132075   6.597   4.890   5.210
10392SOL    HW232076   6.631   5.043   5.254
10393SOL     OW32077   2.512   2.438   3.708
10393SOL    HW132078   2.526   2.505   3.635
10393SOL    HW232079   2.597   2.387   3.722
10394SOL     OW32080   2.565   5.476   5.310
10394SOL    HW132081   2.651   5.510   5.272
10394SOL    HW232082   2.489   5.506   5.253
10395SOL     OW32083   0.745   0.854   1.865
10395SOL    HW132084   0.718   0.760   1.887
10395SOL    HW232085   0.705   0.880   1.778
10396SOL     OW32086   3.880   1.254   3.318
10396SOL    HW132087   3.813   1.191   3.279
10396SOL    HW232088   3.860   1.267   3.415
10397SOL     OW32089   2.876   1.315   4.474
10397SOL    HW132090   2.827   1.394   4.439
10397SOL    HW232091   2.830   1.282   4.557
10398SOL     OW32092   5.361   2.280   0.484
10398SOL    HW132093   5.420   2.200   0.474
10398SOL    HW232094   5.276   2.253   0.528
10399SOL     OW32095   4.958   2.411   4.138
10399SOL    HW132096   5.019   2.489   4.138
10399SOL    HW232097   4.871   2.437   4.095
10400SOL     OW32098   4.089   6.163   0.331
10400SOL    HW132099   4.053   6.200   0.246
10400SOL    HW232100   4.023   6.179   0.405
10401SOL     OW32101   0.496   6.800   1.876
10401SOL    HW132102   0.450   6.881   1.912
10401SOL    HW232103   0.581   6.827   1.831
10402SOL     OW32104   0.300   1.599   5.597
10402SOL    HW132105   0.358   1.582   5.518
10402SOL    HW232106   0.204   1.597   5.568
10403SOL     OW32107   4.256   1.913   2.864
10403SOL    HW132108   4.332   1.900   2.801
10403SOL    HW232109   4.292   1.922   2.957
10404SOL     OW32110   6.815   6.472   4.170
10404SOL    HW132111   6.728   6.483   4.121
10404SOL    HW232112   6.876   6.548   4.146
10405SOL     OW32113   1.016   5.796   4.792
10405SOL    HW132114   0.956   5.722   4.823
10405SOL    HW232115   1.083   5.759   4.728
10406SOL     OW32116   2.189   3.129   4.888
10406SOL    HW132117   2.265   3.073   4.921
10406SOL    HW232118   2.102   3.090   4.918
10407SOL     OW32119   2.819   0.050   6.843
10407SOL    HW132120   2.766   0.126   6.806
10407SOL    HW232121   2.780   0.021   6.930
10408SOL     OW32122   4.537   6.895   1.676
10408SOL    HW132123   4.489   6.845   1.604
10408SOL    HW232124   4.634   6.901   1.653
10409SOL     OW32125   0.167   4.537   0.916
10409SOL    HW132126   0.221   4.621   0.910
10409SOL    HW232127   0.070   4.560   0.911
10410SOL     OW32128   5.093   2.675   1.982
10410SOL    HW132129   5.044   2.669   1.895
10410SOL    HW232130   5.081   2.766   2.021
10411SOL     OW32131   3.000   6.071   4.083
10411SOL    HW132132   2.915   6.121   4.096
10411SOL    HW232133   3.070   6.107   4.144
10412SOL     OW32134   0.354   1.300   0.691
10412SOL    HW132135   0.411   1.222   0.716
10412SOL    HW232136   0.263   1.290   0.731
10413SOL     OW32137   6.284   2.686   1.744
10413SOL    HW132138   6.191   2.710   1.718
10413SOL    HW232139   6.337   2.769   1.759
10414SOL     OW32140   3.404   4.794   6.376
10414SOL    HW132141   3.319   4.742   6.366
10414SOL    HW232142   3.447   4.806   6.286
10415SOL     OW32143   1.700   4.692   4.343
10415SOL    HW132144   1.711   4.677   4.245
10415SOL    HW232145   1.745   4.619   4.394
10416SOL     OW32146   5.631   6.881   5.296
10416SOL    HW132147   5.669   6.895   5.387
10416SOL    HW232148   5.565   6.806   5.298
10417SOL     OW32149   4.183   5.053   3.918
10417SOL    HW132150   4.157   5.079   3.825
10417SOL    HW232151   4.121   4.982   3.951
10418SOL     OW32152   6.722   4.338   5.615
10418SOL    HW132153   6.720   4.416   5.552
10418SOL    HW232154   6.683   4.258   5.570
10419SOL     OW32155   3.258   6.669   6.216
10419SOL    HW132156   3.265   6.618   6.301
10419SOL    HW232157   3.349   6.674   6.173
10420SOL     OW32158   0.370   3.630   4.318
10420SOL    HW132159   0.383   3.699   4.246
10420SOL    HW232160   0.356   3.541   4.276
10421SOL     OW32161   1.401   3.725   3.751
10421SOL    HW132162   1.496   3.752   3.766
10421SOL    HW232163   1.387   3.632   3.785
10422SOL     OW32164   6.387   3.356   5.553
10422SOL    HW132165   6.426   3.280   5.501
10422SOL    HW232166   6.461   3.408   5.597
10423SOL     OW32167   5.419   4.922   5.629
10423SOL    HW132168   5.415   4.902   5.532
10423SOL    HW232169   5.424   5.021   5.643
10424SOL     OW32170   3.861   3.125   0.916
10424SOL    HW132171   3.938   3.063   0.929
10424SOL    HW232172   3.884   3.192   0.845
10425SOL     OW32173   1.216   6.516   2.527
10425SOL    HW132174   1.232   6.614   2.535
10425SOL    HW232175   1.149   6.498   2.455
10426SOL     OW32176   5.134   4.780   0.160
10426SOL    HW132177   5.146   4.681   0.166
10426SOL    HW232178   5.062   4.801   0.095
10427SOL     OW32179   4.436   0.955   0.463
10427SOL    HW132180   4.341   0.987   0.455
10427SOL    HW232181   4.438   0.866   0.507
10428SOL     OW32182   2.984   1.175   4.237
10428SOL    HW132183   2.904   1.136   4.190
10428SOL    HW232184   2.953   1.237   4.309
10429SOL     OW32185   7.002   4.048   2.543
10429SOL    HW132186   0.037   3.996   2.606
10429SOL    HW232187   6.936   4.101   2.595
10430SOL     OW32188   4.364   6.908   5.416
10430SOL    HW132189   4.264   6.913   5.413
10430SOL    HW232190   4.397   6.844   5.347
10431SOL     OW32191   2.125   6.210   4.022
10431SOL    HW132192   2.184   6.186   3.944
10431SOL    HW232193   2.137   6.144   4.095
10432SOL     OW32194   6.237   0.255   4.717
10432SOL    HW132195   6.201   0.162   4.717
10432SOL    HW232196   6.197   0.306   4.640
10433SOL     OW32197   0.463   6.236   2.716
10433SOL    HW132198   0.399   6.163   2.692
10433SOL    HW232199   0.479   6.295   2.637
10434SOL     OW32200   3.573   5.997   2.515
10434SOL    HW132201   3.563   5.925   2.447
10434SOL    HW232202   3.667   5.997   2.550
10435SOL     OW32203   1.240   1.941   5.230
10435SOL    HW132204   1.288   1.898   5.153
10435SOL    HW232205   1.223   2.037   5.209
10436SOL     OW32206   5.963   4.853   5.462
10436SOL    HW132207   6.011   4.911   5.528
10436SOL    HW232208   6.003   4.761   5.466
10437SOL     OW32209   4.972   4.559   5.768
10437SOL    HW132210   4.955   4.467   5.733
10437SOL    HW232211   5.041   4.555   5.841
10438SOL     OW32212   0.310   5.969   6.660
10438SOL    HW132213   0.373   5.892   6.665
10438SOL    HW232214   0.361   6.051   6.633
10439SOL     OW32215   4.155   1.423   4.940
10439SOL    HW132216   4.130   1.456   5.031
10439SOL    HW232217   4.073   1.405   4.887
10440SOL     OW32218   0.513   0.012   0.875
10440SOL    HW132219   0.519   6.991   0.785
10440SOL    HW232220   0.461   0.098   0.866
10441SOL     OW32221   3.471   1.688   1.770
10441SOL    HW132222   3.523   1.721   1.691
10441SOL    HW232223   3.393   1.634   1.739
10442SOL     OW32224   4.480   6.820   6.233
10442SOL    HW132225   4.571   6.853   6.205
10442SOL    HW232226   4.468   6.837   6.331
10443SOL     OW32227   4.828   2.860   3.748
10443SOL    HW132228   4.851   2.912   3.666
10443SOL    HW232229   4.853   2.912   3.829
10444SOL     OW32230   4.146   6.026   2.868
10444SOL    HW132231   4.137   6.013   2.967
10444SOL    HW232232   4.055   6.033   2.827
10445SOL     OW32233   0.552   4.818   4.265
10445SOL    HW132234   0.481   4.751   4.244
10445SOL    HW232235   0.568   4.819   4.364
10446SOL     OW32236   1.987   3.235   6.476
10446SOL    HW132237   1.934   3.155   6.505
10446SOL    HW232238   1.993   3.300   6.552
10447SOL     OW32239   0.264   0.787   3.097
10447SOL    HW132240   0.216   0.825   3.176
10447SOL    HW232241   0.316   0.860   3.052
10448SOL     OW32242   4.691   0.636   2.544
10448SOL    HW132243   4.769   0.598   2.594
10448SOL    HW232244   4.681   0.733   2.567
10449SOL     OW32245   1.536   4.981   6.093
10449SOL    HW132246   1.588   4.969   6.009
10449SOL    HW232247   1.439   4.964   6.074
10450SOL     OW32248   0.360   1.106   0.264
10450SOL    HW132249   0.433   1.136   0.325
10450SOL    HW232250   0.321   1.021   0.297
10451SOL     OW32251   1.971   5.700   2.757
10451SOL    HW132252   2.020   5.676   2.674
10451SOL    HW232253   2.031   5.754   2.816
10452SOL     OW32254   6.402   3.143   2.007
10452SOL    HW132255   6.386   3.136   1.908
10452SOL    HW232256   6.472   3.077   2.034
10453SOL     OW32257   5.607   0.095   1.215
10453SOL    HW132258   5.626   0.088   1.312
10453SOL    HW232259   5.535   0.030   1.190
10454SOL     OW32260   4.823   3.197   0.373
10454SOL    HW132261   4.906   3.143   0.358
10454SOL    HW232262   4.759   3.182   0.299
10455SOL     OW32263   6.860   6.817   3.424
10455SOL    HW132264   6.762   6.810   3.444
10455SOL    HW232265   6.912   6.784   3.502
10456SOL     OW32266   1.574   5.433   0.483
10456SOL    HW132267   1.551   5.392   0.395
10456SOL    HW232268   1.672   5.423   0.500
10457SOL     OW32269   3.615   3.029   0.932
10457SOL    HW132270   3.598   2.975   0.850
10457SOL    HW232271   3.701   3.080   0.921
10458SOL     OW32272   6.368   0.375   6.157
10458SOL    HW132273   6.302   0.375   6.082
10458SOL    HW232274   6.387   0.281   6.185
10459SOL     OW32275   4.569   6.128   1.563
10459SOL    HW132276   4.537   6.216   1.530
10459SOL    HW232277   4.606   6.075   1.487
10460SOL     OW32278   0.595   4.120   1.885
10460SOL    HW132279   0.501   4.088   1.878
10460SOL    HW232280   0.623   4.162   1.799
10461SOL     OW32281   5.999   5.527   4.807
10461SOL    HW132282   5.994   5.441   4.857
10461SOL    HW232283   6.090   5.567   4.819
10462SOL     OW32284   5.196   1.668   3.386
10462SOL    HW132285   5.241   1.672   3.297
10462SOL    HW232286   5.104   1.706   3.379
10463SOL     OW32287   4.587   3.013   5.981
10463SOL    HW132288   4.593   3.028   5.883
10463SOL    HW232289   4.677   2.988   6.017
10464SOL     OW32290   6.974   6.636   1.312
10464SOL    HW132291   6.880   6.670   1.306
10464SOL    HW232292   0.003   6.665   1.231
10465SOL     OW32293   6.023   6.064   0.562
10465SOL    HW132294   6.097   6.122   0.595
10465SOL    HW232295   6.050   6.023   0.474
10466SOL     OW32296   4.950   5.162   5.414
10466SOL    HW132297   4.975   5.244   5.465
10466SOL    HW232298   4.964   5.177   5.316
10467SOL     OW32299   2.776   1.550   0.142
10467SOL    HW132300   2.690   1.521   0.100
10467SOL    HW232301   2.767   1.643   0.178
10468SOL     OW32302   3.913   5.309   3.171
10468SOL    HW132303   3.890   5.385   3.111
10468SOL    HW232304   3.934   5.344   3.262
10469SOL     OW32305   4.040   4.632   5.487
10469SOL    HW132306   4.030   4.537   5.455
10469SOL    HW232307   4.082   4.632   5.577
10470SOL     OW32308   2.177   2.533   3.475
10470SOL    HW132309   2.208   2.626   3.496
10470SOL    HW232310   2.097   2.512   3.531
10471SOL     OW32311   3.442   1.216   0.783
10471SOL    HW132312   3.389   1.280   0.839
10471SOL    HW232313   3.448   1.128   0.829
10472SOL     OW32314   3.133   5.979   0.571
10472SOL    HW132315   3.226   5.946   0.557
10472SOL    HW232316   3.069   5.923   0.519
10473SOL     OW32317   6.480   6.785   0.083
10473SOL    HW132318   6.519   6.821   0.168
10473SOL    HW232319   6.392   6.742   0.103
10474SOL     OW32320   3.613   1.765   4.243
10474SOL    HW132321   3.589   1.848   4.192
10474SOL    HW232322   3.530   1.722   4.277
10475SOL     OW32323   4.805   6.911   1.150
10475SOL    HW132324   4.745   6.989   1.136
10475SOL    HW232325   4.823   6.900   1.248
10476SOL     OW32326   7.008   6.662   0.197
10476SOL    HW132327   0.070   6.634   0.152
10476SOL    HW232328   6.930   6.623   0.148
10477SOL     OW32329   6.770   0.835   4.469
10477SOL    HW132330   6.857   0.813   4.426
10477SOL    HW232331   6.786   0.874   4.559
10478SOL     OW32332   6.328   0.782   0.888
10478SOL    HW132333   6.387   0.703   0.872
10478SOL    HW232334   6.300   0.821   0.801
10479SOL     OW32335   6.563   1.830   2.999
10479SOL    HW132336   6.612   1.827   3.086
10479SOL    HW232337   6.584   1.916   2.952
10480SOL     OW32338   6.787   0.251   1.696
10480SOL    HW132339   6.749   0.231   1.605
10480SOL    HW232340   6.772   0.172   1.756
10481SOL     OW32341   2.733   6.935   4.182
10481SOL    HW132342   2.651   6.946   4.238
10481SOL    HW232343   2.731   6.846   4.137
10482SOL     OW32344   6.542   5.036   4.548
10482SOL    HW132345   6.499   5.057   4.460
10482SOL    HW232346   6.578   5.120   4.588
10483SOL     OW32347   6.706   4.672   0.076
10483SOL    HW132348   6.682   4.759   0.119
10483SOL    HW232349   6.729   4.687   7.003
10484SOL     OW32350   6.046   1.731   1.664
10484SOL    HW132351   6.097   1.798   1.610
10484SOL    HW232352   5.993   1.778   1.735
10485SOL     OW32353   3.227   3.644   0.433
10485SOL    HW132354   3.254   3.725   0.485
10485SOL    HW232355   3.306   3.583   0.424
10486SOL     OW32356   0.117   0.472   0.411
10486SOL    HW132357   0.202   0.494   0.460
10486SOL    HW232358   0.085   0.382   0.440
10487SOL     OW32359   4.891   1.511   1.341
10487SOL    HW132360   4.970   1.559   1.378
10487SOL    HW232361   4.837   1.573   1.284
10488SOL     OW32362   3.440   1.442   5.673
10488SOL    HW132363   3.434   1.542   5.683
10488SOL    HW232364   3.522   1.420   5.620
10489SOL     OW32365   0.240   6.845   4.995
10489SOL    HW132366   0.298   6.911   5.043
10489SOL    HW232367   0.202   6.887   4.913
10490SOL     OW32368   5.568   1.588   0.574
10490SOL    HW132369   5.643   1.540   0.528
10490SOL    HW232370   5.561   1.681   0.536
10491SOL     OW32371   2.622   2.349   6.015
10491SOL    HW132372   2.565   2.294   5.953
10491SOL    HW232373   2.603   2.446   6.000
10492SOL     OW32374   5.470   5.343   0.837
10492SOL    HW132375   5.497   5.439   0.851
10492SOL    HW232376   5.551   5.285   0.845
10493SOL     OW32377   3.575   0.178   1.577
10493SOL    HW132378   3.548   0.233   1.498
10493SOL    HW232379   3.508   0.191   1.650
10494SOL     OW32380   5.915   3.931   5.978
10494SOL    HW132381   5.854   3.875   5.922
10494SOL    HW232382   6.009   3.896   5.970
10495SOL     OW32383   1.531   6.416   1.561
10495SOL    HW132384   1.466   6.361   1.509
10495SOL    HW232385   1.524   6.512   1.534
10496SOL     OW32386   6.513   3.798   6.704
10496SOL    HW132387   6.509   3.885   6.752
10496SOL    HW232388   6.561   3.810   6.617
10497SOL     OW32389   1.951   0.153   2.145
10497SOL    HW132390   1.919   0.064   2.111
10497SOL    HW232391   1.929   0.161   2.242
10498SOL     OW32392   4.787   5.547   1.054
10498SOL    HW132393   4.761   5.463   1.103
10498SOL    HW232394   4.758   5.540   0.959
10499SOL     OW32395   4.277   6.540   2.169
10499SOL    HW132396   4.202   6.600   2.197
10499SOL    HW232397   4.350   6.594   2.128
10500SOL     OW32398   6.328   1.239   5.966
10500SOL    HW132399   6.328   1.275   5.872
10500SOL    HW232400   6.398   1.167   5.974
10501SOL     OW32401   2.474   6.002   2.124
10501SOL    HW132402   2.435   5.941   2.192
10501SOL    HW232403   2.538   5.952   2.066
10502SOL     OW32404   2.551   1.490   2.033
10502SOL    HW132405   2.634   1.540   2.059
10502SOL    HW232406   2.574   1.420   1.966
10503SOL     OW32407   4.841   2.635   1.072
10503SOL    HW132408   4.928   2.601   1.037
10503SOL    HW232409   4.826   2.602   1.165
10504SOL     OW32410   1.333   2.054   5.857
10504SOL    HW132411   1.285   2.133   5.820
10504SOL    HW232412   1.334   1.981   5.790
10505SOL     OW32413   5.034   4.974   0.849
10505SOL    HW132414   5.046   5.074   0.854
10505SOL    HW232415   5.072   4.940   0.763
10506SOL     OW32416   7.017   4.246   0.536
10506SOL    HW132417   0.043   4.297   0.607
10506SOL    HW232418   7.004   4.151   0.567
10507SOL     OW32419   1.840   6.734   0.775
10507SOL    HW132420   1.937   6.713   0.790
10507SOL    HW232421   1.790   6.650   0.758
10508SOL     OW32422   6.069   5.466   4.077
10508SOL    HW132423   6.144   5.518   4.033
10508SOL    HW232424   6.088   5.368   4.069
10509SOL     OW32425   6.898   5.154   4.856
10509SOL    HW132426   6.855   5.192   4.937
10509SOL    HW232427   6.996   5.142   4.873
10510SOL     OW32428   4.746   5.638   6.653
10510SOL    HW132429   4.651   5.632   6.684
10510SOL    HW232430   4.803   5.574   6.705
10511SOL     OW32431   3.200   1.175   2.314
10511SOL    HW132432   3.275   1.132   2.364
10511SOL    HW232433   3.229   1.265   2.281
10512SOL     OW32434   4.505   0.522   6.597
10512SOL    HW132435   4.434   0.563   6.655
10512SOL    HW232436   4.471   0.514   6.503
10513SOL     OW32437   5.737   2.385   4.650
10513SOL    HW132438   5.648   2.375   4.606
10513SOL    HW232439   5.788   2.299   4.643
10514SOL     OW32440   0.546   3.231   1.054
10514SOL    HW132441   0.525   3.326   1.029
10514SOL    HW232442   0.461   3.183   1.077
10515SOL     OW32443   0.672   4.059   3.918
10515SOL    HW132444   0.614   4.034   3.841
10515SOL    HW232445   0.627   4.130   3.972
10516SOL     OW32446   4.354   1.390   0.596
10516SOL    HW132447   4.277   1.358   0.540
10516SOL    HW232448   4.440   1.355   0.559
10517SOL     OW32449   0.441   3.104   1.417
10517SOL    HW132450   0.509   3.087   1.346
10517SOL    HW232451   0.485   3.144   1.497
10518SOL     OW32452   0.462   5.962   0.615
10518SOL    HW132453   0.436   5.927   0.705
10518SOL    HW232454   0.464   6.062   0.617
10519SOL     OW32455   3.786   3.413   0.750
10519SOL    HW132456   3.734   3.358   0.684
10519SOL    HW232457   3.734   3.421   0.835
10520SOL     OW32458   0.472   2.115   5.971
10520SOL    HW132459   0.397   2.171   5.936
10520SOL    HW232460   0.518   2.068   5.896
10521SOL     OW32461   6.332   5.360   1.740
10521SOL    HW132462   6.257   5.393   1.797
10521SOL    HW232463   6.414   5.350   1.796
10522SOL     OW32464   0.602   0.205   5.290
10522SOL    HW132465   0.647   0.292   5.308
10522SOL    HW232466   0.636   0.167   5.204
10523SOL     OW32467   0.646   4.611   2.763
10523SOL    HW132468   0.683   4.622   2.671
10523SOL    HW232469   0.590   4.690   2.786
10524SOL     OW32470   0.963   6.820   3.716
10524SOL    HW132471   0.905   6.775   3.784
10524SOL    HW232472   1.057   6.825   3.751
10525SOL     OW32473   4.490   0.188   6.479
10525SOL    HW132474   4.586   0.205   6.500
10525SOL    HW232475   4.440   0.275   6.478
10526SOL     OW32476   1.776   6.847   3.526
10526SOL    HW132477   1.801   6.944   3.532
10526SOL    HW232478   1.785   6.817   3.431
10527SOL     OW32479   1.122   1.328   5.173
10527SOL    HW132480   1.115   1.252   5.108
10527SOL    HW232481   1.122   1.415   5.124
10528SOL     OW32482   1.429   3.192   6.226
10528SOL    HW132483   1.512   3.192   6.282
10528SOL    HW232484   1.437   3.122   6.155
10529SOL     OW32485   3.041   6.275   4.300
10529SOL    HW132486   2.941   6.279   4.312
10529SOL    HW232487   3.081   6.362   4.329
10530SOL     OW32488   1.530   6.982   6.451
10530SOL    HW132489   1.586   0.015   6.390
10530SOL    HW232490   1.473   0.020   6.508
10531SOL     OW32491   1.188   2.781   4.325
10531SOL    HW132492   1.130   2.751   4.249
10531SOL    HW232493   1.264   2.717   4.337
10532SOL     OW32494   1.080   6.608   6.047
10532SOL    HW132495   1.057   6.625   6.142
10532SOL    HW232496   1.160   6.548   6.043
10533SOL     OW32497   3.048   6.825   3.376
10533SOL    HW132498   3.080   6.912   3.414
10533SOL    HW232499   3.052   6.755   3.446
10534SOL     OW32500   6.647   5.582   1.534
10534SOL    HW132501   6.563   5.542   1.499
10534SOL    HW232502   6.625   5.659   1.595
10535SOL     OW32503   1.048   2.119   1.627
10535SOL    HW132504   0.959   2.145   1.665
10535SOL    HW232505   1.055   2.019   1.623
10536SOL     OW32506   3.916   0.956   4.090
10536SOL    HW132507   3.919   0.928   3.994
10536SOL    HW232508   3.904   1.056   4.094
10537SOL     OW32509   4.126   6.042   3.869
10537SOL    HW132510   4.039   6.004   3.900
10537SOL    HW232511   4.120   6.062   3.771
10538SOL     OW32512   5.772   2.981   0.512
10538SOL    HW132513   5.825   2.913   0.461
10538SOL    HW232514   5.815   2.998   0.601
10539SOL     OW32515   0.577   4.807   6.942
10539SOL    HW132516   0.509   4.798   6.870
10539SOL    HW232517   0.669   4.811   6.901
10540SOL     OW32518   1.567   1.952   5.751
10540SOL    HW132519   1.528   2.041   5.777
10540SOL    HW232520   1.496   1.882   5.755
10541SOL     OW32521   3.016   3.904   2.094
10541SOL    HW132522   2.984   3.868   2.181
10541SOL    HW232523   2.970   3.857   2.019
10542SOL     OW32524   0.757   0.180   5.742
10542SOL    HW132525   0.711   0.093   5.761
10542SOL    HW232526   0.768   0.190   5.643
10543SOL     OW32527   0.079   1.183   4.878
10543SOL    HW132528   0.125   1.200   4.965
10543SOL    HW232529   0.027   1.265   4.852
10544SOL     OW32530   2.736   6.894   1.909
10544SOL    HW132531   2.796   6.963   1.869
10544SOL    HW232532   2.770   6.868   2.000
10545SOL     OW32533   0.286   2.229   1.256
10545SOL    HW132534   0.376   2.194   1.227
10545SOL    HW232535   0.294   2.269   1.347
10546SOL     OW32536   1.523   0.721   0.977
10546SOL    HW132537   1.561   0.634   0.943
10546SOL    HW232538   1.570   0.747   1.061
10547SOL     OW32539   5.034   3.288   2.864
10547SOL    HW132540   5.081   3.264   2.779
10547SOL    HW232541   5.010   3.385   2.863
10548SOL     OW32542   5.619   4.492   4.059
10548SOL    HW132543   5.624   4.522   4.154
10548SOL    HW232544   5.524   4.481   4.032
10549SOL     OW32545   0.616   0.136   1.822
10549SOL    HW132546   0.545   0.186   1.872
10549SOL    HW232547   0.650   0.061   1.879
10550SOL     OW32548   4.531   6.879   3.694
10550SOL    HW132549   4.449   6.931   3.669
10550SOL    HW232550   4.508   6.811   3.763
10551SOL     OW32551   1.460   2.471   6.761
10551SOL    HW132552   1.372   2.478   6.808
10551SOL    HW232553   1.477   2.375   6.737
10552SOL     OW32554   3.031   0.972   6.048
10552SOL    HW132555   3.065   0.883   6.018
10552SOL    HW232556   3.075   1.044   5.995
10553SOL     OW32557   0.725   4.765   1.583
10553SOL    HW132558   0.697   4.829   1.655
10553SOL    HW232559   0.691   4.797   1.495
10554SOL     OW32560   6.000   4.759   0.737
10554SOL    HW132561   5.911   4.782   0.775
10554SOL    HW232562   6.003   4.784   0.640
10555SOL     OW32563   2.096   2.397   0.272
10555SOL    HW132564   2.158   2.320   0.256
10555SOL    HW232565   2.084   2.448   0.187
10556SOL     OW32566   1.879   1.640   4.615
10556SOL    HW132567   1.822   1.615   4.694
10556SOL    HW232568   1.907   1.558   4.567
10557SOL     OW32569   2.193   2.979   3.310
10557SOL    HW132570   2.198   3.053   3.377
10557SOL    HW232571   2.100   2.942   3.308
10558SOL     OW32572   4.020   0.251   4.156
10558SOL    HW132573   4.066   0.173   4.200
10558SOL    HW232574   4.074   0.334   4.171
10559SOL     OW32575   5.022   0.644   2.062
10559SOL    HW132576   5.044   0.729   2.016
10559SOL    HW232577   5.004   0.661   2.158
10560SOL     OW32578   4.184   6.138   2.490
10560SOL    HW132579   4.231   6.050   2.478
10560SOL    HW232580   4.086   6.126   2.471
10561SOL     OW32581   3.655   4.240   1.525
10561SOL    HW132582   3.618   4.278   1.610
10561SOL    HW232583   3.650   4.141   1.527
10562SOL     OW32584   3.853   5.511   6.927
10562SOL    HW132585   3.910   5.592   6.937
10562SOL    HW232586   3.770   5.534   6.876
10563SOL     OW32587   0.553   1.700   3.551
10563SOL    HW132588   0.573   1.637   3.626
10563SOL    HW232589   0.634   1.755   3.532
10564SOL     OW32590   6.142   6.180   2.375
10564SOL    HW132591   6.138   6.267   2.325
10564SOL    HW232592   6.109   6.106   2.315
10565SOL     OW32593   0.896   6.833   5.569
10565SOL    HW132594   0.862   6.909   5.513
10565SOL    HW232595   0.988   6.809   5.539
10566SOL     OW32596   3.585   2.074   6.522
10566SOL    HW132597   3.536   2.048   6.605
10566SOL    HW232598   3.680   2.043   6.527
10567SOL     OW32599   2.738   2.023   5.012
10567SOL    HW132600   2.674   1.989   5.082
10567SOL    HW232601   2.822   2.054   5.056
10568SOL     OW32602   6.582   3.272   1.782
10568SOL    HW132603   6.489   3.275   1.744
10568SOL    HW232604   6.635   3.204   1.732
10569SOL     OW32605   5.880   1.815   2.300
10569SOL    HW132606   5.952   1.838   2.366
10569SOL    HW232607   5.911   1.740   2.241
10570SOL     OW32608   1.109   5.040   3.407
10570SOL    HW132609   1.200   5.010   3.378
10570SOL    HW232610   1.065   5.089   3.332
10571SOL     OW32611   0.023   4.210   5.416
10571SOL    HW132612   0.026   4.256   5.505
10571SOL    HW232613   6.995   4.266   5.351
10572SOL     OW32614   6.561   3.918   3.216
10572SOL    HW132615   6.547   3.940   3.312
10572SOL    HW232616   6.653   3.882   3.203
10573SOL     OW32617   5.421   0.496   5.026
10573SOL    HW132618   5.422   0.568   5.095
10573SOL    HW232619   5.366   0.420   5.058
10574SOL     OW32620   1.484   1.418   4.059
10574SOL    HW132621   1.410   1.476   4.025
10574SOL    HW232622   1.532   1.466   4.132
10575SOL     OW32623   7.000   1.372   3.951
10575SOL    HW132624   7.006   1.294   4.014
10575SOL    HW232625   0.013   1.454   3.995
10576SOL     OW32626   6.902   5.529   5.081
10576SOL    HW132627   6.995   5.493   5.073
10576SOL    HW232628   6.905   5.627   5.098
10577SOL     OW32629   1.918   4.492   0.270
10577SOL    HW132630   1.902   4.407   0.220
10577SOL    HW232631   1.835   4.549   0.266
10578SOL     OW32632   4.818   1.286   2.703
10578SOL    HW132633   4.831   1.351   2.778
10578SOL    HW232634   4.902   1.279   2.649
10579SOL     OW32635   4.158   2.846   1.660
10579SOL    HW132636   4.065   2.832   1.695
10579SOL    HW232637   4.211   2.900   1.726
10580SOL     OW32638   6.397   0.536   6.395
10580SOL    HW132639   6.404   0.461   6.329
10580SOL    HW232640   6.471   0.602   6.377
10581SOL     OW32641   6.020   6.929   2.933
10581SOL    HW132642   5.992   0.001   2.942
10581SOL    HW232643   6.115   6.919   2.963
10582SOL     OW32644   4.788   4.747   5.680
10582SOL    HW132645   4.853   4.683   5.721
10582SOL    HW232646   4.836   4.808   5.617
10583SOL     OW32647   3.923   1.364   3.640
10583SOL    HW132648   3.996   1.307   3.677
10583SOL    HW232649   3.882   1.418   3.714
10584SOL     OW32650   6.569   0.360   0.261
10584SOL    HW132651   6.659   0.399   0.282
10584SOL    HW232652   6.521   0.339   0.347
10585SOL     OW32653   2.390   1.771   5.380
10585SOL    HW132654   2.377   1.795   5.284
10585SOL    HW232655   2.485   1.786   5.406
10586SOL     OW32656   6.718   5.450   4.317
10586SOL    HW132657   6.674   5.365   4.344
10586SOL    HW232658   6.806   5.460   4.364
10587SOL     OW32659   6.461   4.533   6.926
10587SOL    HW132660   6.363   4.533   6.909
10587SOL    HW232661   6.478   4.547   0.001
10588SOL     OW32662   1.675   3.573   4.589
10588SOL    HW132663   1.747   3.637   4.562
10588SOL    HW232664   1.617   3.553   4.510
10589SOL     OW32665   6.655   1.070   4.343
10589SOL    HW132666   6.662   1.034   4.436
10589SOL    HW232667   6.625   1.166   4.346
10590SOL     OW32668   0.434   0.406   1.594
10590SOL    HW132669   0.407   0.443   1.683
10590SOL    HW232670   0.380   0.325   1.574
10591SOL     OW32671   2.043   1.844   6.862
10591SOL    HW132672   2.073   1.935   6.889
10591SOL    HW232673   1.995   1.848   6.774
10592SOL     OW32674   6.045   3.383   2.734
10592SOL    HW132675   6.079   3.298   2.694
10592SOL    HW232676   5.960   3.366   2.783
10593SOL     OW32677   2.364   6.515   0.529
10593SOL    HW132678   2.367   6.435   0.469
10593SOL    HW232679   2.432   6.582   0.499
10594SOL     OW32680   5.094   0.489   2.933
10594SOL    HW132681   5.024   0.516   2.999
10594SOL    HW232682   5.119   0.393   2.948
10595SOL     OW32683   4.318   6.286   0.057
10595SOL    HW132684   4.372   6.327   0.131
10595SOL    HW232685   4.366   6.298   6.993
10596SOL     OW32686   4.358   0.565   0.354
10596SOL    HW132687   4.284   0.501   0.370
10596SOL    HW232688   4.353   0.598   0.259
10597SOL     OW32689   2.928   1.160   5.550
10597SOL    HW132690   2.956   1.254   5.571
10597SOL    HW232691   3.002   1.097   5.574
10598SOL     OW32692   3.524   2.848   0.106
10598SOL    HW132693   3.524   2.940   0.068
10598SOL    HW232694   3.473   2.847   0.192
10599SOL     OW32695   5.361   3.460   6.182
10599SOL    HW132696   5.449   3.499   6.156
10599SOL    HW232697   5.369   3.361   6.189
10600SOL     OW32698   3.183   2.641   0.236
10600SOL    HW132699   3.110   2.709   0.243
10600SOL    HW232700   3.158   2.573   0.167
10601SOL     OW32701   1.728   4.467   5.342
10601SOL    HW132702   1.715   4.445   5.246
10601SOL    HW232703   1.760   4.386   5.391
10602SOL     OW32704   2.669   0.909   2.006
10602SOL    HW132705   2.590   0.851   2.027
10602SOL    HW232706   2.734   0.858   1.950
10603SOL     OW32707   3.878   0.377   3.169
10603SOL    HW132708   3.830   0.309   3.224
10603SOL    HW232709   3.819   0.406   3.093
10604SOL     OW32710   6.008   5.911   4.982
10604SOL    HW132711   5.922   5.874   4.947
10604SOL    HW232712   6.078   5.905   4.910
10605SOL     OW32713   1.793   6.349   6.902
10605SOL    HW132714   1.725   6.319   6.835
10605SOL    HW232715   1.840   6.269   6.939
10606SOL     OW32716   0.187   0.699   1.988
10606SOL    HW132717   0.154   0.605   1.991
10606SOL    HW232718   0.136   0.755   2.053
10607SOL     OW32719   4.609   5.153   5.722
10607SOL    HW132720   4.612   5.244   5.681
10607SOL    HW232721   4.522   5.140   5.769
10608SOL     OW32722   5.624   3.133   5.948
10608SOL    HW132723   5.561   3.077   5.894
10608SOL    HW232724   5.673   3.074   6.013
10609SOL     OW32725   2.134   6.813   6.832
10609SOL    HW132726   2.069   6.884   6.804
10609SOL    HW232727   2.208   6.854   6.885
10610SOL     OW32728   1.040   2.501   4.371
10610SOL    HW132729   1.108   2.475   4.440
10610SOL    HW232730   0.987   2.579   4.404
10611SOL     OW32731   2.792   4.027   6.593
10611SOL    HW132732   2.789   4.077   6.507
10611SOL    HW232733   2.841   4.081   6.662
10612SOL     OW32734   3.568   1.610   4.846
10612SOL    HW132735   3.534   1.688   4.794
10612SOL    HW232736   3.579   1.532   4.784
10613SOL     OW32737   5.424   5.785   5.372
10613SOL    HW132738   5.342   5.734   5.397
10613SOL    HW232739   5.499   5.722   5.355
10614SOL     OW32740   5.224   1.628   4.850
10614SOL    HW132741   5.313   1.657   4.816
10614SOL    HW232742   5.234   1.542   4.901
10615SOL     OW32743   4.488   0.381   5.616
10615SOL    HW132744   4.482   0.481   5.606
10615SOL    HW232745   4.567   0.357   5.672
10616SOL     OW32746   2.416   6.943   0.333
10616SOL    HW132747   2.467   7.020   0.294
10616SOL    HW232748   2.435   6.936   0.430
10617SOL     OW32749   3.107   3.615   1.643
10617SOL    HW132750   3.107   3.575   1.551
10617SOL    HW232751   3.186   3.675   1.653
10618SOL     OW32752   1.303   3.573   5.891
10618SOL    HW132753   1.310   3.673   5.883
10618SOL    HW232754   1.358   3.543   5.969
10619SOL     OW32755   0.164   3.186   2.227
10619SOL    HW132756   0.131   3.262   2.284
10619SOL    HW232757   0.086   3.139   2.186
10620SOL     OW32758   1.209   5.786   5.030
10620SOL    HW132759   1.285   5.843   4.999
10620SOL    HW232760   1.130   5.801   4.971
10621SOL     OW32761   0.853   5.003   1.923
10621SOL    HW132762   0.906   4.920   1.911
10621SOL    HW232763   0.913   5.083   1.921
10622SOL     OW32764   4.585   2.353   1.635
10622SOL    HW132765   4.634   2.343   1.722
10622SOL    HW232766   4.517   2.280   1.627
10623SOL     OW32767   0.274   4.668   5.235
10623SOL    HW132768   0.228   4.581   5.214
10623SOL    HW232769   0.231   4.742   5.183
10624SOL     OW32770   0.750   2.338   4.616
10624SOL    HW132771   0.841   2.298   4.607
10624SOL    HW232772   0.701   2.330   4.529
10625SOL     OW32773   0.634   4.550   1.011
10625SOL    HW132774   0.614   4.452   1.016
10625SOL    HW232775   0.601   4.587   0.924
10626SOL     OW32776   2.566   2.789   0.335
10626SOL    HW132777   2.510   2.709   0.313
10626SOL    HW232778   2.614   2.774   0.421
10627SOL     OW32779   5.280   0.318   1.217
10627SOL    HW132780   5.310   0.256   1.144
10627SOL    HW232781   5.293   0.273   1.306
10628SOL     OW32782   4.672   6.292   0.267
10628SOL    HW132783   4.708   6.362   0.205
10628SOL    HW232784   4.730   6.212   0.265
10629SOL     OW32785   2.300   4.840   5.376
10629SOL    HW132786   2.208   4.876   5.360
10629SOL    HW232787   2.330   4.788   5.296
10630SOL     OW32788   6.080   1.517   3.935
10630SOL    HW132789   6.174   1.486   3.926
10630SOL    HW232790   6.024   1.476   3.863
10631SOL     OW32791   3.089   5.322   5.389
10631SOL    HW132792   3.097   5.254   5.462
10631SOL    HW232793   3.004   5.308   5.339
10632SOL     OW32794   5.597   1.312   3.573
10632SOL    HW132795   5.564   1.395   3.617
10632SOL    HW232796   5.573   1.233   3.629
10633SOL     OW32797   2.352   2.803   0.637
10633SOL    HW132798   2.312   2.802   0.729
10633SOL    HW232799   2.426   2.735   0.633
10634SOL     OW32800   3.291   4.555   0.889
10634SOL    HW132801   3.241   4.487   0.835
10634SOL    HW232802   3.386   4.558   0.858
10635SOL     OW32803   1.783   3.065   0.988
10635SOL    HW132804   1.732   3.149   0.971
10635SOL    HW232805   1.860   3.060   0.925
10636SOL     OW32806   0.722   2.140   1.454
10636SOL    HW132807   0.800   2.131   1.392
10636SOL    HW232808   0.746   2.101   1.543
10637SOL     OW32809   2.288   4.362   6.403
10637SOL    HW132810   2.291   4.440   6.465
10637SOL    HW232811   2.279   4.394   6.309
10638SOL     OW32812   6.527   5.321   2.511
10638SOL    HW132813   6.444   5.376   2.515
10638SOL    HW232814   6.588   5.346   2.586
10639SOL     OW32815   1.168   3.357   3.567
10639SOL    HW132816   1.197   3.450   3.544
10639SOL    HW232817   1.180   3.341   3.665
10640SOL     OW32818   3.672   0.239   5.231
10640SOL    HW132819   3.689   0.196   5.143
10640SOL    HW232820   3.757   0.281   5.264
10641SOL     OW32821   2.243   1.989   1.880
10641SOL    HW132822   2.293   2.074   1.898
10641SOL    HW232823   2.231   1.939   1.965
10642SOL     OW32824   6.289   2.530   1.432
10642SOL    HW132825   6.349   2.604   1.463
10642SOL    HW232826   6.208   2.525   1.490
10643SOL     OW32827   1.866   5.356   5.183
10643SOL    HW132828   1.903   5.359   5.090
10643SOL    HW232829   1.900   5.274   5.229
10644SOL     OW32830   5.607   2.901   2.801
10644SOL    HW132831   5.635   2.931   2.892
10644SOL    HW232832   5.584   2.804   2.804
10645SOL     OW32833   1.853   2.625   4.824
10645SOL    HW132834   1.801   2.576   4.754
10645SOL    HW232835   1.947   2.588   4.826
10646SOL     OW32836   0.653   0.509   6.606
10646SOL    HW132837   0.630   0.525   6.702
10646SOL    HW232838   0.592   0.563   6.548
10647SOL     OW32839   2.857   5.506   4.981
10647SOL    HW132840   2.828   5.412   4.965
10647SOL    HW232841   2.953   5.508   5.010
10648SOL     OW32842   6.041   4.291   6.001
10648SOL    HW132843   6.118   4.240   6.039
10648SOL    HW232844   5.970   4.301   6.072
10649SOL     OW32845   0.104   4.580   2.479
10649SOL    HW132846   0.043   4.586   2.558
10649SOL    HW232847   0.129   4.672   2.448
10650SOL     OW32848   1.037   0.314   3.953
10650SOL    HW132849   1.029   0.401   4.002
10650SOL    HW232850   0.961   0.306   3.889
10651SOL     OW32851   5.518   6.213   6.783
10651SOL    HW132852   5.548   6.118   6.787
10651SOL    HW232853   5.424   6.217   6.748
10652SOL     OW32854   3.390   0.081   5.703
10652SOL    HW132855   3.436   0.130   5.777
10652SOL    HW232856   3.421   7.008   5.702
10653SOL     OW32857   4.092   4.844   3.288
10653SOL    HW132858   4.121   4.769   3.228
10653SOL    HW232859   3.998   4.869   3.267
10654SOL     OW32860   5.310   1.002   0.574
10654SOL    HW132861   5.264   1.078   0.528
10654SOL    HW232862   5.278   0.915   0.536
10655SOL     OW32863   2.204   5.459   0.715
10655SOL    HW132864   2.248   5.497   0.796
10655SOL    HW232865   2.137   5.390   0.742
10656SOL     OW32866   6.950   2.471   2.699
10656SOL    HW132867   6.935   2.379   2.662
10656SOL    HW232868   6.973   2.533   2.624
10657SOL     OW32869   6.607   0.155   6.034
10657SOL    HW132870   6.553   0.180   6.114
10657SOL    HW232871   6.563   0.077   5.988
10658SOL     OW32872   6.379   4.786   4.958
10658SOL    HW132873   6.384   4.774   5.057
10658SOL    HW232874   6.461   4.748   4.915
10659SOL     OW32875   0.197   5.558   1.228
10659SOL    HW132876   0.140   5.496   1.175
10659SOL    HW232877   0.175   5.549   1.325
10660SOL     OW32878   4.818   4.534   6.213
10660SOL    HW132879   4.778   4.508   6.301
10660SOL    HW232880   4.863   4.456   6.172
10661SOL     OW32881   1.494   6.920   1.890
10661SOL    HW132882   1.546   6.835   1.895
10661SOL    HW232883   1.487   6.950   1.795
10662SOL     OW32884   5.609   6.547   2.964
10662SOL    HW132885   5.637   6.603   2.886
10662SOL    HW232886   5.515   6.570   2.989
10663SOL     OW32887   0.332   1.426   1.876
10663SOL    HW132888   0.354   1.524   1.880
10663SOL    HW232889   0.402   1.374   1.926
10664SOL     OW32890   6.999   3.958   5.064
10664SOL    HW132891   6.960   3.918   4.981
10664SOL    HW232892   0.033   3.889   5.110
10665SOL     OW32893   1.282   1.100   0.401
10665SOL    HW132894   1.327   1.188   0.416
10665SOL    HW232895   1.214   1.109   0.328
10666SOL     OW32896   3.353   3.602   1.395
10666SOL    HW132897   3.302   3.523   1.427
10666SOL    HW232898   3.364   3.667   1.471
10667SOL     OW32899   3.808   3.118   5.410
10667SOL    HW132900   3.904   3.093   5.402
10667SOL    HW232901   3.800   3.217   5.421
10668SOL     OW32902   2.380   0.226   4.876
10668SOL    HW132903   2.475   0.202   4.856
10668SOL    HW232904   2.319   0.162   4.830
10669SOL     OW32905   5.809   6.616   0.729
10669SOL    HW132906   5.845   6.523   0.729
10669SOL    HW232907   5.863   6.673   0.792
10670SOL     OW32908   5.450   3.623   5.039
10670SOL    HW132909   5.432   3.699   5.102
10670SOL    HW232910   5.364   3.582   5.010
10671SOL     OW32911   2.443   2.350   3.137
10671SOL    HW132912   2.435   2.439   3.184
10671SOL    HW232913   2.446   2.277   3.206
10672SOL     OW32914   6.316   2.872   0.739
10672SOL    HW132915   6.261   2.850   0.819
10672SOL    HW232916   6.343   2.968   0.742
10673SOL     OW32917   1.199   1.269   6.190
10673SOL    HW132918   1.154   1.196   6.240
10673SOL    HW232919   1.144   1.296   6.112
10674SOL     OW32920   3.765   3.782   1.985
10674SOL    HW132921   3.830   3.814   1.916
10674SOL    HW232922   3.751   3.683   1.974
10675SOL     OW32923   1.656   6.576   6.986
10675SOL    HW132924   1.735   6.637   6.983
10675SOL    HW232925   1.686   6.482   6.968
10676SOL     OW32926   6.310   6.083   6.329
10676SOL    HW132927   6.318   6.162   6.389
10676SOL    HW232928   6.291   6.114   6.236
10677SOL     OW32929   1.167   0.922   2.176
10677SOL    HW132930   1.225   0.842   2.191
10677SOL    HW232931   1.141   0.926   2.079
10678SOL     OW32932   3.355   6.144   4.077
10678SOL    HW132933   3.347   6.219   4.010
10678SOL    HW232934   3.331   6.179   4.168
10679SOL     OW32935   4.427   5.890   6.241
10679SOL    HW132936   4.345   5.848   6.202
10679SOL    HW232937   4.484   5.820   6.283
10680SOL     OW32938   2.655   1.888   2.823
10680SOL    HW132939   2.598   1.947   2.765
10680SOL    HW232940   2.660   1.797   2.783
10681SOL     OW32941   1.136   3.435   6.930
10681SOL    HW132942   1.136   3.534   6.913
10681SOL    HW232943   1.149   3.418   0.004
10682SOL     OW32944   2.104   1.332   4.860
10682SOL    HW132945   2.147   1.399   4.921
10682SOL    HW232946   2.129   1.353   4.765
10683SOL     OW32947   3.133   2.018   3.333
10683SOL    HW132948   3.113   1.942   3.393
10683SOL    HW232949   3.230   2.042   3.340
10684SOL     OW32950   5.387   4.197   1.188
10684SOL    HW132951   5.359   4.101   1.185
10684SOL    HW232952   5.444   4.218   1.108
10685SOL     OW32953   0.331   5.820   2.480
10685SOL    HW132954   0.257   5.762   2.514
10685SOL    HW232955   0.394   5.765   2.426
10686SOL     OW32956   1.453   4.988   6.384
10686SOL    HW132957   1.515   5.066   6.390
10686SOL    HW232958   1.482   4.928   6.309
10687SOL     OW32959   0.060   4.897   1.807
10687SOL    HW132960   6.990   4.905   1.770
10687SOL    HW232961   0.106   4.985   1.798
10688SOL     OW32962   6.016   4.392   3.171
10688SOL    HW132963   5.945   4.448   3.129
10688SOL    HW232964   6.026   4.307   3.120
10689SOL     OW32965   0.247   6.388   3.407
10689SOL    HW132966   0.259   6.302   3.456
10689SOL    HW232967   0.295   6.384   3.320
10690SOL     OW32968   0.134   6.479   2.801
10690SOL    HW132969   0.203   6.514   2.865
10690SOL    HW232970   0.043   6.500   2.836
10691SOL     OW32971   0.148   1.902   2.077
10691SOL    HW132972   0.069   1.895   2.016
10691SOL    HW232973   0.151   1.821   2.136
10692SOL     OW32974   2.704   5.330   3.199
10692SOL    HW132975   2.662   5.250   3.155
10692SOL    HW232976   2.803   5.318   3.202
10693SOL     OW32977   2.923   0.470   0.134
10693SOL    HW132978   2.933   0.536   0.059
10693SOL    HW232979   2.989   0.396   0.122
10694SOL     OW32980   5.323   6.629   1.816
10694SOL    HW132981   5.407   6.643   1.868
10694SOL    HW232982   5.257   6.702   1.838
10695SOL     OW32983   5.082   2.055   2.592
10695SOL    HW132984   4.997   2.093   2.557
10695SOL    HW232985   5.144   2.035   2.516
10696SOL     OW32986   0.149   3.762   3.724
10696SOL    HW132987   0.109   3.845   3.761
10696SOL    HW232988   0.090   3.726   3.651
10697SOL     OW32989   0.664   5.935   4.475
10697SOL    HW132990   0.759   5.953   4.500
10697SOL    HW232991   0.654   5.943   4.375
10698SOL     OW32992   4.194   5.759   4.740
10698SOL    HW132993   4.192   5.827   4.667
10698SOL    HW232994   4.283   5.714   4.741
10699SOL     OW32995   3.638   2.805   1.764
10699SOL    HW132996   3.586   2.818   1.848
10699SOL    HW232997   3.653   2.708   1.748
10700SOL     OW32998   0.350   6.304   0.882
10700SOL    HW132999   0.432   6.349   0.849
10700SOL    HW233000   0.360   6.283   0.979
10701SOL     OW33001   3.190   6.004   0.001
10701SOL    HW133002   3.145   6.080   6.978
10701SOL    HW233003   3.153   5.917   6.989
10702SOL     OW33004   5.994   2.797   2.038
10702SOL    HW133005   6.000   2.710   2.088
10702SOL    HW233006   5.898   2.820   2.024
10703SOL     OW33007   2.938   3.441   4.965
10703SOL    HW133008   2.964   3.388   4.884
10703SOL    HW233009   3.019   3.487   5.002
10704SOL     OW33010   6.400   5.457   1.492
10704SOL    HW133011   6.376   5.391   1.564
10704SOL    HW233012   6.323   5.517   1.474
10705SOL     OW33013   6.275   4.222   2.009
10705SOL    HW133014   6.238   4.255   2.096
10705SOL    HW233015   6.328   4.139   2.025
10706SOL     OW33016   4.546   6.473   2.417
10706SOL    HW133017   4.476   6.504   2.481
10706SOL    HW233018   4.589   6.552   2.374
10707SOL     OW33019   0.193   6.758   3.609
10707SOL    HW133020   0.288   6.737   3.584
10707SOL    HW233021   0.134   6.681   3.585
10708SOL     OW33022   4.553   0.846   2.334
10708SOL    HW133023   4.527   0.941   2.320
10708SOL    HW233024   4.471   0.789   2.339
10709SOL     OW33025   5.916   6.714   5.279
10709SOL    HW133026   6.004   6.756   5.301
10709SOL    HW233027   5.842   6.779   5.298
10710SOL     OW33028   0.164   6.530   4.542
10710SOL    HW133029   0.220   6.452   4.568
10710SOL    HW233030   0.068   6.511   4.567
10711SOL     OW33031   1.650   5.824   3.422
10711SOL    HW133032   1.700   5.764   3.485
10711SOL    HW233033   1.671   5.799   3.328
10712SOL     OW33034   2.425   0.815   1.061
10712SOL    HW133035   2.407   0.730   1.012
10712SOL    HW233036   2.341   0.847   1.105
10713SOL     OW33037   1.391   3.484   1.383
10713SOL    HW133038   1.348   3.575   1.380
10713SOL    HW233039   1.355   3.428   1.308
10714SOL     OW33040   6.184   3.502   5.432
10714SOL    HW133041   6.127   3.488   5.513
10714SOL    HW233042   6.274   3.461   5.447
10715SOL     OW33043   4.602   6.950   2.748
10715SOL    HW133044   4.675   6.992   2.802
10715SOL    HW233045   4.518   7.004   2.759
10716SOL     OW33046   5.625   3.178   4.484
10716SOL    HW133047   5.719   3.143   4.484
10716SOL    HW233048   5.624   3.271   4.521
10717SOL     OW33049   0.900   2.672   0.947
10717SOL    HW133050   0.956   2.752   0.929
10717SOL    HW233051   0.883   2.623   0.862
10718SOL     OW33052   0.441   2.962   6.680
10718SOL    HW133053   0.345   2.932   6.682
10718SOL    HW233054   0.447   3.050   6.633
10719SOL     OW33055   5.239   5.814   0.202
10719SOL    HW133056   5.264   5.823   0.105
10719SOL    HW233057   5.322   5.802   0.257
10720SOL     OW33058   6.621   2.957   5.829
10720SOL    HW133059   6.688   2.891   5.864
10720SOL    HW233060   6.536   2.909   5.809
10721SOL     OW33061   6.095   4.109   5.156
10721SOL    HW133062   6.158   4.073   5.224
10721SOL    HW233063   6.139   4.181   5.104
10722SOL     OW33064   0.019   3.966   0.489
10722SOL    HW133065   0.119   3.960   0.495
10722SOL    HW233066   7.001   3.890   0.540
10723SOL     OW33067   0.124   3.830   6.564
10723SOL    HW133068   0.041   3.846   6.510
10723SOL    HW233069   0.204   3.842   6.506
10724SOL     OW33070   4.659   0.604   0.285
10724SOL    HW133071   4.560   0.613   0.279
10724SOL    HW233072   4.690   0.532   0.223
10725SOL     OW33073   0.184   5.088   3.555
10725SOL    HW133074   0.244   5.055   3.481
10725SOL    HW233075   0.133   5.168   3.524
10726SOL     OW33076   5.707   6.043   5.705
10726SOL    HW133077   5.724   5.994   5.790
10726SOL    HW233078   5.619   6.016   5.668
10727SOL     OW33079   0.666   5.148   4.425
10727SOL    HW133080   0.709   5.104   4.504
10727SOL    HW233081   0.641   5.242   4.449
10728SOL     OW33082   6.076   6.262   1.726
10728SOL    HW133083   6.017   6.343   1.716
10728SOL    HW233084   6.162   6.289   1.770
10729SOL     OW33085   5.879   0.878   3.298
10729SOL    HW133086   5.961   0.934   3.302
10729SOL    HW233087   5.798   0.936   3.295
10730SOL     OW33088   2.499   0.145   0.838
10730SOL    HW133089   2.427   0.111   0.897
10730SOL    HW233090   2.513   0.082   0.762
10731SOL     OW33091   2.493   6.023   6.937
10731SOL    HW133092   2.468   5.937   6.982
10731SOL    HW233093   2.523   6.089   7.006
10732SOL     OW33094   5.210   5.724   2.739
10732SOL    HW133095   5.117   5.760   2.747
10732SOL    HW233096   5.271   5.797   2.709
10733SOL     OW33097   5.246   1.893   6.768
10733SOL    HW133098   5.238   1.939   6.680
10733SOL    HW233099   5.208   1.952   6.840
10734SOL     OW33100   1.201   0.206   6.776
10734SOL    HW133101   1.117   0.156   6.796
10734SOL    HW233102   1.265   0.195   6.852
10735SOL     OW33103   1.388   4.572   2.879
10735SOL    HW133104   1.311   4.508   2.878
10735SOL    HW233105   1.384   4.631   2.798
10736SOL     OW33106   0.485   0.867   3.395
10736SOL    HW133107   0.426   0.809   3.451
10736SOL    HW233108   0.429   0.937   3.349
10737SOL     OW33109   1.217   1.670   0.427
10737SOL    HW133110   1.285   1.734   0.463
10737SOL    HW233111   1.127   1.692   0.465
10738SOL     OW33112   2.461   0.599   2.440
10738SOL    HW133113   2.510   0.609   2.526
10738SOL    HW233114   2.527   0.596   2.365
10739SOL     OW33115   0.634   1.376   1.764
10739SOL    HW133116   0.697   1.321   1.709
10739SOL    HW233117   0.636   1.471   1.733
10740SOL     OW33118   1.584   4.305   6.073
10740SOL    HW133119   1.654   4.326   6.006
10740SOL    HW233120   1.546   4.214   6.055
10741SOL     OW33121   0.234   0.709   3.439
10741SOL    HW133122   0.195   0.626   3.399
10741SOL    HW233123   0.243   0.698   3.538
10742SOL     OW33124   6.243   0.102   1.883
10742SOL    HW133125   6.206   0.170   1.820
10742SOL    HW233126   6.333   0.073   1.851
10743SOL     OW33127   2.781   2.054   3.712
10743SOL    HW133128   2.830   2.138   3.691
10743SOL    HW233129   2.686   2.062   3.682
10744SOL     OW33130   3.307   1.367   2.641
10744SOL    HW133131   3.265   1.277   2.638
10744SOL    HW233132   3.378   1.368   2.713
10745SOL     OW33133   0.638   5.029   0.884
10745SOL    HW133134   0.689   5.105   0.843
10745SOL    HW233135   0.660   5.024   0.982
10746SOL     OW33136   1.832   3.678   1.856
10746SOL    HW133137   1.925   3.671   1.819
10746SOL    HW233138   1.794   3.768   1.832
10747SOL     OW33139   4.521   1.034   3.406
10747SOL    HW133140   4.519   0.966   3.334
10747SOL    HW233141   4.574   1.000   3.483
10748SOL     OW33142   4.418   7.018   0.989
10748SOL    HW133143   4.384   6.993   1.080
10748SOL    HW233144   4.341   0.024   0.932
10749SOL     OW33145   6.813   4.435   3.522
10749SOL    HW133146   6.814   4.480   3.611
10749SOL    HW233147   6.849   4.497   3.452
10750SOL     OW33148   4.027   6.043   4.234
10750SOL    HW133149   3.961   5.971   4.211
10750SOL    HW233150   4.006   6.079   4.325
10751SOL     OW33151   0.849   3.994   5.685
10751SOL    HW133152   0.849   3.921   5.617
10751SOL    HW233153   0.851   4.083   5.639
10752SOL     OW33154   6.578   3.578   6.073
10752SOL    HW133155   6.563   3.665   6.027
10752SOL    HW233156   6.616   3.595   6.164
10753SOL     OW33157   5.239   0.565   3.466
10753SOL    HW133158   5.170   0.527   3.528
10753SOL    HW233159   5.279   0.492   3.411
10754SOL     OW33160   1.686   1.905   3.800
10754SOL    HW133161   1.722   1.827   3.851
10754SOL    HW233162   1.705   1.892   3.702
10755SOL     OW33163   0.570   1.984   0.350
10755SOL    HW133164   0.622   1.922   0.292
10755SOL    HW233165   0.626   2.009   0.430
10756SOL     OW33166   6.560   4.209   7.015
10756SOL    HW133167   6.466   4.234   0.019
10756SOL    HW233168   6.587   4.126   0.041
10757SOL     OW33169   0.670   3.706   0.261
10757SOL    HW133170   0.648   3.645   0.338
10757SOL    HW233171   0.589   3.759   0.237
10758SOL     OW33172   0.926   6.510   4.958
10758SOL    HW133173   0.901   6.528   5.054
10758SOL    HW233174   0.990   6.580   4.927
10759SOL     OW33175   1.677   2.828   0.042
10759SOL    HW133176   1.636   2.836   0.134
10759SOL    HW233177   1.776   2.825   0.050
10760SOL     OW33178   6.981   0.676   0.351
10760SOL    HW133179   0.019   0.599   0.370
10760SOL    HW233180   7.022   0.761   0.385
10761SOL     OW33181   0.967   1.903   6.204
10761SOL    HW133182   1.016   1.917   6.117
10761SOL    HW233183   0.892   1.838   6.190
10762SOL     OW33184   3.749   1.983   4.776
10762SOL    HW133185   3.768   2.033   4.861
10762SOL    HW233186   3.759   1.885   4.792
10763SOL     OW33187   4.859   6.573   0.935
10763SOL    HW133188   4.956   6.593   0.924
10763SOL    HW233189   4.848   6.478   0.964
10764SOL     OW33190   5.778   1.753   5.858
10764SOL    HW133191   5.758   1.773   5.954
10764SOL    HW233192   5.693   1.738   5.808
10765SOL     OW33193   5.534   3.023   1.048
10765SOL    HW133194   5.471   3.066   1.113
10765SOL    HW233195   5.587   2.952   1.095
10766SOL     OW33196   3.252   2.977   0.498
10766SOL    HW133197   3.295   3.063   0.526
10766SOL    HW233198   3.155   2.978   0.522
10767SOL     OW33199   1.307   0.693   6.644
10767SOL    HW133200   1.307   0.664   6.739
10767SOL    HW233201   1.338   0.788   6.638
10768SOL     OW33202   4.963   5.583   1.305
10768SOL    HW133203   4.990   5.628   1.220
10768SOL    HW233204   5.033   5.516   1.331
10769SOL     OW33205   1.847   5.129   4.926
10769SOL    HW133206   1.779   5.066   4.961
10769SOL    HW233207   1.918   5.078   4.877
10770SOL     OW33208   5.165   6.960   4.959
10770SOL    HW133209   5.163   6.903   4.878
10770SOL    HW233210   5.081   7.015   4.964
10771SOL     OW33211   4.405   0.657   4.883
10771SOL    HW133212   4.480   0.595   4.857
10771SOL    HW233213   4.361   0.623   4.966
10772SOL     OW33214   6.370   6.713   4.188
10772SOL    HW133215   6.404   6.779   4.255
10772SOL    HW233216   6.298   6.658   4.230
10773SOL     OW33217   6.666   5.110   5.979
10773SOL    HW133218   6.583   5.055   5.986
10773SOL    HW233219   6.680   5.163   6.063
10774SOL     OW33220   1.810   1.407   6.471
10774SOL    HW133221   1.832   1.467   6.394
10774SOL    HW233222   1.858   1.320   6.460
10775SOL     OW33223   0.803   3.763   0.953
10775SOL    HW133224   0.703   3.759   0.959
10775SOL    HW233225   0.833   3.717   0.870
10776SOL     OW33226   1.713   6.105   0.286
10776SOL    HW133227   1.691   6.202   0.276
10776SOL    HW233228   1.642   6.050   0.241
10777SOL     OW33229   4.108   6.532   3.924
10777SOL    HW133230   4.152   6.484   3.848
10777SOL    HW233231   4.068   6.466   3.987
10778SOL     OW33232   5.457   6.175   5.503
10778SOL    HW133233   5.489   6.268   5.517
10778SOL    HW233234   5.418   6.167   5.411
10779SOL     OW33235   5.842   5.083   2.856
10779SOL    HW133236   5.796   5.083   2.768
10779SOL    HW233237   5.778   5.115   2.927
10780SOL     OW33238   1.388   6.790   3.523
10780SOL    HW133239   1.447   6.740   3.587
10780SOL    HW233240   1.312   6.731   3.495
10781SOL     OW33241   3.734   1.554   3.424
10781SOL    HW133242   3.776   1.502   3.349
10781SOL    HW233243   3.706   1.492   3.497
10782SOL     OW33244   6.559   1.921   3.448
10782SOL    HW133245   6.650   1.950   3.477
10782SOL    HW233246   6.518   1.992   3.390
10783SOL     OW33247   1.539   3.414   3.514
10783SOL    HW133248   1.602   3.366   3.575
10783SOL    HW233249   1.579   3.501   3.486
10784SOL     OW33250   2.960   0.341   3.031
10784SOL    HW133251   2.918   0.415   2.978
10784SOL    HW233252   3.058   0.339   3.012
10785SOL     OW33253   0.908   4.877   0.759
10785SOL    HW133254   0.872   4.784   0.766
10785SOL    HW233255   0.844   4.941   0.801
10786SOL     OW33256   5.052   3.286   2.111
10786SOL    HW133257   4.978   3.226   2.143
10786SOL    HW233258   5.020   3.380   2.110
10787SOL     OW33259   2.852   2.159   4.534
10787SOL    HW133260   2.937   2.128   4.577
10787SOL    HW233261   2.782   2.174   4.605
10788SOL     OW33262   2.220   4.590   0.401
10788SOL    HW133263   2.216   4.492   0.421
10788SOL    HW233264   2.154   4.611   0.329
10789SOL     OW33265   5.918   2.840   0.289
10789SOL    HW133266   6.016   2.819   0.279
10789SOL    HW233267   5.878   2.853   0.198
10790SOL     OW33268   1.222   0.592   3.446
10790SOL    HW133269   1.194   0.563   3.538
10790SOL    HW233270   1.233   0.512   3.387
10791SOL     OW33271   0.203   1.048   0.962
10791SOL    HW133272   0.300   1.055   0.941
10791SOL    HW233273   0.150   1.071   0.880
10792SOL     OW33274   3.800   3.452   1.970
10792SOL    HW133275   3.741   3.428   2.047
10792SOL    HW233276   3.894   3.463   2.002
10793SOL     OW33277   5.530   2.585   4.329
10793SOL    HW133278   5.451   2.644   4.312
10793SOL    HW233279   5.613   2.631   4.298
10794SOL     OW33280   2.948   3.801   3.399
10794SOL    HW133281   2.917   3.744   3.475
10794SOL    HW233282   2.955   3.746   3.316
10795SOL     OW33283   6.830   3.755   3.795
10795SOL    HW133284   6.785   3.773   3.882
10795SOL    HW233285   6.864   3.841   3.757
10796SOL     OW33286   4.502   6.690   0.114
10796SOL    HW133287   4.505   6.771   0.173
10796SOL    HW233288   4.412   6.646   0.122
10797SOL     OW33289   4.064   2.459   1.142
10797SOL    HW133290   4.135   2.493   1.080
10797SOL    HW233291   4.046   2.363   1.122
10798SOL     OW33292   2.103   6.650   0.787
10798SOL    HW133293   2.142   6.610   0.704
10798SOL    HW233294   2.151   6.735   0.809
10799SOL     OW33295   3.538   0.787   2.000
10799SOL    HW133296   3.591   0.868   2.024
10799SOL    HW233297   3.441   0.804   2.019
10800SOL     OW33298   1.074   0.221   0.149
10800SOL    HW133299   1.057   0.123   0.163
10800SOL    HW233300   1.056   0.270   0.234
10801SOL     OW33301   1.125   6.711   5.219
10801SOL    HW133302   1.149   6.639   5.285
10801SOL    HW233303   1.111   6.797   5.268
10802SOL     OW33304   1.890   3.231   4.047
10802SOL    HW133305   1.989   3.227   4.035
10802SOL    HW233306   1.869   3.269   4.137
10803SOL     OW33307   4.214   4.348   5.722
10803SOL    HW133308   4.136   4.299   5.683
10803SOL    HW233309   4.299   4.317   5.679
10804SOL     OW33310   6.868   4.214   1.384
10804SOL    HW133311   6.895   4.276   1.311
10804SOL    HW233312   6.785   4.248   1.428
10805SOL     OW33313   3.489   6.861   6.767
10805SOL    HW133314   3.569   6.803   6.755
10805SOL    HW233315   3.506   6.927   6.840
10806SOL     OW33316   4.873   4.800   6.156
10806SOL    HW133317   4.862   4.711   6.200
10806SOL    HW233318   4.792   4.820   6.101
10807SOL     OW33319   1.541   6.697   3.271
10807SOL    HW133320   1.575   6.791   3.269
10807SOL    HW233321   1.514   6.673   3.364
10808SOL     OW33322   6.587   4.197   6.525
10808SOL    HW133323   6.647   4.249   6.586
10808SOL    HW233324   6.611   4.218   6.430
10809SOL     OW33325   2.357   6.107   3.401
10809SOL    HW133326   2.272   6.143   3.363
10809SOL    HW233327   2.419   6.083   3.326
10810SOL     OW33328   1.933   6.885   4.949
10810SOL    HW133329   1.836   6.893   4.974
10810SOL    HW233330   1.983   6.844   5.025
10811SOL     OW33331   4.490   4.932   5.571
10811SOL    HW133332   4.533   5.007   5.622
10811SOL    HW233333   4.537   4.920   5.484
10812SOL     OW33334   0.784   3.704   1.957
10812SOL    HW133335   0.715   3.637   1.928
10812SOL    HW233336   0.864   3.655   1.993
10813SOL     OW33337   1.807   5.723   0.056
10813SOL    HW133338   1.787   5.725   6.981
10813SOL    HW233339   1.861   5.804   0.081
10814SOL     OW33340   1.389   6.399   6.977
10814SOL    HW133341   1.377   6.321   6.916
10814SOL    HW233342   1.309   6.458   6.972
10815SOL     OW33343   4.878   4.507   3.255
10815SOL    HW133344   4.880   4.585   3.192
10815SOL    HW233345   4.922   4.533   3.341
10816SOL     OW33346   1.212   1.763   1.161
10816SOL    HW133347   1.129   1.753   1.106
10816SOL    HW233348   1.233   1.861   1.171
10817SOL     OW33349   5.231   6.935   2.341
10817SOL    HW133350   5.271   0.004   2.348
10817SOL    HW233351   5.262   6.879   2.417
10818SOL     OW33352   4.422   4.291   5.380
10818SOL    HW133353   4.442   4.193   5.386
10818SOL    HW233354   4.350   4.306   5.311
10819SOL     OW33355   6.770   4.386   6.984
10819SOL    HW133356   6.687   4.330   6.978
10819SOL    HW233357   6.753   4.465   0.020
10820SOL     OW33358   5.702   5.733   4.053
10820SOL    HW133359   5.729   5.643   4.019
10820SOL    HW233360   5.768   5.764   4.122
10821SOL     OW33361   5.747   6.342   2.241
10821SOL    HW133362   5.682   6.379   2.175
10821SOL    HW233363   5.840   6.365   2.213
10822SOL     OW33364   1.057   2.830   3.150
10822SOL    HW133365   1.093   2.842   3.242
10822SOL    HW233366   1.113   2.881   3.085
10823SOL     OW33367   1.778   5.173   2.193
10823SOL    HW133368   1.802   5.248   2.130
10823SOL    HW233369   1.858   5.114   2.206
10824SOL     OW33370   5.233   0.657   4.070
10824SOL    HW133371   5.169   0.729   4.095
10824SOL    HW233372   5.305   0.650   4.139
10825SOL     OW33373   3.336   0.340   6.936
10825SOL    HW133374   3.419   0.334   6.991
10825SOL    HW233375   3.336   0.269   6.867
10826SOL     OW33376   0.752   3.465   3.517
10826SOL    HW133377   0.658   3.433   3.525
10826SOL    HW233378   0.760   3.524   3.437
10827SOL     OW33379   6.094   3.889   4.523
10827SOL    HW133380   6.191   3.891   4.545
10827SOL    HW233381   6.079   3.828   4.445
10828SOL     OW33382   1.340   5.412   1.994
10828SOL    HW133383   1.273   5.350   1.954
10828SOL    HW233384   1.424   5.408   1.940
10829SOL     OW33385   3.343   2.271   0.777
10829SOL    HW133386   3.315   2.295   0.870
10829SOL    HW233387   3.262   2.247   0.723
10830SOL     OW33388   5.297   1.481   3.559
10830SOL    HW133389   5.389   1.512   3.581
10830SOL    HW233390   5.257   1.541   3.491
10831SOL     OW33391   4.135   5.754   1.681
10831SOL    HW133392   4.164   5.669   1.723
10831SOL    HW233393   4.208   5.789   1.622
10832SOL     OW33394   0.599   2.441   0.531
10832SOL    HW133395   0.659   2.489   0.467
10832SOL    HW233396   0.584   2.497   0.612
10833SOL     OW33397   1.461   1.479   2.705
10833SOL    HW133398   1.436   1.507   2.798
10833SOL    HW233399   1.387   1.502   2.642
10834SOL     OW33400   1.628   2.232   5.950
10834SOL    HW133401   1.632   2.265   6.044
10834SOL    HW233402   1.721   2.214   5.917
10835SOL     OW33403   6.137   2.214   0.319
10835SOL    HW133404   6.135   2.141   0.251
10835SOL    HW233405   6.220   2.207   0.374
10836SOL     OW33406   6.764   1.320   5.111
10836SOL    HW133407   6.708   1.241   5.133
10836SOL    HW233408   6.718   1.374   5.040
10837SOL     OW33409   7.009   4.768   0.565
10837SOL    HW133410   6.935   4.720   0.612
10837SOL    HW233411   6.969   4.829   0.496
10838SOL     OW33412   5.452   6.773   5.094
10838SOL    HW133413   5.550   6.754   5.100
10838SOL    HW233414   5.438   6.867   5.064
10839SOL     OW33415   3.215   3.572   0.787
10839SOL    HW133416   3.241   3.479   0.812
10839SOL    HW233417   3.286   3.612   0.729
10840SOL     OW33418   3.948   5.911   1.266
10840SOL    HW133419   3.902   5.887   1.181
10840SOL    HW233420   4.006   5.991   1.251
10841SOL     OW33421   3.758   6.626   0.426
10841SOL    HW133422   3.664   6.594   0.439
10841SOL    HW233423   3.799   6.575   0.350
10842SOL     OW33424   5.031   3.262   1.158
10842SOL    HW133425   5.090   3.222   1.228
10842SOL    HW233426   4.967   3.326   1.200
10843SOL     OW33427   0.288   2.274   1.532
10843SOL    HW133428   0.241   2.197   1.575
10843SOL    HW233429   0.276   2.356   1.588
10844SOL     OW33430   0.417   6.844   3.972
10844SOL    HW133431   0.402   6.831   4.070
10844SOL    HW233432   0.405   6.941   3.949
10845SOL     OW33433   3.804   0.615   6.825
10845SOL    HW133434   3.870   0.649   6.893
10845SOL    HW233435   3.795   0.682   6.752
10846SOL     OW33436   4.631   3.065   1.106
10846SOL    HW133437   4.714   3.109   1.073
10846SOL    HW233438   4.625   3.073   1.205
10847SOL     OW33439   3.821   3.052   6.418
10847SOL    HW133440   3.730   3.093   6.420
10847SOL    HW233441   3.815   2.959   6.382
10848SOL     OW33442   3.048   2.407   0.080
10848SOL    HW133443   3.140   2.375   0.060
10848SOL    HW233444   2.983   2.332   0.067
10849SOL     OW33445   2.620   4.659   2.944
10849SOL    HW133446   2.680   4.720   2.995
10849SOL    HW233447   2.591   4.584   3.004
10850SOL     OW33448   3.432   5.975   0.443
10850SOL    HW133449   3.371   6.049   0.415
10850SOL    HW233450   3.453   5.917   0.364
10851SOL     OW33451   2.777   3.154   6.975
10851SOL    HW133452   2.795   3.181   0.047
10851SOL    HW233453   2.749   3.058   6.973
10852SOL     OW33454   0.638   6.552   6.160
10852SOL    HW133455   0.641   6.452   6.150
10852SOL    HW233456   0.548   6.585   6.132
10853SOL     OW33457   3.676   1.989   5.954
10853SOL    HW133458   3.732   2.065   5.986
10853SOL    HW233459   3.693   1.973   5.857
10854SOL     OW33460   5.437   6.440   5.795
10854SOL    HW133461   5.358   6.442   5.734
10854SOL    HW233462   5.521   6.428   5.742
10855SOL     OW33463   2.934   6.229   1.866
10855SOL    HW133464   2.951   6.311   1.922
10855SOL    HW233465   2.860   6.247   1.802
10856SOL     OW33466   6.052   1.649   2.156
10856SOL    HW133467   6.082   1.562   2.117
10856SOL    HW233468   6.128   1.714   2.153
10857SOL     OW33469   5.726   3.222   3.132
10857SOL    HW133470   5.760   3.238   3.225
10857SOL    HW233471   5.803   3.215   3.069
10858SOL     OW33472   0.830   2.394   6.304
10858SOL    HW133473   0.738   2.427   6.320
10858SOL    HW233474   0.837   2.298   6.331
10859SOL     OW33475   2.196   3.919   4.003
10859SOL    HW133476   2.159   3.916   4.096
10859SOL    HW233477   2.185   3.829   3.960
10860SOL     OW33478   6.600   1.046   6.035
10860SOL    HW133479   6.693   1.025   6.004
10860SOL    HW233480   6.535   0.984   5.991
10861SOL     OW33481   3.714   3.229   3.237
10861SOL    HW133482   3.717   3.182   3.148
10861SOL    HW233483   3.784   3.191   3.297
10862SOL     OW33484   2.796   2.020   6.508
10862SOL    HW133485   2.760   2.047   6.419
10862SOL    HW233486   2.875   1.960   6.494
10863SOL     OW33487   4.032   0.643   2.380
10863SOL    HW133488   3.972   0.614   2.305
10863SOL    HW233489   3.981   0.641   2.466
10864SOL     OW33490   3.199   5.141   0.754
10864SOL    HW133491   3.198   5.100   0.846
10864SOL    HW233492   3.194   5.240   0.762
10865SOL     OW33493   5.936   1.708   3.534
10865SOL    HW133494   6.025   1.682   3.572
10865SOL    HW233495   5.948   1.740   3.440
10866SOL     OW33496   4.606   5.086   0.524
10866SOL    HW133497   4.591   5.177   0.486
10866SOL    HW233498   4.654   5.029   0.457
10867SOL     OW33499   3.350   4.249   0.036
10867SOL    HW133500   3.430   4.197   0.005
10867SOL    HW233501   3.282   4.185   0.073
10868SOL     OW33502   2.161   2.212   3.917
10868SOL    HW133503   2.149   2.176   3.824
10868SOL    HW233504   2.105   2.294   3.928
10869NA      NA33505   0.416   2.071   6.211
10870NA      NA33506   4.367   4.641   5.209
10871NA      NA33507   2.318   4.244   2.089
10872NA      NA33508   4.778   4.000   3.599
10873NA      NA33509   4.283   2.403   5.353
10874NA      NA33510   3.294   4.459   1.534
10875NA      NA33511   0.499   4.641   0.088
10876NA      NA33512   3.719   3.895   2.767
10877NA      NA33513   5.072   4.920   1.076
10878NA      NA33514   3.362   0.165   5.479
10879NA      NA33515   5.909   5.861   0.746
10880NA      NA33516   2.175   0.768   5.119
10881NA      NA33517   4.065   4.898   1.884
10882NA      NA33518   3.824   3.040   1.366
   7.02278   7.02278   7.02278
