Generated by trjconv : CNT in water t= 597.00000
33518
    1C        C    1   2.848   2.772   4.751
    1C        C    2   2.902   2.721   4.871
    1C        C    3   2.848   2.776   4.987
    1C        C    4   2.849   2.776   4.263
    1C        C    5   2.899   2.724   4.384
    1C        C    6   2.847   2.770   4.507
    1C        C    7   3.014   2.639   4.628
    1C        C    8   2.901   2.724   4.629
    1C        C    9   3.079   2.603   4.748
    1C        C   10   3.012   2.631   4.869
    1C        C   11   3.185   2.494   4.980
    1C        C   12   3.060   2.557   4.978
    1C        C   13   2.850   2.769   3.775
    1C        C   14   2.900   2.722   3.898
    1C        C   15   2.852   2.775   4.020
    1C        C   16   3.017   2.642   4.141
    1C        C   17   2.905   2.728   4.142
    1C        C   18   3.081   2.612   4.264
    1C        C   19   3.017   2.645   4.385
    1C        C   20   3.210   2.557   4.505
    1C        C   21   3.077   2.604   4.506
    1C        C   22   3.280   2.535   4.626
    1C        C   23   3.211   2.551   4.748
    1C        C   24   3.415   2.483   4.862
    1C        C   25   3.273   2.503   4.867
    1C        C   26   3.492   2.482   4.979
    1C        C   27   2.849   2.769   3.285
    1C        C   28   2.903   2.723   3.407
    1C        C   29   2.852   2.772   3.529
    1C        C   30   3.015   2.639   3.652
    1C        C   31   2.903   2.724   3.651
    1C        C   32   3.071   2.599   3.775
    1C        C   33   3.013   2.637   3.898
    1C        C   34   3.209   2.554   4.018
    1C        C   35   3.077   2.602   4.019
    1C        C   36   3.277   2.532   4.139
    1C        C   37   3.210   2.555   4.262
    1C        C   38   3.418   2.512   4.385
    1C        C   39   3.279   2.538   4.383
    1C        C   40   3.491   2.511   4.506
    1C        C   41   3.418   2.507   4.627
    1C        C   42   3.635   2.486   4.748
    1C        C   43   3.493   2.482   4.744
    1C        C   44   3.711   2.486   4.867
    1C        C   45   3.631   2.480   4.981
    1C        C   46   2.839   2.754   2.795
    1C        C   47   2.895   2.709   2.916
    1C        C   48   2.847   2.762   3.038
    1C        C   49   3.018   2.641   3.164
    1C        C   50   2.903   2.724   3.162
    1C        C   51   3.079   2.603   3.286
    1C        C   52   3.017   2.639   3.408
    1C        C   53   3.208   2.549   3.532
    1C        C   54   3.078   2.603   3.530
    1C        C   55   3.274   2.527   3.655
    1C        C   56   3.202   2.546   3.775
    1C        C   57   3.415   2.509   3.897
    1C        C   58   3.277   2.535   3.895
    1C        C   59   3.485   2.501   4.020
    1C        C   60   3.416   2.505   4.143
    1C        C   61   3.631   2.499   4.260
    1C        C   62   3.489   2.498   4.263
    1C        C   63   3.702   2.508   4.381
    1C        C   64   3.632   2.508   4.504
    1C        C   65   3.838   2.550   4.626
    1C        C   66   3.703   2.508   4.626
    1C        C   67   3.910   2.563   4.747
    1C        C   68   3.847   2.524   4.866
    1C        C   69   4.058   2.590   4.983
    1C        C   70   3.926   2.543   4.981
    1C        C   71   2.826   2.736   2.311
    1C        C   72   2.882   2.691   2.432
    1C        C   73   2.832   2.744   2.553
    1C        C   74   3.006   2.621   2.676
    1C        C   75   2.887   2.698   2.675
    1C        C   76   3.071   2.589   2.797
    1C        C   77   3.011   2.628   2.919
    1C        C   78   3.207   2.551   3.040
    1C        C   79   3.075   2.601   3.042
    1C        C   80   3.274   2.533   3.163
    1C        C   81   3.210   2.550   3.288
    1C        C   82   3.416   2.505   3.406
    1C        C   83   3.276   2.528   3.410
    1C        C   84   3.485   2.499   3.529
    1C        C   85   3.414   2.504   3.651
    1C        C   86   3.625   2.505   3.774
    1C        C   87   3.483   2.497   3.774
    1C        C   88   3.696   2.517   3.895
    1C        C   89   3.627   2.506   4.017
    1C        C   90   3.836   2.550   4.138
    1C        C   91   3.700   2.512   4.138
    1C        C   92   3.905   2.572   4.259
    1C        C   93   3.838   2.549   4.381
    1C        C   94   4.029   2.641   4.500
    1C        C   95   3.904   2.576   4.503
    1C        C   96   4.091   2.674   4.623
    1C        C   97   4.037   2.628   4.745
    1C        C   98   4.196   2.768   4.865
    1C        C   99   4.105   2.658   4.866
    1C        C  100   4.219   2.845   4.980
    1C        C  101   2.821   2.730   2.072
    1C        C  102   2.991   2.595   2.193
    1C        C  103   2.875   2.678   2.191
    1C        C  104   3.066   2.580   2.313
    1C        C  105   3.001   2.614   2.434
    1C        C  106   3.205   2.547   2.554
    1C        C  107   3.071   2.591   2.554
    1C        C  108   3.273   2.525   2.676
    1C        C  109   3.205   2.542   2.799
    1C        C  110   3.416   2.500   2.917
    1C        C  111   3.277   2.526   2.919
    1C        C  112   3.484   2.495   3.041
    1C        C  113   3.412   2.503   3.162
    1C        C  114   3.626   2.497   3.284
    1C        C  115   3.484   2.496   3.283
    1C        C  116   3.695   2.511   3.407
    1C        C  117   3.626   2.507   3.530
    1C        C  118   3.834   2.546   3.651
    1C        C  119   3.697   2.512   3.652
    1C        C  120   3.901   2.573   3.772
    1C        C  121   3.834   2.549   3.894
    1C        C  122   4.027   2.642   4.016
    1C        C  123   3.901   2.578   4.015
    1C        C  124   4.089   2.680   4.137
    1C        C  125   4.030   2.637   4.258
    1C        C  126   4.199   2.769   4.378
    1C        C  127   4.093   2.676   4.379
    1C        C  128   4.241   2.825   4.501
    1C        C  129   4.195   2.770   4.623
    1C        C  130   4.331   2.936   4.743
    1C        C  131   4.246   2.822   4.743
    1C        C  132   4.364   3.003   4.863
    1C        C  133   4.293   2.962   4.976
    1C        C  134   3.172   2.469   2.085
    1C        C  135   3.039   2.514   2.086
    1C        C  136   3.261   2.483   2.192
    1C        C  137   3.198   2.527   2.311
    1C        C  138   3.408   2.488   2.429
    1C        C  139   3.269   2.513   2.433
    1C        C  140   3.483   2.487   2.549
    1C        C  141   3.412   2.499   2.670
    1C        C  142   3.624   2.503   2.792
    1C        C  143   3.482   2.498   2.792
    1C        C  144   3.692   2.511   2.915
    1C        C  145   3.625   2.504   3.040
    1C        C  146   3.833   2.542   3.158
    1C        C  147   3.696   2.508   3.162
    1C        C  148   3.897   2.570   3.281
    1C        C  149   3.830   2.552   3.404
    1C        C  150   4.023   2.635   3.526
    1C        C  151   3.896   2.573   3.527
    1C        C  152   4.087   2.669   3.647
    1C        C  153   4.027   2.638   3.771
    1C        C  154   4.192   2.770   3.887
    1C        C  155   4.083   2.681   3.893
    1C        C  156   4.244   2.818   4.010
    1C        C  157   4.201   2.767   4.134
    1C        C  158   4.342   2.924   4.257
    1C        C  159   4.255   2.812   4.256
    1C        C  160   4.379   2.987   4.378
    1C        C  161   4.329   2.935   4.499
    1C        C  162   4.441   3.117   4.619
    1C        C  163   4.369   2.996   4.621
    1C        C  164   4.469   3.188   4.738
    1C        C  165   4.436   3.124   4.860
    1C        C  166   4.512   3.325   4.976
    1C        C  167   4.481   3.190   4.975
    1C        C  168   3.479   2.437   2.077
    1C        C  169   3.400   2.462   2.190
    1C        C  170   3.620   2.472   2.309
    1C        C  171   3.478   2.470   2.308
    1C        C  172   3.695   2.494   2.427
    1C        C  173   3.624   2.495   2.549
    1C        C  174   3.833   2.541   2.669
    1C        C  175   3.695   2.513   2.670
    1C        C  176   3.898   2.565   2.793
    1C        C  177   3.828   2.550   2.914
    1C        C  178   4.027   2.627   3.035
    1C        C  179   3.898   2.569   3.036
    1C        C  180   4.088   2.666   3.157
    1C        C  181   4.024   2.632   3.279
    1C        C  182   4.195   2.754   3.403
    1C        C  183   4.083   2.667   3.402
    1C        C  184   4.244   2.810   3.523
    1C        C  185   4.197   2.759   3.646
    1C        C  186   4.345   2.916   3.768
    1C        C  187   4.251   2.810   3.765
    1C        C  188   4.387   2.976   3.889
    1C        C  189   4.339   2.923   4.011
    1C        C  190   4.448   3.105   4.130
    1C        C  191   4.379   2.981   4.133
    1C        C  192   4.470   3.175   4.251
    1C        C  193   4.445   3.112   4.376
    1C        C  194   4.510   3.316   4.494
    1C        C  195   4.470   3.180   4.497
    1C        C  196   4.527   3.389   4.613
    1C        C  197   4.513   3.323   4.737
    1C        C  198   4.557   3.538   4.854
    1C        C  199   4.531   3.398   4.857
    1C        C  200   4.586   3.622   4.967
    1C        C  201   3.618   2.421   2.075
    1C        C  202   3.829   2.515   2.188
    1C        C  203   3.694   2.467   2.188
    1C        C  204   3.903   2.543   2.306
    1C        C  205   3.833   2.523   2.427
    1C        C  206   4.024   2.624   2.547
    1C        C  207   3.902   2.554   2.546
    1C        C  208   4.084   2.664   2.669
    1C        C  209   4.024   2.630   2.792
    1C        C  210   4.196   2.756   2.912
    1C        C  211   4.086   2.667   2.913
    1C        C  212   4.254   2.798   3.034
    1C        C  213   4.201   2.750   3.156
    1C        C  214   4.332   2.913   3.277
    1C        C  215   4.247   2.800   3.280
    1C        C  216   4.370   2.976   3.397
    1C        C  217   4.335   2.918   3.522
    1C        C  218   4.441   3.101   3.643
    1C        C  219   4.380   2.973   3.644
    1C        C  220   4.465   3.171   3.764
    1C        C  221   4.446   3.104   3.887
    1C        C  222   4.504   3.309   4.007
    1C        C  223   4.476   3.170   4.008
    1C        C  224   4.516   3.381   4.128
    1C        C  225   4.502   3.312   4.250
    1C        C  226   4.516   3.526   4.369
    1C        C  227   4.516   3.384   4.370
    1C        C  228   4.511   3.598   4.490
    1C        C  229   4.528   3.531   4.613
    1C        C  230   4.504   3.746   4.730
    1C        C  231   4.537   3.607   4.731
    1C        C  232   4.497   3.823   4.848
    1C        C  233   4.539   3.754   4.962
    1C        C  234   4.023   2.609   2.069
    1C        C  235   3.899   2.546   2.070
    1C        C  236   4.093   2.647   2.184
    1C        C  237   4.030   2.608   2.305
    1C        C  238   4.204   2.736   2.424
    1C        C  239   4.090   2.650   2.425
    1C        C  240   4.259   2.786   2.544
    1C        C  241   4.199   2.746   2.665
    1C        C  242   4.340   2.904   2.787
    1C        C  243   4.249   2.796   2.787
    1C        C  244   4.382   2.961   2.910
    1C        C  245   4.344   2.906   3.034
    1C        C  246   4.439   3.097   3.153
    1C        C  247   4.378   2.970   3.156
    1C        C  248   4.463   3.166   3.275
    1C        C  249   4.431   3.103   3.397
    1C        C  250   4.495   3.304   3.517
    1C        C  251   4.460   3.167   3.520
    1C        C  252   4.507   3.375   3.639
    1C        C  253   4.502   3.307   3.763
    1C        C  254   4.524   3.519   3.881
    1C        C  255   4.516   3.378   3.884
    1C        C  256   4.522   3.591   4.002
    1C        C  257   4.522   3.522   4.125
    1C        C  258   4.495   3.735   4.244
    1C        C  259   4.518   3.596   4.246
    1C        C  260   4.476   3.806   4.365
    1C        C  261   4.485   3.737   4.488
    1C        C  262   4.422   3.942   4.605
    1C        C  263   4.473   3.810   4.608
    1C        C  264   4.398   4.012   4.725
    1C        C  265   4.433   3.949   4.847
    1C        C  266   4.324   4.137   4.962
    1C        C  267   4.400   4.020   4.963
    1C        C  268   4.270   2.779   2.066
    1C        C  269   4.201   2.737   2.181
    1C        C  270   4.353   2.889   2.303
    1C        C  271   4.256   2.784   2.302
    1C        C  272   4.393   2.950   2.423
    1C        C  273   4.346   2.898   2.545
    1C        C  274   4.452   3.084   2.664
    1C        C  275   4.385   2.960   2.666
    1C        C  276   4.473   3.155   2.785
    1C        C  277   4.449   3.086   2.907
    1C        C  278   4.504   3.292   3.029
    1C        C  279   4.468   3.156   3.028
    1C        C  280   4.514   3.366   3.149
    1C        C  281   4.500   3.302   3.274
    1C        C  282   4.515   3.514   3.392
    1C        C  283   4.513   3.373   3.396
    1C        C  284   4.518   3.586   3.514
    1C        C  285   4.515   3.516   3.637
    1C        C  286   4.499   3.729   3.754
    1C        C  287   4.515   3.588   3.758
    1C        C  288   4.481   3.796   3.876
    1C        C  289   4.497   3.730   4.000
    1C        C  290   4.427   3.934   4.119
    1C        C  291   4.479   3.803   4.120
    1C        C  292   4.395   4.000   4.240
    1C        C  293   4.430   3.939   4.362
    1C        C  294   4.332   4.132   4.481
    1C        C  295   4.400   4.008   4.482
    1C        C  296   4.289   4.194   4.600
    1C        C  297   4.328   4.135   4.723
    1C        C  298   4.207   4.319   4.840
    1C        C  299   4.288   4.201   4.842
    1C        C  300   4.174   4.405   4.950
    1C        C  301   4.360   2.884   2.063
    1C        C  302   4.477   3.068   2.180
    1C        C  303   4.401   2.946   2.182
    1C        C  304   4.489   3.142   2.301
    1C        C  305   4.451   3.080   2.421
    1C        C  306   4.512   3.286   2.539
    1C        C  307   4.478   3.149   2.541
    1C        C  308   4.520   3.358   2.660
    1C        C  309   4.504   3.292   2.784
    1C        C  310   4.521   3.503   2.903
    1C        C  311   4.517   3.362   2.907
    1C        C  312   4.517   3.576   3.024
    1C        C  313   4.523   3.507   3.147
    1C        C  314   4.488   3.719   3.266
    1C        C  315   4.512   3.580   3.267
    1C        C  316   4.475   3.791   3.387
    1C        C  317   4.495   3.725   3.511
    1C        C  318   4.426   3.928   3.630
    1C        C  319   4.476   3.796   3.632
    1C        C  320   4.397   3.991   3.753
    1C        C  321   4.426   3.927   3.876
    1C        C  322   4.323   4.115   3.994
    1C        C  323   4.399   3.996   3.996
    1C        C  324   4.283   4.177   4.114
    1C        C  325   4.325   4.123   4.238
    1C        C  326   4.192   4.290   4.355
    1C        C  327   4.287   4.186   4.359
    1C        C  328   4.139   4.344   4.475
    1C        C  329   4.196   4.300   4.597
    1C        C  330   4.034   4.443   4.716
    1C        C  331   4.148   4.357   4.717
    1C        C  332   3.973   4.497   4.832
    1C        C  333   4.055   4.478   4.944
    1C        C  334   4.560   3.268   2.065
    1C        C  335   4.537   3.130   2.066
    1C        C  336   4.545   3.352   2.176
    1C        C  337   4.521   3.281   2.296
    1C        C  338   4.526   3.496   2.415
    1C        C  339   4.524   3.355   2.416
    1C        C  340   4.527   3.569   2.536
    1C        C  341   4.526   3.499   2.659
    1C        C  342   4.496   3.711   2.776
    1C        C  343   4.518   3.572   2.780
    1C        C  344   4.480   3.782   2.897
    1C        C  345   4.497   3.716   3.021
    1C        C  346   4.417   3.915   3.140
    1C        C  347   4.470   3.784   3.142
    1C        C  348   4.386   3.981   3.261
    1C        C  349   4.423   3.922   3.384
    1C        C  350   4.327   4.111   3.504
    1C        C  351   4.397   3.988   3.506
    1C        C  352   4.285   4.170   3.625
    1C        C  353   4.321   4.110   3.748
    1C        C  354   4.182   4.270   3.869
    1C        C  355   4.280   4.169   3.870
    1C        C  356   4.131   4.323   3.989
    1C        C  357   4.187   4.281   4.112
    1C        C  358   4.019   4.410   4.233
    1C        C  359   4.138   4.335   4.233
    1C        C  360   3.958   4.450   4.353
    1C        C  361   4.025   4.427   4.476
    1C        C  362   3.834   4.520   4.595
    1C        C  363   3.967   4.473   4.596
    1C        C  364   3.764   4.546   4.715
    1C        C  365   3.840   4.545   4.833
    1C        C  366   3.630   4.594   4.950
    1C        C  367   3.768   4.579   4.948
    1C        C  368   4.518   3.567   2.056
    1C        C  369   4.533   3.492   2.174
    1C        C  370   4.503   3.707   2.291
    1C        C  371   4.519   3.567   2.293
    1C        C  372   4.487   3.779   2.411
    1C        C  373   4.502   3.708   2.532
    1C        C  374   4.420   3.907   2.654
    1C        C  375   4.480   3.779   2.653
    1C        C  376   4.387   3.973   2.775
    1C        C  377   4.427   3.913   2.896
    1C        C  378   4.321   4.100   3.015
    1C        C  379   4.396   3.980   3.017
    1C        C  380   4.275   4.158   3.136
    1C        C  381   4.318   4.105   3.260
    1C        C  382   4.182   4.266   3.378
    1C        C  383   4.282   4.166   3.382
    1C        C  384   4.129   4.310   3.502
    1C        C  385   4.184   4.268   3.625
    1C        C  386   4.015   4.400   3.744
    1C        C  387   4.130   4.318   3.746
    1C        C  388   3.953   4.439   3.865
    1C        C  389   4.015   4.404   3.987
    1C        C  390   3.826   4.496   4.109
    1C        C  391   3.957   4.444   4.110
    1C        C  392   3.756   4.513   4.230
    1C        C  393   3.827   4.503   4.352
    1C        C  394   3.622   4.555   4.474
    1C        C  395   3.761   4.533   4.474
    1C        C  396   3.551   4.571   4.596
    1C        C  397   3.624   4.567   4.716
    1C        C  398   3.411   4.552   4.839
    1C        C  399   3.550   4.572   4.836
    1C        C  400   3.342   4.520   4.958
    1C        C  401   4.507   3.705   2.054
    1C        C  402   4.454   3.916   2.167
    1C        C  403   4.496   3.782   2.171
    1C        C  404   4.417   3.978   2.289
    1C        C  405   4.440   3.913   2.412
    1C        C  406   4.329   4.096   2.528
    1C        C  407   4.402   3.975   2.532
    1C        C  408   4.283   4.156   2.648
    1C        C  409   4.316   4.095   2.771
    1C        C  410   4.179   4.256   2.892
    1C        C  411   4.276   4.154   2.893
    1C        C  412   4.121   4.302   3.012
    1C        C  413   4.173   4.255   3.135
    1C        C  414   4.007   4.387   3.254
    1C        C  415   4.123   4.307   3.257
    1C        C  416   3.950   4.423   3.378
    1C        C  417   4.014   4.391   3.500
    1C        C  418   3.820   4.478   3.620
    1C        C  419   3.954   4.432   3.621
    1C        C  420   3.753   4.502   3.742
    1C        C  421   3.821   4.488   3.865
    1C        C  422   3.616   4.539   3.987
    1C        C  423   3.755   4.515   3.988
    1C        C  424   3.546   4.545   4.110
    1C        C  425   3.617   4.535   4.232
    1C        C  426   3.407   4.545   4.357
    1C        C  427   3.548   4.552   4.354
    1C        C  428   3.337   4.540   4.479
    1C        C  429   3.411   4.556   4.599
    1C        C  430   3.198   4.517   4.723
    1C        C  431   3.337   4.545   4.719
    1C        C  432   3.127   4.493   4.845
    1C        C  433   3.205   4.496   4.961
    1C        C  434   4.387   4.125   2.054
    1C        C  435   4.444   3.997   2.053
    1C        C  436   4.309   4.168   2.166
    1C        C  437   4.337   4.096   2.286
    1C        C  438   4.186   4.251   2.404
    1C        C  439   4.283   4.149   2.405
    1C        C  440   4.131   4.303   2.524
    1C        C  441   4.187   4.260   2.646
    1C        C  442   4.012   4.381   2.767
    1C        C  443   4.131   4.304   2.768
    1C        C  444   3.946   4.421   2.886
    1C        C  445   4.005   4.382   3.009
    1C        C  446   3.819   4.482   3.131
    1C        C  447   3.947   4.422   3.131
    1C        C  448   3.754   4.497   3.255
    1C        C  449   3.818   4.475   3.379
    1C        C  450   3.610   4.525   3.499
    1C        C  451   3.749   4.499   3.500
    1C        C  452   3.543   4.538   3.623
    1C        C  453   3.616   4.535   3.744
    1C        C  454   3.403   4.539   3.869
    1C        C  455   3.544   4.543   3.866
    1C        C  456   3.334   4.533   3.993
    1C        C  457   3.405   4.539   4.114
    1C        C  458   3.197   4.498   4.240
    1C        C  459   3.336   4.527   4.237
    1C        C  460   3.130   4.477   4.362
    1C        C  461   3.200   4.506   4.481
    1C        C  462   3.000   4.436   4.608
    1C        C  463   3.128   4.496   4.603
    1C        C  464   2.932   4.402   4.728
    1C        C  465   2.993   4.444   4.849
    1C        C  466   2.806   4.334   4.965
    1C        C  467   2.915   4.423   4.967
    1C        C  468   4.123   4.285   2.046
    1C        C  469   4.191   4.248   2.163
    1C        C  470   4.012   4.375   2.281
    1C        C  471   4.131   4.297   2.283
    1C        C  472   3.948   4.410   2.402
    1C        C  473   4.012   4.380   2.524
    1C        C  474   3.820   4.471   2.646
    1C        C  475   3.949   4.414   2.645
    1C        C  476   3.751   4.501   2.766
    1C        C  477   3.819   4.481   2.889
    1C        C  478   3.609   4.522   3.011
    1C        C  479   3.749   4.502   3.010
    1C        C  480   3.541   4.530   3.135
    1C        C  481   3.616   4.525   3.255
    1C        C  482   3.401   4.531   3.377
    1C        C  483   3.543   4.534   3.376
    1C        C  484   3.334   4.527   3.501
    1C        C  485   3.402   4.537   3.625
    1C        C  486   3.196   4.491   3.748
    1C        C  487   3.333   4.527   3.747
    1C        C  488   3.132   4.464   3.872
    1C        C  489   3.199   4.491   3.993
    1C        C  490   3.007   4.409   4.116
    1C        C  491   3.133   4.472   4.117
    1C        C  492   2.945   4.381   4.240
    1C        C  493   3.000   4.421   4.364
    1C        C  494   2.829   4.306   4.488
    1C        C  495   2.938   4.396   4.488
    1C        C  496   2.775   4.259   4.609
    1C        C  497   2.821   4.314   4.731
    1C        C  498   2.665   4.166   4.849
    1C        C  499   2.753   4.277   4.849
    1C        C  500   2.596   4.119   4.961
    1C        C  501   4.004   4.356   2.045
    1C        C  502   3.819   4.472   2.159
    1C        C  503   3.945   4.409   2.161
    1C        C  504   3.749   4.488   2.280
    1C        C  505   3.815   4.457   2.401
    1C        C  506   3.612   4.510   2.523
    1C        C  507   3.751   4.487   2.524
    1C        C  508   3.540   4.518   2.645
    1C        C  509   3.611   4.518   2.767
    1C        C  510   3.398   4.525   2.891
    1C        C  511   3.540   4.523   2.888
    1C        C  512   3.327   4.521   3.013
    1C        C  513   3.400   4.529   3.134
    1C        C  514   3.191   4.493   3.258
    1C        C  515   3.329   4.523   3.256
    1C        C  516   3.126   4.472   3.381
    1C        C  517   3.197   4.493   3.501
    1C        C  518   3.004   4.409   3.627
    1C        C  519   3.132   4.469   3.624
    1C        C  520   2.943   4.369   3.748
    1C        C  521   3.008   4.397   3.871
    1C        C  522   2.833   4.284   3.998
    1C        C  523   2.947   4.367   3.995
    1C        C  524   2.783   4.240   4.123
    1C        C  525   2.833   4.296   4.242
    1C        C  526   2.696   4.139   4.366
    1C        C  527   2.782   4.251   4.366
    1C        C  528   2.655   4.082   4.489
    1C        C  529   2.684   4.151   4.609
    1C        C  530   2.588   3.962   4.735
    1C        C  531   2.639   4.095   4.730
    1C        C  532   2.541   3.905   4.856
    1C        C  533   2.529   3.996   4.965
    1C        C  534   3.621   4.562   2.044
    1C        C  535   3.752   4.512   2.042
    1C        C  536   3.541   4.542   2.161
    1C        C  537   3.610   4.517   2.283
    1C        C  538   3.396   4.515   2.401
    1C        C  539   3.537   4.521   2.404
    1C        C  540   3.328   4.508   2.524
    1C        C  541   3.398   4.517   2.646
    1C        C  542   3.191   4.485   2.768
    1C        C  543   3.328   4.516   2.769
    1C        C  544   3.124   4.463   2.890
    1C        C  545   3.191   4.483   3.013
    1C        C  546   2.996   4.404   3.139
    1C        C  547   3.125   4.462   3.137
    1C        C  548   2.941   4.364   3.263
    1C        C  549   3.003   4.403   3.384
    1C        C  550   2.827   4.288   3.511
    1C        C  551   2.940   4.373   3.507
    1C        C  552   2.777   4.235   3.632
    1C        C  553   2.829   4.286   3.753
    1C        C  554   2.688   4.132   3.880
    1C        C  555   2.775   4.243   3.876
    1C        C  556   2.652   4.073   4.003
    1C        C  557   2.691   4.132   4.126
    1C        C  558   2.586   3.950   4.250
    1C        C  559   2.650   4.076   4.248
    1C        C  560   2.565   3.885   4.374
    1C        C  561   2.592   3.956   4.493
    1C        C  562   2.533   3.753   4.617
    1C        C  563   2.565   3.890   4.615
    1C        C  564   2.521   3.684   4.739
    1C        C  565   2.528   3.762   4.858
    1C        C  566   2.526   3.549   4.981
    1C        C  567   2.525   3.688   4.977
    1C        C  568   3.332   4.473   2.046
    1C        C  569   3.402   4.514   2.160
    1C        C  570   3.187   4.477   2.282
    1C        C  571   3.324   4.514   2.279
    1C        C  572   3.121   4.453   2.405
    1C        C  573   3.190   4.478   2.526
    1C        C  574   2.992   4.402   2.651
    1C        C  575   3.120   4.461   2.648
    1C        C  576   2.930   4.368   2.774
    1C        C  577   2.998   4.400   2.893
    1C        C  578   2.828   4.277   3.018
    1C        C  579   2.938   4.365   3.016
    1C        C  580   2.779   4.227   3.141
    1C        C  581   2.832   4.275   3.263
    1C        C  582   2.696   4.121   3.389
    1C        C  583   2.780   4.234   3.389
    1C        C  584   2.660   4.062   3.512
    1C        C  585   2.691   4.123   3.636
    1C        C  586   2.587   3.943   3.758
    1C        C  587   2.647   4.071   3.759
    1C        C  588   2.569   3.878   3.882
    1C        C  589   2.592   3.946   4.004
    1C        C  590   2.537   3.745   4.130
    1C        C  591   2.564   3.883   4.127
    1C        C  592   2.525   3.677   4.253
    1C        C  593   2.534   3.747   4.376
    1C        C  594   2.514   3.537   4.501
    1C        C  595   2.519   3.678   4.498
    1C        C  596   2.523   3.467   4.624
    1C        C  597   2.520   3.542   4.744
    1C        C  598   2.539   3.329   4.866
    1C        C  599   2.527   3.470   4.865
    1C        C  600   2.537   3.250   4.982
    1C        C  601   3.199   4.437   2.044
    1C        C  602   2.987   4.393   2.165
    1C        C  603   3.122   4.440   2.161
    1C        C  604   2.927   4.357   2.288
    1C        C  605   2.994   4.393   2.407
    1C        C  606   2.823   4.271   2.531
    1C        C  607   2.931   4.363   2.530
    1C        C  608   2.771   4.225   2.654
    1C        C  609   2.819   4.280   2.775
    1C        C  610   2.685   4.116   2.900
    1C        C  611   2.773   4.227   2.897
    1C        C  612   2.653   4.056   3.024
    1C        C  613   2.692   4.116   3.146
    1C        C  614   2.589   3.934   3.271
    1C        C  615   2.652   4.061   3.269
    1C        C  616   2.565   3.869   3.395
    1C        C  617   2.594   3.937   3.515
    1C        C  618   2.529   3.736   3.640
    1C        C  619   2.566   3.872   3.638
    1C        C  620   2.516   3.669   3.764
    1C        C  621   2.531   3.742   3.884
    1C        C  622   2.520   3.532   4.010
    1C        C  623   2.528   3.673   4.008
    1C        C  624   2.522   3.464   4.134
    1C        C  625   2.520   3.536   4.256
    1C        C  626   2.546   3.328   4.380
    1C        C  627   2.516   3.466   4.379
    1C        C  628   2.565   3.259   4.502
    1C        C  629   2.542   3.327   4.624
    1C        C  630   2.605   3.124   4.748
    1C        C  631   2.554   3.257   4.746
    1C        C  632   2.622   3.052   4.870
    1C        C  633   2.565   3.113   4.986
    1C        C  634   2.786   4.307   2.056
    1C        C  635   2.896   4.394   2.055
    1C        C  636   2.748   4.235   2.171
    1C        C  637   2.813   4.272   2.291
    1C        C  638   2.676   4.111   2.413
    1C        C  639   2.763   4.222   2.413
    1C        C  640   2.640   4.055   2.538
    1C        C  641   2.679   4.117   2.658
    1C        C  642   2.578   3.931   2.782
    1C        C  643   2.638   4.058   2.780
    1C        C  644   2.556   3.865   2.905
    1C        C  645   2.590   3.930   3.026
    1C        C  646   2.531   3.729   3.152
    1C        C  647   2.564   3.866   3.150
    1C        C  648   2.518   3.662   3.275
    1C        C  649   2.528   3.733   3.396
    1C        C  650   2.515   3.522   3.522
    1C        C  651   2.520   3.664   3.519
    1C        C  652   2.516   3.454   3.646
    1C        C  653   2.512   3.528   3.766
    1C        C  654   2.538   3.320   3.893
    1C        C  655   2.515   3.459   3.890
    1C        C  656   2.561   3.255   4.016
    1C        C  657   2.542   3.325   4.138
    1C        C  658   2.617   3.125   4.262
    1C        C  659   2.564   3.256   4.260
    1C        C  660   2.642   3.061   4.386
    1C        C  661   2.608   3.125   4.507
    1C        C  662   2.717   2.940   4.627
    1C        C  663   2.639   3.058   4.628
    1C        C  664   2.750   2.876   4.748
    1C        C  665   2.696   2.930   4.868
    1C        C  666   2.748   2.874   4.985
    1C        C  667   2.677   4.027   2.058
    1C        C  668   2.684   4.109   2.171
    1C        C  669   2.589   3.916   2.293
    1C        C  670   2.644   4.047   2.291
    1C        C  671   2.561   3.853   2.417
    1C        C  672   2.581   3.926   2.536
    1C        C  673   2.524   3.725   2.663
    1C        C  674   2.554   3.863   2.660
    1C        C  675   2.517   3.655   2.785
    1C        C  676   2.526   3.727   2.906
    1C        C  677   2.515   3.518   3.033
    1C        C  678   2.520   3.659   3.029
    1C        C  679   2.517   3.448   3.156
    1C        C  680   2.515   3.520   3.277
    1C        C  681   2.540   3.312   3.404
    1C        C  682   2.517   3.451   3.400
    1C        C  683   2.564   3.248   3.527
    1C        C  684   2.542   3.315   3.650
    1C        C  685   2.612   3.117   3.775
    1C        C  686   2.559   3.248   3.773
    1C        C  687   2.644   3.056   3.898
    1C        C  688   2.612   3.123   4.018
    1C        C  689   2.712   2.937   4.142
    1C        C  690   2.639   3.057   4.140
    1C        C  691   2.758   2.883   4.264
    1C        C  692   2.715   2.941   4.386
    1C        C  693   2.755   2.877   4.506
    1C        C  694   2.632   3.895   2.059
    1C        C  695   2.528   3.707   2.179
    1C        C  696   2.577   3.839   2.175
    1C        C  697   2.506   3.643   2.303
    1C        C  698   2.520   3.718   2.422
    1C        C  699   2.494   3.509   2.546
    1C        C  700   2.509   3.650   2.545
    1C        C  701   2.508   3.441   2.669
    1C        C  702   2.511   3.514   2.790
    1C        C  703   2.533   3.304   2.914
    1C        C  704   2.515   3.444   2.912
    1C        C  705   2.548   3.236   3.037
    1C        C  706   2.536   3.308   3.157
    1C        C  707   2.602   3.110   3.280
    1C        C  708   2.555   3.243   3.281
    1C        C  709   2.635   3.049   3.403
    1C        C  710   2.613   3.115   3.526
    1C        C  711   2.716   2.936   3.653
    1C        C  712   2.644   3.057   3.651
    1C        C  713   2.760   2.879   3.774
    1C        C  714   2.721   2.938   3.896
    1C        C  715   2.757   2.880   4.020
    1C        C  716   2.452   3.504   2.068
    1C        C  717   2.486   3.640   2.063
    1C        C  718   2.471   3.425   2.186
    1C        C  719   2.486   3.502   2.304
    1C        C  720   2.521   3.296   2.429
    1C        C  721   2.490   3.434   2.427
    1C        C  722   2.546   3.229   2.551
    1C        C  723   2.532   3.301   2.671
    1C        C  724   2.595   3.099   2.795
    1C        C  725   2.547   3.231   2.793
    1C        C  726   2.627   3.036   2.917
    1C        C  727   2.593   3.102   3.038
    1C        C  728   2.706   2.922   3.162
    1C        C  729   2.627   3.039   3.160
    1C        C  730   2.753   2.873   3.286
    1C        C  731   2.713   2.931   3.408
    1C        C  732   2.762   2.882   3.530
    1C        C  733   2.492   3.199   2.078
    1C        C  734   2.490   3.283   2.190
    1C        C  735   2.588   3.091   2.309
    1C        C  736   2.524   3.218   2.311
    1C        C  737   2.621   3.026   2.430
    1C        C  738   2.595   3.096   2.550
    1C        C  739   2.702   2.915   2.672
    1C        C  740   2.626   3.034   2.673
    1C        C  741   2.748   2.862   2.795
    1C        C  742   2.709   2.921   2.917
    1C        C  743   2.751   2.866   3.040
    1C        C  744   2.548   3.072   2.078
    1C        C  745   2.688   2.900   2.188
    1C        C  746   2.616   3.022   2.189
    1C        C  747   2.736   2.846   2.310
    1C        C  748   2.691   2.904   2.430
    1C        C  749   2.741   2.852   2.552
    1C        C  750   2.744   2.846   2.072
    1C        C  751   3.671   2.319   1.981
    1C        O  752   3.690   2.196   2.001
    1C        O  753   3.669   2.342   1.843
    1C        C  754   4.639   3.049   1.996
    1C        O  755   4.628   3.009   1.876
    1C        O  756   4.740   2.981   2.065
    1C        C  757   4.439   4.227   1.959
    1C        O  758   4.523   4.314   1.995
    1C        O  759   4.422   4.214   1.821
    1C        C  760   3.609   4.691   1.973
    1C        O  761   3.640   4.785   2.051
    1C        O  762   3.665   4.721   1.848
    1C        C  763   2.893   4.511   1.964
    1C        O  764   2.870   4.486   1.843
    1C        O  765   2.826   4.632   1.988
    1C        C  766   2.339   3.482   1.974
    1C        O  767   2.354   3.466   1.850
    1C        O  768   2.206   3.506   2.011
    1C        C  769   4.699   3.593   5.058
    1C        O  770   4.690   3.516   5.157
    1C        O  771   4.824   3.604   4.997
    1C        C  772   4.285   4.460   5.030
    1C        O  773   4.331   4.405   5.134
    1C        O  774   4.338   4.583   4.988
    1C        C  775   4.149   2.510   5.068
    1C        O  776   4.188   2.395   5.035
    1C        O  777   4.212   2.557   5.184
    1C        C  778   2.892   4.544   5.049
    1C        O  779   2.806   4.629   5.014
    1C        O  780   2.922   4.537   5.185
    1C        C  781   2.465   3.038   5.066
    1C        O  782   2.352   3.003   5.021
    1C        O  783   2.486   3.025   5.202
    1C        C  784   2.407   4.003   5.048
    1C        O  785   2.311   4.067   4.996
    1C        O  786   2.417   4.036   5.183
    1C        C  787   2.943   2.441   2.000
    1C        O  788   2.929   2.476   1.879
    1C        O  789   2.855   2.342   2.043
    1C        C  790   3.178   2.367   5.055
    1C        O  791   3.124   2.261   5.014
    1C        O  792   3.215   2.345   5.189
    1C        H  793   4.281   3.032   5.056
    1C        H  794   4.156   2.828   5.066
    1C        H  795   4.536   3.131   5.046
    1C        H  796   4.480   3.382   5.061
    1C        H  797   4.572   3.812   5.045
    1C        H  798   4.407   3.976   5.060
    1C        H  799   4.266   4.161   5.049
    1C        H  800   4.040   4.544   5.028
    1C        H  801   3.817   4.607   5.040
    1C        H  802   3.584   4.642   5.033
    1C        H  803   3.383   4.535   5.055
    1C        H  804   3.162   4.479   5.058
    1C        H  805   3.886   2.506   5.073
    1C        H  806   3.670   2.492   5.080
    1C        H  807   2.985   2.534   5.051
    1C        H  808   3.447   2.425   5.058
    1C        H  809   2.893   2.759   5.083
    1C        H  810   2.693   2.883   5.076
    1C        H  811   2.540   3.297   5.078
    1C        H  812   2.484   3.507   5.069
    1C        H  813   2.478   3.734   5.062
    1C        H  814   2.610   4.164   5.058
    1C        H  815   2.743   4.331   5.052
    1C        H  816   2.723   2.889   1.976
    1C        H  817   2.805   2.662   1.991
    1C        H  818   3.213   2.433   1.992
    1C        H  819   3.429   2.429   1.983
    1C        H  820   3.892   2.473   1.992
    1C        H  821   4.075   2.591   1.976
    1C        H  822   4.271   2.711   1.984
    1C        H  823   4.398   2.910   1.966
    1C        H  824   4.639   3.303   2.000
    1C        H  825   4.493   3.521   1.963
    1C        H  826   4.558   3.751   1.971
    1C        H  827   3.808   4.529   1.952
    1C        H  828   3.959   4.367   1.949
    1C        H  829   4.154   4.238   1.955
    1C        H  830   4.438   3.950   1.957
    1C        H  831   2.672   3.831   1.983
    1C        H  832   2.721   4.053   1.964
    1C        H  833   2.715   4.301   1.976
    1C        H  834   3.391   4.452   1.960
    1C        H  835   3.171   4.377   1.960
    1C        H  836   2.492   3.002   2.019
    1C        H  837   2.480   3.243   1.981
    1C        H  838   2.512   3.678   1.967
    2V3OU   H29  839   2.807   3.551   6.487
    2V3OU   C27  840   2.777   3.506   6.586
    2V3OU   H27  841   2.722   3.578   6.651
    2V3OU   H28  842   2.725   3.408   6.587
    2V3OU   O11  843   2.902   3.482   6.651
    2V3OU   C15  844   2.924   3.397   6.757
    2V3OU   C13  845   3.057   3.381   6.802
    2V3OU   C14  846   3.079   3.272   6.887
    2V3OU   C16  847   2.975   3.192   6.932
    2V3OU    H6  848   2.998   3.105   6.996
    2V3OU   C12  849   3.219   3.233   6.913
    2V3OU    O2  850   3.243   3.129   6.978
    2V3OU   C10  851   3.328   3.306   6.846
    2V3OU    C8  852   3.460   3.273   6.873
    2V3OU   O10  853   3.490   3.155   6.935
    2V3OU   H26  854   3.411   3.120   6.980
    2V3OU    C6  855   3.567   3.352   6.822
    2V3OU    C5  856   3.539   3.472   6.756
    2V3OU    C4  857   3.706   3.299   6.816
    2V3OU    H4  858   3.724   3.231   6.904
    2V3OU    H5  859   3.712   3.232   6.725
    2V3OU    C2  860   3.821   3.400   6.808
    2V3OU    O6  861   3.813   3.478   6.928
    2V3OU   H21  862   3.772   3.559   6.893
    2V3OU    C3  863   3.784   3.498   6.695
    2V3OU    H2  864   3.860   3.578   6.678
    2V3OU    H3  865   3.778   3.441   6.599
    2V3OU   C25  866   3.955   3.332   6.785
    2V3OU    O7  867   4.002   3.297   6.677
    2V3OU   C26  868   4.031   3.295   6.911
    2V3OU   H22  869   4.069   3.387   6.962
    2V3OU   H23  870   4.121   3.233   6.885
    2V3OU    O8  871   3.963   3.216   7.006
    2V3OU   H24  872   3.925   3.269   0.050
    2V3OU    C1  873   3.652   3.566   6.725
    2V3OU    H1  874   3.623   3.621   6.631
    2V3OU    O3  875   3.664   3.659   6.833
    2V3OU   C19  876   3.622   3.795   6.827
    2V3OU    H9  877   3.526   3.806   6.768
    2V3OU    O4  878   3.719   3.858   6.745
    2V3OU   C20  879   3.851   3.878   6.797
    2V3OU   H10  880   3.903   3.778   6.814
    2V3OU   C24  881   3.617   3.860   6.965
    2V3OU   H16  882   3.551   3.799   0.004
    2V3OU   H17  883   3.571   3.960   6.949
    2V3OU   C23  884   3.756   3.875   7.027
    2V3OU   H15  885   3.800   3.770   0.012
    2V3OU    N1  886   3.740   3.958   0.116
    2V3OU   H19  887   3.808   3.926   0.182
    2V3OU   H20  888   3.653   3.928   0.155
    2V3OU   C21  889   3.848   3.954   6.930
    2V3OU   H11  890   3.956   3.941   6.959
    2V3OU    O5  891   3.826   4.094   6.924
    2V3OU   H18  892   3.783   4.109   7.010
    2V3OU   C22  893   3.917   3.955   6.684
    2V3OU   H12  894   3.865   4.052   6.666
    2V3OU   H13  895   3.911   3.895   6.589
    2V3OU   H14  896   4.027   3.964   6.700
    2V3OU   C11  897   3.163   3.473   6.759
    2V3OU    O1  898   3.139   3.594   6.744
    2V3OU    C9  899   3.303   3.426   6.775
    2V3OU    C7  900   3.404   3.513   6.733
    2V3OU    O9  901   3.392   3.617   6.643
    2V3OU   H25  902   3.296   3.633   6.632
    2V3OU   C17  903   2.821   3.312   6.803
    2V3OU    H7  904   2.719   3.340   6.777
    2V3OU   C18  905   2.844   3.204   6.887
    2V3OU    H8  906   2.752   3.150   6.918
    3SOL     OW  907   2.488   3.418   5.412
    3SOL    HW1  908   2.435   3.340   5.377
    3SOL    HW2  909   2.436   3.502   5.399
    4SOL     OW  910   1.343   0.565   0.806
    4SOL    HW1  911   1.413   0.500   0.779
    4SOL    HW2  912   1.311   0.543   0.899
    5SOL     OW  913   3.574   1.686   0.185
    5SOL    HW1  914   3.523   1.707   0.268
    5SOL    HW2  915   3.519   1.710   0.105
    6SOL     OW  916   2.993   2.126   1.924
    6SOL    HW1  917   2.940   2.179   1.990
    6SOL    HW2  918   3.005   2.179   1.840
    7SOL     OW  919   1.921   2.986   4.692
    7SOL    HW1  920   1.940   3.053   4.763
    7SOL    HW2  921   1.858   3.026   4.625
    8SOL     OW  922   1.112   1.620   6.007
    8SOL    HW1  923   1.099   1.592   6.102
    8SOL    HW2  924   1.170   1.701   6.004
    9SOL     OW  925   1.840   2.510   5.414
    9SOL    HW1  926   1.819   2.608   5.417
    9SOL    HW2  927   1.813   2.473   5.325
   10SOL     OW  928   6.120   4.976   0.814
   10SOL    HW1  929   6.168   4.915   0.751
   10SOL    HW2  930   6.183   5.045   0.848
   11SOL     OW  931   2.993   1.041   0.775
   11SOL    HW1  932   3.052   1.071   0.700
   11SOL    HW2  933   3.049   1.006   0.850
   12SOL     OW  934   6.036   4.832   1.018
   12SOL    HW1  935   6.071   4.889   0.944
   12SOL    HW2  936   6.027   4.738   0.986
   13SOL     OW  937   4.757   6.065   1.957
   13SOL    HW1  938   4.670   6.108   1.933
   13SOL    HW2  939   4.828   6.095   1.894
   14SOL     OW  940   4.763   5.553   1.668
   14SOL    HW1  941   4.854   5.513   1.667
   14SOL    HW2  942   4.696   5.483   1.693
   15SOL     OW  943   0.541   0.060   0.108
   15SOL    HW1  944   0.530   7.010   0.048
   15SOL    HW2  945   0.516   0.143   0.058
   16SOL     OW  946   2.066   4.933   5.241
   16SOL    HW1  947   2.162   4.959   5.224
   16SOL    HW2  948   2.049   4.843   5.203
   17SOL     OW  949   0.245   2.099   4.340
   17SOL    HW1  950   0.163   2.141   4.302
   17SOL    HW2  951   0.258   2.130   4.434
   18SOL     OW  952   2.525   6.896   4.874
   18SOL    HW1  953   2.499   6.935   4.786
   18SOL    HW2  954   2.446   6.896   4.936
   19SOL     OW  955   4.281   6.026   3.507
   19SOL    HW1  956   4.236   6.102   3.460
   19SOL    HW2  957   4.246   5.939   3.472
   20SOL     OW  958   0.020   1.662   4.685
   20SOL    HW1  959   0.080   1.595   4.728
   20SOL    HW2  960   0.074   1.725   4.629
   21SOL     OW  961   2.030   3.162   2.080
   21SOL    HW1  962   2.061   3.071   2.053
   21SOL    HW2  963   1.978   3.156   2.165
   22SOL     OW  964   0.250   0.152   0.493
   22SOL    HW1  965   0.316   0.226   0.493
   22SOL    HW2  966   0.230   0.124   0.399
   23SOL     OW  967   0.763   5.293   0.613
   23SOL    HW1  968   0.719   5.347   0.684
   23SOL    HW2  969   0.732   5.198   0.619
   24SOL     OW  970   4.743   0.983   5.626
   24SOL    HW1  971   4.681   0.988   5.704
   24SOL    HW2  972   4.710   1.044   5.554
   25SOL     OW  973   2.255   0.262   5.578
   25SOL    HW1  974   2.338   0.311   5.607
   25SOL    HW2  975   2.243   0.274   5.480
   26SOL     OW  976   2.655   6.676   5.485
   26SOL    HW1  977   2.664   6.772   5.511
   26SOL    HW2  978   2.647   6.619   5.567
   27SOL     OW  979   0.276   0.201   1.956
   27SOL    HW1  980   0.327   0.127   1.912
   27SOL    HW2  981   0.318   0.224   2.043
   28SOL     OW  982   2.327   0.182   4.986
   28SOL    HW1  983   2.410   0.223   4.947
   28SOL    HW2  984   2.258   0.253   4.998
   29SOL     OW  985   5.222   0.788   2.065
   29SOL    HW1  986   5.209   0.717   2.134
   29SOL    HW2  987   5.134   0.828   2.040
   30SOL     OW  988   4.393   6.573   4.839
   30SOL    HW1  989   4.391   6.524   4.751
   30SOL    HW2  990   4.303   6.569   4.882
   31SOL     OW  991   5.934   4.014   4.093
   31SOL    HW1  992   5.911   3.921   4.066
   31SOL    HW2  993   5.877   4.041   4.171
   32SOL     OW  994   3.930   1.057   1.576
   32SOL    HW1  995   3.893   1.039   1.485
   32SOL    HW2  996   3.870   1.018   1.645
   33SOL     OW  997   1.857   4.998   5.393
   33SOL    HW1  998   1.779   4.981   5.333
   33SOL    HW2  999   1.941   4.970   5.347
   34SOL     OW 1000   2.442   6.945   5.371
   34SOL    HW1 1001   2.455   0.003   5.323
   34SOL    HW2 1002   2.527   6.918   5.415
   35SOL     OW 1003   0.958   3.414   4.847
   35SOL    HW1 1004   1.042   3.401   4.900
   35SOL    HW2 1005   0.972   3.487   4.780
   36SOL     OW 1006   5.835   0.928   4.709
   36SOL    HW1 1007   5.807   0.856   4.645
   36SOL    HW2 1008   5.868   1.008   4.658
   37SOL     OW 1009   1.189   5.935   3.665
   37SOL    HW1 1010   1.150   5.949   3.574
   37SOL    HW2 1011   1.114   5.929   3.732
   38SOL     OW 1012   0.775   3.501   1.887
   38SOL    HW1 1013   0.758   3.592   1.924
   38SOL    HW2 1014   0.870   3.494   1.855
   39SOL     OW 1015   6.509   5.643   1.588
   39SOL    HW1 1016   6.441   5.570   1.592
   39SOL    HW2 1017   6.469   5.723   1.544
   40SOL     OW 1018   4.396   0.223   5.407
   40SOL    HW1 1019   4.335   0.269   5.471
   40SOL    HW2 1020   4.472   0.180   5.456
   41SOL     OW 1021   0.631   3.353   0.966
   41SOL    HW1 1022   0.534   3.350   0.992
   41SOL    HW2 1023   0.645   3.429   0.902
   42SOL     OW 1024   2.656   3.567   1.088
   42SOL    HW1 1025   2.653   3.614   1.176
   42SOL    HW2 1026   2.683   3.632   1.017
   43SOL     OW 1027   5.258   0.641   3.165
   43SOL    HW1 1028   5.314   0.698   3.225
   43SOL    HW2 1029   5.240   0.691   3.080
   44SOL     OW 1030   6.972   0.802   6.766
   44SOL    HW1 1031   6.994   0.750   6.848
   44SOL    HW2 1032   6.998   0.898   6.778
   45SOL     OW 1033   2.131   3.641   4.621
   45SOL    HW1 1034   2.113   3.663   4.526
   45SOL    HW2 1035   2.160   3.546   4.629
   46SOL     OW 1036   0.897   6.006   4.686
   46SOL    HW1 1037   0.963   5.977   4.617
   46SOL    HW2 1038   0.807   6.016   4.644
   47SOL     OW 1039   0.684   4.151   6.354
   47SOL    HW1 1040   0.765   4.145   6.413
   47SOL    HW2 1041   0.713   4.173   6.261
   48SOL     OW 1042   0.973   4.177   0.311
   48SOL    HW1 1043   1.056   4.134   0.277
   48SOL    HW2 1044   0.906   4.185   0.237
   49SOL     OW 1045   3.861   6.992   6.853
   49SOL    HW1 1046   3.875   0.039   6.916
   49SOL    HW2 1047   3.868   6.905   6.903
   50SOL     OW 1048   4.948   1.856   5.714
   50SOL    HW1 1049   4.860   1.888   5.749
   50SOL    HW2 1050   4.959   1.759   5.736
   51SOL     OW 1051   1.277   6.762   1.412
   51SOL    HW1 1052   1.199   6.731   1.465
   51SOL    HW2 1053   1.300   6.856   1.437
   52SOL     OW 1054   5.026   3.241   2.596
   52SOL    HW1 1055   5.012   3.205   2.504
   52SOL    HW2 1056   5.005   3.339   2.597
   53SOL     OW 1057   4.110   6.430   1.071
   53SOL    HW1 1058   4.166   6.428   0.988
   53SOL    HW2 1059   4.088   6.525   1.094
   54SOL     OW 1060   0.644   0.988   6.408
   54SOL    HW1 1061   0.718   0.950   6.353
   54SOL    HW2 1062   0.565   0.927   6.404
   55SOL     OW 1063   2.852   3.686   6.232
   55SOL    HW1 1064   2.762   3.688   6.274
   55SOL    HW2 1065   2.869   3.596   6.193
   56SOL     OW 1066   1.613   2.233   0.081
   56SOL    HW1 1067   1.697   2.185   0.055
   56SOL    HW2 1068   1.564   2.260   7.027
   57SOL     OW 1069   4.137   6.511   1.846
   57SOL    HW1 1070   4.116   6.467   1.933
   57SOL    HW2 1071   4.056   6.562   1.814
   58SOL     OW 1072   0.891   0.295   0.688
   58SOL    HW1 1073   0.962   0.365   0.690
   58SOL    HW2 1074   0.921   0.219   0.630
   59SOL     OW 1075   4.672   4.143   6.857
   59SOL    HW1 1076   4.590   4.148   6.914
   59SOL    HW2 1077   4.682   4.228   6.806
   60SOL     OW 1078   6.294   2.498   2.131
   60SOL    HW1 1079   6.224   2.540   2.189
   60SOL    HW2 1080   6.352   2.439   2.186
   61SOL     OW 1081   0.915   4.705   2.872
   61SOL    HW1 1082   0.838   4.768   2.862
   61SOL    HW2 1083   0.884   4.623   2.921
   62SOL     OW 1084   5.085   4.075   3.209
   62SOL    HW1 1085   5.008   4.015   3.188
   62SOL    HW2 1086   5.096   4.143   3.136
   63SOL     OW 1087   4.576   0.177   5.903
   63SOL    HW1 1088   4.585   0.082   5.931
   63SOL    HW2 1089   4.586   0.237   5.982
   64SOL     OW 1090   2.288   1.602   6.565
   64SOL    HW1 1091   2.337   1.524   6.524
   64SOL    HW2 1092   2.223   1.568   6.633
   65SOL     OW 1093   0.638   5.313   5.173
   65SOL    HW1 1094   0.605   5.407   5.184
   65SOL    HW2 1095   0.582   5.265   5.105
   66SOL     OW 1096   4.508   1.614   1.651
   66SOL    HW1 1097   4.513   1.638   1.554
   66SOL    HW2 1098   4.594   1.638   1.697
   67SOL     OW 1099   0.268   2.833   2.961
   67SOL    HW1 1100   0.202   2.799   2.894
   67SOL    HW2 1101   0.344   2.878   2.913
   68SOL     OW 1102   6.897   1.221   5.760
   68SOL    HW1 1103   6.812   1.255   5.800
   68SOL    HW2 1104   6.876   1.168   5.678
   69SOL     OW 1105   1.748   0.922   6.115
   69SOL    HW1 1106   1.832   0.962   6.152
   69SOL    HW2 1107   1.760   0.823   6.105
   70SOL     OW 1108   5.038   5.175   2.810
   70SOL    HW1 1109   5.093   5.105   2.855
   70SOL    HW2 1110   5.097   5.240   2.764
   71SOL     OW 1111   5.606   1.382   5.691
   71SOL    HW1 1112   5.580   1.435   5.610
   71SOL    HW2 1113   5.543   1.403   5.766
   72SOL     OW 1114   6.554   2.007   2.358
   72SOL    HW1 1115   6.600   2.023   2.271
   72SOL    HW2 1116   6.464   2.050   2.357
   73SOL     OW 1117   2.378   1.229   0.550
   73SOL    HW1 1118   2.311   1.186   0.610
   73SOL    HW2 1119   2.467   1.228   0.594
   74SOL     OW 1120   2.751   0.722   0.153
   74SOL    HW1 1121   2.825   0.705   0.088
   74SOL    HW2 1122   2.783   0.781   0.227
   75SOL     OW 1123   3.202   3.142   1.298
   75SOL    HW1 1124   3.115   3.122   1.252
   75SOL    HW2 1125   3.229   3.236   1.278
   76SOL     OW 1126   2.998   4.865   6.110
   76SOL    HW1 1127   2.970   4.949   6.156
   76SOL    HW2 1128   2.971   4.869   6.014
   77SOL     OW 1129   0.464   4.415   5.653
   77SOL    HW1 1130   0.416   4.349   5.595
   77SOL    HW2 1131   0.489   4.371   5.740
   78SOL     OW 1132   4.901   1.665   0.647
   78SOL    HW1 1133   4.885   1.760   0.674
   78SOL    HW2 1134   4.860   1.649   0.557
   79SOL     OW 1135   2.009   4.992   4.354
   79SOL    HW1 1136   2.071   4.915   4.368
   79SOL    HW2 1137   2.039   5.070   4.408
   80SOL     OW 1138   4.535   2.031   4.857
   80SOL    HW1 1139   4.440   2.030   4.887
   80SOL    HW2 1140   4.583   1.953   4.896
   81SOL     OW 1141   1.959   5.066   2.877
   81SOL    HW1 1142   1.958   5.165   2.864
   81SOL    HW2 1143   1.968   5.044   2.974
   82SOL     OW 1144   2.799   0.442   1.320
   82SOL    HW1 1145   2.833   0.529   1.356
   82SOL    HW2 1146   2.731   0.460   1.248
   83SOL     OW 1147   6.311   2.295   3.834
   83SOL    HW1 1148   6.303   2.276   3.932
   83SOL    HW2 1149   6.250   2.234   3.783
   84SOL     OW 1150   5.456   2.113   3.230
   84SOL    HW1 1151   5.399   2.036   3.203
   84SOL    HW2 1152   5.406   2.169   3.297
   85SOL     OW 1153   2.360   5.144   2.840
   85SOL    HW1 1154   2.327   5.234   2.812
   85SOL    HW2 1155   2.408   5.152   2.927
   86SOL     OW 1156   5.142   1.174   5.399
   86SOL    HW1 1157   5.069   1.220   5.349
   86SOL    HW2 1158   5.145   1.078   5.373
   87SOL     OW 1159   3.102   2.060   6.564
   87SOL    HW1 1160   3.046   2.090   6.487
   87SOL    HW2 1161   3.048   2.062   6.648
   88SOL     OW 1162   1.024   1.903   0.084
   88SOL    HW1 1163   0.939   1.917   0.135
   88SOL    HW2 1164   1.093   1.863   0.144
   89SOL     OW 1165   4.160   4.453   5.996
   89SOL    HW1 1166   4.089   4.392   6.031
   89SOL    HW2 1167   4.189   4.517   6.067
   90SOL     OW 1168   0.073   3.733   1.999
   90SOL    HW1 1169   0.025   3.662   1.948
   90SOL    HW2 1170   0.091   3.811   1.939
   91SOL     OW 1171   5.488   4.721   1.012
   91SOL    HW1 1172   5.497   4.820   1.018
   91SOL    HW2 1173   5.513   4.691   0.919
   92SOL     OW 1174   6.884   6.134   6.900
   92SOL    HW1 1175   6.931   6.156   6.985
   92SOL    HW2 1176   6.882   6.213   6.840
   93SOL     OW 1177   2.878   3.507   2.637
   93SOL    HW1 1178   2.879   3.420   2.588
   93SOL    HW2 1179   2.904   3.492   2.732
   94SOL     OW 1180   3.784   1.178   4.314
   94SOL    HW1 1181   3.862   1.199   4.372
   94SOL    HW2 1182   3.714   1.131   4.368
   95SOL     OW 1183   0.650   6.800   3.790
   95SOL    HW1 1184   0.720   6.752   3.843
   95SOL    HW2 1185   0.642   6.894   3.822
   96SOL     OW 1186   0.944   6.999   0.768
   96SOL    HW1 1187   1.038   6.969   0.747
   96SOL    HW2 1188   0.915   0.037   0.700
   97SOL     OW 1189   3.758   4.969   5.224
   97SOL    HW1 1190   3.793   5.062   5.235
   97SOL    HW2 1191   3.661   4.967   5.247
   98SOL     OW 1192   6.999   1.842   5.253
   98SOL    HW1 1193   6.900   1.833   5.261
   98SOL    HW2 1194   0.009   1.858   5.344
   99SOL     OW 1195   5.567   4.860   4.986
   99SOL    HW1 1196   5.582   4.828   4.893
   99SOL    HW2 1197   5.639   4.824   5.046
  100SOL     OW 1198   1.787   1.931   5.672
  100SOL    HW1 1199   1.817   1.872   5.748
  100SOL    HW2 1200   1.802   2.027   5.696
  101SOL     OW 1201   5.269   2.330   2.269
  101SOL    HW1 1202   5.233   2.402   2.210
  101SOL    HW2 1203   5.366   2.346   2.286
  102SOL     OW 1204   5.077   6.566   0.838
  102SOL    HW1 1205   5.166   6.521   0.843
  102SOL    HW2 1206   5.088   6.658   0.801
  103SOL     OW 1207   2.221   2.442   1.305
  103SOL    HW1 1208   2.250   2.518   1.247
  103SOL    HW2 1209   2.221   2.471   1.401
  104SOL     OW 1210   0.983   3.873   1.797
  104SOL    HW1 1211   1.001   3.841   1.704
  104SOL    HW2 1212   1.070   3.894   1.842
  105SOL     OW 1213   0.469   1.756   4.625
  105SOL    HW1 1214   0.503   1.679   4.571
  105SOL    HW2 1215   0.372   1.771   4.605
  106SOL     OW 1216   5.597   2.729   1.334
  106SOL    HW1 1217   5.674   2.723   1.398
  106SOL    HW2 1218   5.516   2.760   1.382
  107SOL     OW 1219   4.901   0.404   2.226
  107SOL    HW1 1220   4.859   0.464   2.159
  107SOL    HW2 1221   4.834   0.377   2.295
  108SOL     OW 1222   4.112   1.019   4.685
  108SOL    HW1 1223   4.174   0.945   4.661
  108SOL    HW2 1224   4.153   1.076   4.756
  109SOL     OW 1225   2.340   1.574   4.018
  109SOL    HW1 1226   2.307   1.658   3.975
  109SOL    HW2 1227   2.440   1.574   4.019
  110SOL     OW 1228   4.532   4.662   5.398
  110SOL    HW1 1229   4.604   4.719   5.357
  110SOL    HW2 1230   4.558   4.639   5.491
  111SOL     OW 1231   6.840   3.514   0.045
  111SOL    HW1 1232   6.814   3.506   6.977
  111SOL    HW2 1233   6.931   3.474   0.058
  112SOL     OW 1234   3.764   6.151   5.327
  112SOL    HW1 1235   3.792   6.175   5.420
  112SOL    HW2 1236   3.787   6.226   5.265
  113SOL     OW 1237   1.172   4.719   2.467
  113SOL    HW1 1238   1.141   4.712   2.372
  113SOL    HW2 1239   1.105   4.675   2.527
  114SOL     OW 1240   6.301   1.607   1.699
  114SOL    HW1 1241   6.304   1.511   1.728
  114SOL    HW2 1242   6.207   1.639   1.700
  115SOL     OW 1243   4.524   0.115   3.204
  115SOL    HW1 1244   4.516   0.211   3.231
  115SOL    HW2 1245   4.456   0.061   3.253
  116SOL     OW 1246   6.028   5.524   6.461
  116SOL    HW1 1247   6.052   5.592   6.530
  116SOL    HW2 1248   5.932   5.499   6.471
  117SOL     OW 1249   1.665   1.615   0.398
  117SOL    HW1 1250   1.648   1.525   0.357
  117SOL    HW2 1251   1.711   1.674   0.333
  118SOL     OW 1252   1.085   2.748   1.744
  118SOL    HW1 1253   1.109   2.686   1.819
  118SOL    HW2 1254   0.996   2.721   1.706
  119SOL     OW 1255   4.934   5.176   4.104
  119SOL    HW1 1256   4.843   5.147   4.135
  119SOL    HW2 1257   5.003   5.141   4.167
  120SOL     OW 1258   5.076   1.107   4.043
  120SOL    HW1 1259   5.023   1.189   4.063
  120SOL    HW2 1260   5.143   1.127   3.971
  121SOL     OW 1261   6.548   5.143   6.096
  121SOL    HW1 1262   6.625   5.088   6.129
  121SOL    HW2 1263   6.555   5.153   5.997
  122SOL     OW 1264   0.341   5.678   5.627
  122SOL    HW1 1265   0.336   5.768   5.583
  122SOL    HW2 1266   0.266   5.621   5.594
  123SOL     OW 1267   0.772   1.716   0.936
  123SOL    HW1 1268   0.863   1.755   0.928
  123SOL    HW2 1269   0.703   1.784   0.910
  124SOL     OW 1270   1.631   3.521   6.824
  124SOL    HW1 1271   1.569   3.454   6.866
  124SOL    HW2 1272   1.577   3.593   6.780
  125SOL     OW 1273   4.179   3.349   2.113
  125SOL    HW1 1274   4.202   3.316   2.022
  125SOL    HW2 1275   4.243   3.421   2.140
  126SOL     OW 1276   3.526   3.385   5.280
  126SOL    HW1 1277   3.430   3.361   5.295
  126SOL    HW2 1278   3.550   3.463   5.338
  127SOL     OW 1279   0.133   4.617   6.120
  127SOL    HW1 1280   0.171   4.638   6.030
  127SOL    HW2 1281   0.201   4.637   6.191
  128SOL     OW 1282   4.784   4.353   6.417
  128SOL    HW1 1283   4.792   4.254   6.419
  128SOL    HW2 1284   4.698   4.379   6.374
  129SOL     OW 1285   1.036   5.121   2.836
  129SOL    HW1 1286   0.957   5.167   2.794
  129SOL    HW2 1287   1.013   5.025   2.852
  130SOL     OW 1288   6.379   4.240   4.899
  130SOL    HW1 1289   6.390   4.207   4.993
  130SOL    HW2 1290   6.282   4.240   4.875
  131SOL     OW 1291   0.336   2.878   1.520
  131SOL    HW1 1292   0.431   2.868   1.490
  131SOL    HW2 1293   0.331   2.873   1.619
  132SOL     OW 1294   3.388   3.960   1.898
  132SOL    HW1 1295   3.399   4.042   1.954
  132SOL    HW2 1296   3.410   3.879   1.952
  133SOL     OW 1297   4.630   4.539   6.220
  133SOL    HW1 1298   4.573   4.498   6.292
  133SOL    HW2 1299   4.667   4.625   6.253
  134SOL     OW 1300   0.598   1.937   6.618
  134SOL    HW1 1301   0.507   1.920   6.656
  134SOL    HW2 1302   0.667   1.894   6.676
  135SOL     OW 1303   4.325   4.992   4.169
  135SOL    HW1 1304   4.364   4.964   4.256
  135SOL    HW2 1305   4.272   4.917   4.130
  136SOL     OW 1306   3.449   6.361   6.800
  136SOL    HW1 1307   3.495   6.436   6.848
  136SOL    HW2 1308   3.383   6.318   6.861
  137SOL     OW 1309   1.773   4.250   0.251
  137SOL    HW1 1310   1.788   4.189   0.174
  137SOL    HW2 1311   1.828   4.333   0.240
  138SOL     OW 1312   0.206   6.695   2.002
  138SOL    HW1 1313   0.168   6.706   2.094
  138SOL    HW2 1314   0.172   6.609   1.962
  139SOL     OW 1315   1.280   0.378   1.106
  139SOL    HW1 1316   1.259   0.335   1.018
  139SOL    HW2 1317   1.224   0.335   1.178
  140SOL     OW 1318   2.691   0.240   3.180
  140SOL    HW1 1319   2.602   0.272   3.147
  140SOL    HW2 1320   2.761   0.260   3.112
  141SOL     OW 1321   2.471   2.569   0.871
  141SOL    HW1 1322   2.397   2.614   0.822
  141SOL    HW2 1323   2.437   2.483   0.910
  142SOL     OW 1324   1.456   4.383   6.329
  142SOL    HW1 1325   1.360   4.407   6.348
  142SOL    HW2 1326   1.515   4.459   6.357
  143SOL     OW 1327   4.245   6.209   2.245
  143SOL    HW1 1328   4.342   6.231   2.236
  143SOL    HW2 1329   4.232   6.111   2.232
  144SOL     OW 1330   2.486   4.896   3.003
  144SOL    HW1 1331   2.542   4.821   3.036
  144SOL    HW2 1332   2.403   4.859   2.961
  145SOL     OW 1333   6.003   6.642   2.250
  145SOL    HW1 1334   6.010   6.724   2.307
  145SOL    HW2 1335   5.915   6.597   2.267
  146SOL     OW 1336   6.140   1.301   4.522
  146SOL    HW1 1337   6.223   1.254   4.492
  146SOL    HW2 1338   6.092   1.338   4.442
  147SOL     OW 1339   5.966   6.511   5.742
  147SOL    HW1 1340   6.018   6.519   5.827
  147SOL    HW2 1341   5.987   6.589   5.683
  148SOL     OW 1342   2.292   0.423   3.781
  148SOL    HW1 1343   2.336   0.504   3.820
  148SOL    HW2 1344   2.262   0.444   3.688
  149SOL     OW 1345   2.150   1.827   5.400
  149SOL    HW1 1346   2.152   1.885   5.482
  149SOL    HW2 1347   2.061   1.782   5.393
  150SOL     OW 1348   5.250   3.456   4.183
  150SOL    HW1 1349   5.238   3.406   4.269
  150SOL    HW2 1350   5.226   3.397   4.106
  151SOL     OW 1351   6.223   2.625   1.531
  151SOL    HW1 1352   6.294   2.599   1.596
  151SOL    HW2 1353   6.195   2.719   1.548
  152SOL     OW 1354   6.212   1.175   0.194
  152SOL    HW1 1355   6.302   1.154   0.157
  152SOL    HW2 1356   6.195   1.273   0.187
  153SOL     OW 1357   1.592   1.650   3.751
  153SOL    HW1 1358   1.503   1.642   3.796
  153SOL    HW2 1359   1.580   1.645   3.652
  154SOL     OW 1360   0.165   1.970   3.378
  154SOL    HW1 1361   0.261   1.994   3.395
  154SOL    HW2 1362   0.123   1.941   3.464
  155SOL     OW 1363   6.077   5.261   3.458
  155SOL    HW1 1364   6.142   5.318   3.408
  155SOL    HW2 1365   5.984   5.297   3.447
  156SOL     OW 1366   4.180   6.897   0.803
  156SOL    HW1 1367   4.115   6.865   0.872
  156SOL    HW2 1368   4.236   6.820   0.773
  157SOL     OW 1369   5.766   1.583   0.587
  157SOL    HW1 1370   5.813   1.543   0.509
  157SOL    HW2 1371   5.667   1.586   0.568
  158SOL     OW 1372   0.956   2.866   5.551
  158SOL    HW1 1373   0.969   2.854   5.650
  158SOL    HW2 1374   1.043   2.847   5.504
  159SOL     OW 1375   0.269   4.944   6.865
  159SOL    HW1 1376   0.299   4.935   6.770
  159SOL    HW2 1377   0.341   4.911   6.926
  160SOL     OW 1378   4.343   0.155   1.595
  160SOL    HW1 1379   4.287   0.160   1.678
  160SOL    HW2 1380   4.343   0.062   1.560
  161SOL     OW 1381   5.118   6.551   1.338
  161SOL    HW1 1382   5.145   6.646   1.326
  161SOL    HW2 1383   5.076   6.517   1.254
  162SOL     OW 1384   4.279   0.276   5.179
  162SOL    HW1 1385   4.323   0.246   5.263
  162SOL    HW2 1386   4.180   0.263   5.187
  163SOL     OW 1387   1.602   4.316   3.147
  163SOL    HW1 1388   1.593   4.413   3.167
  163SOL    HW2 1389   1.657   4.272   3.218
  164SOL     OW 1390   1.695   3.224   2.294
  164SOL    HW1 1391   1.623   3.287   2.262
  164SOL    HW2 1392   1.741   3.264   2.374
  165SOL     OW 1393   0.081   6.234   4.945
  165SOL    HW1 1394   0.114   6.292   4.869
  165SOL    HW2 1395   7.014   6.255   4.963
  166SOL     OW 1396   0.549   5.572   4.367
  166SOL    HW1 1397   0.642   5.536   4.366
  166SOL    HW2 1398   0.487   5.505   4.408
  167SOL     OW 1399   0.089   1.504   3.204
  167SOL    HW1 1400   0.117   1.484   3.298
  167SOL    HW2 1401   0.135   1.586   3.172
  168SOL     OW 1402   3.384   4.137   4.761
  168SOL    HW1 1403   3.298   4.140   4.812
  168SOL    HW2 1404   3.365   4.125   4.664
  169SOL     OW 1405   4.552   3.061   6.009
  169SOL    HW1 1406   4.558   3.024   6.102
  169SOL    HW2 1407   4.572   2.988   5.943
  170SOL     OW 1408   6.082   5.140   3.065
  170SOL    HW1 1409   6.064   5.093   3.151
  170SOL    HW2 1410   6.031   5.094   2.991
  171SOL     OW 1411   3.637   2.870   1.146
  171SOL    HW1 1412   3.692   2.795   1.183
  171SOL    HW2 1413   3.543   2.863   1.180
  172SOL     OW 1414   1.702   0.514   0.350
  172SOL    HW1 1415   1.631   0.545   0.286
  172SOL    HW2 1416   1.686   0.419   0.374
  173SOL     OW 1417   5.720   0.905   4.979
  173SOL    HW1 1418   5.773   0.897   4.894
  173SOL    HW2 1419   5.627   0.935   4.957
  174SOL     OW 1420   6.455   5.210   3.706
  174SOL    HW1 1421   6.392   5.222   3.783
  174SOL    HW2 1422   6.547   5.194   3.741
  175SOL     OW 1423   0.197   5.407   1.701
  175SOL    HW1 1424   0.177   5.309   1.704
  175SOL    HW2 1425   0.157   5.451   1.781
  176SOL     OW 1426   5.810   3.646   1.051
  176SOL    HW1 1427   5.896   3.696   1.059
  176SOL    HW2 1428   5.811   3.590   0.968
  177SOL     OW 1429   5.624   2.490   4.007
  177SOL    HW1 1430   5.701   2.527   4.060
  177SOL    HW2 1431   5.571   2.566   3.968
  178SOL     OW 1432   1.042   5.062   4.709
  178SOL    HW1 1433   1.039   5.153   4.667
  178SOL    HW2 1434   1.008   4.994   4.644
  179SOL     OW 1435   3.171   4.081   1.656
  179SOL    HW1 1436   3.270   4.068   1.658
  179SOL    HW2 1437   3.148   4.156   1.594
  180SOL     OW 1438   5.362   0.153   5.481
  180SOL    HW1 1439   5.316   0.212   5.416
  180SOL    HW2 1440   5.313   0.154   5.568
  181SOL     OW 1441   2.931   5.742   5.789
  181SOL    HW1 1442   2.840   5.769   5.758
  181SOL    HW2 1443   2.997   5.813   5.764
  182SOL     OW 1444   3.280   2.563   5.312
  182SOL    HW1 1445   3.295   2.537   5.408
  182SOL    HW2 1446   3.248   2.484   5.261
  183SOL     OW 1447   2.027   0.627   2.837
  183SOL    HW1 1448   2.106   0.652   2.780
  183SOL    HW2 1449   1.948   0.682   2.810
  184SOL     OW 1450   5.679   6.512   3.909
  184SOL    HW1 1451   5.706   6.593   3.858
  184SOL    HW2 1452   5.697   6.526   4.006
  185SOL     OW 1453   0.317   6.083   5.018
  185SOL    HW1 1454   0.365   6.154   5.069
  185SOL    HW2 1455   0.249   6.126   4.958
  186SOL     OW 1456   3.344   4.731   0.400
  186SOL    HW1 1457   3.438   4.724   0.433
  186SOL    HW2 1458   3.325   4.825   0.373
  187SOL     OW 1459   3.840   5.599   0.271
  187SOL    HW1 1460   3.903   5.526   0.245
  187SOL    HW2 1461   3.752   5.585   0.226
  188SOL     OW 1462   1.391   4.130   3.397
  188SOL    HW1 1463   1.320   4.063   3.418
  188SOL    HW2 1464   1.424   4.115   3.304
  189SOL     OW 1465   6.713   3.785   5.973
  189SOL    HW1 1466   6.617   3.768   5.952
  189SOL    HW2 1467   6.727   3.884   5.984
  190SOL     OW 1468   6.292   6.113   0.085
  190SOL    HW1 1469   6.365   6.128   0.151
  190SOL    HW2 1470   6.210   6.162   0.113
  191SOL     OW 1471   1.812   3.833   6.562
  191SOL    HW1 1472   1.912   3.831   6.567
  191SOL    HW2 1473   1.775   3.854   6.652
  192SOL     OW 1474   0.969   6.442   0.265
  192SOL    HW1 1475   1.050   6.499   0.251
  192SOL    HW2 1476   0.887   6.499   0.261
  193SOL     OW 1477   2.931   0.195   1.679
  193SOL    HW1 1478   2.902   0.099   1.669
  193SOL    HW2 1479   2.858   0.255   1.647
  194SOL     OW 1480   4.554   6.776   3.213
  194SOL    HW1 1481   4.492   6.775   3.135
  194SOL    HW2 1482   4.502   6.774   3.298
  195SOL     OW 1483   3.392   0.684   1.230
  195SOL    HW1 1484   3.388   0.779   1.199
  195SOL    HW2 1485   3.445   0.678   1.314
  196SOL     OW 1486   3.709   2.991   1.472
  196SOL    HW1 1487   3.672   2.904   1.438
  196SOL    HW2 1488   3.714   2.988   1.572
  197SOL     OW 1489   0.670   6.351   1.204
  197SOL    HW1 1490   0.612   6.419   1.250
  197SOL    HW2 1491   0.700   6.386   1.116
  198SOL     OW 1492   6.419   0.777   5.134
  198SOL    HW1 1493   6.440   0.706   5.067
  198SOL    HW2 1494   6.492   0.846   5.134
  199SOL     OW 1495   1.204   0.221   3.121
  199SOL    HW1 1496   1.278   0.286   3.139
  199SOL    HW2 1497   1.117   0.269   3.127
  200SOL     OW 1498   1.932   3.238   3.098
  200SOL    HW1 1499   1.958   3.265   3.006
  200SOL    HW2 1500   2.008   3.257   3.161
  201SOL     OW 1501   5.553   1.265   6.896
  201SOL    HW1 1502   5.646   1.270   6.934
  201SOL    HW2 1503   5.529   1.354   6.857
  202SOL     OW 1504   3.571   0.461   2.504
  202SOL    HW1 1505   3.576   0.542   2.445
  202SOL    HW2 1506   3.526   0.486   2.590
  203SOL     OW 1507   5.555   2.586   1.617
  203SOL    HW1 1508   5.648   2.576   1.580
  203SOL    HW2 1509   5.549   2.672   1.668
  204SOL     OW 1510   2.556   5.995   0.898
  204SOL    HW1 1511   2.567   6.092   0.919
  204SOL    HW2 1512   2.581   5.978   0.803
  205SOL     OW 1513   5.047   0.935   0.164
  205SOL    HW1 1514   5.030   0.986   0.080
  205SOL    HW2 1515   5.144   0.911   0.170
  206SOL     OW 1516   0.227   5.411   2.093
  206SOL    HW1 1517   0.146   5.433   2.039
  206SOL    HW2 1518   0.202   5.350   2.168
  207SOL     OW 1519   6.657   2.690   5.845
  207SOL    HW1 1520   6.751   2.696   5.878
  207SOL    HW2 1521   6.618   2.781   5.838
  208SOL     OW 1522   4.942   3.681   1.152
  208SOL    HW1 1523   4.885   3.751   1.109
  208SOL    HW2 1524   4.890   3.595   1.159
  209SOL     OW 1525   6.201   0.925   3.716
  209SOL    HW1 1526   6.243   1.015   3.702
  209SOL    HW2 1527   6.102   0.936   3.725
  210SOL     OW 1528   5.321   3.143   6.986
  210SOL    HW1 1529   5.348   3.083   6.911
  210SOL    HW2 1530   5.393   3.209   7.004
  211SOL     OW 1531   0.022   4.946   2.255
  211SOL    HW1 1532   6.979   4.963   2.322
  211SOL    HW2 1533   0.100   5.006   2.274
  212SOL     OW 1534   0.541   5.280   5.541
  212SOL    HW1 1535   0.627   5.264   5.492
  212SOL    HW2 1536   0.471   5.310   5.476
  213SOL     OW 1537   4.733   2.231   1.666
  213SOL    HW1 1538   4.760   2.138   1.691
  213SOL    HW2 1539   4.813   2.291   1.670
  214SOL     OW 1540   6.883   5.762   3.765
  214SOL    HW1 1541   6.841   5.798   3.683
  214SOL    HW2 1542   6.901   5.664   3.753
  215SOL     OW 1543   3.489   2.990   3.460
  215SOL    HW1 1544   3.551   3.066   3.439
  215SOL    HW2 1545   3.470   2.939   3.376
  216SOL     OW 1546   4.331   6.778   4.573
  216SOL    HW1 1547   4.275   6.793   4.655
  216SOL    HW2 1548   4.354   6.681   4.566
  217SOL     OW 1549   6.323   1.985   4.605
  217SOL    HW1 1550   6.239   2.038   4.602
  217SOL    HW2 1551   6.318   1.918   4.679
  218SOL     OW 1552   2.454   4.899   5.379
  218SOL    HW1 1553   2.510   4.950   5.314
  218SOL    HW2 1554   2.420   4.815   5.336
  219SOL     OW 1555   3.301   6.612   6.889
  219SOL    HW1 1556   3.208   6.615   6.926
  219SOL    HW2 1557   3.358   6.556   6.949
  220SOL     OW 1558   1.423   4.379   0.599
  220SOL    HW1 1559   1.484   4.397   0.676
  220SOL    HW2 1560   1.387   4.466   0.565
  221SOL     OW 1561   6.110   4.281   4.576
  221SOL    HW1 1562   6.082   4.266   4.481
  221SOL    HW2 1563   6.156   4.370   4.583
  222SOL     OW 1564   0.781   0.494   5.010
  222SOL    HW1 1565   0.782   0.422   5.080
  222SOL    HW2 1566   0.861   0.484   4.950
  223SOL     OW 1567   5.823   6.099   1.936
  223SOL    HW1 1568   5.817   6.049   1.849
  223SOL    HW2 1569   5.882   6.179   1.924
  224SOL     OW 1570   5.446   4.191   2.224
  224SOL    HW1 1571   5.523   4.156   2.278
  224SOL    HW2 1572   5.424   4.284   2.255
  225SOL     OW 1573   4.444   6.026   1.145
  225SOL    HW1 1574   4.446   5.931   1.176
  225SOL    HW2 1575   4.357   6.043   1.097
  226SOL     OW 1576   1.229   5.544   3.286
  226SOL    HW1 1577   1.325   5.526   3.269
  226SOL    HW2 1578   1.194   5.611   3.221
  227SOL     OW 1579   1.227   3.529   3.319
  227SOL    HW1 1580   1.221   3.571   3.228
  227SOL    HW2 1581   1.322   3.534   3.351
  228SOL     OW 1582   3.714   5.531   3.487
  228SOL    HW1 1583   3.658   5.605   3.525
  228SOL    HW2 1584   3.686   5.444   3.528
  229SOL     OW 1585   5.740   7.023   2.206
  229SOL    HW1 1586   5.723   0.086   2.241
  229SOL    HW2 1587   5.686   7.008   2.123
  230SOL     OW 1588   1.140   4.657   4.657
  230SOL    HW1 1589   1.165   4.692   4.747
  230SOL    HW2 1590   1.224   4.633   4.607
  231SOL     OW 1591   0.056   2.498   6.746
  231SOL    HW1 1592   0.040   2.399   6.746
  231SOL    HW2 1593   0.035   2.535   6.655
  232SOL     OW 1594   2.258   3.068   0.314
  232SOL    HW1 1595   2.319   3.047   0.391
  232SOL    HW2 1596   2.174   3.015   0.322
  233SOL     OW 1597   3.468   0.191   0.516
  233SOL    HW1 1598   3.388   0.219   0.462
  233SOL    HW2 1599   3.450   0.208   0.613
  234SOL     OW 1600   1.914   5.427   0.683
  234SOL    HW1 1601   1.849   5.389   0.617
  234SOL    HW2 1602   1.866   5.449   0.768
  235SOL     OW 1603   4.233   2.985   5.345
  235SOL    HW1 1604   4.284   3.066   5.374
  235SOL    HW2 1605   4.297   2.918   5.305
  236SOL     OW 1606   0.147   6.633   6.935
  236SOL    HW1 1607   0.153   6.577   7.018
  236SOL    HW2 1608   0.072   6.599   6.877
  237SOL     OW 1609   5.858   0.559   2.815
  237SOL    HW1 1610   5.951   0.543   2.781
  237SOL    HW2 1611   5.861   0.623   2.892
  238SOL     OW 1612   0.515   1.721   3.397
  238SOL    HW1 1613   0.513   1.802   3.338
  238SOL    HW2 1614   0.480   1.642   3.347
  239SOL     OW 1615   6.369   5.014   6.410
  239SOL    HW1 1616   6.389   5.056   6.321
  239SOL    HW2 1617   6.362   4.915   6.399
  240SOL     OW 1618   0.058   3.081   4.258
  240SOL    HW1 1619   0.101   3.112   4.173
  240SOL    HW2 1620   7.026   3.004   4.238
  241SOL     OW 1621   6.219   2.539   4.190
  241SOL    HW1 1622   6.297   2.602   4.194
  241SOL    HW2 1623   6.141   2.584   4.148
  242SOL     OW 1624   1.851   2.191   2.912
  242SOL    HW1 1625   1.938   2.160   2.950
  242SOL    HW2 1626   1.830   2.282   2.948
  243SOL     OW 1627   5.531   1.488   6.755
  243SOL    HW1 1628   5.551   1.584   6.775
  243SOL    HW2 1629   5.561   1.466   6.662
  244SOL     OW 1630   1.644   0.791   5.621
  244SOL    HW1 1631   1.633   0.806   5.719
  244SOL    HW2 1632   1.579   0.847   5.571
  245SOL     OW 1633   4.955   2.174   4.747
  245SOL    HW1 1634   5.002   2.222   4.673
  245SOL    HW2 1635   5.022   2.147   4.817
  246SOL     OW 1636   5.177   4.132   4.377
  246SOL    HW1 1637   5.148   4.043   4.343
  246SOL    HW2 1638   5.178   4.132   4.477
  247SOL     OW 1639   1.338   0.469   2.679
  247SOL    HW1 1640   1.375   0.529   2.608
  247SOL    HW2 1641   1.322   0.522   2.762
  248SOL     OW 1642   6.718   3.158   3.496
  248SOL    HW1 1643   6.748   3.111   3.413
  248SOL    HW2 1644   6.738   3.102   3.576
  249SOL     OW 1645   1.919   6.422   4.623
  249SOL    HW1 1646   1.864   6.502   4.648
  249SOL    HW2 1647   1.900   6.397   4.528
  250SOL     OW 1648   5.779   2.275   0.790
  250SOL    HW1 1649   5.784   2.192   0.846
  250SOL    HW2 1650   5.872   2.309   0.773
  251SOL     OW 1651   2.133   0.150   2.634
  251SOL    HW1 1652   2.095   0.237   2.667
  251SOL    HW2 1653   2.142   0.087   2.711
  252SOL     OW 1654   6.609   3.396   6.676
  252SOL    HW1 1655   6.539   3.459   6.644
  252SOL    HW2 1656   6.598   3.308   6.630
  253SOL     OW 1657   1.984   4.768   5.674
  253SOL    HW1 1658   1.956   4.711   5.598
  253SOL    HW2 1659   2.028   4.712   5.744
  254SOL     OW 1660   5.226   3.420   0.023
  254SOL    HW1 1661   5.131   3.427   7.021
  254SOL    HW2 1662   5.231   3.442   0.120
  255SOL     OW 1663   4.168   2.146   2.128
  255SOL    HW1 1664   4.167   2.114   2.223
  255SOL    HW2 1665   4.229   2.088   2.075
  256SOL     OW 1666   0.339   6.253   0.777
  256SOL    HW1 1667   0.420   6.228   0.831
  256SOL    HW2 1668   0.267   6.284   0.838
  257SOL     OW 1669   2.662   6.345   6.482
  257SOL    HW1 1670   2.606   6.402   6.542
  257SOL    HW2 1671   2.733   6.300   6.535
  258SOL     OW 1672   5.098   5.021   3.866
  258SOL    HW1 1673   5.039   5.097   3.893
  258SOL    HW2 1674   5.079   4.996   3.771
  259SOL     OW 1675   6.030   1.604   2.018
  259SOL    HW1 1676   6.109   1.631   2.072
  259SOL    HW2 1677   6.024   1.505   2.014
  260SOL     OW 1678   6.392   6.637   6.313
  260SOL    HW1 1679   6.308   6.672   6.354
  260SOL    HW2 1680   6.470   6.688   6.350
  261SOL     OW 1681   6.532   1.290   2.981
  261SOL    HW1 1682   6.515   1.301   2.883
  261SOL    HW2 1683   6.571   1.375   3.017
  262SOL     OW 1684   1.514   5.616   0.877
  262SOL    HW1 1685   1.494   5.694   0.936
  262SOL    HW2 1686   1.436   5.599   0.817
  263SOL     OW 1687   0.866   4.595   5.088
  263SOL    HW1 1688   0.881   4.676   5.144
  263SOL    HW2 1689   0.772   4.596   5.052
  264SOL     OW 1690   4.470   4.620   0.481
  264SOL    HW1 1691   4.401   4.549   0.492
  264SOL    HW2 1692   4.522   4.603   0.397
  265SOL     OW 1693   3.949   5.505   4.578
  265SOL    HW1 1694   3.987   5.496   4.486
  265SOL    HW2 1695   3.849   5.510   4.571
  266SOL     OW 1696   4.755   3.458   6.801
  266SOL    HW1 1697   4.808   3.451   6.717
  266SOL    HW2 1698   4.688   3.531   6.792
  267SOL     OW 1699   3.178   1.795   6.444
  267SOL    HW1 1700   3.151   1.880   6.487
  267SOL    HW2 1701   3.104   1.729   6.450
  268SOL     OW 1702   1.583   4.330   2.863
  268SOL    HW1 1703   1.637   4.400   2.816
  268SOL    HW2 1704   1.583   4.348   2.961
  269SOL     OW 1705   3.076   1.184   5.183
  269SOL    HW1 1706   3.072   1.254   5.112
  269SOL    HW2 1707   3.166   1.141   5.183
  270SOL     OW 1708   5.125   5.658   4.837
  270SOL    HW1 1709   5.055   5.712   4.884
  270SOL    HW2 1710   5.121   5.675   4.739
  271SOL     OW 1711   2.507   0.691   6.929
  271SOL    HW1 1712   2.585   0.753   6.916
  271SOL    HW2 1713   2.524   0.633   7.009
  272SOL     OW 1714   5.831   3.975   6.910
  272SOL    HW1 1715   5.891   3.956   6.833
  272SOL    HW2 1716   5.836   4.071   6.934
  273SOL     OW 1717   0.397   5.773   4.195
  273SOL    HW1 1718   0.441   5.852   4.152
  273SOL    HW2 1719   0.468   5.714   4.234
  274SOL     OW 1720   5.138   2.988   2.607
  274SOL    HW1 1721   5.057   3.043   2.589
  274SOL    HW2 1722   5.184   3.021   2.690
  275SOL     OW 1723   5.562   4.986   5.874
  275SOL    HW1 1724   5.621   5.064   5.851
  275SOL    HW2 1725   5.468   5.005   5.846
  276SOL     OW 1726   0.320   0.111   4.863
  276SOL    HW1 1727   0.306   0.031   4.805
  276SOL    HW2 1728   0.396   0.165   4.828
  277SOL     OW 1729   3.908   3.565   5.894
  277SOL    HW1 1730   3.879   3.660   5.885
  277SOL    HW2 1731   3.872   3.513   5.816
  278SOL     OW 1732   6.096   5.189   2.131
  278SOL    HW1 1733   6.145   5.229   2.209
  278SOL    HW2 1734   6.018   5.246   2.107
  279SOL     OW 1735   6.775   3.365   4.140
  279SOL    HW1 1736   6.785   3.452   4.092
  279SOL    HW2 1737   6.845   3.359   4.212
  280SOL     OW 1738   4.261   1.100   2.391
  280SOL    HW1 1739   4.233   1.005   2.409
  280SOL    HW2 1740   4.315   1.134   2.467
  281SOL     OW 1741   5.065   5.274   6.182
  281SOL    HW1 1742   5.019   5.327   6.253
  281SOL    HW2 1743   5.018   5.187   6.170
  282SOL     OW 1744   0.543   1.615   0.030
  282SOL    HW1 1745   0.553   1.715   0.025
  282SOL    HW2 1746   0.502   1.590   0.117
  283SOL     OW 1747   6.280   3.894   2.848
  283SOL    HW1 1748   6.360   3.927   2.798
  283SOL    HW2 1749   6.211   3.861   2.782
  284SOL     OW 1750   5.690   0.150   2.525
  284SOL    HW1 1751   5.663   0.147   2.621
  284SOL    HW2 1752   5.773   0.204   2.515
  285SOL     OW 1753   5.369   5.937   6.437
  285SOL    HW1 1754   5.324   6.026   6.446
  285SOL    HW2 1755   5.382   5.897   6.528
  286SOL     OW 1756   3.272   5.843   5.672
  286SOL    HW1 1757   3.315   5.918   5.723
  286SOL    HW2 1758   3.334   5.813   5.600
  287SOL     OW 1759   4.663   6.737   0.655
  287SOL    HW1 1760   4.717   6.792   0.591
  287SOL    HW2 1761   4.718   6.663   0.692
  288SOL     OW 1762   3.284   0.738   0.243
  288SOL    HW1 1763   3.217   0.812   0.248
  288SOL    HW2 1764   3.238   0.650   0.253
  289SOL     OW 1765   5.999   5.185   4.681
  289SOL    HW1 1766   5.972   5.155   4.772
  289SOL    HW2 1767   6.098   5.174   4.671
  290SOL     OW 1768   2.803   1.336   4.814
  290SOL    HW1 1769   2.736   1.342   4.888
  290SOL    HW2 1770   2.755   1.330   4.727
  291SOL     OW 1771   5.962   1.366   4.932
  291SOL    HW1 1772   5.885   1.425   4.907
  291SOL    HW2 1773   6.041   1.387   4.875
  292SOL     OW 1774   2.815   0.680   4.684
  292SOL    HW1 1775   2.909   0.692   4.650
  292SOL    HW2 1776   2.818   0.659   4.782
  293SOL     OW 1777   5.442   0.813   3.276
  293SOL    HW1 1778   5.404   0.885   3.218
  293SOL    HW2 1779   5.542   0.823   3.280
  294SOL     OW 1780   6.619   0.846   6.178
  294SOL    HW1 1781   6.546   0.915   6.173
  294SOL    HW2 1782   6.697   0.875   6.122
  295SOL     OW 1783   0.555   0.567   5.204
  295SOL    HW1 1784   0.654   0.549   5.205
  295SOL    HW2 1785   0.539   0.663   5.183
  296SOL     OW 1786   6.881   1.448   6.598
  296SOL    HW1 1787   6.911   1.541   6.575
  296SOL    HW2 1788   6.838   1.405   6.519
  297SOL     OW 1789   5.012   4.314   3.051
  297SOL    HW1 1790   4.961   4.348   2.972
  297SOL    HW2 1791   4.949   4.284   3.122
  298SOL     OW 1792   4.423   5.887   5.187
  298SOL    HW1 1793   4.328   5.868   5.166
  298SOL    HW2 1794   4.443   5.984   5.168
  299SOL     OW 1795   6.755   1.555   6.294
  299SOL    HW1 1796   6.772   1.645   6.333
  299SOL    HW2 1797   6.841   1.517   6.260
  300SOL     OW 1798   4.393   6.527   4.546
  300SOL    HW1 1799   4.489   6.511   4.524
  300SOL    HW2 1800   4.341   6.443   4.531
  301SOL     OW 1801   7.009   6.263   5.781
  301SOL    HW1 1802   7.016   6.348   5.729
  301SOL    HW2 1803   7.009   6.185   5.717
  302SOL     OW 1804   0.979   5.891   2.497
  302SOL    HW1 1805   1.014   5.811   2.545
  302SOL    HW2 1806   0.880   5.884   2.486
  303SOL     OW 1807   4.399   5.387   2.321
  303SOL    HW1 1808   4.477   5.425   2.371
  303SOL    HW2 1809   4.415   5.289   2.305
  304SOL     OW 1810   1.604   1.229   5.341
  304SOL    HW1 1811   1.574   1.254   5.433
  304SOL    HW2 1812   1.564   1.292   5.274
  305SOL     OW 1813   3.472   1.263   1.100
  305SOL    HW1 1814   3.404   1.254   1.027
  305SOL    HW2 1815   3.518   1.352   1.092
  306SOL     OW 1816   0.418   6.503   2.067
  306SOL    HW1 1817   0.374   6.592   2.074
  306SOL    HW2 1818   0.356   6.439   2.021
  307SOL     OW 1819   3.557   3.106   4.538
  307SOL    HW1 1820   3.568   3.169   4.462
  307SOL    HW2 1821   3.505   3.151   4.611
  308SOL     OW 1822   6.504   2.970   0.426
  308SOL    HW1 1823   6.489   3.027   0.345
  308SOL    HW2 1824   6.602   2.958   0.441
  309SOL     OW 1825   1.869   5.362   0.336
  309SOL    HW1 1826   1.890   5.283   0.278
  309SOL    HW2 1827   1.861   5.444   0.278
  310SOL     OW 1828   4.154   6.095   5.342
  310SOL    HW1 1829   4.226   6.036   5.379
  310SOL    HW2 1830   4.083   6.039   5.300
  311SOL     OW 1831   1.840   5.750   2.066
  311SOL    HW1 1832   1.807   5.840   2.093
  311SOL    HW2 1833   1.838   5.689   2.145
  312SOL     OW 1834   3.334   0.361   4.624
  312SOL    HW1 1835   3.362   0.374   4.529
  312SOL    HW2 1836   3.234   0.353   4.629
  313SOL     OW 1837   3.180   4.027   3.467
  313SOL    HW1 1838   3.117   3.955   3.436
  313SOL    HW2 1839   3.180   4.030   3.566
  314SOL     OW 1840   1.829   4.538   6.396
  314SOL    HW1 1841   1.746   4.529   6.340
  314SOL    HW2 1842   1.909   4.539   6.337
  315SOL     OW 1843   5.930   0.217   3.915
  315SOL    HW1 1844   5.914   0.300   3.862
  315SOL    HW2 1845   5.869   0.145   3.883
  316SOL     OW 1846   3.883   0.925   4.750
  316SOL    HW1 1847   3.881   0.924   4.850
  316SOL    HW2 1848   3.967   0.970   4.719
  317SOL     OW 1849   0.353   1.530   1.743
  317SOL    HW1 1850   0.313   1.583   1.818
  317SOL    HW2 1851   0.286   1.521   1.669
  318SOL     OW 1852   0.659   1.458   3.912
  318SOL    HW1 1853   0.617   1.549   3.923
  318SOL    HW2 1854   0.758   1.466   3.926
  319SOL     OW 1855   6.938   1.624   1.670
  319SOL    HW1 1856   6.907   1.719   1.675
  319SOL    HW2 1857   6.867   1.567   1.627
  320SOL     OW 1858   5.042   0.709   6.444
  320SOL    HW1 1859   5.122   0.705   6.385
  320SOL    HW2 1860   5.033   0.801   6.482
  321SOL     OW 1861   4.093   3.628   0.673
  321SOL    HW1 1862   4.007   3.639   0.723
  321SOL    HW2 1863   4.153   3.564   0.723
  322SOL     OW 1864   3.032   1.248   0.515
  322SOL    HW1 1865   3.083   1.323   0.558
  322SOL    HW2 1866   2.938   1.277   0.498
  323SOL     OW 1867   0.435   3.932   2.000
  323SOL    HW1 1868   0.460   3.854   1.942
  323SOL    HW2 1869   0.513   3.956   2.058
  324SOL     OW 1870   6.960   0.870   3.626
  324SOL    HW1 1871   6.987   0.959   3.590
  324SOL    HW2 1872   6.874   0.842   3.584
  325SOL     OW 1873   0.088   2.583   0.187
  325SOL    HW1 1874   0.184   2.554   0.188
  325SOL    HW2 1875   0.030   2.504   0.208
  326SOL     OW 1876   6.256   5.856   5.907
  326SOL    HW1 1877   6.196   5.781   5.936
  326SOL    HW2 1878   6.202   5.931   5.870
  327SOL     OW 1879   4.009   6.203   6.580
  327SOL    HW1 1880   4.067   6.141   6.632
  327SOL    HW2 1881   3.913   6.174   6.588
  328SOL     OW 1882   2.510   5.220   3.748
  328SOL    HW1 1883   2.534   5.204   3.844
  328SOL    HW2 1884   2.440   5.154   3.720
  329SOL     OW 1885   3.051   3.870   3.079
  329SOL    HW1 1886   2.975   3.820   3.039
  329SOL    HW2 1887   3.068   3.953   3.027
  330SOL     OW 1888   2.169   3.417   6.732
  330SOL    HW1 1889   2.131   3.363   6.807
  330SOL    HW2 1890   2.109   3.411   6.652
  331SOL     OW 1891   4.801   5.883   4.775
  331SOL    HW1 1892   4.729   5.853   4.711
  331SOL    HW2 1893   4.835   5.973   4.747
  332SOL     OW 1894   6.109   2.364   2.887
  332SOL    HW1 1895   6.138   2.300   2.957
  332SOL    HW2 1896   6.010   2.353   2.871
  333SOL     OW 1897   2.945   6.272   4.058
  333SOL    HW1 1898   3.024   6.214   4.077
  333SOL    HW2 1899   2.862   6.229   4.094
  334SOL     OW 1900   3.634   3.440   4.010
  334SOL    HW1 1901   3.711   3.494   3.977
  334SOL    HW2 1902   3.659   3.343   4.013
  335SOL     OW 1903   4.504   1.313   6.530
  335SOL    HW1 1904   4.483   1.384   6.598
  335SOL    HW2 1905   4.421   1.262   6.508
  336SOL     OW 1906   3.600   1.526   4.406
  336SOL    HW1 1907   3.695   1.533   4.376
  336SOL    HW2 1908   3.595   1.469   4.488
  337SOL     OW 1909   1.096   1.787   5.651
  337SOL    HW1 1910   1.062   1.726   5.579
  337SOL    HW2 1911   1.027   1.795   5.723
  338SOL     OW 1912   4.551   1.999   1.474
  338SOL    HW1 1913   4.476   2.033   1.417
  338SOL    HW2 1914   4.516   1.974   1.564
  339SOL     OW 1915   3.549   4.743   5.854
  339SOL    HW1 1916   3.626   4.722   5.915
  339SOL    HW2 1917   3.476   4.676   5.868
  340SOL     OW 1918   5.791   4.481   4.687
  340SOL    HW1 1919   5.822   4.469   4.781
  340SOL    HW2 1920   5.705   4.431   4.674
  341SOL     OW 1921   5.787   0.539   1.158
  341SOL    HW1 1922   5.723   0.467   1.135
  341SOL    HW2 1923   5.771   0.570   1.252
  342SOL     OW 1924   4.604   0.309   1.174
  342SOL    HW1 1925   4.621   0.408   1.179
  342SOL    HW2 1926   4.673   0.267   1.116
  343SOL     OW 1927   5.932   0.404   1.814
  343SOL    HW1 1928   5.865   0.463   1.767
  343SOL    HW2 1929   5.939   0.317   1.766
  344SOL     OW 1930   6.537   3.109   1.407
  344SOL    HW1 1931   6.599   3.188   1.407
  344SOL    HW2 1932   6.577   3.036   1.351
  345SOL     OW 1933   0.060   3.579   3.152
  345SOL    HW1 1934   7.020   3.514   3.183
  345SOL    HW2 1935   0.067   3.574   3.052
  346SOL     OW 1936   0.529   0.471   3.293
  346SOL    HW1 1937   0.558   0.401   3.358
  346SOL    HW2 1938   0.566   0.449   3.202
  347SOL     OW 1939   1.799   4.163   1.496
  347SOL    HW1 1940   1.759   4.217   1.422
  347SOL    HW2 1941   1.753   4.075   1.503
  348SOL     OW 1942   6.437   4.689   0.983
  348SOL    HW1 1943   6.374   4.652   1.051
  348SOL    HW2 1944   6.532   4.674   1.014
  349SOL     OW 1945   5.858   5.406   6.916
  349SOL    HW1 1946   5.909   5.346   6.854
  349SOL    HW2 1947   5.890   5.500   6.904
  350SOL     OW 1948   2.271   0.876   0.576
  350SOL    HW1 1949   2.188   0.837   0.617
  350SOL    HW2 1950   2.249   0.962   0.532
  351SOL     OW 1951   4.195   4.133   0.623
  351SOL    HW1 1952   4.256   4.148   0.545
  351SOL    HW2 1953   4.194   4.215   0.681
  352SOL     OW 1954   3.744   0.802   2.912
  352SOL    HW1 1955   3.662   0.795   2.856
  352SOL    HW2 1956   3.719   0.825   3.006
  353SOL     OW 1957   2.425   6.353   0.955
  353SOL    HW1 1958   2.346   6.375   1.012
  353SOL    HW2 1959   2.506   6.401   0.990
  354SOL     OW 1960   3.227   2.541   0.751
  354SOL    HW1 1961   3.327   2.543   0.751
  354SOL    HW2 1962   3.194   2.564   0.843
  355SOL     OW 1963   6.872   2.228   2.550
  355SOL    HW1 1964   6.796   2.164   2.562
  355SOL    HW2 1965   6.946   2.202   2.612
  356SOL     OW 1966   3.032   6.860   5.540
  356SOL    HW1 1967   2.994   6.797   5.608
  356SOL    HW2 1968   2.957   6.899   5.486
  357SOL     OW 1969   6.338   5.749   4.395
  357SOL    HW1 1970   6.319   5.788   4.485
  357SOL    HW2 1971   6.265   5.774   4.332
  358SOL     OW 1972   3.237   6.239   6.915
  358SOL    HW1 1973   3.232   6.162   6.979
  358SOL    HW2 1974   3.144   6.267   6.891
  359SOL     OW 1975   2.109   2.304   0.879
  359SOL    HW1 1976   2.130   2.255   0.794
  359SOL    HW2 1977   2.032   2.260   0.924
  360SOL     OW 1978   1.625   5.018   2.514
  360SOL    HW1 1979   1.662   4.959   2.585
  360SOL    HW2 1980   1.672   5.000   2.427
  361SOL     OW 1981   6.093   2.859   2.823
  361SOL    HW1 1982   5.996   2.854   2.800
  361SOL    HW2 1983   6.109   2.938   2.882
  362SOL     OW 1984   3.781   2.985   3.196
  362SOL    HW1 1985   3.814   2.913   3.258
  362SOL    HW2 1986   3.746   2.943   3.113
  363SOL     OW 1987   4.751   5.732   2.151
  363SOL    HW1 1988   4.798   5.739   2.062
  363SOL    HW2 1989   4.678   5.799   2.155
  364SOL     OW 1990   1.193   1.150   0.167
  364SOL    HW1 1991   1.122   1.088   0.199
  364SOL    HW2 1992   1.172   1.243   0.196
  365SOL     OW 1993   4.796   0.314   3.548
  365SOL    HW1 1994   4.797   0.278   3.642
  365SOL    HW2 1995   4.770   0.241   3.485
  366SOL     OW 1996   5.704   0.740   0.229
  366SOL    HW1 1997   5.685   0.646   0.258
  366SOL    HW2 1998   5.771   0.739   0.156
  367SOL     OW 1999   6.588   6.393   6.963
  367SOL    HW1 2000   6.625   6.383   0.027
  367SOL    HW2 2001   6.497   6.353   6.958
  368SOL     OW 2002   2.623   1.024   5.211
  368SOL    HW1 2003   2.546   1.036   5.147
  368SOL    HW2 2004   2.707   1.013   5.159
  369SOL     OW 2005   5.017   3.786   6.384
  369SOL    HW1 2006   5.078   3.723   6.432
  369SOL    HW2 2007   4.937   3.735   6.351
  370SOL     OW 2008   1.426   1.636   4.150
  370SOL    HW1 2009   1.390   1.607   4.061
  370SOL    HW2 2010   1.518   1.673   4.138
  371SOL     OW 2011   3.089   4.946   1.051
  371SOL    HW1 2012   3.187   4.956   1.066
  371SOL    HW2 2013   3.073   4.888   0.972
  372SOL     OW 2014   2.396   5.881   6.014
  372SOL    HW1 2015   2.328   5.954   6.022
  372SOL    HW2 2016   2.367   5.803   6.069
  373SOL     OW 2017   5.457   4.789   2.266
  373SOL    HW1 2018   5.546   4.830   2.246
  373SOL    HW2 2019   5.453   4.762   2.362
  374SOL     OW 2020   2.193   3.054   2.299
  374SOL    HW1 2021   2.213   3.141   2.253
  374SOL    HW2 2022   2.149   2.991   2.235
  375SOL     OW 2023   0.403   5.125   4.143
  375SOL    HW1 2024   0.332   5.084   4.200
  375SOL    HW2 2025   0.414   5.222   4.168
  376SOL     OW 2026   5.204   6.888   3.763
  376SOL    HW1 2027   5.299   6.899   3.794
  376SOL    HW2 2028   5.201   6.890   3.663
  377SOL     OW 2029   2.560   3.334   6.378
  377SOL    HW1 2030   2.561   3.312   6.280
  377SOL    HW2 2031   2.494   3.407   6.395
  378SOL     OW 2032   4.595   0.941   1.121
  378SOL    HW1 2033   4.685   0.955   1.080
  378SOL    HW2 2034   4.529   0.921   1.049
  379SOL     OW 2035   3.023   3.623   0.980
  379SOL    HW1 2036   3.017   3.581   1.070
  379SOL    HW2 2037   3.063   3.558   0.915
  380SOL     OW 2038   5.459   2.028   7.015
  380SOL    HW1 2039   5.428   2.111   6.968
  380SOL    HW2 2040   5.551   2.044   0.023
  381SOL     OW 2041   0.064   3.399   2.227
  381SOL    HW1 2042   0.146   3.456   2.233
  381SOL    HW2 2043   0.007   3.415   2.307
  382SOL     OW 2044   5.783   0.105   0.689
  382SOL    HW1 2045   5.733   0.158   0.620
  382SOL    HW2 2046   5.766   0.144   0.780
  383SOL     OW 2047   5.407   2.903   1.434
  383SOL    HW1 2048   5.447   2.986   1.472
  383SOL    HW2 2049   5.313   2.893   1.466
  384SOL     OW 2050   1.671   2.784   4.272
  384SOL    HW1 2051   1.744   2.721   4.245
  384SOL    HW2 2052   1.582   2.743   4.251
  385SOL     OW 2053   4.639   3.160   0.030
  385SOL    HW1 2054   4.688   3.141   6.973
  385SOL    HW2 2055   4.660   3.253   0.061
  386SOL     OW 2056   2.764   6.168   5.783
  386SOL    HW1 2057   2.838   6.199   5.724
  386SOL    HW2 2058   2.799   6.102   5.849
  387SOL     OW 2059   1.715   6.679   3.732
  387SOL    HW1 2060   1.743   6.608   3.668
  387SOL    HW2 2061   1.687   6.760   3.682
  388SOL     OW 2062   2.111   5.705   5.828
  388SOL    HW1 2063   2.012   5.689   5.827
  388SOL    HW2 2064   2.158   5.617   5.818
  389SOL     OW 2065   3.947   1.690   6.934
  389SOL    HW1 2066   4.036   1.731   6.913
  389SOL    HW2 2067   3.935   1.689   0.005
  390SOL     OW 2068   3.542   1.313   3.765
  390SOL    HW1 2069   3.503   1.266   3.843
  390SOL    HW2 2070   3.622   1.366   3.794
  391SOL     OW 2071   0.679   1.100   0.530
  391SOL    HW1 2072   0.702   1.003   0.539
  391SOL    HW2 2073   0.580   1.112   0.533
  392SOL     OW 2074   4.432   5.515   4.146
  392SOL    HW1 2075   4.452   5.605   4.107
  392SOL    HW2 2076   4.382   5.460   4.079
  393SOL     OW 2077   5.516   2.480   5.662
  393SOL    HW1 2078   5.548   2.467   5.568
  393SOL    HW2 2079   5.514   2.392   5.709
  394SOL     OW 2080   2.349   1.413   6.969
  394SOL    HW1 2081   2.427   1.461   6.929
  394SOL    HW2 2082   2.269   1.423   6.910
  395SOL     OW 2083   0.277   2.902   1.131
  395SOL    HW1 2084   0.345   2.921   1.202
  395SOL    HW2 2085   0.254   2.805   1.133
  396SOL     OW 2086   4.023   2.620   5.565
  396SOL    HW1 2087   3.932   2.651   5.594
  396SOL    HW2 2088   4.065   2.568   5.639
  397SOL     OW 2089   4.834   6.703   6.912
  397SOL    HW1 2090   4.751   6.753   6.890
  397SOL    HW2 2091   4.868   6.656   6.830
  398SOL     OW 2092   5.662   4.077   2.424
  398SOL    HW1 2093   5.744   4.063   2.367
  398SOL    HW2 2094   5.668   4.165   2.470
  399SOL     OW 2095   1.976   5.753   1.375
  399SOL    HW1 2096   2.059   5.699   1.382
  399SOL    HW2 2097   1.914   5.729   1.450
  400SOL     OW 2098   2.271   4.718   6.066
  400SOL    HW1 2099   2.200   4.754   6.127
  400SOL    HW2 2100   2.302   4.629   6.100
  401SOL     OW 2101   6.613   1.513   1.097
  401SOL    HW1 2102   6.543   1.558   1.041
  401SOL    HW2 2103   6.569   1.451   1.162
  402SOL     OW 2104   0.568   5.515   0.594
  402SOL    HW1 2105   0.529   5.564   0.516
  402SOL    HW2 2106   0.592   5.580   0.666
  403SOL     OW 2107   5.472   4.269   0.309
  403SOL    HW1 2108   5.531   4.189   0.317
  403SOL    HW2 2109   5.450   4.304   0.400
  404SOL     OW 2110   6.663   5.938   4.454
  404SOL    HW1 2111   6.685   5.841   4.449
  404SOL    HW2 2112   6.739   5.988   4.494
  405SOL     OW 2113   1.569   1.600   1.257
  405SOL    HW1 2114   1.628   1.650   1.192
  405SOL    HW2 2115   1.473   1.623   1.239
  406SOL     OW 2116   0.823   2.920   3.963
  406SOL    HW1 2117   0.912   2.927   3.918
  406SOL    HW2 2118   0.824   2.972   4.048
  407SOL     OW 2119   2.941   2.155   3.758
  407SOL    HW1 2120   2.874   2.116   3.821
  407SOL    HW2 2121   3.033   2.132   3.789
  408SOL     OW 2122   2.540   0.230   4.077
  408SOL    HW1 2123   2.497   0.166   4.141
  408SOL    HW2 2124   2.637   0.239   4.100
  409SOL     OW 2125   0.489   5.164   4.975
  409SOL    HW1 2126   0.439   5.230   4.919
  409SOL    HW2 2127   0.524   5.091   4.917
  410SOL     OW 2128   2.655   6.779   6.503
  410SOL    HW1 2129   2.612   6.817   6.422
  410SOL    HW2 2130   2.721   6.709   6.476
  411SOL     OW 2131   0.298   4.341   6.104
  411SOL    HW1 2132   0.250   4.424   6.133
  411SOL    HW2 2133   0.353   4.307   6.180
  412SOL     OW 2134   3.668   5.939   3.140
  412SOL    HW1 2135   3.668   5.998   3.221
  412SOL    HW2 2136   3.579   5.893   3.134
  413SOL     OW 2137   2.201   0.787   1.639
  413SOL    HW1 2138   2.289   0.743   1.657
  413SOL    HW2 2139   2.189   0.799   1.540
  414SOL     OW 2140   4.496   4.728   0.806
  414SOL    HW1 2141   4.463   4.780   0.727
  414SOL    HW2 2142   4.578   4.772   0.842
  415SOL     OW 2143   3.695   6.408   2.916
  415SOL    HW1 2144   3.630   6.382   2.987
  415SOL    HW2 2145   3.750   6.485   2.948
  416SOL     OW 2146   3.753   5.869   0.048
  416SOL    HW1 2147   3.775   5.808   7.001
  416SOL    HW2 2148   3.833   5.879   0.107
  417SOL     OW 2149   5.966   5.213   1.721
  417SOL    HW1 2150   5.895   5.185   1.785
  417SOL    HW2 2151   5.987   5.310   1.733
  418SOL     OW 2152   0.158   5.218   6.293
  418SOL    HW1 2153   0.216   5.137   6.302
  418SOL    HW2 2154   0.103   5.229   6.375
  419SOL     OW 2155   5.319   5.250   6.588
  419SOL    HW1 2156   5.280   5.322   6.530
  419SOL    HW2 2157   5.286   5.161   6.556
  420SOL     OW 2158   5.807   3.488   6.964
  420SOL    HW1 2159   5.767   3.570   6.924
  420SOL    HW2 2160   5.866   3.513   0.012
  421SOL     OW 2161   1.508   6.311   5.942
  421SOL    HW1 2162   1.448   6.377   5.896
  421SOL    HW2 2163   1.534   6.239   5.878
  422SOL     OW 2164   6.178   3.681   0.525
  422SOL    HW1 2165   6.229   3.684   0.439
  422SOL    HW2 2166   6.080   3.681   0.506
  423SOL     OW 2167   1.325   2.928   5.956
  423SOL    HW1 2168   1.241   2.883   5.985
  423SOL    HW2 2169   1.309   3.026   5.949
  424SOL     OW 2170   2.169   4.308   5.836
  424SOL    HW1 2171   2.229   4.247   5.888
  424SOL    HW2 2172   2.097   4.342   5.897
  425SOL     OW 2173   2.133   0.831   0.084
  425SOL    HW1 2174   2.063   0.901   0.100
  425SOL    HW2 2175   2.177   0.807   0.171
  426SOL     OW 2176   1.106   3.248   6.834
  426SOL    HW1 2177   1.018   3.276   6.873
  426SOL    HW2 2178   1.107   3.149   6.821
  427SOL     OW 2179   4.039   2.913   0.261
  427SOL    HW1 2180   3.976   2.931   0.186
  427SOL    HW2 2181   4.075   3.000   0.296
  428SOL     OW 2182   3.377   1.102   4.548
  428SOL    HW1 2183   3.434   1.171   4.502
  428SOL    HW2 2184   3.291   1.091   4.499
  429SOL     OW 2185   3.930   5.930   6.791
  429SOL    HW1 2186   3.870   6.000   6.751
  429SOL    HW2 2187   3.954   5.957   6.884
  430SOL     OW 2188   2.944   1.394   4.436
  430SOL    HW1 2189   2.870   1.394   4.503
  430SOL    HW2 2190   2.905   1.405   4.344
  431SOL     OW 2191   3.576   0.613   6.216
  431SOL    HW1 2192   3.588   0.519   6.184
  431SOL    HW2 2193   3.530   0.612   6.305
  432SOL     OW 2194   6.713   1.001   1.200
  432SOL    HW1 2195   6.774   1.079   1.212
  432SOL    HW2 2196   6.681   0.998   1.105
  433SOL     OW 2197   4.122   6.586   4.705
  433SOL    HW1 2198   4.157   6.675   4.734
  433SOL    HW2 2199   4.069   6.598   4.620
  434SOL     OW 2200   6.841   3.649   0.772
  434SOL    HW1 2201   6.866   3.553   0.778
  434SOL    HW2 2202   6.793   3.667   0.686
  435SOL     OW 2203   3.718   3.593   0.642
  435SOL    HW1 2204   3.655   3.564   0.570
  435SOL    HW2 2205   3.804   3.542   0.634
  436SOL     OW 2206   2.639   1.352   0.881
  436SOL    HW1 2207   2.570   1.379   0.948
  436SOL    HW2 2208   2.677   1.263   0.906
  437SOL     OW 2209   6.158   6.273   6.367
  437SOL    HW1 2210   6.245   6.287   6.320
  437SOL    HW2 2211   6.083   6.306   6.309
  438SOL     OW 2212   1.273   3.636   1.229
  438SOL    HW1 2213   1.265   3.730   1.195
  438SOL    HW2 2214   1.363   3.623   1.270
  439SOL     OW 2215   6.227   5.034   1.909
  439SOL    HW1 2216   6.155   4.983   1.863
  439SOL    HW2 2217   6.189   5.085   1.986
  440SOL     OW 2218   1.065   3.080   2.594
  440SOL    HW1 2219   1.081   3.168   2.550
  440SOL    HW2 2220   1.137   3.061   2.660
  441SOL     OW 2221   6.828   1.797   2.890
  441SOL    HW1 2222   6.858   1.737   2.816
  441SOL    HW2 2223   6.734   1.828   2.872
  442SOL     OW 2224   1.330   5.069   6.789
  442SOL    HW1 2225   1.263   5.068   6.715
  442SOL    HW2 2226   1.388   5.149   6.780
  443SOL     OW 2227   0.176   5.947   5.758
  443SOL    HW1 2228   0.257   6.001   5.737
  443SOL    HW2 2229   0.203   5.852   5.777
  444SOL     OW 2230   5.510   2.999   6.728
  444SOL    HW1 2231   5.522   3.078   6.788
  444SOL    HW2 2232   5.481   3.030   6.637
  445SOL     OW 2233   1.791   4.140   2.836
  445SOL    HW1 2234   1.773   4.048   2.871
  445SOL    HW2 2235   1.704   4.189   2.824
  446SOL     OW 2236   1.597   5.409   4.668
  446SOL    HW1 2237   1.613   5.311   4.667
  446SOL    HW2 2238   1.682   5.457   4.689
  447SOL     OW 2239   1.004   5.960   0.530
  447SOL    HW1 2240   0.905   5.973   0.530
  447SOL    HW2 2241   1.031   5.904   0.451
  448SOL     OW 2242   4.732   0.865   5.303
  448SOL    HW1 2243   4.707   0.887   5.209
  448SOL    HW2 2244   4.709   0.942   5.363
  449SOL     OW 2245   6.521   0.751   4.099
  449SOL    HW1 2246   6.487   0.702   4.179
  449SOL    HW2 2247   6.456   0.740   4.023
  450SOL     OW 2248   0.239   5.918   2.794
  450SOL    HW1 2249   0.171   5.854   2.759
  450SOL    HW2 2250   0.239   6.001   2.738
  451SOL     OW 2251   5.867   3.777   4.016
  451SOL    HW1 2252   5.825   3.769   3.925
  451SOL    HW2 2253   5.947   3.718   4.021
  452SOL     OW 2254   6.083   4.824   6.045
  452SOL    HW1 2255   6.022   4.897   6.013
  452SOL    HW2 2256   6.066   4.806   6.142
  453SOL     OW 2257   4.018   1.729   5.961
  453SOL    HW1 2258   4.055   1.801   5.902
  453SOL    HW2 2259   3.958   1.669   5.909
  454SOL     OW 2260   0.569   5.773   7.013
  454SOL    HW1 2261   0.497   5.704   7.022
  454SOL    HW2 2262   0.528   5.863   6.999
  455SOL     OW 2263   5.520   2.307   5.058
  455SOL    HW1 2264   5.579   2.376   5.102
  455SOL    HW2 2265   5.530   2.313   4.959
  456SOL     OW 2266   4.292   5.721   0.882
  456SOL    HW1 2267   4.325   5.746   0.973
  456SOL    HW2 2268   4.322   5.789   0.815
  457SOL     OW 2269   0.648   4.231   1.890
  457SOL    HW1 2270   0.726   4.212   1.830
  457SOL    HW2 2271   0.563   4.216   1.840
  458SOL     OW 2272   1.179   0.084   5.390
  458SOL    HW1 2273   1.214   0.008   5.445
  458SOL    HW2 2274   1.180   0.057   5.293
  459SOL     OW 2275   1.706   0.838   3.393
  459SOL    HW1 2276   1.765   0.889   3.331
  459SOL    HW2 2277   1.659   0.903   3.454
  460SOL     OW 2278   6.541   2.549   2.945
  460SOL    HW1 2279   6.588   2.601   2.873
  460SOL    HW2 2280   6.443   2.551   2.928
  461SOL     OW 2281   5.560   4.362   5.696
  461SOL    HW1 2282   5.547   4.431   5.625
  461SOL    HW2 2283   5.627   4.395   5.763
  462SOL     OW 2284   3.460   2.442   0.229
  462SOL    HW1 2285   3.449   2.348   0.260
  462SOL    HW2 2286   3.531   2.446   0.158
  463SOL     OW 2287   6.204   6.432   1.223
  463SOL    HW1 2288   6.151   6.349   1.204
  463SOL    HW2 2289   6.289   6.430   1.171
  464SOL     OW 2290   1.802   1.804   5.933
  464SOL    HW1 2291   1.795   1.709   5.965
  464SOL    HW2 2292   1.894   1.839   5.952
  465SOL     OW 2293   0.638   3.638   5.913
  465SOL    HW1 2294   0.724   3.587   5.923
  465SOL    HW2 2295   0.579   3.592   5.847
  466SOL     OW 2296   1.864   0.412   3.412
  466SOL    HW1 2297   1.767   0.424   3.433
  466SOL    HW2 2298   1.885   0.314   3.410
  467SOL     OW 2299   1.722   1.203   4.831
  467SOL    HW1 2300   1.798   1.168   4.887
  467SOL    HW2 2301   1.747   1.292   4.794
  468SOL     OW 2302   3.943   3.859   3.561
  468SOL    HW1 2303   3.946   3.896   3.654
  468SOL    HW2 2304   3.853   3.877   3.522
  469SOL     OW 2305   3.230   6.899   6.467
  469SOL    HW1 2306   3.165   6.832   6.504
  469SOL    HW2 2307   3.299   6.852   6.413
  470SOL     OW 2308   4.185   0.005   2.737
  470SOL    HW1 2309   4.261   6.969   2.725
  470SOL    HW2 2310   4.151   7.027   2.830
  471SOL     OW 2311   2.282   2.333   3.816
  471SOL    HW1 2312   2.203   2.313   3.759
  471SOL    HW2 2313   2.363   2.345   3.758
  472SOL     OW 2314   3.521   4.277   5.238
  472SOL    HW1 2315   3.538   4.372   5.262
  472SOL    HW2 2316   3.549   4.261   5.143
  473SOL     OW 2317   0.620   4.907   4.166
  473SOL    HW1 2318   0.586   4.817   4.193
  473SOL    HW2 2319   0.544   4.971   4.161
  474SOL     OW 2320   5.349   5.241   5.206
  474SOL    HW1 2321   5.278   5.188   5.160
  474SOL    HW2 2322   5.419   5.268   5.140
  475SOL     OW 2323   2.888   6.753   0.160
  475SOL    HW1 2324   2.790   6.774   0.150
  475SOL    HW2 2325   2.911   6.750   0.257
  476SOL     OW 2326   6.649   5.725   2.780
  476SOL    HW1 2327   6.594   5.689   2.855
  476SOL    HW2 2328   6.601   5.709   2.693
  477SOL     OW 2329   1.670   4.585   3.232
  477SOL    HW1 2330   1.768   4.571   3.245
  477SOL    HW2 2331   1.638   4.658   3.294
  478SOL     OW 2332   1.703   4.388   3.834
  478SOL    HW1 2333   1.723   4.462   3.898
  478SOL    HW2 2334   1.611   4.400   3.796
  479SOL     OW 2335   4.139   1.695   2.314
  479SOL    HW1 2336   4.111   1.715   2.408
  479SOL    HW2 2337   4.073   1.735   2.251
  480SOL     OW 2338   1.851   6.776   3.959
  480SOL    HW1 2339   1.806   6.741   3.877
  480SOL    HW2 2340   1.946   6.745   3.961
  481SOL     OW 2341   1.988   0.232   0.586
  481SOL    HW1 2342   2.020   0.263   0.497
  481SOL    HW2 2343   1.969   0.311   0.644
  482SOL     OW 2344   5.893   5.831   1.319
  482SOL    HW1 2345   5.941   5.841   1.232
  482SOL    HW2 2346   5.800   5.799   1.302
  483SOL     OW 2347   4.881   1.907   3.428
  483SOL    HW1 2348   4.911   1.933   3.336
  483SOL    HW2 2349   4.781   1.917   3.435
  484SOL     OW 2350   6.144   1.936   3.237
  484SOL    HW1 2351   6.200   1.856   3.258
  484SOL    HW2 2352   6.048   1.909   3.229
  485SOL     OW 2353   2.739   5.991   0.679
  485SOL    HW1 2354   2.710   5.897   0.658
  485SOL    HW2 2355   2.838   5.994   0.691
  486SOL     OW 2356   6.111   0.499   5.663
  486SOL    HW1 2357   6.206   0.524   5.643
  486SOL    HW2 2358   6.078   0.436   5.593
  487SOL     OW 2359   6.584   2.088   6.872
  487SOL    HW1 2360   6.557   2.012   6.813
  487SOL    HW2 2361   6.624   2.052   6.956
  488SOL     OW 2362   1.148   4.702   3.542
  488SOL    HW1 2363   1.122   4.635   3.472
  488SOL    HW2 2364   1.126   4.794   3.510
  489SOL     OW 2365   3.453   5.315   6.030
  489SOL    HW1 2366   3.543   5.355   6.011
  489SOL    HW2 2367   3.453   5.273   6.120
  490SOL     OW 2368   5.153   1.173   4.352
  490SOL    HW1 2369   5.135   1.133   4.262
  490SOL    HW2 2370   5.129   1.270   4.351
  491SOL     OW 2371   0.605   3.027   3.801
  491SOL    HW1 2372   0.704   3.028   3.792
  491SOL    HW2 2373   0.580   2.997   3.893
  492SOL     OW 2374   1.481   1.689   4.806
  492SOL    HW1 2375   1.454   1.727   4.717
  492SOL    HW2 2376   1.559   1.741   4.842
  493SOL     OW 2377   5.766   3.804   4.910
  493SOL    HW1 2378   5.675   3.812   4.949
  493SOL    HW2 2379   5.762   3.754   4.824
  494SOL     OW 2380   5.719   0.866   6.303
  494SOL    HW1 2381   5.660   0.944   6.282
  494SOL    HW2 2382   5.804   0.873   6.251
  495SOL     OW 2383   5.814   4.685   0.266
  495SOL    HW1 2384   5.861   4.690   0.177
  495SOL    HW2 2385   5.863   4.742   0.332
  496SOL     OW 2386   6.057   3.606   2.860
  496SOL    HW1 2387   6.103   3.578   2.944
  496SOL    HW2 2388   6.011   3.528   2.820
  497SOL     OW 2389   4.344   0.134   4.317
  497SOL    HW1 2390   4.409   0.197   4.275
  497SOL    HW2 2391   4.320   0.062   4.252
  498SOL     OW 2392   2.008   3.409   1.278
  498SOL    HW1 2393   2.061   3.458   1.207
  498SOL    HW2 2394   1.930   3.364   1.235
  499SOL     OW 2395   3.829   1.915   5.554
  499SOL    HW1 2396   3.820   2.008   5.589
  499SOL    HW2 2397   3.865   1.918   5.461
  500SOL     OW 2398   1.186   4.674   2.924
  500SOL    HW1 2399   1.104   4.731   2.917
  500SOL    HW2 2400   1.184   4.603   2.854
  501SOL     OW 2401   0.867   4.877   6.100
  501SOL    HW1 2402   0.808   4.946   6.057
  501SOL    HW2 2403   0.923   4.833   6.030
  502SOL     OW 2404   2.057   5.020   5.976
  502SOL    HW1 2405   2.031   4.925   5.989
  502SOL    HW2 2406   2.127   5.046   6.042
  503SOL     OW 2407   6.875   5.269   4.363
  503SOL    HW1 2408   6.969   5.238   4.383
  503SOL    HW2 2409   6.826   5.282   4.449
  504SOL     OW 2410   1.371   5.228   4.097
  504SOL    HW1 2411   1.403   5.133   4.097
  504SOL    HW2 2412   1.364   5.261   4.003
  505SOL     OW 2413   3.562   6.298   4.668
  505SOL    HW1 2414   3.521   6.270   4.581
  505SOL    HW2 2415   3.499   6.279   4.743
  506SOL     OW 2416   2.321   3.282   0.625
  506SOL    HW1 2417   2.224   3.301   0.611
  506SOL    HW2 2418   2.362   3.255   0.537
  507SOL     OW 2419   3.847   1.844   4.222
  507SOL    HW1 2420   3.800   1.895   4.150
  507SOL    HW2 2421   3.943   1.870   4.223
  508SOL     OW 2422   5.573   5.021   4.542
  508SOL    HW1 2423   5.659   4.989   4.583
  508SOL    HW2 2424   5.591   5.103   4.488
  509SOL     OW 2425   4.620   3.419   1.678
  509SOL    HW1 2426   4.527   3.441   1.648
  509SOL    HW2 2427   4.676   3.398   1.599
  510SOL     OW 2428   1.248   3.719   4.156
  510SOL    HW1 2429   1.303   3.696   4.237
  510SOL    HW2 2430   1.309   3.748   4.082
  511SOL     OW 2431   0.268   6.152   1.682
  511SOL    HW1 2432   0.258   6.054   1.698
  511SOL    HW2 2433   0.353   6.169   1.633
  512SOL     OW 2434   1.981   4.318   6.050
  512SOL    HW1 2435   2.020   4.340   6.140
  512SOL    HW2 2436   1.943   4.226   6.052
  513SOL     OW 2437   0.728   5.527   4.732
  513SOL    HW1 2438   0.748   5.430   4.719
  513SOL    HW2 2439   0.810   5.581   4.711
  514SOL     OW 2440   5.223   2.041   3.669
  514SOL    HW1 2441   5.289   2.116   3.664
  514SOL    HW2 2442   5.196   2.015   3.576
  515SOL     OW 2443   3.001   5.957   6.963
  515SOL    HW1 2444   3.070   5.885   6.954
  515SOL    HW2 2445   2.910   5.916   6.967
  516SOL     OW 2446   2.024   4.873   3.544
  516SOL    HW1 2447   2.043   4.971   3.536
  516SOL    HW2 2448   2.056   4.840   3.633
  517SOL     OW 2449   4.991   0.056   5.841
  517SOL    HW1 2450   5.001   0.130   5.908
  517SOL    HW2 2451   5.006   0.093   5.749
  518SOL     OW 2452   2.135   1.542   6.806
  518SOL    HW1 2453   2.142   1.640   6.784
  518SOL    HW2 2454   2.045   1.522   6.844
  519SOL     OW 2455   0.942   6.618   0.534
  519SOL    HW1 2456   0.907   6.650   0.622
  519SOL    HW2 2457   0.868   6.579   0.480
  520SOL     OW 2458   6.316   4.483   5.217
  520SOL    HW1 2459   6.364   4.404   5.255
  520SOL    HW2 2460   6.357   4.507   5.129
  521SOL     OW 2461   6.490   1.072   0.519
  521SOL    HW1 2462   6.521   0.989   0.474
  521SOL    HW2 2463   6.526   1.152   0.471
  522SOL     OW 2464   3.188   4.293   5.606
  522SOL    HW1 2465   3.118   4.326   5.543
  522SOL    HW2 2466   3.221   4.203   5.576
  523SOL     OW 2467   6.645   7.017   3.349
  523SOL    HW1 2468   6.663   0.014   3.444
  523SOL    HW2 2469   6.717   6.956   3.316
  524SOL     OW 2470   4.100   0.247   4.402
  524SOL    HW1 2471   4.057   0.206   4.483
  524SOL    HW2 2472   4.185   0.198   4.381
  525SOL     OW 2473   3.278   3.083   6.624
  525SOL    HW1 2474   3.302   3.153   6.557
  525SOL    HW2 2475   3.194   3.036   6.595
  526SOL     OW 2476   5.008   0.458   4.259
  526SOL    HW1 2477   4.947   0.461   4.338
  526SOL    HW2 2478   5.060   0.543   4.255
  527SOL     OW 2479   0.724   1.433   6.957
  527SOL    HW1 2480   0.725   1.357   7.021
  527SOL    HW2 2481   0.662   1.504   6.991
  528SOL     OW 2482   1.531   2.013   6.263
  528SOL    HW1 2483   1.505   2.095   6.313
  528SOL    HW2 2484   1.580   2.039   6.179
  529SOL     OW 2485   0.105   4.963   4.952
  529SOL    HW1 2486   0.196   4.921   4.956
  529SOL    HW2 2487   0.115   5.059   4.927
  530SOL     OW 2488   6.821   3.141   5.482
  530SOL    HW1 2489   6.858   3.208   5.418
  530SOL    HW2 2490   6.863   3.052   5.465
  531SOL     OW 2491   0.319   6.642   0.560
  531SOL    HW1 2492   0.227   6.653   0.597
  531SOL    HW2 2493   0.343   6.723   0.506
  532SOL     OW 2494   1.770   1.336   5.851
  532SOL    HW1 2495   1.837   1.323   5.924
  532SOL    HW2 2496   1.790   1.420   5.801
  533SOL     OW 2497   4.823   0.616   5.279
  533SOL    HW1 2498   4.804   0.690   5.343
  533SOL    HW2 2499   4.769   0.536   5.303
  534SOL     OW 2500   2.434   5.527   3.447
  534SOL    HW1 2501   2.492   5.516   3.528
  534SOL    HW2 2502   2.427   5.439   3.399
  535SOL     OW 2503   6.895   3.825   2.211
  535SOL    HW1 2504   6.991   3.810   2.188
  535SOL    HW2 2505   6.838   3.800   2.133
  536SOL     OW 2506   1.827   6.095   1.589
  536SOL    HW1 2507   1.849   6.059   1.680
  536SOL    HW2 2508   1.911   6.125   1.544
  537SOL     OW 2509   2.489   0.415   3.100
  537SOL    HW1 2510   2.461   0.361   3.020
  537SOL    HW2 2511   2.548   0.490   3.070
  538SOL     OW 2512   1.637   5.501   3.789
  538SOL    HW1 2513   1.649   5.406   3.761
  538SOL    HW2 2514   1.555   5.538   3.745
  539SOL     OW 2515   1.732   5.427   0.897
  539SOL    HW1 2516   1.671   5.497   0.861
  539SOL    HW2 2517   1.752   5.446   0.993
  540SOL     OW 2518   2.809   2.502   0.625
  540SOL    HW1 2519   2.829   2.441   0.701
  540SOL    HW2 2520   2.892   2.551   0.599
  541SOL     OW 2521   5.422   5.878   5.055
  541SOL    HW1 2522   5.366   5.898   5.136
  541SOL    HW2 2523   5.500   5.822   5.082
  542SOL     OW 2524   5.845   0.223   6.094
  542SOL    HW1 2525   5.901   0.213   6.011
  542SOL    HW2 2526   5.843   0.137   6.143
  543SOL     OW 2527   6.457   0.288   2.413
  543SOL    HW1 2528   6.384   0.343   2.371
  543SOL    HW2 2529   6.443   0.284   2.512
  544SOL     OW 2530   0.545   5.115   0.897
  544SOL    HW1 2531   0.605   5.098   0.819
  544SOL    HW2 2532   0.595   5.095   0.982
  545SOL     OW 2533   2.504   2.003   3.890
  545SOL    HW1 2534   2.481   2.097   3.917
  545SOL    HW2 2535   2.584   1.973   3.940
  546SOL     OW 2536   1.129   2.266   0.070
  546SOL    HW1 2537   1.046   2.256   0.125
  546SOL    HW2 2538   1.136   2.190   0.006
  547SOL     OW 2539   3.269   1.992   0.387
  547SOL    HW1 2540   3.319   2.067   0.345
  547SOL    HW2 2541   3.232   2.022   0.476
  548SOL     OW 2542   3.036   3.619   5.920
  548SOL    HW1 2543   3.118   3.652   5.966
  548SOL    HW2 2544   3.043   3.640   5.822
  549SOL     OW 2545   6.792   4.793   1.602
  549SOL    HW1 2546   6.768   4.749   1.689
  549SOL    HW2 2547   6.708   4.808   1.549
  550SOL     OW 2548   6.614   4.214   1.136
  550SOL    HW1 2549   6.573   4.265   1.061
  550SOL    HW2 2550   6.634   4.121   1.107
  551SOL     OW 2551   0.732   6.995   0.317
  551SOL    HW1 2552   0.704   7.009   0.222
  551SOL    HW2 2553   0.665   0.010   0.378
  552SOL     OW 2554   4.381   5.487   0.384
  552SOL    HW1 2555   4.327   5.403   0.396
  552SOL    HW2 2556   4.477   5.462   0.368
  553SOL     OW 2557   0.812   2.420   1.475
  553SOL    HW1 2558   0.868   2.396   1.396
  553SOL    HW2 2559   0.857   2.494   1.525
  554SOL     OW 2560   4.877   5.063   5.240
  554SOL    HW1 2561   4.879   4.968   5.273
  554SOL    HW2 2562   4.898   5.125   5.315
  555SOL     OW 2563   1.922   4.117   5.681
  555SOL    HW1 2564   1.866   4.201   5.682
  555SOL    HW2 2565   1.988   4.123   5.607
  556SOL     OW 2566   6.357   3.912   3.320
  556SOL    HW1 2567   6.330   3.863   3.237
  556SOL    HW2 2568   6.280   3.912   3.385
  557SOL     OW 2569   6.360   5.498   5.661
  557SOL    HW1 2570   6.398   5.417   5.616
  557SOL    HW2 2571   6.426   5.572   5.658
  558SOL     OW 2572   3.526   4.041   5.945
  558SOL    HW1 2573   3.444   4.006   5.900
  558SOL    HW2 2574   3.599   3.973   5.940
  559SOL     OW 2575   4.994   4.640   6.121
  559SOL    HW1 2576   4.967   4.618   6.215
  559SOL    HW2 2577   4.924   4.700   6.080
  560SOL     OW 2578   4.904   6.569   0.339
  560SOL    HW1 2579   4.834   6.502   0.314
  560SOL    HW2 2580   4.969   6.527   0.403
  561SOL     OW 2581   4.482   6.864   2.426
  561SOL    HW1 2582   4.382   6.862   2.421
  561SOL    HW2 2583   4.511   6.861   2.522
  562SOL     OW 2584   5.305   0.443   1.298
  562SOL    HW1 2585   5.209   0.450   1.272
  562SOL    HW2 2586   5.337   0.531   1.333
  563SOL     OW 2587   2.971   0.467   5.157
  563SOL    HW1 2588   3.037   0.536   5.187
  563SOL    HW2 2589   2.961   0.473   5.057
  564SOL     OW 2590   0.566   1.634   5.323
  564SOL    HW1 2591   0.485   1.616   5.266
  564SOL    HW2 2592   0.612   1.717   5.291
  565SOL     OW 2593   4.156   3.330   5.532
  565SOL    HW1 2594   4.097   3.287   5.601
  565SOL    HW2 2595   4.101   3.360   5.455
  566SOL     OW 2596   6.723   4.236   2.179
  566SOL    HW1 2597   6.644   4.240   2.117
  566SOL    HW2 2598   6.726   4.320   2.233
  567SOL     OW 2599   3.658   3.797   6.212
  567SOL    HW1 2600   3.648   3.697   6.204
  567SOL    HW2 2601   3.579   3.834   6.260
  568SOL     OW 2602   2.964   1.518   6.052
  568SOL    HW1 2603   2.948   1.420   6.040
  568SOL    HW2 2604   2.919   1.549   6.135
  569SOL     OW 2605   2.247   4.460   7.009
  569SOL    HW1 2606   2.154   4.490   6.989
  569SOL    HW2 2607   2.258   4.448   0.079
  570SOL     OW 2608   0.541   5.150   6.543
  570SOL    HW1 2609   0.527   5.241   6.503
  570SOL    HW2 2610   0.593   5.158   6.628
  571SOL     OW 2611   4.605   6.149   2.608
  571SOL    HW1 2612   4.634   6.057   2.631
  571SOL    HW2 2613   4.670   6.191   2.544
  572SOL     OW 2614   1.846   4.230   4.006
  572SOL    HW1 2615   1.779   4.277   3.950
  572SOL    HW2 2616   1.938   4.260   3.981
  573SOL     OW 2617   4.477   2.329   6.886
  573SOL    HW1 2618   4.439   2.417   6.915
  573SOL    HW2 2619   4.532   2.290   6.960
  574SOL     OW 2620   2.589   2.063   3.378
  574SOL    HW1 2621   2.636   2.000   3.317
  574SOL    HW2 2622   2.491   2.057   3.364
  575SOL     OW 2623   4.261   2.331   5.689
  575SOL    HW1 2624   4.227   2.395   5.758
  575SOL    HW2 2625   4.356   2.308   5.709
  576SOL     OW 2626   0.260   3.509   3.419
  576SOL    HW1 2627   0.200   3.588   3.412
  576SOL    HW2 2628   0.238   3.458   3.502
  577SOL     OW 2629   3.857   1.594   3.338
  577SOL    HW1 2630   3.791   1.597   3.413
  577SOL    HW2 2631   3.809   1.598   3.251
  578SOL     OW 2632   0.268   3.654   4.622
  578SOL    HW1 2633   0.195   3.712   4.586
  578SOL    HW2 2634   0.256   3.642   4.720
  579SOL     OW 2635   3.993   3.767   1.493
  579SOL    HW1 2636   4.052   3.702   1.444
  579SOL    HW2 2637   3.897   3.745   1.474
  580SOL     OW 2638   0.064   0.086   6.989
  580SOL    HW1 2639   0.099   0.180   6.991
  580SOL    HW2 2640   6.995   0.087   6.968
  581SOL     OW 2641   3.774   3.200   4.009
  581SOL    HW1 2642   3.721   3.117   3.995
  581SOL    HW2 2643   3.841   3.210   3.935
  582SOL     OW 2644   0.069   3.524   0.304
  582SOL    HW1 2645   7.026   3.479   0.357
  582SOL    HW2 2646   0.148   3.541   0.362
  583SOL     OW 2647   2.858   0.048   6.879
  583SOL    HW1 2648   2.894   0.085   6.794
  583SOL    HW2 2649   2.934   0.017   6.936
  584SOL     OW 2650   2.107   5.190   4.498
  584SOL    HW1 2651   2.097   5.270   4.557
  584SOL    HW2 2652   2.189   5.201   4.441
  585SOL     OW 2653   5.588   1.778   5.514
  585SOL    HW1 2654   5.495   1.786   5.550
  585SOL    HW2 2655   5.627   1.869   5.502
  586SOL     OW 2656   3.363   4.857   1.110
  586SOL    HW1 2657   3.404   4.797   1.179
  586SOL    HW2 2658   3.359   4.809   1.022
  587SOL     OW 2659   2.655   2.919   6.298
  587SOL    HW1 2660   2.564   2.922   6.258
  587SOL    HW2 2661   2.656   2.970   6.384
  588SOL     OW 2662   2.171   0.414   1.859
  588SOL    HW1 2663   2.262   0.452   1.873
  588SOL    HW2 2664   2.168   0.322   1.898
  589SOL     OW 2665   4.893   5.267   1.901
  589SOL    HW1 2666   4.888   5.267   2.001
  589SOL    HW2 2667   4.803   5.287   1.862
  590SOL     OW 2668   0.610   4.729   1.873
  590SOL    HW1 2669   0.590   4.642   1.828
  590SOL    HW2 2670   0.708   4.735   1.891
  591SOL     OW 2671   2.631   0.647   3.051
  591SOL    HW1 2672   2.635   0.746   3.037
  591SOL    HW2 2673   2.724   0.611   3.055
  592SOL     OW 2674   5.383   0.216   6.529
  592SOL    HW1 2675   5.302   0.183   6.576
  592SOL    HW2 2676   5.368   0.311   6.500
  593SOL     OW 2677   0.261   0.878   4.482
  593SOL    HW1 2678   0.298   0.966   4.513
  593SOL    HW2 2679   0.251   0.817   4.560
  594SOL     OW 2680   4.808   2.504   1.443
  594SOL    HW1 2681   4.886   2.506   1.381
  594SOL    HW2 2682   4.835   2.538   1.533
  595SOL     OW 2683   2.833   6.684   3.917
  595SOL    HW1 2684   2.826   6.587   3.893
  595SOL    HW2 2685   2.909   6.697   3.981
  596SOL     OW 2686   0.726   4.884   2.905
  596SOL    HW1 2687   0.645   4.939   2.885
  596SOL    HW2 2688   0.743   4.886   3.004
  597SOL     OW 2689   4.544   1.922   5.131
  597SOL    HW1 2690   4.459   1.967   5.103
  597SOL    HW2 2691   4.529   1.873   5.217
  598SOL     OW 2692   3.442   3.647   2.005
  598SOL    HW1 2693   3.427   3.615   1.911
  598SOL    HW2 2694   3.380   3.600   2.067
  599SOL     OW 2695   6.200   5.578   3.378
  599SOL    HW1 2696   6.259   5.526   3.439
  599SOL    HW2 2697   6.188   5.528   3.292
  600SOL     OW 2698   3.135   1.743   0.268
  600SOL    HW1 2699   3.192   1.794   0.333
  600SOL    HW2 2700   3.039   1.763   0.287
  601SOL     OW 2701   1.179   4.995   1.572
  601SOL    HW1 2702   1.222   4.945   1.498
  601SOL    HW2 2703   1.083   5.011   1.550
  602SOL     OW 2704   6.975   1.118   2.774
  602SOL    HW1 2705   6.952   1.027   2.739
  602SOL    HW2 2706   6.999   1.178   2.698
  603SOL     OW 2707   4.247   1.835   2.915
  603SOL    HW1 2708   4.318   1.779   2.872
  603SOL    HW2 2709   4.279   1.929   2.924
  604SOL     OW 2710   2.213   2.988   5.756
  604SOL    HW1 2711   2.269   2.908   5.773
  604SOL    HW2 2712   2.121   2.973   5.789
  605SOL     OW 2713   5.152   0.135   4.520
  605SOL    HW1 2714   5.137   0.083   4.436
  605SOL    HW2 2715   5.087   0.211   4.524
  606SOL     OW 2716   2.261   6.831   2.195
  606SOL    HW1 2717   2.322   6.904   2.225
  606SOL    HW2 2718   2.196   6.867   2.128
  607SOL     OW 2719   3.775   6.992   4.476
  607SOL    HW1 2720   3.705   6.990   4.547
  607SOL    HW2 2721   3.734   7.018   4.389
  608SOL     OW 2722   6.425   2.796   0.755
  608SOL    HW1 2723   6.522   2.818   0.765
  608SOL    HW2 2724   6.406   2.708   0.798
  609SOL     OW 2725   3.550   4.201   4.983
  609SOL    HW1 2726   3.470   4.206   4.923
  609SOL    HW2 2727   3.631   4.180   4.928
  610SOL     OW 2728   6.841   2.133   5.331
  610SOL    HW1 2729   6.814   2.165   5.421
  610SOL    HW2 2730   6.782   2.057   5.304
  611SOL     OW 2731   6.827   0.054   0.618
  611SOL    HW1 2732   6.863   0.147   0.623
  611SOL    HW2 2733   6.833   0.021   0.524
  612SOL     OW 2734   1.614   4.215   6.494
  612SOL    HW1 2735   1.696   4.182   6.447
  612SOL    HW2 2736   1.557   4.267   6.430
  613SOL     OW 2737   3.652   1.201   6.588
  613SOL    HW1 2738   3.746   1.179   6.616
  613SOL    HW2 2739   3.607   1.118   6.555
  614SOL     OW 2740   5.147   3.075   0.608
  614SOL    HW1 2741   5.133   3.172   0.588
  614SOL    HW2 2742   5.237   3.047   0.575
  615SOL     OW 2743   5.947   5.260   1.075
  615SOL    HW1 2744   6.012   5.188   1.099
  615SOL    HW2 2745   5.970   5.297   0.985
  616SOL     OW 2746   5.465   1.247   4.641
  616SOL    HW1 2747   5.395   1.275   4.707
  616SOL    HW2 2748   5.554   1.244   4.686
  617SOL     OW 2749   6.341   0.160   4.931
  617SOL    HW1 2750   6.404   0.089   4.897
  617SOL    HW2 2751   6.253   0.119   4.952
  618SOL     OW 2752   5.228   4.352   1.065
  618SOL    HW1 2753   5.168   4.312   0.995
  618SOL    HW2 2754   5.186   4.342   1.155
  619SOL     OW 2755   1.125   0.017   0.292
  619SOL    HW1 2756   1.108   6.947   0.292
  619SOL    HW2 2757   1.084   0.058   0.211
  620SOL     OW 2758   4.255   2.080   1.189
  620SOL    HW1 2759   4.335   2.137   1.172
  620SOL    HW2 2760   4.195   2.126   1.254
  621SOL     OW 2761   1.914   6.764   6.263
  621SOL    HW1 2762   1.822   6.754   6.224
  621SOL    HW2 2763   1.909   6.818   6.347
  622SOL     OW 2764   0.574   2.653   5.789
  622SOL    HW1 2765   0.631   2.702   5.855
  622SOL    HW2 2766   0.490   2.704   5.773
  623SOL     OW 2767   5.941   1.117   2.669
  623SOL    HW1 2768   5.896   1.133   2.756
  623SOL    HW2 2769   5.924   1.022   2.640
  624SOL     OW 2770   6.180   0.492   5.930
  624SOL    HW1 2771   6.150   0.584   5.954
  624SOL    HW2 2772   6.168   0.477   5.831
  625SOL     OW 2773   3.400   0.940   1.173
  625SOL    HW1 2774   3.312   0.977   1.204
  625SOL    HW2 2775   3.474   1.000   1.204
  626SOL     OW 2776   0.087   7.013   3.982
  626SOL    HW1 2777   0.064   6.923   3.947
  626SOL    HW2 2778   0.118   0.043   3.908
  627SOL     OW 2779   6.323   4.177   5.913
  627SOL    HW1 2780   6.230   4.140   5.902
  627SOL    HW2 2781   6.321   4.276   5.898
  628SOL     OW 2782   3.677   4.737   0.111
  628SOL    HW1 2783   3.629   4.824   0.102
  628SOL    HW2 2784   3.614   4.662   0.094
  629SOL     OW 2785   2.204   6.786   0.457
  629SOL    HW1 2786   2.261   6.785   0.375
  629SOL    HW2 2787   2.182   6.881   0.480
  630SOL     OW 2788   6.643   1.946   0.094
  630SOL    HW1 2789   6.600   1.865   0.134
  630SOL    HW2 2790   6.651   2.017   0.164
  631SOL     OW 2791   1.786   4.032   2.115
  631SOL    HW1 2792   1.860   4.073   2.168
  631SOL    HW2 2793   1.825   3.977   2.040
  632SOL     OW 2794   4.025   5.172   1.171
  632SOL    HW1 2795   4.111   5.155   1.122
  632SOL    HW2 2796   4.032   5.136   1.264
  633SOL     OW 2797   1.311   5.819   6.593
  633SOL    HW1 2798   1.226   5.856   6.631
  633SOL    HW2 2799   1.362   5.892   6.547
  634SOL     OW 2800   1.869   3.553   5.639
  634SOL    HW1 2801   1.898   3.637   5.683
  634SOL    HW2 2802   1.943   3.518   5.581
  635SOL     OW 2803   0.374   5.999   6.538
  635SOL    HW1 2804   0.312   6.071   6.508
  635SOL    HW2 2805   0.458   6.040   6.574
  636SOL     OW 2806   1.330   2.095   4.852
  636SOL    HW1 2807   1.377   2.137   4.929
  636SOL    HW2 2808   1.389   2.098   4.771
  637SOL     OW 2809   6.066   1.198   0.948
  637SOL    HW1 2810   6.071   1.252   1.032
  637SOL    HW2 2811   6.125   1.237   0.878
  638SOL     OW 2812   0.082   3.852   5.362
  638SOL    HW1 2813   0.107   3.774   5.305
  638SOL    HW2 2814   0.155   3.868   5.429
  639SOL     OW 2815   6.275   2.989   1.104
  639SOL    HW1 2816   6.283   3.070   1.161
  639SOL    HW2 2817   6.181   2.954   1.109
  640SOL     OW 2818   6.123   4.059   2.591
  640SOL    HW1 2819   6.080   3.992   2.651
  640SOL    HW2 2820   6.091   4.151   2.615
  641SOL     OW 2821   2.716   6.192   4.134
  641SOL    HW1 2822   2.675   6.155   4.051
  641SOL    HW2 2823   2.704   6.127   4.209
  642SOL     OW 2824   0.982   5.539   4.218
  642SOL    HW1 2825   1.057   5.474   4.211
  642SOL    HW2 2826   0.930   5.521   4.302
  643SOL     OW 2827   3.917   4.927   0.115
  643SOL    HW1 2828   3.877   4.837   0.101
  643SOL    HW2 2829   3.858   4.980   0.176
  644SOL     OW 2830   5.771   0.769   4.507
  644SOL    HW1 2831   5.684   0.720   4.499
  644SOL    HW2 2832   5.846   0.710   4.476
  645SOL     OW 2833   3.638   5.710   2.766
  645SOL    HW1 2834   3.676   5.646   2.833
  645SOL    HW2 2835   3.648   5.804   2.800
  646SOL     OW 2836   3.542   0.799   5.431
  646SOL    HW1 2837   3.626   0.849   5.456
  646SOL    HW2 2838   3.519   0.734   5.503
  647SOL     OW 2839   1.531   2.108   6.636
  647SOL    HW1 2840   1.465   2.176   6.605
  647SOL    HW2 2841   1.482   2.024   6.662
  648SOL     OW 2842   5.080   2.585   3.733
  648SOL    HW1 2843   5.131   2.542   3.659
  648SOL    HW2 2844   5.032   2.515   3.786
  649SOL     OW 2845   4.276   6.194   1.459
  649SOL    HW1 2846   4.279   6.147   1.547
  649SOL    HW2 2847   4.366   6.193   1.416
  650SOL     OW 2848   2.381   3.676   1.654
  650SOL    HW1 2849   2.445   3.615   1.700
  650SOL    HW2 2850   2.306   3.699   1.715
  651SOL     OW 2851   0.176   1.893   3.111
  651SOL    HW1 2852   0.249   1.945   3.067
  651SOL    HW2 2853   0.170   1.920   3.208
  652SOL     OW 2854   3.856   6.129   0.615
  652SOL    HW1 2855   3.841   6.035   0.587
  652SOL    HW2 2856   3.854   6.189   0.534
  653SOL     OW 2857   1.464   0.377   3.035
  653SOL    HW1 2858   1.435   0.467   3.003
  653SOL    HW2 2859   1.538   0.387   3.101
  654SOL     OW 2860   1.546   0.215   6.482
  654SOL    HW1 2861   1.449   0.220   6.508
  654SOL    HW2 2862   1.562   0.132   6.428
  655SOL     OW 2863   1.411   4.117   1.760
  655SOL    HW1 2864   1.395   4.110   1.662
  655SOL    HW2 2865   1.467   4.197   1.779
  656SOL     OW 2866   2.146   0.528   0.069
  656SOL    HW1 2867   2.204   0.582   0.008
  656SOL    HW2 2868   2.080   0.588   0.114
  657SOL     OW 2869   3.537   3.181   4.219
  657SOL    HW1 2870   3.490   3.105   4.175
  657SOL    HW2 2871   3.470   3.249   4.249
  658SOL     OW 2872   2.719   0.152   5.076
  658SOL    HW1 2873   2.795   0.128   5.136
  658SOL    HW2 2874   2.635   0.156   5.129
  659SOL     OW 2875   1.756   4.517   6.929
  659SOL    HW1 2876   1.708   4.455   6.867
  659SOL    HW2 2877   1.691   4.558   6.993
  660SOL     OW 2878   5.773   3.235   2.358
  660SOL    HW1 2879   5.679   3.238   2.392
  660SOL    HW2 2880   5.795   3.141   2.329
  661SOL     OW 2881   4.848   5.601   3.952
  661SOL    HW1 2882   4.831   5.637   4.044
  661SOL    HW2 2883   4.917   5.529   3.957
  662SOL     OW 2884   6.973   3.026   0.138
  662SOL    HW1 2885   6.879   3.059   0.142
  662SOL    HW2 2886   6.973   2.927   0.123
  663SOL     OW 2887   1.668   4.415   6.137
  663SOL    HW1 2888   1.581   4.416   6.185
  663SOL    HW2 2889   1.656   4.375   6.046
  664SOL     OW 2890   2.373   0.104   6.021
  664SOL    HW1 2891   2.310   0.034   6.055
  664SOL    HW2 2892   2.353   0.192   6.064
  665SOL     OW 2893   2.397   4.520   3.332
  665SOL    HW1 2894   2.413   4.447   3.399
  665SOL    HW2 2895   2.311   4.566   3.354
  666SOL     OW 2896   3.120   0.528   0.273
  666SOL    HW1 2897   3.095   0.446   0.223
  666SOL    HW2 2898   3.039   0.567   0.316
  667SOL     OW 2899   2.022   3.177   2.736
  667SOL    HW1 2900   2.092   3.107   2.746
  667SOL    HW2 2901   1.932   3.133   2.726
  668SOL     OW 2902   5.280   6.909   0.569
  668SOL    HW1 2903   5.369   6.954   0.563
  668SOL    HW2 2904   5.265   6.853   0.488
  669SOL     OW 2905   6.237   5.900   2.125
  669SOL    HW1 2906   6.331   5.928   2.147
  669SOL    HW2 2907   6.206   5.833   2.192
  670SOL     OW 2908   3.730   3.839   3.413
  670SOL    HW1 2909   3.718   3.903   3.337
  670SOL    HW2 2910   3.641   3.806   3.444
  671SOL     OW 2911   1.228   0.364   6.996
  671SOL    HW1 2912   1.205   0.406   0.055
  671SOL    HW2 2913   1.242   0.435   6.927
  672SOL     OW 2914   0.121   2.743   2.749
  672SOL    HW1 2915   0.030   2.782   2.732
  672SOL    HW2 2916   0.167   2.726   2.662
  673SOL     OW 2917   4.882   0.585   6.236
  673SOL    HW1 2918   4.898   0.608   6.331
  673SOL    HW2 2919   4.799   0.631   6.204
  674SOL     OW 2920   6.986   2.997   3.972
  674SOL    HW1 2921   6.904   3.047   3.944
  674SOL    HW2 2922   0.037   3.056   3.961
  675SOL     OW 2923   5.990   6.937   3.607
  675SOL    HW1 2924   6.034   6.871   3.668
  675SOL    HW2 2925   5.958   6.891   3.525
  676SOL     OW 2926   3.358   4.576   5.926
  676SOL    HW1 2927   3.258   4.579   5.916
  676SOL    HW2 2928   3.384   4.491   5.972
  677SOL     OW 2929   5.108   6.472   0.509
  677SOL    HW1 2930   5.152   6.390   0.473
  677SOL    HW2 2931   5.178   6.532   0.548
  678SOL     OW 2932   1.642   0.410   6.323
  678SOL    HW1 2933   1.646   0.363   6.235
  678SOL    HW2 2934   1.611   0.346   6.394
  679SOL     OW 2935   0.455   0.130   2.782
  679SOL    HW1 2936   0.388   0.108   2.711
  679SOL    HW2 2937   0.420   0.099   2.871
  680SOL     OW 2938   6.187   3.453   3.820
  680SOL    HW1 2939   6.203   3.354   3.821
  680SOL    HW2 2940   6.255   3.497   3.761
  681SOL     OW 2941   0.755   5.319   3.510
  681SOL    HW1 2942   0.761   5.324   3.609
  681SOL    HW2 2943   0.751   5.411   3.471
  682SOL     OW 2944   0.815   6.866   5.211
  682SOL    HW1 2945   0.837   6.925   5.133
  682SOL    HW2 2946   0.884   6.795   5.219
  683SOL     OW 2947   4.969   1.666   2.015
  683SOL    HW1 2948   4.896   1.649   2.081
  683SOL    HW2 2949   5.040   1.597   2.024
  684SOL     OW 2950   6.822   5.344   6.630
  684SOL    HW1 2951   6.787   5.251   6.620
  684SOL    HW2 2952   6.799   5.378   6.721
  685SOL     OW 2953   6.328   0.924   4.789
  685SOL    HW1 2954   6.378   0.905   4.874
  685SOL    HW2 2955   6.237   0.883   4.794
  686SOL     OW 2956   5.497   4.296   0.602
  686SOL    HW1 2957   5.506   4.205   0.643
  686SOL    HW2 2958   5.401   4.322   0.600
  687SOL     OW 2959   5.039   3.153   6.989
  687SOL    HW1 2960   5.136   3.135   6.974
  687SOL    HW2 2961   5.025   3.252   6.999
  688SOL     OW 2962   0.391   2.704   4.892
  688SOL    HW1 2963   0.357   2.643   4.964
  688SOL    HW2 2964   0.487   2.684   4.873
  689SOL     OW 2965   5.464   4.748   4.477
  689SOL    HW1 2966   5.379   4.800   4.481
  689SOL    HW2 2967   5.501   4.737   4.569
  690SOL     OW 2968   0.136   2.516   4.564
  690SOL    HW1 2969   0.053   2.473   4.527
  690SOL    HW2 2970   0.191   2.551   4.488
  691SOL     OW 2971   1.262   2.796   6.596
  691SOL    HW1 2972   1.248   2.755   6.686
  691SOL    HW2 2973   1.356   2.777   6.566
  692SOL     OW 2974   2.712   0.597   4.119
  692SOL    HW1 2975   2.632   0.582   4.061
  692SOL    HW2 2976   2.684   0.649   4.200
  693SOL     OW 2977   5.792   1.658   3.093
  693SOL    HW1 2978   5.735   1.620   3.166
  693SOL    HW2 2979   5.841   1.585   3.046
  694SOL     OW 2980   1.141   0.498   2.395
  694SOL    HW1 2981   1.076   0.567   2.429
  694SOL    HW2 2982   1.220   0.543   2.354
  695SOL     OW 2983   4.385   6.061   6.345
  695SOL    HW1 2984   4.370   5.970   6.385
  695SOL    HW2 2985   4.298   6.109   6.338
  696SOL     OW 2986   5.681   5.975   2.535
  696SOL    HW1 2987   5.591   5.937   2.517
  696SOL    HW2 2988   5.675   6.041   2.610
  697SOL     OW 2989   1.170   4.196   3.110
  697SOL    HW1 2990   1.264   4.163   3.111
  697SOL    HW2 2991   1.118   4.145   3.041
  698SOL     OW 2992   4.742   0.017   3.833
  698SOL    HW1 2993   4.643   0.018   3.846
  698SOL    HW2 2994   4.779   0.108   3.854
  699SOL     OW 2995   2.139   5.836   6.321
  699SOL    HW1 2996   2.110   5.898   6.248
  699SOL    HW2 2997   2.194   5.762   6.282
  700SOL     OW 2998   1.550   2.350   4.820
  700SOL    HW1 2999   1.605   2.433   4.808
  700SOL    HW2 3000   1.537   2.306   4.731
  701SOL     OW 3001   0.874   5.053   6.351
  701SOL    HW1 3002   0.921   4.995   6.285
  701SOL    HW2 3003   0.851   5.140   6.308
  702SOL     OW 3004   5.994   6.168   5.937
  702SOL    HW1 3005   6.049   6.146   5.856
  702SOL    HW2 3006   6.052   6.214   6.004
  703SOL     OW 3007   6.108   4.005   5.871
  703SOL    HW1 3008   6.086   3.908   5.880
  703SOL    HW2 3009   6.033   4.053   5.826
  704SOL     OW 3010   2.196   0.144   1.989
  704SOL    HW1 3011   2.100   0.119   1.972
  704SOL    HW2 3012   2.205   0.176   2.083
  705SOL     OW 3013   1.280   2.110   4.383
  705SOL    HW1 3014   1.275   2.048   4.305
  705SOL    HW2 3015   1.223   2.074   4.457
  706SOL     OW 3016   6.123   3.538   3.112
  706SOL    HW1 3017   6.044   3.595   3.136
  706SOL    HW2 3018   6.141   3.474   3.186
  707SOL     OW 3019   4.834   3.102   2.952
  707SOL    HW1 3020   4.839   3.137   2.858
  707SOL    HW2 3021   4.867   3.173   3.015
  708SOL     OW 3022   5.547   1.038   1.740
  708SOL    HW1 3023   5.543   1.047   1.640
  708SOL    HW2 3024   5.556   1.129   1.781
  709SOL     OW 3025   1.406   3.335   6.534
  709SOL    HW1 3026   1.411   3.368   6.440
  709SOL    HW2 3027   1.316   3.294   6.549
  710SOL     OW 3028   3.233   3.719   4.065
  710SOL    HW1 3029   3.225   3.722   4.165
  710SOL    HW2 3030   3.166   3.782   4.025
  711SOL     OW 3031   1.675   1.203   3.812
  711SOL    HW1 3032   1.636   1.188   3.902
  711SOL    HW2 3033   1.617   1.266   3.761
  712SOL     OW 3034   0.190   4.898   4.005
  712SOL    HW1 3035   0.140   4.965   3.949
  712SOL    HW2 3036   0.209   4.937   4.095
  713SOL     OW 3037   2.121   4.024   5.902
  713SOL    HW1 3038   2.048   4.073   5.854
  713SOL    HW2 3039   2.123   4.054   5.997
  714SOL     OW 3040   4.978   4.897   4.522
  714SOL    HW1 3041   5.024   4.879   4.435
  714SOL    HW2 3042   4.880   4.903   4.506
  715SOL     OW 3043   6.697   0.370   5.628
  715SOL    HW1 3044   6.761   0.446   5.636
  715SOL    HW2 3045   6.740   0.286   5.663
  716SOL     OW 3046   6.275   5.765   0.293
  716SOL    HW1 3047   6.194   5.816   0.323
  716SOL    HW2 3048   6.245   5.686   0.239
  717SOL     OW 3049   5.817   2.946   5.696
  717SOL    HW1 3050   5.888   2.979   5.758
  717SOL    HW2 3051   5.773   3.024   5.651
  718SOL     OW 3052   3.626   3.357   1.338
  718SOL    HW1 3053   3.591   3.410   1.260
  718SOL    HW2 3054   3.655   3.267   1.306
  719SOL     OW 3055   0.054   4.285   0.352
  719SOL    HW1 3056   7.005   4.332   0.393
  719SOL    HW2 3057   0.085   4.335   0.271
  720SOL     OW 3058   4.258   0.799   5.756
  720SOL    HW1 3059   4.271   0.775   5.852
  720SOL    HW2 3060   4.275   0.719   5.699
  721SOL     OW 3061   2.205   0.472   5.036
  721SOL    HW1 3062   2.108   0.464   5.015
  721SOL    HW2 3063   2.253   0.512   4.957
  722SOL     OW 3064   4.625   1.745   5.388
  722SOL    HW1 3065   4.613   1.797   5.473
  722SOL    HW2 3066   4.570   1.662   5.392
  723SOL     OW 3067   0.237   3.710   1.656
  723SOL    HW1 3068   0.337   3.710   1.647
  723SOL    HW2 3069   0.211   3.753   1.743
  724SOL     OW 3070   0.496   2.693   4.512
  724SOL    HW1 3071   0.443   2.774   4.487
  724SOL    HW2 3072   0.442   2.610   4.493
  725SOL     OW 3073   2.596   5.262   2.264
  725SOL    HW1 3074   2.669   5.286   2.200
  725SOL    HW2 3075   2.578   5.339   2.326
  726SOL     OW 3076   5.590   5.681   0.337
  726SOL    HW1 3077   5.588   5.777   0.362
  726SOL    HW2 3078   5.497   5.646   0.330
  727SOL     OW 3079   1.326   4.952   4.344
  727SOL    HW1 3080   1.349   5.025   4.408
  727SOL    HW2 3081   1.396   4.948   4.272
  728SOL     OW 3082   6.265   2.131   6.225
  728SOL    HW1 3083   6.338   2.063   6.215
  728SOL    HW2 3084   6.254   2.154   6.322
  729SOL     OW 3085   4.243   1.221   0.511
  729SOL    HW1 3086   4.297   1.182   0.585
  729SOL    HW2 3087   4.292   1.210   0.425
  730SOL     OW 3088   6.200   1.233   3.375
  730SOL    HW1 3089   6.251   1.231   3.289
  730SOL    HW2 3090   6.253   1.188   3.447
  731SOL     OW 3091   0.142   1.981   3.714
  731SOL    HW1 3092   0.044   1.969   3.726
  731SOL    HW2 3093   0.191   1.938   3.790
  732SOL     OW 3094   0.374   4.291   3.975
  732SOL    HW1 3095   0.375   4.207   3.921
  732SOL    HW2 3096   0.341   4.367   3.918
  733SOL     OW 3097   5.553   4.351   4.706
  733SOL    HW1 3098   5.500   4.301   4.637
  733SOL    HW2 3099   5.502   4.353   4.792
  734SOL     OW 3100   0.844   0.336   0.345
  734SOL    HW1 3101   0.758   0.303   0.307
  734SOL    HW2 3102   0.889   0.262   0.395
  735SOL     OW 3103   3.333   4.536   0.186
  735SOL    HW1 3104   3.246   4.550   0.139
  735SOL    HW2 3105   3.349   4.610   0.251
  736SOL     OW 3106   5.243   1.486   1.876
  736SOL    HW1 3107   5.302   1.508   1.954
  736SOL    HW2 3108   5.256   1.554   1.804
  737SOL     OW 3109   5.264   3.977   0.136
  737SOL    HW1 3110   5.211   3.992   0.053
  737SOL    HW2 3111   5.204   3.948   0.210
  738SOL     OW 3112   0.012   3.593   4.132
  738SOL    HW1 3113   0.098   3.549   4.105
  738SOL    HW2 3114   0.025   3.692   4.139
  739SOL     OW 3115   4.706   5.768   6.159
  739SOL    HW1 3116   4.681   5.787   6.253
  739SOL    HW2 3117   4.805   5.755   6.152
  740SOL     OW 3118   5.884   6.872   0.571
  740SOL    HW1 3119   5.844   6.888   0.481
  740SOL    HW2 3120   5.877   6.955   0.627
  741SOL     OW 3121   1.252   0.783   3.930
  741SOL    HW1 3122   1.247   0.766   4.028
  741SOL    HW2 3123   1.266   0.880   3.913
  742SOL     OW 3124   1.270   6.183   2.442
  742SOL    HW1 3125   1.174   6.199   2.468
  742SOL    HW2 3126   1.330   6.219   2.513
  743SOL     OW 3127   1.361   3.216   2.181
  743SOL    HW1 3128   1.361   3.141   2.115
  743SOL    HW2 3129   1.275   3.267   2.174
  744SOL     OW 3130   6.598   4.900   1.162
  744SOL    HW1 3131   6.598   4.848   1.076
  744SOL    HW2 3132   6.642   4.989   1.147
  745SOL     OW 3133   1.143   6.458   1.564
  745SOL    HW1 3134   1.177   6.396   1.636
  745SOL    HW2 3135   1.221   6.504   1.521
  746SOL     OW 3136   2.940   0.085   3.458
  746SOL    HW1 3137   2.976   7.021   3.470
  746SOL    HW2 3138   2.849   0.081   3.417
  747SOL     OW 3139   0.367   3.903   0.571
  747SOL    HW1 3140   0.332   3.996   0.560
  747SOL    HW2 3141   0.434   3.901   0.646
  748SOL     OW 3142   3.906   3.716   4.168
  748SOL    HW1 3143   3.907   3.675   4.077
  748SOL    HW2 3144   3.898   3.815   4.160
  749SOL     OW 3145   4.413   3.200   5.415
  749SOL    HW1 3146   4.365   3.286   5.432
  749SOL    HW2 3147   4.501   3.219   5.372
  750SOL     OW 3148   3.029   3.124   2.084
  750SOL    HW1 3149   2.973   3.201   2.115
  750SOL    HW2 3150   3.059   3.070   2.163
  751SOL     OW 3151   5.355   1.173   0.581
  751SOL    HW1 3152   5.420   1.097   0.588
  751SOL    HW2 3153   5.387   1.249   0.638
  752SOL     OW 3154   4.328   0.541   2.367
  752SOL    HW1 3155   4.330   0.458   2.313
  752SOL    HW2 3156   4.266   0.607   2.325
  753SOL     OW 3157   3.206   1.736   1.790
  753SOL    HW1 3158   3.277   1.702   1.851
  753SOL    HW2 3159   3.120   1.689   1.808
  754SOL     OW 3160   5.139   5.188   0.009
  754SOL    HW1 3161   5.142   5.288   7.024
  754SOL    HW2 3162   5.231   5.154   0.026
  755SOL     OW 3163   5.626   4.978   2.530
  755SOL    HW1 3164   5.564   5.027   2.469
  755SOL    HW2 3165   5.720   4.987   2.496
  756SOL     OW 3166   2.767   6.314   4.852
  756SOL    HW1 3167   2.743   6.219   4.876
  756SOL    HW2 3168   2.717   6.377   4.911
  757SOL     OW 3169   0.126   1.080   4.123
  757SOL    HW1 3170   0.053   1.130   4.077
  757SOL    HW2 3171   0.089   0.996   4.164
  758SOL     OW 3172   4.223   1.625   0.504
  758SOL    HW1 3173   4.171   1.562   0.561
  758SOL    HW2 3174   4.209   1.603   0.408
  759SOL     OW 3175   2.314   0.464   1.260
  759SOL    HW1 3176   2.219   0.460   1.232
  759SOL    HW2 3177   2.364   0.385   1.224
  760SOL     OW 3178   5.037   1.184   5.638
  760SOL    HW1 3179   4.937   1.189   5.635
  760SOL    HW2 3180   5.073   1.201   5.546
  761SOL     OW 3181   4.979   0.947   6.621
  761SOL    HW1 3182   4.993   0.948   6.720
  761SOL    HW2 3183   5.032   1.022   6.580
  762SOL     OW 3184   2.481   4.518   4.868
  762SOL    HW1 3185   2.548   4.509   4.942
  762SOL    HW2 3186   2.417   4.441   4.873
  763SOL     OW 3187   0.697   4.451   1.228
  763SOL    HW1 3188   0.749   4.502   1.297
  763SOL    HW2 3189   0.623   4.507   1.193
  764SOL     OW 3190   5.929   1.274   2.318
  764SOL    HW1 3191   5.992   1.262   2.394
  764SOL    HW2 3192   5.974   1.249   2.232
  765SOL     OW 3193   0.950   6.160   2.711
  765SOL    HW1 3194   0.907   6.239   2.754
  765SOL    HW2 3195   0.947   6.170   2.611
  766SOL     OW 3196   0.518   6.044   0.258
  766SOL    HW1 3197   0.462   5.977   0.209
  766SOL    HW2 3198   0.477   6.135   0.248
  767SOL     OW 3199   5.630   6.447   1.753
  767SOL    HW1 3200   5.627   6.389   1.834
  767SOL    HW2 3201   5.580   6.532   1.771
  768SOL     OW 3202   2.639   6.089   4.948
  768SOL    HW1 3203   2.598   6.006   4.909
  768SOL    HW2 3204   2.647   6.078   5.047
  769SOL     OW 3205   3.260   0.603   0.555
  769SOL    HW1 3206   3.254   0.505   0.537
  769SOL    HW2 3207   3.176   0.634   0.600
  770SOL     OW 3208   4.202   4.756   5.376
  770SOL    HW1 3209   4.118   4.809   5.363
  770SOL    HW2 3210   4.242   4.778   5.465
  771SOL     OW 3211   0.223   6.917   4.695
  771SOL    HW1 3212   0.139   6.965   4.667
  771SOL    HW2 3213   0.267   6.878   4.614
  772SOL     OW 3214   0.761   3.203   6.628
  772SOL    HW1 3215   0.775   3.118   6.679
  772SOL    HW2 3216   0.765   3.281   6.692
  773SOL     OW 3217   0.087   3.394   1.947
  773SOL    HW1 3218   0.175   3.414   1.903
  773SOL    HW2 3219   0.099   3.386   2.045
  774SOL     OW 3220   1.314   1.526   1.848
  774SOL    HW1 3221   1.232   1.505   1.900
  774SOL    HW2 3222   1.301   1.500   1.752
  775SOL     OW 3223   1.814   2.540   4.231
  775SOL    HW1 3224   1.881   2.560   4.302
  775SOL    HW2 3225   1.731   2.503   4.272
  776SOL     OW 3226   2.487   1.395   5.348
  776SOL    HW1 3227   2.459   1.489   5.367
  776SOL    HW2 3228   2.582   1.382   5.377
  777SOL     OW 3229   4.572   0.458   6.754
  777SOL    HW1 3230   4.661   0.488   6.789
  777SOL    HW2 3231   4.585   0.407   6.669
  778SOL     OW 3232   5.038   6.008   5.127
  778SOL    HW1 3233   5.089   5.986   5.211
  778SOL    HW2 3234   5.086   6.081   5.078
  779SOL     OW 3235   0.931   7.008   2.472
  779SOL    HW1 3236   0.926   0.004   2.569
  779SOL    HW2 3237   0.874   0.042   2.419
  780SOL     OW 3238   5.862   2.462   5.471
  780SOL    HW1 3239   5.771   2.425   5.454
  780SOL    HW2 3240   5.861   2.514   5.556
  781SOL     OW 3241   1.199   3.882   0.401
  781SOL    HW1 3242   1.165   3.793   0.435
  781SOL    HW2 3243   1.298   3.887   0.416
  782SOL     OW 3244   0.164   5.024   0.507
  782SOL    HW1 3245   0.263   5.013   0.493
  782SOL    HW2 3246   0.141   5.000   0.601
  783SOL     OW 3247   1.268   5.591   0.672
  783SOL    HW1 3248   1.243   5.547   0.758
  783SOL    HW2 3249   1.256   5.690   0.681
  784SOL     OW 3250   5.238   5.465   3.073
  784SOL    HW1 3251   5.261   5.556   3.038
  784SOL    HW2 3252   5.321   5.418   3.102
  785SOL     OW 3253   6.610   2.829   3.115
  785SOL    HW1 3254   6.663   2.827   3.030
  785SOL    HW2 3255   6.574   2.737   3.134
  786SOL     OW 3256   5.865   6.979   1.339
  786SOL    HW1 3257   5.876   6.951   1.434
  786SOL    HW2 3258   5.922   6.922   1.280
  787SOL     OW 3259   4.940   1.324   5.266
  787SOL    HW1 3260   4.873   1.327   5.191
  787SOL    HW2 3261   4.984   1.413   5.275
  788SOL     OW 3262   6.521   4.927   3.058
  788SOL    HW1 3263   6.554   4.892   3.146
  788SOL    HW2 3264   6.556   4.871   2.984
  789SOL     OW 3265   5.957   2.725   0.217
  789SOL    HW1 3266   6.048   2.765   0.231
  789SOL    HW2 3267   5.965   2.625   0.211
  790SOL     OW 3268   2.771   0.998   4.388
  790SOL    HW1 3269   2.703   0.997   4.461
  790SOL    HW2 3270   2.809   0.905   4.377
  791SOL     OW 3271   3.339   1.120   3.699
  791SOL    HW1 3272   3.406   1.190   3.676
  791SOL    HW2 3273   3.386   1.037   3.728
  792SOL     OW 3274   4.936   0.747   3.753
  792SOL    HW1 3275   5.029   0.753   3.715
  792SOL    HW2 3276   4.882   0.682   3.699
  793SOL     OW 3277   0.670   6.545   6.473
  793SOL    HW1 3278   0.672   6.509   6.566
  793SOL    HW2 3279   0.576   6.547   6.440
  794SOL     OW 3280   3.499   5.231   5.138
  794SOL    HW1 3281   3.458   5.308   5.188
  794SOL    HW2 3282   3.479   5.146   5.187
  795SOL     OW 3283   4.976   5.512   0.178
  795SOL    HW1 3284   4.923   5.479   0.100
  795SOL    HW2 3285   4.996   5.435   0.239
  796SOL     OW 3286   1.501   1.764   6.348
  796SOL    HW1 3287   1.517   1.856   6.312
  796SOL    HW2 3288   1.584   1.709   6.339
  797SOL     OW 3289   6.121   3.195   5.604
  797SOL    HW1 3290   6.182   3.246   5.665
  797SOL    HW2 3291   6.057   3.141   5.659
  798SOL     OW 3292   5.992   0.324   4.162
  798SOL    HW1 3293   5.948   0.411   4.140
  798SOL    HW2 3294   5.962   0.254   4.097
  799SOL     OW 3295   6.710   4.334   4.034
  799SOL    HW1 3296   6.756   4.372   3.954
  799SOL    HW2 3297   6.623   4.383   4.049
  800SOL     OW 3298   0.393   2.398   2.213
  800SOL    HW1 3299   0.315   2.373   2.156
  800SOL    HW2 3300   0.360   2.425   2.304
  801SOL     OW 3301   0.074   3.721   3.565
  801SOL    HW1 3302   0.028   3.741   3.479
  801SOL    HW2 3303   0.086   3.806   3.617
  802SOL     OW 3304   6.919   0.569   0.787
  802SOL    HW1 3305   6.963   0.579   0.698
  802SOL    HW2 3306   6.910   0.659   0.831
  803SOL     OW 3307   2.437   6.210   4.492
  803SOL    HW1 3308   2.473   6.196   4.584
  803SOL    HW2 3309   2.347   6.254   4.498
  804SOL     OW 3310   5.757   5.720   0.844
  804SOL    HW1 3311   5.854   5.706   0.826
  804SOL    HW2 3312   5.711   5.631   0.850
  805SOL     OW 3313   2.483   2.304   6.380
  805SOL    HW1 3314   2.519   2.328   6.470
  805SOL    HW2 3315   2.383   2.312   6.380
  806SOL     OW 3316   4.018   6.410   0.154
  806SOL    HW1 3317   3.956   6.335   0.177
  806SOL    HW2 3318   3.994   6.491   0.207
  807SOL     OW 3319   6.650   1.090   3.126
  807SOL    HW1 3320   6.635   1.165   3.061
  807SOL    HW2 3321   6.570   1.030   3.126
  808SOL     OW 3322   5.849   3.805   5.233
  808SOL    HW1 3323   5.756   3.820   5.265
  808SOL    HW2 3324   5.897   3.746   5.299
  809SOL     OW 3325   7.017   6.072   5.565
  809SOL    HW1 3326   6.961   6.006   5.514
  809SOL    HW2 3327   0.054   6.023   5.622
  810SOL     OW 3328   5.426   4.827   6.085
  810SOL    HW1 3329   5.392   4.738   6.053
  810SOL    HW2 3330   5.525   4.830   6.078
  811SOL     OW 3331   2.884   4.748   2.526
  811SOL    HW1 3332   2.912   4.693   2.447
  811SOL    HW2 3333   2.945   4.827   2.533
  812SOL     OW 3334   7.019   0.298   2.975
  812SOL    HW1 3335   6.999   0.287   2.877
  812SOL    HW2 3336   0.048   0.379   2.988
  813SOL     OW 3337   4.970   4.522   1.880
  813SOL    HW1 3338   4.903   4.454   1.851
  813SOL    HW2 3339   4.923   4.596   1.929
  814SOL     OW 3340   4.995   5.039   1.585
  814SOL    HW1 3341   5.004   5.074   1.492
  814SOL    HW2 3342   5.010   4.940   1.584
  815SOL     OW 3343   0.740   1.158   1.304
  815SOL    HW1 3344   0.800   1.237   1.288
  815SOL    HW2 3345   0.792   1.086   1.350
  816SOL     OW 3346   6.516   0.743   0.795
  816SOL    HW1 3347   6.593   0.774   0.740
  816SOL    HW2 3348   6.430   0.769   0.750
  817SOL     OW 3349   0.181   1.940   2.644
  817SOL    HW1 3350   0.211   1.881   2.719
  817SOL    HW2 3351   0.262   1.975   2.596
  818SOL     OW 3352   5.667   2.010   3.356
  818SOL    HW1 3353   5.728   1.955   3.298
  818SOL    HW2 3354   5.590   2.044   3.302
  819SOL     OW 3355   0.557   5.106   2.879
  819SOL    HW1 3356   0.572   5.094   2.977
  819SOL    HW2 3357   0.500   5.186   2.864
  820SOL     OW 3358   2.559   3.314   6.098
  820SOL    HW1 3359   2.616   3.371   6.037
  820SOL    HW2 3360   2.497   3.259   6.043
  821SOL     OW 3361   1.375   4.124   0.487
  821SOL    HW1 3362   1.436   4.193   0.526
  821SOL    HW2 3363   1.315   4.167   0.420
  822SOL     OW 3364   0.679   3.064   5.858
  822SOL    HW1 3365   0.596   3.118   5.850
  822SOL    HW2 3366   0.708   3.034   5.767
  823SOL     OW 3367   4.788   4.177   1.520
  823SOL    HW1 3368   4.718   4.137   1.580
  823SOL    HW2 3369   4.765   4.272   1.501
  824SOL     OW 3370   6.161   4.119   6.822
  824SOL    HW1 3371   6.225   4.053   6.861
  824SOL    HW2 3372   6.196   4.152   6.734
  825SOL     OW 3373   2.256   2.946   1.855
  825SOL    HW1 3374   2.290   3.033   1.822
  825SOL    HW2 3375   2.324   2.874   1.837
  826SOL     OW 3376   1.213   1.450   6.771
  826SOL    HW1 3377   1.230   1.549   6.769
  826SOL    HW2 3378   1.175   1.425   6.860
  827SOL     OW 3379   4.108   4.352   1.058
  827SOL    HW1 3380   4.173   4.428   1.049
  827SOL    HW2 3381   4.042   4.355   0.983
  828SOL     OW 3382   5.837   1.660   5.506
  828SOL    HW1 3383   5.745   1.669   5.545
  828SOL    HW2 3384   5.835   1.600   5.426
  829SOL     OW 3385   4.417   4.422   5.936
  829SOL    HW1 3386   4.435   4.326   5.954
  829SOL    HW2 3387   4.320   4.442   5.951
  830SOL     OW 3388   4.061   3.603   6.519
  830SOL    HW1 3389   4.152   3.562   6.509
  830SOL    HW2 3390   4.029   3.634   6.429
  831SOL     OW 3391   5.354   1.977   5.752
  831SOL    HW1 3392   5.379   2.027   5.669
  831SOL    HW2 3393   5.254   1.978   5.762
  832SOL     OW 3394   3.300   1.248   5.501
  832SOL    HW1 3395   3.302   1.333   5.552
  832SOL    HW2 3396   3.363   1.253   5.424
  833SOL     OW 3397   1.085   0.795   5.164
  833SOL    HW1 3398   0.989   0.776   5.143
  833SOL    HW2 3399   1.133   0.708   5.178
  834SOL     OW 3400   2.700   4.617   5.826
  834SOL    HW1 3401   2.762   4.667   5.765
  834SOL    HW2 3402   2.651   4.683   5.883
  835SOL     OW 3403   3.901   1.606   2.849
  835SOL    HW1 3404   3.985   1.559   2.875
  835SOL    HW2 3405   3.884   1.593   2.751
  836SOL     OW 3406   1.913   1.132   5.707
  836SOL    HW1 3407   2.012   1.140   5.720
  836SOL    HW2 3408   1.866   1.194   5.771
  837SOL     OW 3409   3.859   1.504   4.276
  837SOL    HW1 3410   3.929   1.569   4.305
  837SOL    HW2 3411   3.902   1.418   4.250
  838SOL     OW 3412   0.496   6.239   2.252
  838SOL    HW1 3413   0.439   6.190   2.186
  838SOL    HW2 3414   0.467   6.335   2.256
  839SOL     OW 3415   1.979   1.904   2.057
  839SOL    HW1 3416   2.042   1.915   2.134
  839SOL    HW2 3417   2.031   1.881   1.974
  840SOL     OW 3418   2.028   0.629   4.787
  840SOL    HW1 3419   2.068   0.703   4.733
  840SOL    HW2 3420   2.025   0.656   4.883
  841SOL     OW 3421   6.756   3.040   0.487
  841SOL    HW1 3422   6.801   3.078   0.567
  841SOL    HW2 3423   6.741   3.112   0.419
  842SOL     OW 3424   4.001   5.146   4.185
  842SOL    HW1 3425   4.089   5.106   4.161
  842SOL    HW2 3426   4.000   5.167   4.283
  843SOL     OW 3427   6.902   2.835   0.923
  843SOL    HW1 3428   6.916   2.816   1.020
  843SOL    HW2 3429   6.867   2.752   0.878
  844SOL     OW 3430   5.679   4.381   6.221
  844SOL    HW1 3431   5.678   4.387   6.320
  844SOL    HW2 3432   5.585   4.379   6.186
  845SOL     OW 3433   2.182   4.987   5.709
  845SOL    HW1 3434   2.179   4.974   5.808
  845SOL    HW2 3435   2.124   4.918   5.665
  846SOL     OW 3436   5.047   2.132   6.921
  846SOL    HW1 3437   5.121   2.197   6.940
  846SOL    HW2 3438   4.960   2.172   6.951
  847SOL     OW 3439   4.995   3.657   1.645
  847SOL    HW1 3440   5.038   3.747   1.640
  847SOL    HW2 3441   5.050   3.592   1.592
  848SOL     OW 3442   5.987   6.726   5.565
  848SOL    HW1 3443   6.008   6.822   5.549
  848SOL    HW2 3444   6.032   6.670   5.496
  849SOL     OW 3445   0.925   0.042   3.477
  849SOL    HW1 3446   0.913   0.011   3.383
  849SOL    HW2 3447   1.021   0.067   3.492
  850SOL     OW 3448   3.117   0.952   3.077
  850SOL    HW1 3449   3.031   1.002   3.064
  850SOL    HW2 3450   3.157   0.978   3.165
  851SOL     OW 3451   6.539   1.617   6.114
  851SOL    HW1 3452   6.455   1.562   6.118
  851SOL    HW2 3453   6.607   1.578   6.176
  852SOL     OW 3454   3.636   5.085   4.494
  852SOL    HW1 3455   3.701   5.129   4.433
  852SOL    HW2 3456   3.682   5.059   4.579
  853SOL     OW 3457   1.221   3.915   0.986
  853SOL    HW1 3458   1.136   3.876   1.022
  853SOL    HW2 3459   1.228   3.895   0.888
  854SOL     OW 3460   6.670   4.444   1.288
  854SOL    HW1 3461   6.739   4.435   1.359
  854SOL    HW2 3462   6.665   4.359   1.235
  855SOL     OW 3463   4.894   0.210   0.519
  855SOL    HW1 3464   4.901   0.187   0.422
  855SOL    HW2 3465   4.822   0.155   0.561
  856SOL     OW 3466   1.883   1.151   5.427
  856SOL    HW1 3467   1.788   1.124   5.417
  856SOL    HW2 3468   1.905   1.161   5.525
  857SOL     OW 3469   6.832   4.962   2.404
  857SOL    HW1 3470   6.817   4.956   2.503
  857SOL    HW2 3471   6.765   5.025   2.364
  858SOL     OW 3472   3.800   3.408   2.019
  858SOL    HW1 3473   3.845   3.438   2.103
  858SOL    HW2 3474   3.824   3.313   2.000
  859SOL     OW 3475   6.244   3.819   1.512
  859SOL    HW1 3476   6.209   3.726   1.502
  859SOL    HW2 3477   6.343   3.819   1.501
  860SOL     OW 3478   1.851   4.057   6.045
  860SOL    HW1 3479   1.868   3.960   6.062
  860SOL    HW2 3480   1.769   4.067   5.989
  861SOL     OW 3481   4.496   4.899   6.686
  861SOL    HW1 3482   4.516   4.817   6.739
  861SOL    HW2 3483   4.456   4.873   6.599
  862SOL     OW 3484   4.173   4.768   3.629
  862SOL    HW1 3485   4.220   4.705   3.567
  862SOL    HW2 3486   4.241   4.819   3.682
  863SOL     OW 3487   6.722   3.060   1.173
  863SOL    HW1 3488   6.724   3.160   1.162
  863SOL    HW2 3489   6.734   3.017   1.083
  864SOL     OW 3490   1.466   6.585   1.536
  864SOL    HW1 3491   1.418   6.650   1.478
  864SOL    HW2 3492   1.475   6.623   1.629
  865SOL     OW 3493   0.788   1.253   3.662
  865SOL    HW1 3494   0.695   1.216   3.666
  865SOL    HW2 3495   0.840   1.222   3.742
  866SOL     OW 3496   3.878   0.775   1.950
  866SOL    HW1 3497   3.971   0.741   1.968
  866SOL    HW2 3498   3.844   0.823   2.032
  867SOL     OW 3499   3.379   1.557   6.426
  867SOL    HW1 3500   3.370   1.478   6.487
  867SOL    HW2 3501   3.321   1.632   6.458
  868SOL     OW 3502   4.842   2.146   3.691
  868SOL    HW1 3503   4.914   2.120   3.626
  868SOL    HW2 3504   4.771   2.198   3.643
  869SOL     OW 3505   6.301   3.285   0.884
  869SOL    HW1 3506   6.364   3.212   0.911
  869SOL    HW2 3507   6.316   3.366   0.941
  870SOL     OW 3508   6.153   1.671   0.653
  870SOL    HW1 3509   6.141   1.593   0.592
  870SOL    HW2 3510   6.236   1.721   0.627
  871SOL     OW 3511   0.279   4.263   0.952
  871SOL    HW1 3512   0.299   4.317   0.870
  871SOL    HW2 3513   0.203   4.306   1.001
  872SOL     OW 3514   6.036   1.703   1.736
  872SOL    HW1 3515   6.013   1.796   1.706
  872SOL    HW2 3516   6.013   1.692   1.833
  873SOL     OW 3517   4.102   0.028   3.802
  873SOL    HW1 3518   4.108   6.971   3.750
  873SOL    HW2 3519   4.079   0.008   3.897
  874SOL     OW 3520   1.196   3.438   6.110
  874SOL    HW1 3521   1.107   3.482   6.120
  874SOL    HW2 3522   1.197   3.353   6.163
  875SOL     OW 3523   6.393   5.915   6.911
  875SOL    HW1 3524   6.405   5.980   6.836
  875SOL    HW2 3525   6.375   5.965   6.996
  876SOL     OW 3526   2.608   2.401   2.083
  876SOL    HW1 3527   2.699   2.368   2.056
  876SOL    HW2 3528   2.611   2.501   2.094
  877SOL     OW 3529   6.121   5.623   5.973
  877SOL    HW1 3530   6.174   5.561   5.915
  877SOL    HW2 3531   6.096   5.576   6.058
  878SOL     OW 3532   4.240   3.116   1.530
  878SOL    HW1 3533   4.164   3.063   1.568
  878SOL    HW2 3534   4.310   3.129   1.600
  879SOL     OW 3535   5.253   3.203   3.173
  879SOL    HW1 3536   5.183   3.206   3.102
  879SOL    HW2 3537   5.342   3.185   3.131
  880SOL     OW 3538   3.872   6.993   1.045
  880SOL    HW1 3539   3.851   6.899   1.070
  880SOL    HW2 3540   3.967   7.014   1.070
  881SOL     OW 3541   4.776   5.730   3.396
  881SOL    HW1 3542   4.747   5.797   3.465
  881SOL    HW2 3543   4.746   5.760   3.305
  882SOL     OW 3544   1.254   2.310   5.261
  882SOL    HW1 3545   1.191   2.335   5.188
  882SOL    HW2 3546   1.225   2.353   5.346
  883SOL     OW 3547   2.818   5.298   0.055
  883SOL    HW1 3548   2.808   5.219   0.116
  883SOL    HW2 3549   2.893   5.356   0.088
  884SOL     OW 3550   4.442   4.180   1.419
  884SOL    HW1 3551   4.380   4.150   1.491
  884SOL    HW2 3552   4.515   4.113   1.408
  885SOL     OW 3553   4.074   5.715   6.682
  885SOL    HW1 3554   4.064   5.736   6.585
  885SOL    HW2 3555   4.029   5.787   6.736
  886SOL     OW 3556   3.898   2.772   6.524
  886SOL    HW1 3557   3.909   2.743   6.619
  886SOL    HW2 3558   3.801   2.794   6.508
  887SOL     OW 3559   6.365   6.514   4.879
  887SOL    HW1 3560   6.302   6.529   4.803
  887SOL    HW2 3561   6.319   6.536   4.965
  888SOL     OW 3562   6.454   1.370   3.817
  888SOL    HW1 3563   6.362   1.408   3.815
  888SOL    HW2 3564   6.513   1.420   3.754
  889SOL     OW 3565   0.764   0.216   4.791
  889SOL    HW1 3566   0.838   0.260   4.740
  889SOL    HW2 3567   0.682   0.274   4.789
  890SOL     OW 3568   2.766   3.230   0.652
  890SOL    HW1 3569   2.675   3.243   0.692
  890SOL    HW2 3570   2.831   3.208   0.725
  891SOL     OW 3571   6.627   3.274   5.643
  891SOL    HW1 3572   6.673   3.202   5.591
  891SOL    HW2 3573   6.676   3.290   5.729
  892SOL     OW 3574   2.445   4.397   2.177
  892SOL    HW1 3575   2.454   4.423   2.273
  892SOL    HW2 3576   2.484   4.468   2.119
  893SOL     OW 3577   2.027   0.840   1.831
  893SOL    HW1 3578   2.015   0.938   1.847
  893SOL    HW2 3579   2.084   0.827   1.750
  894SOL     OW 3580   1.226   5.476   3.861
  894SOL    HW1 3581   1.269   5.491   3.772
  894SOL    HW2 3582   1.159   5.402   3.853
  895SOL     OW 3583   2.676   1.369   4.549
  895SOL    HW1 3584   2.689   1.343   4.453
  895SOL    HW2 3585   2.588   1.336   4.581
  896SOL     OW 3586   4.642   6.924   2.736
  896SOL    HW1 3587   4.656   6.944   2.833
  896SOL    HW2 3588   4.679   6.999   2.681
  897SOL     OW 3589   6.436   0.715   6.816
  897SOL    HW1 3590   6.526   0.681   6.844
  897SOL    HW2 3591   6.417   0.801   6.863
  898SOL     OW 3592   5.601   5.952   3.515
  898SOL    HW1 3593   5.653   5.869   3.532
  898SOL    HW2 3594   5.503   5.931   3.517
  899SOL     OW 3595   1.758   4.735   0.227
  899SOL    HW1 3596   1.780   4.640   0.204
  899SOL    HW2 3597   1.713   4.779   0.149
  900SOL     OW 3598   0.059   5.377   3.393
  900SOL    HW1 3599   0.150   5.402   3.426
  900SOL    HW2 3600   0.010   5.458   3.365
  901SOL     OW 3601   6.327   2.287   3.325
  901SOL    HW1 3602   6.375   2.348   3.389
  901SOL    HW2 3603   6.385   2.271   3.245
  902SOL     OW 3604   1.612   5.954   7.025
  902SOL    HW1 3605   1.593   5.900   6.943
  902SOL    HW2 3606   1.709   5.946   0.020
  903SOL     OW 3607   1.362   4.843   6.954
  903SOL    HW1 3608   1.360   4.929   6.902
  903SOL    HW2 3609   1.363   4.766   6.891
  904SOL     OW 3610   1.124   2.187   3.862
  904SOL    HW1 3611   1.102   2.135   3.945
  904SOL    HW2 3612   1.210   2.154   3.823
  905SOL     OW 3613   6.494   4.179   3.348
  905SOL    HW1 3614   6.450   4.236   3.278
  905SOL    HW2 3615   6.463   4.085   3.338
  906SOL     OW 3616   0.034   3.528   5.503
  906SOL    HW1 3617   0.011   3.465   5.577
  906SOL    HW2 3618   0.122   3.503   5.463
  907SOL     OW 3619   6.771   4.553   2.730
  907SOL    HW1 3620   6.730   4.581   2.643
  907SOL    HW2 3621   6.762   4.454   2.741
  908SOL     OW 3622   2.455   1.127   2.948
  908SOL    HW1 3623   2.384   1.130   3.019
  908SOL    HW2 3624   2.436   1.196   2.879
  909SOL     OW 3625   3.104   6.855   2.416
  909SOL    HW1 3626   3.057   6.832   2.330
  909SOL    HW2 3627   3.127   6.952   2.416
  910SOL     OW 3628   1.313   0.757   1.840
  910SOL    HW1 3629   1.258   0.679   1.872
  910SOL    HW2 3630   1.253   0.835   1.823
  911SOL     OW 3631   1.071   2.520   1.260
  911SOL    HW1 3632   1.104   2.488   1.349
  911SOL    HW2 3633   1.087   2.618   1.253
  912SOL     OW 3634   2.604   0.745   1.291
  912SOL    HW1 3635   2.603   0.670   1.224
  912SOL    HW2 3636   2.693   0.746   1.337
  913SOL     OW 3637   2.399   1.190   1.810
  913SOL    HW1 3638   2.465   1.258   1.839
  913SOL    HW2 3639   2.320   1.191   1.871
  914SOL     OW 3640   3.353   4.969   2.568
  914SOL    HW1 3641   3.409   4.933   2.643
  914SOL    HW2 3642   3.258   4.940   2.580
  915SOL     OW 3643   3.342   1.950   1.683
  915SOL    HW1 3644   3.281   1.878   1.716
  915SOL    HW2 3645   3.402   1.980   1.758
  916SOL     OW 3646   7.018   3.876   2.588
  916SOL    HW1 3647   0.030   3.965   2.567
  916SOL    HW2 3648   0.033   3.806   2.532
  917SOL     OW 3649   4.384   0.457   4.981
  917SOL    HW1 3650   4.322   0.528   4.949
  917SOL    HW2 3651   4.339   0.401   5.051
  918SOL     OW 3652   0.288   2.589   5.109
  918SOL    HW1 3653   0.347   2.519   5.147
  918SOL    HW2 3654   0.209   2.603   5.168
  919SOL     OW 3655   1.004   0.486   1.112
  919SOL    HW1 3656   0.987   0.388   1.103
  919SOL    HW2 3657   1.101   0.501   1.134
  920SOL     OW 3658   1.251   1.675   2.721
  920SOL    HW1 3659   1.192   1.754   2.733
  920SOL    HW2 3660   1.320   1.695   2.651
  921SOL     OW 3661   4.152   4.403   0.051
  921SOL    HW1 3662   4.168   4.309   0.019
  921SOL    HW2 3663   4.058   4.412   0.083
  922SOL     OW 3664   2.566   5.692   6.564
  922SOL    HW1 3665   2.491   5.747   6.526
  922SOL    HW2 3666   2.632   5.752   6.609
  923SOL     OW 3667   3.737   1.229   0.180
  923SOL    HW1 3668   3.799   1.247   0.104
  923SOL    HW2 3669   3.759   1.291   0.256
  924SOL     OW 3670   4.998   5.264   1.130
  924SOL    HW1 3671   5.014   5.312   1.216
  924SOL    HW2 3672   5.084   5.224   1.097
  925SOL     OW 3673   5.768   1.858   1.509
  925SOL    HW1 3674   5.768   1.939   1.567
  925SOL    HW2 3675   5.843   1.864   1.442
  926SOL     OW 3676   4.344   5.811   1.821
  926SOL    HW1 3677   4.312   5.758   1.742
  926SOL    HW2 3678   4.443   5.822   1.814
  927SOL     OW 3679   5.053   5.473   5.732
  927SOL    HW1 3680   5.010   5.521   5.655
  927SOL    HW2 3681   4.984   5.419   5.780
  928SOL     OW 3682   5.975   0.898   1.946
  928SOL    HW1 3683   5.877   0.909   1.926
  928SOL    HW2 3684   6.019   0.850   1.870
  929SOL     OW 3685   6.633   1.974   2.863
  929SOL    HW1 3686   6.658   2.042   2.795
  929SOL    HW2 3687   6.645   2.012   2.955
  930SOL     OW 3688   5.902   4.059   2.266
  930SOL    HW1 3689   5.887   4.064   2.168
  930SOL    HW2 3690   5.992   4.099   2.288
  931SOL     OW 3691   0.337   2.855   0.281
  931SOL    HW1 3692   0.279   2.776   0.259
  931SOL    HW2 3693   0.428   2.841   0.240
  932SOL     OW 3694   4.288   6.778   0.477
  932SOL    HW1 3695   4.214   6.844   0.485
  932SOL    HW2 3696   4.327   6.760   0.567
  933SOL     OW 3697   0.552   6.707   3.021
  933SOL    HW1 3698   0.650   6.715   3.000
  933SOL    HW2 3699   0.539   6.634   3.089
  934SOL     OW 3700   4.464   1.712   4.818
  934SOL    HW1 3701   4.485   1.616   4.799
  934SOL    HW2 3702   4.374   1.719   4.859
  935SOL     OW 3703   1.128   3.965   4.134
  935SOL    HW1 3704   1.136   4.027   4.212
  935SOL    HW2 3705   1.150   3.872   4.163
  936SOL     OW 3706   1.096   1.256   0.918
  936SOL    HW1 3707   1.027   1.259   0.846
  936SOL    HW2 3708   1.075   1.182   0.982
  937SOL     OW 3709   4.902   1.983   3.159
  937SOL    HW1 3710   4.959   2.063   3.141
  937SOL    HW2 3711   4.898   1.925   3.078
  938SOL     OW 3712   0.603   0.692   6.258
  938SOL    HW1 3713   0.531   0.701   6.328
  938SOL    HW2 3714   0.561   0.684   6.168
  939SOL     OW 3715   0.483   0.998   4.700
  939SOL    HW1 3716   0.422   0.942   4.756
  939SOL    HW2 3717   0.577   0.968   4.714
  940SOL     OW 3718   6.199   0.085   3.529
  940SOL    HW1 3719   6.175   0.182   3.523
  940SOL    HW2 3720   6.120   0.034   3.562
  941SOL     OW 3721   6.098   2.551   4.885
  941SOL    HW1 3722   6.049   2.630   4.848
  941SOL    HW2 3723   6.092   2.553   4.985
  942SOL     OW 3724   4.169   6.629   6.117
  942SOL    HW1 3725   4.170   6.530   6.105
  942SOL    HW2 3726   4.122   6.653   6.202
  943SOL     OW 3727   4.951   2.378   6.482
  943SOL    HW1 3728   4.869   2.361   6.427
  943SOL    HW2 3729   4.966   2.301   6.545
  944SOL     OW 3730   5.290   4.701   3.881
  944SOL    HW1 3731   5.217   4.637   3.902
  944SOL    HW2 3732   5.293   4.772   3.951
  945SOL     OW 3733   6.763   3.065   6.438
  945SOL    HW1 3734   6.676   3.107   6.461
  945SOL    HW2 3735   6.795   3.099   6.350
  946SOL     OW 3736   5.926   3.225   6.271
  946SOL    HW1 3737   5.887   3.241   6.181
  946SOL    HW2 3738   5.897   3.135   6.304
  947SOL     OW 3739   1.883   1.977   6.405
  947SOL    HW1 3740   1.950   1.908   6.378
  947SOL    HW2 3741   1.806   1.975   6.341
  948SOL     OW 3742   3.587   1.531   1.164
  948SOL    HW1 3743   3.589   1.627   1.138
  948SOL    HW2 3744   3.681   1.499   1.180
  949SOL     OW 3745   5.148   4.846   5.924
  949SOL    HW1 3746   5.167   4.783   6.000
  949SOL    HW2 3747   5.058   4.827   5.887
  950SOL     OW 3748   3.541   5.179   0.414
  950SOL    HW1 3749   3.534   5.195   0.512
  950SOL    HW2 3750   3.477   5.239   0.365
  951SOL     OW 3751   0.397   3.658   2.986
  951SOL    HW1 3752   0.306   3.695   3.002
  951SOL    HW2 3753   0.416   3.657   2.888
  952SOL     OW 3754   4.159   0.946   1.035
  952SOL    HW1 3755   4.164   1.046   1.036
  952SOL    HW2 3756   4.243   0.909   0.995
  953SOL     OW 3757   4.628   6.399   5.955
  953SOL    HW1 3758   4.551   6.335   5.957
  953SOL    HW2 3759   4.593   6.493   5.957
  954SOL     OW 3760   0.034   6.271   1.590
  954SOL    HW1 3761   0.117   6.217   1.600
  954SOL    HW2 3762   6.986   6.222   1.632
  955SOL     OW 3763   1.290   6.931   3.726
  955SOL    HW1 3764   1.274   7.005   3.660
  955SOL    HW2 3765   1.227   6.941   3.803
  956SOL     OW 3766   1.839   2.913   1.576
  956SOL    HW1 3767   1.744   2.933   1.597
  956SOL    HW2 3768   1.843   2.853   1.496
  957SOL     OW 3769   2.946   6.506   4.197
  957SOL    HW1 3770   2.950   6.417   4.152
  957SOL    HW2 3771   3.003   6.572   4.147
  958SOL     OW 3772   4.319   2.133   6.737
  958SOL    HW1 3773   4.371   2.052   6.765
  958SOL    HW2 3774   4.365   2.215   6.771
  959SOL     OW 3775   1.737   3.907   0.666
  959SOL    HW1 3776   1.645   3.915   0.705
  959SOL    HW2 3777   1.747   3.972   0.591
  960SOL     OW 3778   1.652   3.475   5.482
  960SOL    HW1 3779   1.724   3.507   5.543
  960SOL    HW2 3780   1.686   3.474   5.388
  961SOL     OW 3781   3.706   6.661   6.529
  961SOL    HW1 3782   3.753   6.743   6.497
  961SOL    HW2 3783   3.767   6.581   6.519
  962SOL     OW 3784   0.097   0.624   4.042
  962SOL    HW1 3785   0.092   0.526   4.020
  962SOL    HW2 3786   0.145   0.672   3.969
  963SOL     OW 3787   5.652   6.971   3.361
  963SOL    HW1 3788   5.569   7.026   3.374
  963SOL    HW2 3789   5.658   6.903   3.434
  964SOL     OW 3790   5.887   4.356   1.820
  964SOL    HW1 3791   5.794   4.337   1.791
  964SOL    HW2 3792   5.928   4.425   1.760
  965SOL     OW 3793   1.362   2.283   0.247
  965SOL    HW1 3794   1.289   2.258   0.182
  965SOL    HW2 3795   1.451   2.277   0.200
  966SOL     OW 3796   5.027   2.290   1.732
  966SOL    HW1 3797   5.084   2.208   1.726
  966SOL    HW2 3798   4.974   2.288   1.816
  967SOL     OW 3799   0.459   5.677   3.027
  967SOL    HW1 3800   0.364   5.655   3.003
  967SOL    HW2 3801   0.483   5.766   2.990
  968SOL     OW 3802   0.450   4.199   1.129
  968SOL    HW1 3803   0.418   4.106   1.146
  968SOL    HW2 3804   0.401   4.237   1.050
  969SOL     OW 3805   3.423   6.784   6.288
  969SOL    HW1 3806   3.420   6.737   6.200
  969SOL    HW2 3807   3.442   6.718   6.361
  970SOL     OW 3808   5.359   3.832   6.002
  970SOL    HW1 3809   5.351   3.743   5.957
  970SOL    HW2 3810   5.360   3.819   6.101
  971SOL     OW 3811   0.763   1.823   6.863
  971SOL    HW1 3812   0.853   1.781   6.878
  971SOL    HW2 3813   0.720   1.841   6.951
  972SOL     OW 3814   3.448   6.630   6.537
  972SOL    HW1 3815   3.435   6.690   6.617
  972SOL    HW2 3816   3.545   6.618   6.520
  973SOL     OW 3817   6.484   3.445   6.016
  973SOL    HW1 3818   6.471   3.530   5.965
  973SOL    HW2 3819   6.498   3.467   6.113
  974SOL     OW 3820   2.276   0.815   4.190
  974SOL    HW1 3821   2.266   0.729   4.240
  974SOL    HW2 3822   2.315   0.797   4.100
  975SOL     OW 3823   2.915   6.798   4.183
  975SOL    HW1 3824   2.905   6.704   4.217
  975SOL    HW2 3825   3.012   6.823   4.181
  976SOL     OW 3826   0.301   5.365   4.846
  976SOL    HW1 3827   0.254   5.360   4.934
  976SOL    HW2 3828   0.358   5.447   4.843
  977SOL     OW 3829   0.234   1.747   1.939
  977SOL    HW1 3830   0.191   1.730   1.851
  977SOL    HW2 3831   0.166   1.734   2.012
  978SOL     OW 3832   6.362   2.688   3.896
  978SOL    HW1 3833   6.270   2.655   3.871
  978SOL    HW2 3834   6.410   2.718   3.813
  979SOL     OW 3835   5.765   1.542   2.409
  979SOL    HW1 3836   5.829   1.472   2.375
  979SOL    HW2 3837   5.697   1.499   2.468
  980SOL     OW 3838   6.333   5.779   5.542
  980SOL    HW1 3839   6.383   5.860   5.508
  980SOL    HW2 3840   6.236   5.788   5.519
  981SOL     OW 3841   6.299   3.179   6.925
  981SOL    HW1 3842   6.295   3.273   6.894
  981SOL    HW2 3843   6.388   3.140   6.900
  982SOL     OW 3844   1.500   4.605   0.030
  982SOL    HW1 3845   1.491   4.517   0.076
  982SOL    HW2 3846   1.492   4.678   0.098
  983SOL     OW 3847   5.450   1.812   3.948
  983SOL    HW1 3848   5.481   1.804   3.853
  983SOL    HW2 3849   5.479   1.900   3.985
  984SOL     OW 3850   4.985   3.260   5.032
  984SOL    HW1 3851   4.945   3.204   5.104
  984SOL    HW2 3852   5.018   3.200   4.958
  985SOL     OW 3853   2.122   3.910   0.725
  985SOL    HW1 3854   2.134   4.006   0.753
  985SOL    HW2 3855   2.201   3.857   0.757
  986SOL     OW 3856   5.867   4.134   4.684
  986SOL    HW1 3857   5.951   4.187   4.674
  986SOL    HW2 3858   5.852   4.111   4.780
  987SOL     OW 3859   2.320   1.030   2.707
  987SOL    HW1 3860   2.369   1.108   2.669
  987SOL    HW2 3861   2.291   1.051   2.801
  988SOL     OW 3862   3.715   3.772   1.454
  988SOL    HW1 3863   3.622   3.772   1.489
  988SOL    HW2 3864   3.733   3.859   1.408
  989SOL     OW 3865   0.708   1.243   5.528
  989SOL    HW1 3866   0.636   1.177   5.549
  989SOL    HW2 3867   0.739   1.286   5.613
  990SOL     OW 3868   3.816   6.050   2.114
  990SOL    HW1 3869   3.809   6.127   2.051
  990SOL    HW2 3870   3.733   5.995   2.109
  991SOL     OW 3871   5.993   1.589   6.222
  991SOL    HW1 3872   5.944   1.597   6.309
  991SOL    HW2 3873   6.091   1.586   6.240
  992SOL     OW 3874   0.367   2.558   0.215
  992SOL    HW1 3875   0.421   2.560   0.130
  992SOL    HW2 3876   0.429   2.557   0.294
  993SOL     OW 3877   4.051   6.748   4.148
  993SOL    HW1 3878   4.050   6.753   4.248
  993SOL    HW2 3879   3.957   6.736   4.115
  994SOL     OW 3880   3.222   4.157   4.111
  994SOL    HW1 3881   3.241   4.253   4.092
  994SOL    HW2 3882   3.201   4.110   4.025
  995SOL     OW 3883   1.532   1.669   5.317
  995SOL    HW1 3884   1.520   1.653   5.415
  995SOL    HW2 3885   1.487   1.595   5.265
  996SOL     OW 3886   2.833   2.901   0.896
  996SOL    HW1 3887   2.736   2.885   0.910
  996SOL    HW2 3888   2.852   2.999   0.897
  997SOL     OW 3889   6.642   1.389   0.591
  997SOL    HW1 3890   6.547   1.410   0.613
  997SOL    HW2 3891   6.694   1.378   0.676
  998SOL     OW 3892   4.488   6.472   3.871
  998SOL    HW1 3893   4.409   6.534   3.863
  998SOL    HW2 3894   4.562   6.519   3.918
  999SOL     OW 3895   0.022   4.663   6.588
  999SOL    HW1 3896   0.066   4.728   6.526
  999SOL    HW2 3897   6.954   4.655   6.564
 1000SOL     OW 3898   3.881   1.526   5.755
 1000SOL    HW1 3899   3.828   1.441   5.756
 1000SOL    HW2 3900   3.825   1.600   5.717
 1001SOL     OW 3901   5.414   0.422   4.666
 1001SOL    HW1 3902   5.401   0.364   4.585
 1001SOL    HW2 3903   5.511   0.431   4.685
 1002SOL     OW 3904   0.323   1.262   0.238
 1002SOL    HW1 3905   0.365   1.187   0.186
 1002SOL    HW2 3906   0.362   1.265   0.330
 1003SOL     OW 3907   4.809   5.213   2.174
 1003SOL    HW1 3908   4.806   5.267   2.258
 1003SOL    HW2 3909   4.852   5.124   2.193
 1004SOL     OW 3910   6.066   5.841   6.825
 1004SOL    HW1 3911   6.044   5.931   6.787
 1004SOL    HW2 3912   6.101   5.852   6.918
 1005SOL     OW 3913   5.161   6.698   2.674
 1005SOL    HW1 3914   5.162   6.734   2.580
 1005SOL    HW2 3915   5.192   6.602   2.673
 1006SOL     OW 3916   1.851   5.845   0.038
 1006SOL    HW1 3917   1.865   5.762   7.012
 1006SOL    HW2 3918   1.900   5.836   0.125
 1007SOL     OW 3919   5.916   2.469   2.612
 1007SOL    HW1 3920   5.982   2.406   2.571
 1007SOL    HW2 3921   5.853   2.501   2.541
 1008SOL     OW 3922   3.599   1.133   5.381
 1008SOL    HW1 3923   3.553   1.103   5.465
 1008SOL    HW2 3924   3.686   1.177   5.405
 1009SOL     OW 3925   3.560   6.304   5.776
 1009SOL    HW1 3926   3.511   6.391   5.763
 1009SOL    HW2 3927   3.643   6.305   5.721
 1010SOL     OW 3928   5.129   6.084   6.136
 1010SOL    HW1 3929   5.226   6.064   6.153
 1010SOL    HW2 3930   5.121   6.157   6.069
 1011SOL     OW 3931   2.708   5.087   4.812
 1011SOL    HW1 3932   2.679   5.154   4.881
 1011SOL    HW2 3933   2.656   5.002   4.825
 1012SOL     OW 3934   3.002   6.098   0.661
 1012SOL    HW1 3935   3.076   6.043   0.701
 1012SOL    HW2 3936   3.041   6.164   0.596
 1013SOL     OW 3937   1.068   0.241   1.240
 1013SOL    HW1 3938   1.089   0.314   1.306
 1013SOL    HW2 3939   1.081   0.152   1.285
 1014SOL     OW 3940   6.057   6.134   6.667
 1014SOL    HW1 3941   5.964   6.147   6.633
 1014SOL    HW2 3942   6.080   6.207   6.732
 1015SOL     OW 3943   2.696   0.122   4.703
 1015SOL    HW1 3944   2.777   0.131   4.762
 1015SOL    HW2 3945   2.713   0.171   4.617
 1016SOL     OW 3946   4.258   3.275   1.841
 1016SOL    HW1 3947   4.241   3.320   1.753
 1016SOL    HW2 3948   4.339   3.216   1.833
 1017SOL     OW 3949   4.853   6.621   6.043
 1017SOL    HW1 3950   4.931   6.682   6.057
 1017SOL    HW2 3951   4.778   6.672   6.001
 1018SOL     OW 3952   1.012   2.002   1.389
 1018SOL    HW1 3953   1.021   2.023   1.486
 1018SOL    HW2 3954   0.915   1.993   1.365
 1019SOL     OW 3955   5.980   0.477   6.910
 1019SOL    HW1 3956   5.934   0.505   6.826
 1019SOL    HW2 3957   6.061   0.422   6.887
 1020SOL     OW 3958   3.662   1.801   1.143
 1020SOL    HW1 3959   3.693   1.885   1.099
 1020SOL    HW2 3960   3.708   1.790   1.231
 1021SOL     OW 3961   5.137   1.508   1.525
 1021SOL    HW1 3962   5.076   1.479   1.599
 1021SOL    HW2 3963   5.129   1.606   1.512
 1022SOL     OW 3964   2.580   3.658   6.902
 1022SOL    HW1 3965   2.510   3.681   6.970
 1022SOL    HW2 3966   2.549   3.583   6.845
 1023SOL     OW 3967   6.808   1.210   4.250
 1023SOL    HW1 3968   6.845   1.264   4.174
 1023SOL    HW2 3969   6.746   1.267   4.304
 1024SOL     OW 3970   6.839   2.785   4.338
 1024SOL    HW1 3971   6.860   2.754   4.245
 1024SOL    HW2 3972   6.819   2.706   4.396
 1025SOL     OW 3973   2.459   4.226   1.511
 1025SOL    HW1 3974   2.554   4.238   1.480
 1025SOL    HW2 3975   2.456   4.156   1.582
 1026SOL     OW 3976   0.593   3.486   6.896
 1026SOL    HW1 3977   0.541   3.403   6.916
 1026SOL    HW2 3978   0.573   3.556   6.965
 1027SOL     OW 3979   2.170   4.613   1.364
 1027SOL    HW1 3980   2.235   4.579   1.432
 1027SOL    HW2 3981   2.098   4.665   1.410
 1028SOL     OW 3982   0.758   5.017   0.456
 1028SOL    HW1 3983   0.733   4.931   0.502
 1028SOL    HW2 3984   0.834   5.059   0.504
 1029SOL     OW 3985   3.970   0.620   4.713
 1029SOL    HW1 3986   3.947   0.645   4.619
 1029SOL    HW2 3987   3.965   0.701   4.771
 1030SOL     OW 3988   4.200   4.755   4.824
 1030SOL    HW1 3989   4.108   4.725   4.799
 1030SOL    HW2 3990   4.247   4.681   4.872
 1031SOL     OW 3991   2.545   5.757   1.037
 1031SOL    HW1 3992   2.553   5.848   0.997
 1031SOL    HW2 3993   2.455   5.747   1.079
 1032SOL     OW 3994   1.044   2.767   4.600
 1032SOL    HW1 3995   1.131   2.811   4.626
 1032SOL    HW2 3996   1.061   2.671   4.579
 1033SOL     OW 3997   3.265   0.008   2.169
 1033SOL    HW1 3998   3.303   7.022   2.077
 1033SOL    HW2 3999   3.196   6.968   2.188
 1034SOL     OW 4000   0.068   5.026   3.047
 1034SOL    HW1 4001   0.138   4.959   3.019
 1034SOL    HW2 4002   0.113   5.102   3.094
 1035SOL     OW 4003   2.935   1.907   3.575
 1035SOL    HW1 4004   2.898   1.999   3.588
 1035SOL    HW2 4005   2.866   1.849   3.531
 1036SOL     OW 4006   4.872   6.521   6.717
 1036SOL    HW1 4007   4.785   6.508   6.668
 1036SOL    HW2 4008   4.947   6.524   6.651
 1037SOL     OW 4009   4.304   1.055   5.845
 1037SOL    HW1 4010   4.271   0.965   5.817
 1037SOL    HW2 4011   4.226   1.111   5.874
 1038SOL     OW 4012   3.107   1.807   4.895
 1038SOL    HW1 4013   3.138   1.715   4.921
 1038SOL    HW2 4014   3.171   1.875   4.930
 1039SOL     OW 4015   5.329   1.827   2.133
 1039SOL    HW1 4016   5.347   1.732   2.159
 1039SOL    HW2 4017   5.411   1.883   2.151
 1040SOL     OW 4018   6.328   4.793   4.601
 1040SOL    HW1 4019   6.370   4.835   4.681
 1040SOL    HW2 4020   6.395   4.788   4.527
 1041SOL     OW 4021   1.657   7.026   4.403
 1041SOL    HW1 4022   1.635   0.068   4.335
 1041SOL    HW2 4023   1.741   6.979   4.376
 1042SOL     OW 4024   4.263   4.716   0.220
 1042SOL    HW1 4025   4.259   4.689   0.124
 1042SOL    HW2 4026   4.356   4.745   0.243
 1043SOL     OW 4027   4.572   0.344   6.114
 1043SOL    HW1 4028   4.540   0.433   6.082
 1043SOL    HW2 4029   4.512   0.311   6.187
 1044SOL     OW 4030   4.088   3.263   4.143
 1044SOL    HW1 4031   4.107   3.307   4.231
 1044SOL    HW2 4032   4.047   3.173   4.159
 1045SOL     OW 4033   2.072   1.186   2.902
 1045SOL    HW1 4034   2.019   1.110   2.867
 1045SOL    HW2 4035   2.012   1.251   2.948
 1046SOL     OW 4036   2.670   0.776   1.895
 1046SOL    HW1 4037   2.629   0.806   1.810
 1046SOL    HW2 4038   2.722   0.692   1.879
 1047SOL     OW 4039   0.413   6.537   2.354
 1047SOL    HW1 4040   0.479   6.506   2.423
 1047SOL    HW2 4041   0.455   6.534   2.263
 1048SOL     OW 4042   7.006   3.929   4.997
 1048SOL    HW1 4043   7.004   4.026   5.022
 1048SOL    HW2 4044   0.014   3.918   4.905
 1049SOL     OW 4045   0.988   4.019   5.453
 1049SOL    HW1 4046   1.083   4.049   5.448
 1049SOL    HW2 4047   0.978   3.953   5.527
 1050SOL     OW 4048   3.043   0.801   1.582
 1050SOL    HW1 4049   3.109   0.863   1.540
 1050SOL    HW2 4050   3.068   0.785   1.678
 1051SOL     OW 4051   5.064   3.120   1.637
 1051SOL    HW1 4052   4.967   3.095   1.644
 1051SOL    HW2 4053   5.077   3.214   1.668
 1052SOL     OW 4054   1.985   6.389   3.391
 1052SOL    HW1 4055   1.913   6.344   3.443
 1052SOL    HW2 4056   2.033   6.456   3.448
 1053SOL     OW 4057   3.873   5.751   3.084
 1053SOL    HW1 4058   3.828   5.809   3.153
 1053SOL    HW2 4059   3.873   5.799   2.996
 1054SOL     OW 4060   3.305   6.094   5.210
 1054SOL    HW1 4061   3.208   6.098   5.183
 1054SOL    HW2 4062   3.312   6.105   5.309
 1055SOL     OW 4063   3.316   5.119   4.793
 1055SOL    HW1 4064   3.291   5.101   4.889
 1055SOL    HW2 4065   3.415   5.108   4.782
 1056SOL     OW 4066   3.222   5.988   0.433
 1056SOL    HW1 4067   3.234   5.920   0.506
 1056SOL    HW2 4068   3.191   5.943   0.350
 1057SOL     OW 4069   3.837   3.896   1.186
 1057SOL    HW1 4070   3.828   3.798   1.168
 1057SOL    HW2 4071   3.919   3.930   1.140
 1058SOL     OW 4072   2.429   0.519   1.906
 1058SOL    HW1 4073   2.475   0.593   1.857
 1058SOL    HW2 4074   2.492   0.442   1.917
 1059SOL     OW 4075   3.540   0.656   0.529
 1059SOL    HW1 4076   3.598   0.595   0.475
 1059SOL    HW2 4077   3.445   0.647   0.499
 1060SOL     OW 4078   3.630   1.573   4.086
 1060SOL    HW1 4079   3.668   1.542   4.173
 1060SOL    HW2 4080   3.537   1.607   4.100
 1061SOL     OW 4081   2.860   5.715   1.541
 1061SOL    HW1 4082   2.894   5.652   1.470
 1061SOL    HW2 4083   2.764   5.695   1.559
 1062SOL     OW 4084   6.070   4.301   5.322
 1062SOL    HW1 4085   6.039   4.219   5.274
 1062SOL    HW2 4086   6.157   4.332   5.282
 1063SOL     OW 4087   4.284   2.035   5.846
 1063SOL    HW1 4088   4.343   2.093   5.789
 1063SOL    HW2 4089   4.242   2.091   5.918
 1064SOL     OW 4090   0.252   2.830   2.228
 1064SOL    HW1 4091   0.203   2.907   2.187
 1064SOL    HW2 4092   0.335   2.812   2.176
 1065SOL     OW 4093   3.955   5.851   0.216
 1065SOL    HW1 4094   4.051   5.870   0.239
 1065SOL    HW2 4095   3.933   5.757   0.241
 1066SOL     OW 4096   5.488   6.411   3.518
 1066SOL    HW1 4097   5.424   6.487   3.529
 1066SOL    HW2 4098   5.505   6.368   3.607
 1067SOL     OW 4099   3.672   4.516   0.927
 1067SOL    HW1 4100   3.712   4.486   0.840
 1067SOL    HW2 4101   3.702   4.609   0.947
 1068SOL     OW 4102   1.440   5.043   2.219
 1068SOL    HW1 4103   1.536   5.024   2.238
 1068SOL    HW2 4104   1.433   5.117   2.152
 1069SOL     OW 4105   3.968   3.536   3.037
 1069SOL    HW1 4106   3.887   3.558   2.982
 1069SOL    HW2 4107   4.045   3.514   2.976
 1070SOL     OW 4108   1.224   6.235   0.205
 1070SOL    HW1 4109   1.132   6.199   0.188
 1070SOL    HW2 4110   1.239   6.240   0.304
 1071SOL     OW 4111   4.534   5.041   3.808
 1071SOL    HW1 4112   4.539   4.962   3.869
 1071SOL    HW2 4113   4.462   5.025   3.739
 1072SOL     OW 4114   4.213   5.035   3.353
 1072SOL    HW1 4115   4.182   4.945   3.384
 1072SOL    HW2 4116   4.245   5.088   3.431
 1073SOL     OW 4117   2.864   5.706   4.214
 1073SOL    HW1 4118   2.871   5.606   4.222
 1073SOL    HW2 4119   2.947   5.742   4.171
 1074SOL     OW 4120   2.674   4.790   3.918
 1074SOL    HW1 4121   2.608   4.722   3.886
 1074SOL    HW2 4122   2.762   4.776   3.872
 1075SOL     OW 4123   1.177   4.363   2.872
 1075SOL    HW1 4124   1.212   4.375   2.965
 1075SOL    HW2 4125   1.246   4.395   2.807
 1076SOL     OW 4126   4.999   3.901   3.700
 1076SOL    HW1 4127   5.026   3.882   3.606
 1076SOL    HW2 4128   5.010   3.999   3.719
 1077SOL     OW 4129   4.078   0.370   2.008
 1077SOL    HW1 4130   4.013   0.370   2.084
 1077SOL    HW2 4131   4.035   0.409   1.927
 1078SOL     OW 4132   5.932   2.509   1.751
 1078SOL    HW1 4133   6.001   2.438   1.742
 1078SOL    HW2 4134   5.852   2.473   1.800
 1079SOL     OW 4135   1.690   4.996   3.637
 1079SOL    HW1 4136   1.749   5.052   3.579
 1079SOL    HW2 4137   1.596   5.031   3.631
 1080SOL     OW 4138   2.373   5.176   4.404
 1080SOL    HW1 4139   2.383   5.238   4.326
 1080SOL    HW2 4140   2.421   5.215   4.483
 1081SOL     OW 4141   0.841   0.632   0.673
 1081SOL    HW1 4142   0.874   0.616   0.766
 1081SOL    HW2 4143   0.902   0.586   0.608
 1082SOL     OW 4144   2.275   1.011   1.327
 1082SOL    HW1 4145   2.302   0.920   1.356
 1082SOL    HW2 4146   2.303   1.078   1.396
 1083SOL     OW 4147   3.436   4.147   2.090
 1083SOL    HW1 4148   3.475   4.235   2.064
 1083SOL    HW2 4149   3.348   4.161   2.135
 1084SOL     OW 4150   5.807   3.762   1.385
 1084SOL    HW1 4151   5.725   3.807   1.418
 1084SOL    HW2 4152   5.786   3.666   1.365
 1085SOL     OW 4153   1.294   6.692   3.587
 1085SOL    HW1 4154   1.358   6.685   3.511
 1085SOL    HW2 4155   1.311   6.777   3.638
 1086SOL     OW 4156   2.831   6.552   2.840
 1086SOL    HW1 4157   2.808   6.523   2.747
 1086SOL    HW2 4158   2.750   6.592   2.884
 1087SOL     OW 4159   3.686   3.009   5.328
 1087SOL    HW1 4160   3.665   2.916   5.299
 1087SOL    HW2 4161   3.627   3.073   5.280
 1088SOL     OW 4162   6.843   5.554   2.193
 1088SOL    HW1 4163   6.823   5.566   2.096
 1088SOL    HW2 4164   6.827   5.640   2.242
 1089SOL     OW 4165   6.931   0.691   3.273
 1089SOL    HW1 4166   6.930   0.761   3.201
 1089SOL    HW2 4167   6.922   0.601   3.231
 1090SOL     OW 4168   2.916   1.998   6.778
 1090SOL    HW1 4169   2.837   1.948   6.813
 1090SOL    HW2 4170   2.999   1.945   6.797
 1091SOL     OW 4171   1.694   2.050   6.033
 1091SOL    HW1 4172   1.698   1.952   6.018
 1091SOL    HW2 4173   1.734   2.097   5.954
 1092SOL     OW 4174   2.824   4.993   1.112
 1092SOL    HW1 4175   2.793   4.991   1.017
 1092SOL    HW2 4176   2.924   5.000   1.114
 1093SOL     OW 4177   6.750   1.389   1.385
 1093SOL    HW1 4178   6.770   1.323   1.457
 1093SOL    HW2 4179   6.701   1.467   1.424
 1094SOL     OW 4180   0.478   5.930   2.929
 1094SOL    HW1 4181   0.398   5.911   2.872
 1094SOL    HW2 4182   0.496   6.028   2.929
 1095SOL     OW 4183   1.978   3.064   4.972
 1095SOL    HW1 4184   1.951   2.982   5.024
 1095SOL    HW2 4185   2.067   3.047   4.928
 1096SOL     OW 4186   3.723   2.895   1.961
 1096SOL    HW1 4187   3.646   2.831   1.959
 1096SOL    HW2 4188   3.742   2.927   1.869
 1097SOL     OW 4189   2.912   4.906   5.818
 1097SOL    HW1 4190   2.835   4.964   5.844
 1097SOL    HW2 4191   2.903   4.880   5.722
 1098SOL     OW 4192   2.968   0.416   2.351
 1098SOL    HW1 4193   3.018   0.358   2.287
 1098SOL    HW2 4194   3.005   0.403   2.443
 1099SOL     OW 4195   3.471   0.439   2.004
 1099SOL    HW1 4196   3.418   0.399   1.929
 1099SOL    HW2 4197   3.419   0.433   2.089
 1100SOL     OW 4198   0.048   0.585   0.368
 1100SOL    HW1 4199   0.006   0.503   0.328
 1100SOL    HW2 4200   0.110   0.626   0.301
 1101SOL     OW 4201   5.966   4.590   0.961
 1101SOL    HW1 4202   5.870   4.618   0.957
 1101SOL    HW2 4203   5.976   4.499   0.920
 1102SOL     OW 4204   6.961   4.680   4.348
 1102SOL    HW1 4205   6.888   4.630   4.301
 1102SOL    HW2 4206   6.925   4.765   4.385
 1103SOL     OW 4207   0.465   2.735   6.244
 1103SOL    HW1 4208   0.471   2.654   6.302
 1103SOL    HW2 4209   0.537   2.732   6.175
 1104SOL     OW 4210   2.719   4.961   5.580
 1104SOL    HW1 4211   2.662   4.981   5.660
 1104SOL    HW2 4212   2.738   5.046   5.531
 1105SOL     OW 4213   3.921   5.537   0.838
 1105SOL    HW1 4214   3.933   5.448   0.883
 1105SOL    HW2 4215   3.828   5.569   0.852
 1106SOL     OW 4216   0.937   2.541   6.530
 1106SOL    HW1 4217   0.901   2.473   6.467
 1106SOL    HW2 4218   0.897   2.631   6.509
 1107SOL     OW 4219   0.012   6.732   1.744
 1107SOL    HW1 4220   7.018   6.795   1.818
 1107SOL    HW2 4221   0.022   6.639   1.781
 1108SOL     OW 4222   1.327   0.859   6.489
 1108SOL    HW1 4223   1.255   0.861   6.559
 1108SOL    HW2 4224   1.336   0.949   6.447
 1109SOL     OW 4225   4.139   1.257   3.270
 1109SOL    HW1 4226   4.214   1.197   3.240
 1109SOL    HW2 4227   4.064   1.201   3.305
 1110SOL     OW 4228   3.858   3.561   3.391
 1110SOL    HW1 4229   3.930   3.622   3.423
 1110SOL    HW2 4230   3.779   3.614   3.361
 1111SOL     OW 4231   4.066   0.133   6.681
 1111SOL    HW1 4232   3.978   0.115   6.724
 1111SOL    HW2 4233   4.051   0.164   6.587
 1112SOL     OW 4234   0.561   1.411   2.766
 1112SOL    HW1 4235   0.553   1.506   2.736
 1112SOL    HW2 4236   0.601   1.356   2.692
 1113SOL     OW 4237   0.913   5.433   1.921
 1113SOL    HW1 4238   1.007   5.464   1.918
 1113SOL    HW2 4239   0.910   5.333   1.922
 1114SOL     OW 4240   5.827   0.569   5.459
 1114SOL    HW1 4241   5.885   0.649   5.444
 1114SOL    HW2 4242   5.737   0.599   5.490
 1115SOL     OW 4243   1.684   4.809   0.478
 1115SOL    HW1 4244   1.700   4.781   0.384
 1115SOL    HW2 4245   1.685   4.728   0.537
 1116SOL     OW 4246   2.998   6.662   6.137
 1116SOL    HW1 4247   3.093   6.689   6.119
 1116SOL    HW2 4248   2.960   6.722   6.208
 1117SOL     OW 4249   3.148   2.527   0.315
 1117SOL    HW1 4250   3.211   2.583   0.261
 1117SOL    HW2 4251   3.095   2.469   0.254
 1118SOL     OW 4252   2.047   1.902   1.084
 1118SOL    HW1 4253   2.024   1.929   1.178
 1118SOL    HW2 4254   2.003   1.814   1.063
 1119SOL     OW 4255   3.729   3.894   3.769
 1119SOL    HW1 4256   3.682   3.950   3.701
 1119SOL    HW2 4257   3.669   3.879   3.847
 1120SOL     OW 4258   3.311   1.199   3.045
 1120SOL    HW1 4259   3.332   1.103   3.065
 1120SOL    HW2 4260   3.224   1.223   3.088
 1121SOL     OW 4261   5.020   3.734   2.562
 1121SOL    HW1 4262   5.009   3.833   2.576
 1121SOL    HW2 4263   5.115   3.715   2.537
 1122SOL     OW 4264   4.925   4.894   0.234
 1122SOL    HW1 4265   4.953   4.850   0.149
 1122SOL    HW2 4266   4.930   4.828   0.309
 1123SOL     OW 4267   4.558   0.333   1.983
 1123SOL    HW1 4268   4.602   0.244   1.976
 1123SOL    HW2 4269   4.473   0.325   2.035
 1124SOL     OW 4270   2.616   5.220   3.470
 1124SOL    HW1 4271   2.593   5.158   3.545
 1124SOL    HW2 4272   2.709   5.201   3.438
 1125SOL     OW 4273   3.640   4.588   5.631
 1125SOL    HW1 4274   3.643   4.677   5.677
 1125SOL    HW2 4275   3.707   4.527   5.674
 1126SOL     OW 4276   6.216   0.496   2.298
 1126SOL    HW1 4277   6.253   0.584   2.268
 1126SOL    HW2 4278   6.153   0.460   2.228
 1127SOL     OW 4279   2.825   5.553   6.146
 1127SOL    HW1 4280   2.745   5.533   6.204
 1127SOL    HW2 4281   2.861   5.643   6.169
 1128SOL     OW 4282   2.886   1.116   5.374
 1128SOL    HW1 4283   2.945   1.071   5.441
 1128SOL    HW2 4284   2.943   1.164   5.306
 1129SOL     OW 4285   4.359   5.903   6.804
 1129SOL    HW1 4286   4.303   5.822   6.821
 1129SOL    HW2 4287   4.301   5.984   6.801
 1130SOL     OW 4288   1.171   4.823   5.516
 1130SOL    HW1 4289   1.085   4.794   5.556
 1130SOL    HW2 4290   1.197   4.912   5.553
 1131SOL     OW 4291   1.398   4.359   5.753
 1131SOL    HW1 4292   1.423   4.394   5.663
 1131SOL    HW2 4293   1.325   4.415   5.792
 1132SOL     OW 4294   5.220   6.774   4.433
 1132SOL    HW1 4295   5.135   6.725   4.417
 1132SOL    HW2 4296   5.288   6.712   4.473
 1133SOL     OW 4297   7.017   1.742   7.022
 1133SOL    HW1 4298   0.079   1.773   0.022
 1133SOL    HW2 4299   7.016   1.728   6.923
 1134SOL     OW 4300   0.133   3.962   6.299
 1134SOL    HW1 4301   0.161   3.873   6.336
 1134SOL    HW2 4302   0.188   3.983   6.218
 1135SOL     OW 4303   6.767   2.029   4.463
 1135SOL    HW1 4304   6.686   2.078   4.494
 1135SOL    HW2 4305   6.740   1.939   4.427
 1136SOL     OW 4306   4.569   5.885   4.025
 1136SOL    HW1 4307   4.570   5.793   3.985
 1136SOL    HW2 4308   4.611   5.949   3.960
 1137SOL     OW 4309   0.450   0.743   6.703
 1137SOL    HW1 4310   0.403   0.828   6.727
 1137SOL    HW2 4311   0.545   0.763   6.682
 1138SOL     OW 4312   0.785   2.163   5.914
 1138SOL    HW1 4313   0.763   2.236   5.850
 1138SOL    HW2 4314   0.881   2.135   5.900
 1139SOL     OW 4315   0.371   0.439   2.853
 1139SOL    HW1 4316   0.380   0.400   2.762
 1139SOL    HW2 4317   0.325   0.373   2.913
 1140SOL     OW 4318   4.297   1.732   3.156
 1140SOL    HW1 4319   4.251   1.778   3.080
 1140SOL    HW2 4320   4.229   1.688   3.215
 1141SOL     OW 4321   0.403   0.302   5.844
 1141SOL    HW1 4322   0.351   0.284   5.761
 1141SOL    HW2 4323   0.478   0.236   5.852
 1142SOL     OW 4324   5.663   6.659   5.654
 1142SOL    HW1 4325   5.633   6.705   5.571
 1142SOL    HW2 4326   5.763   6.657   5.657
 1143SOL     OW 4327   5.152   2.311   1.167
 1143SOL    HW1 4328   5.171   2.399   1.124
 1143SOL    HW2 4329   5.073   2.320   1.228
 1144SOL     OW 4330   1.069   6.653   4.635
 1144SOL    HW1 4331   1.051   6.674   4.539
 1144SOL    HW2 4332   1.164   6.624   4.646
 1145SOL     OW 4333   3.283   5.060   5.073
 1145SOL    HW1 4334   3.259   5.128   5.141
 1145SOL    HW2 4335   3.275   4.968   5.113
 1146SOL     OW 4336   6.134   2.354   1.958
 1146SOL    HW1 4337   6.180   2.412   2.025
 1146SOL    HW2 4338   6.202   2.308   1.901
 1147SOL     OW 4339   6.543   3.975   2.738
 1147SOL    HW1 4340   6.597   3.998   2.819
 1147SOL    HW2 4341   6.592   3.908   2.683
 1148SOL     OW 4342   6.392   6.197   5.805
 1148SOL    HW1 4343   6.469   6.138   5.829
 1148SOL    HW2 4344   6.348   6.230   5.888
 1149SOL     OW 4345   4.902   3.507   2.628
 1149SOL    HW1 4346   4.945   3.586   2.585
 1149SOL    HW2 4347   4.812   3.491   2.587
 1150SOL     OW 4348   3.185   5.548   5.208
 1150SOL    HW1 4349   3.142   5.498   5.133
 1150SOL    HW2 4350   3.115   5.583   5.270
 1151SOL     OW 4351   1.818   5.683   0.557
 1151SOL    HW1 4352   1.880   5.604   0.562
 1151SOL    HW2 4353   1.792   5.710   0.650
 1152SOL     OW 4354   6.756   0.721   3.482
 1152SOL    HW1 4355   6.828   0.714   3.412
 1152SOL    HW2 4356   6.699   0.639   3.480
 1153SOL     OW 4357   0.813   4.517   1.911
 1153SOL    HW1 4358   0.876   4.443   1.931
 1153SOL    HW2 4359   0.733   4.481   1.862
 1154SOL     OW 4360   1.437   3.730   2.022
 1154SOL    HW1 4361   1.503   3.686   1.962
 1154SOL    HW2 4362   1.484   3.765   2.103
 1155SOL     OW 4363   5.103   1.211   2.294
 1155SOL    HW1 4364   5.045   1.175   2.221
 1155SOL    HW2 4365   5.102   1.148   2.371
 1156SOL     OW 4366   2.677   1.423   3.921
 1156SOL    HW1 4367   2.644   1.511   3.957
 1156SOL    HW2 4368   2.772   1.434   3.890
 1157SOL     OW 4369   1.948   3.537   3.283
 1157SOL    HW1 4370   1.923   3.609   3.348
 1157SOL    HW2 4371   1.928   3.567   3.190
 1158SOL     OW 4372   4.875   5.385   5.035
 1158SOL    HW1 4373   4.801   5.319   5.048
 1158SOL    HW2 4374   4.938   5.380   5.112
 1159SOL     OW 4375   6.499   4.289   3.083
 1159SOL    HW1 4376   6.432   4.271   3.011
 1159SOL    HW2 4377   6.575   4.225   3.075
 1160SOL     OW 4378   3.131   2.120   1.503
 1160SOL    HW1 4379   3.087   2.182   1.568
 1160SOL    HW2 4380   3.211   2.078   1.547
 1161SOL     OW 4381   4.175   1.420   2.574
 1161SOL    HW1 4382   4.263   1.406   2.617
 1161SOL    HW2 4383   4.106   1.363   2.619
 1162SOL     OW 4384   3.718   4.733   1.437
 1162SOL    HW1 4385   3.767   4.655   1.397
 1162SOL    HW2 4386   3.742   4.816   1.388
 1163SOL     OW 4387   4.393   6.788   3.459
 1163SOL    HW1 4388   4.463   6.728   3.497
 1163SOL    HW2 4389   4.303   6.748   3.473
 1164SOL     OW 4390   6.815   4.208   4.661
 1164SOL    HW1 4391   6.722   4.243   4.646
 1164SOL    HW2 4392   6.856   4.186   4.573
 1165SOL     OW 4393   0.175   5.103   2.681
 1165SOL    HW1 4394   0.152   5.188   2.633
 1165SOL    HW2 4395   0.273   5.089   2.678
 1166SOL     OW 4396   3.509   1.076   5.625
 1166SOL    HW1 4397   3.426   1.112   5.580
 1166SOL    HW2 4398   3.484   0.997   5.681
 1167SOL     OW 4399   4.837   1.580   5.492
 1167SOL    HW1 4400   4.905   1.616   5.428
 1167SOL    HW2 4401   4.748   1.621   5.472
 1168SOL     OW 4402   5.685   1.720   4.325
 1168SOL    HW1 4403   5.711   1.756   4.236
 1168SOL    HW2 4404   5.690   1.793   4.393
 1169SOL     OW 4405   2.006   2.798   1.082
 1169SOL    HW1 4406   1.947   2.777   1.003
 1169SOL    HW2 4407   2.100   2.811   1.050
 1170SOL     OW 4408   2.558   1.460   1.585
 1170SOL    HW1 4409   2.638   1.462   1.526
 1170SOL    HW2 4410   2.572   1.522   1.662
 1171SOL     OW 4411   5.147   0.502   0.711
 1171SOL    HW1 4412   5.060   0.461   0.681
 1171SOL    HW2 4413   5.198   0.435   0.766
 1172SOL     OW 4414   3.603   3.555   5.768
 1172SOL    HW1 4415   3.517   3.586   5.728
 1172SOL    HW2 4416   3.584   3.492   5.843
 1173SOL     OW 4417   5.327   5.670   0.350
 1173SOL    HW1 4418   5.270   5.646   0.428
 1173SOL    HW2 4419   5.283   5.743   0.297
 1174SOL     OW 4420   4.151   6.328   6.140
 1174SOL    HW1 4421   4.087   6.300   6.069
 1174SOL    HW2 4422   4.150   6.262   6.215
 1175SOL     OW 4423   7.006   5.626   5.213
 1175SOL    HW1 4424   6.968   5.708   5.170
 1175SOL    HW2 4425   6.932   5.564   5.240
 1176SOL     OW 4426   6.001   2.927   1.119
 1176SOL    HW1 4427   5.972   3.016   1.085
 1176SOL    HW2 4428   6.013   2.932   1.219
 1177SOL     OW 4429   6.990   3.235   5.189
 1177SOL    HW1 4430   6.962   3.141   5.211
 1177SOL    HW2 4431   6.960   3.297   5.261
 1178SOL     OW 4432   5.151   4.340   2.270
 1178SOL    HW1 4433   5.096   4.284   2.208
 1178SOL    HW2 4434   5.205   4.405   2.217
 1179SOL     OW 4435   1.718   5.525   6.088
 1179SOL    HW1 4436   1.641   5.462   6.101
 1179SOL    HW2 4437   1.765   5.538   6.175
 1180SOL     OW 4438   2.088   1.371   4.250
 1180SOL    HW1 4439   2.072   1.272   4.244
 1180SOL    HW2 4440   2.108   1.407   4.159
 1181SOL     OW 4441   0.918   4.372   2.266
 1181SOL    HW1 4442   0.912   4.471   2.280
 1181SOL    HW2 4443   0.937   4.352   2.170
 1182SOL     OW 4444   6.841   4.058   3.914
 1182SOL    HW1 4445   6.772   4.109   3.965
 1182SOL    HW2 4446   6.926   4.110   3.911
 1183SOL     OW 4447   4.107   6.356   0.502
 1183SOL    HW1 4448   4.179   6.423   0.483
 1183SOL    HW2 4449   4.060   6.333   0.417
 1184SOL     OW 4450   4.046   3.277   6.421
 1184SOL    HW1 4451   4.044   3.182   6.392
 1184SOL    HW2 4452   4.043   3.282   6.521
 1185SOL     OW 4453   3.462   1.021   6.491
 1185SOL    HW1 4454   3.507   0.971   6.417
 1185SOL    HW2 4455   3.392   0.963   6.533
 1186SOL     OW 4456   4.134   6.420   4.910
 1186SOL    HW1 4457   4.103   6.325   4.902
 1186SOL    HW2 4458   4.128   6.465   4.821
 1187SOL     OW 4459   0.606   2.573   4.771
 1187SOL    HW1 4460   0.575   2.603   4.680
 1187SOL    HW2 4461   0.689   2.623   4.796
 1188SOL     OW 4462   2.319   1.029   5.079
 1188SOL    HW1 4463   2.261   1.009   5.000
 1188SOL    HW2 4464   2.286   0.979   5.159
 1189SOL     OW 4465   1.547   0.878   1.193
 1189SOL    HW1 4466   1.538   0.943   1.118
 1189SOL    HW2 4467   1.463   0.823   1.199
 1190SOL     OW 4468   2.874   6.481   1.391
 1190SOL    HW1 4469   2.838   6.558   1.338
 1190SOL    HW2 4470   2.879   6.506   1.487
 1191SOL     OW 4471   1.735   4.004   1.754
 1191SOL    HW1 4472   1.698   4.092   1.725
 1191SOL    HW2 4473   1.813   4.018   1.816
 1192SOL     OW 4474   3.651   5.771   2.491
 1192SOL    HW1 4475   3.689   5.728   2.573
 1192SOL    HW2 4476   3.633   5.702   2.422
 1193SOL     OW 4477   3.569   2.172   3.753
 1193SOL    HW1 4478   3.655   2.213   3.724
 1193SOL    HW2 4479   3.531   2.118   3.678
 1194SOL     OW 4480   6.743   2.868   1.959
 1194SOL    HW1 4481   6.690   2.878   1.875
 1194SOL    HW2 4482   6.709   2.933   2.027
 1195SOL     OW 4483   4.836   0.628   6.607
 1195SOL    HW1 4484   4.931   0.642   6.580
 1195SOL    HW2 4485   4.832   0.608   6.705
 1196SOL     OW 4486   1.433   5.759   3.763
 1196SOL    HW1 4487   1.450   5.834   3.826
 1196SOL    HW2 4488   1.336   5.754   3.742
 1197SOL     OW 4489   3.901   5.142   6.766
 1197SOL    HW1 4490   3.970   5.078   6.801
 1197SOL    HW2 4491   3.935   5.235   6.773
 1198SOL     OW 4492   3.165   1.738   3.326
 1198SOL    HW1 4493   3.194   1.673   3.396
 1198SOL    HW2 4494   3.144   1.826   3.368
 1199SOL     OW 4495   3.611   4.107   3.618
 1199SOL    HW1 4496   3.656   4.191   3.647
 1199SOL    HW2 4497   3.558   4.124   3.535
 1200SOL     OW 4498   4.458   4.146   0.904
 1200SOL    HW1 4499   4.403   4.097   0.970
 1200SOL    HW2 4500   4.469   4.242   0.933
 1201SOL     OW 4501   2.133   1.465   5.280
 1201SOL    HW1 4502   2.038   1.443   5.262
 1201SOL    HW2 4503   2.192   1.407   5.225
 1202SOL     OW 4504   5.474   5.956   4.361
 1202SOL    HW1 4505   5.498   6.050   4.335
 1202SOL    HW2 4506   5.504   5.893   4.289
 1203SOL     OW 4507   4.861   0.328   1.747
 1203SOL    HW1 4508   4.780   0.324   1.688
 1203SOL    HW2 4509   4.939   0.289   1.699
 1204SOL     OW 4510   2.674   0.475   0.289
 1204SOL    HW1 4511   2.678   0.513   0.382
 1204SOL    HW2 4512   2.606   0.526   0.236
 1205SOL     OW 4513   0.802   2.766   6.478
 1205SOL    HW1 4514   0.821   2.834   6.549
 1205SOL    HW2 4515   0.710   2.730   6.490
 1206SOL     OW 4516   6.501   1.956   5.139
 1206SOL    HW1 4517   6.582   1.906   5.170
 1206SOL    HW2 4518   6.503   1.964   5.039
 1207SOL     OW 4519   5.862   5.805   5.532
 1207SOL    HW1 4520   5.895   5.777   5.622
 1207SOL    HW2 4521   5.784   5.748   5.506
 1208SOL     OW 4522   4.155   3.618   3.718
 1208SOL    HW1 4523   4.096   3.694   3.747
 1208SOL    HW2 4524   4.143   3.541   3.781
 1209SOL     OW 4525   0.664   3.631   4.478
 1209SOL    HW1 4526   0.638   3.715   4.432
 1209SOL    HW2 4527   0.685   3.650   4.574
 1210SOL     OW 4528   2.668   0.263   4.449
 1210SOL    HW1 4529   2.641   0.346   4.498
 1210SOL    HW2 4530   2.713   0.287   4.364
 1211SOL     OW 4531   0.007   4.168   3.562
 1211SOL    HW1 4532   0.072   4.110   3.514
 1211SOL    HW2 4533   6.947   4.164   3.516
 1212SOL     OW 4534   1.173   3.530   2.428
 1212SOL    HW1 4535   1.250   3.477   2.465
 1212SOL    HW2 4536   1.203   3.579   2.346
 1213SOL     OW 4537   6.736   3.754   4.955
 1213SOL    HW1 4538   6.815   3.809   4.984
 1213SOL    HW2 4539   6.667   3.815   4.916
 1214SOL     OW 4540   0.526   2.310   0.808
 1214SOL    HW1 4541   0.618   2.272   0.818
 1214SOL    HW2 4542   0.475   2.256   0.742
 1215SOL     OW 4543   1.212   0.297   1.809
 1215SOL    HW1 4544   1.137   0.263   1.752
 1215SOL    HW2 4545   1.224   0.236   1.887
 1216SOL     OW 4546   1.845   0.018   0.765
 1216SOL    HW1 4547   1.813   0.106   0.798
 1216SOL    HW2 4548   1.942   0.023   0.741
 1217SOL     OW 4549   0.962   2.581   3.658
 1217SOL    HW1 4550   1.023   2.543   3.589
 1217SOL    HW2 4551   0.917   2.507   3.707
 1218SOL     OW 4552   6.871   4.525   3.823
 1218SOL    HW1 4553   6.943   4.554   3.885
 1218SOL    HW2 4554   6.788   4.577   3.842
 1219SOL     OW 4555   1.539   5.512   2.895
 1219SOL    HW1 4556   1.527   5.418   2.927
 1219SOL    HW2 4557   1.613   5.556   2.947
 1220SOL     OW 4558   6.007   4.847   3.122
 1220SOL    HW1 4559   6.009   4.809   3.215
 1220SOL    HW2 4560   6.097   4.837   3.079
 1221SOL     OW 4561   4.641   5.178   0.658
 1221SOL    HW1 4562   4.649   5.094   0.711
 1221SOL    HW2 4563   4.551   5.181   0.614
 1222SOL     OW 4564   6.979   4.640   1.196
 1222SOL    HW1 4565   6.940   4.590   1.273
 1222SOL    HW2 4566   6.905   4.675   1.138
 1223SOL     OW 4567   1.275   3.962   5.221
 1223SOL    HW1 4568   1.326   4.023   5.161
 1223SOL    HW2 4569   1.273   4.001   5.314
 1224SOL     OW 4570   4.158   5.239   1.823
 1224SOL    HW1 4571   4.203   5.233   1.734
 1224SOL    HW2 4572   4.090   5.312   1.820
 1225SOL     OW 4573   5.368   1.913   6.190
 1225SOL    HW1 4574   5.319   1.862   6.119
 1225SOL    HW2 4575   5.340   1.880   6.280
 1226SOL     OW 4576   5.976   5.211   1.437
 1226SOL    HW1 4577   5.893   5.249   1.397
 1226SOL    HW2 4578   5.972   5.222   1.537
 1227SOL     OW 4579   6.351   4.495   0.502
 1227SOL    HW1 4580   6.258   4.487   0.537
 1227SOL    HW2 4581   6.401   4.563   0.555
 1228SOL     OW 4582   4.131   3.845   5.304
 1228SOL    HW1 4583   4.115   3.793   5.219
 1228SOL    HW2 4584   4.131   3.781   5.381
 1229SOL     OW 4585   1.723   5.292   1.839
 1229SOL    HW1 4586   1.712   5.215   1.776
 1229SOL    HW2 4587   1.821   5.311   1.851
 1230SOL     OW 4588   5.655   4.525   0.512
 1230SOL    HW1 4589   5.625   4.619   0.495
 1230SOL    HW2 4590   5.577   4.463   0.503
 1231SOL     OW 4591   2.186   0.837   0.917
 1231SOL    HW1 4592   2.280   0.822   0.949
 1231SOL    HW2 4593   2.156   0.929   0.943
 1232SOL     OW 4594   2.131   2.206   5.925
 1232SOL    HW1 4595   2.151   2.297   5.889
 1232SOL    HW2 4596   2.198   2.141   5.889
 1233SOL     OW 4597   6.819   5.419   5.218
 1233SOL    HW1 4598   6.771   5.354   5.277
 1233SOL    HW2 4599   6.764   5.501   5.207
 1234SOL     OW 4600   6.963   4.611   5.058
 1234SOL    HW1 4601   6.991   4.516   5.070
 1234SOL    HW2 4602   7.001   4.646   4.972
 1235SOL     OW 4603   6.612   4.947   0.364
 1235SOL    HW1 4604   6.680   5.017   0.386
 1235SOL    HW2 4605   6.522   4.977   0.399
 1236SOL     OW 4606   0.119   1.186   2.969
 1236SOL    HW1 4607   0.065   1.162   2.888
 1236SOL    HW2 4608   0.077   1.145   3.050
 1237SOL     OW 4609   0.684   0.621   5.632
 1237SOL    HW1 4610   0.680   0.595   5.536
 1237SOL    HW2 4611   0.591   0.623   5.670
 1238SOL     OW 4612   0.160   0.374   4.489
 1238SOL    HW1 4613   0.247   0.421   4.479
 1238SOL    HW2 4614   0.088   0.426   4.443
 1239SOL     OW 4615   4.332   5.286   3.485
 1239SOL    HW1 4616   4.237   5.318   3.477
 1239SOL    HW2 4617   4.387   5.358   3.527
 1240SOL     OW 4618   0.995   3.824   2.184
 1240SOL    HW1 4619   1.036   3.913   2.203
 1240SOL    HW2 4620   1.065   3.760   2.155
 1241SOL     OW 4621   3.025   5.353   6.174
 1241SOL    HW1 4622   2.960   5.429   6.178
 1241SOL    HW2 4623   3.062   5.345   6.082
 1242SOL     OW 4624   2.149   5.923   0.574
 1242SOL    HW1 4625   2.077   5.945   0.640
 1242SOL    HW2 4626   2.158   5.824   0.566
 1243SOL     OW 4627   1.090   4.419   4.387
 1243SOL    HW1 4628   1.070   4.468   4.302
 1243SOL    HW2 4629   1.019   4.439   4.455
 1244SOL     OW 4630   6.120   6.295   4.979
 1244SOL    HW1 4631   6.185   6.291   4.903
 1244SOL    HW2 4632   6.104   6.390   5.005
 1245SOL     OW 4633   3.836   6.437   1.609
 1245SOL    HW1 4634   3.836   6.417   1.511
 1245SOL    HW2 4635   3.887   6.366   1.658
 1246SOL     OW 4636   5.058   2.203   3.104
 1246SOL    HW1 4637   5.033   2.239   3.195
 1246SOL    HW2 4638   5.043   2.274   3.036
 1247SOL     OW 4639   4.594   6.343   2.874
 1247SOL    HW1 4640   4.597   6.254   2.920
 1247SOL    HW2 4641   4.638   6.335   2.784
 1248SOL     OW 4642   0.315   0.471   5.351
 1248SOL    HW1 4643   0.266   0.477   5.264
 1248SOL    HW2 4644   0.413   0.464   5.334
 1249SOL     OW 4645   6.628   6.890   0.203
 1249SOL    HW1 4646   6.623   6.864   0.107
 1249SOL    HW2 4647   6.536   6.912   0.236
 1250SOL     OW 4648   0.531   4.248   4.771
 1250SOL    HW1 4649   0.434   4.256   4.745
 1250SOL    HW2 4650   0.538   4.192   4.854
 1251SOL     OW 4651   1.677   0.245   3.606
 1251SOL    HW1 4652   1.646   0.203   3.520
 1251SOL    HW2 4653   1.629   0.332   3.619
 1252SOL     OW 4654   3.187   4.755   6.892
 1252SOL    HW1 4655   3.185   4.821   6.966
 1252SOL    HW2 4656   3.130   4.676   6.915
 1253SOL     OW 4657   3.011   5.254   0.434
 1253SOL    HW1 4658   2.980   5.288   0.523
 1253SOL    HW2 4659   2.933   5.249   0.371
 1254SOL     OW 4660   6.477   1.256   4.194
 1254SOL    HW1 4661   6.451   1.159   4.198
 1254SOL    HW2 4662   6.526   1.273   4.109
 1255SOL     OW 4663   5.546   2.118   6.638
 1255SOL    HW1 4664   5.603   2.184   6.589
 1255SOL    HW2 4665   5.579   2.110   6.732
 1256SOL     OW 4666   6.930   6.227   6.187
 1256SOL    HW1 4667   6.951   6.140   6.232
 1256SOL    HW2 4668   7.003   6.292   6.206
 1257SOL     OW 4669   6.764   6.633   2.193
 1257SOL    HW1 4670   6.845   6.603   2.142
 1257SOL    HW2 4671   6.686   6.640   2.130
 1258SOL     OW 4672   5.150   5.062   6.462
 1258SOL    HW1 4673   5.054   5.077   6.440
 1258SOL    HW2 4674   5.199   5.032   6.381
 1259SOL     OW 4675   6.127   6.667   4.155
 1259SOL    HW1 4676   6.216   6.688   4.196
 1259SOL    HW2 4677   6.092   6.748   4.109
 1260SOL     OW 4678   3.163   0.390   1.014
 1260SOL    HW1 4679   3.085   0.402   0.952
 1260SOL    HW2 4680   3.178   0.293   1.031
 1261SOL     OW 4681   1.135   3.465   5.151
 1261SOL    HW1 4682   1.099   3.515   5.230
 1261SOL    HW2 4683   1.178   3.380   5.183
 1262SOL     OW 4684   5.121   6.662   0.183
 1262SOL    HW1 4685   5.177   6.585   0.213
 1262SOL    HW2 4686   5.027   6.649   0.214
 1263SOL     OW 4687   6.732   0.932   1.452
 1263SOL    HW1 4688   6.722   0.935   1.352
 1263SOL    HW2 4689   6.709   0.840   1.485
 1264SOL     OW 4690   6.012   2.412   4.398
 1264SOL    HW1 4691   6.084   2.451   4.341
 1264SOL    HW2 4692   5.971   2.334   4.351
 1265SOL     OW 4693   6.215   6.266   3.736
 1265SOL    HW1 4694   6.165   6.278   3.821
 1265SOL    HW2 4695   6.300   6.319   3.739
 1266SOL     OW 4696   2.637   1.398   5.015
 1266SOL    HW1 4697   2.538   1.412   5.023
 1266SOL    HW2 4698   2.684   1.446   5.089
 1267SOL     OW 4699   6.754   4.456   1.952
 1267SOL    HW1 4700   6.767   4.381   2.018
 1267SOL    HW2 4701   6.829   4.454   1.885
 1268SOL     OW 4702   5.955   5.205   6.525
 1268SOL    HW1 4703   5.948   5.105   6.532
 1268SOL    HW2 4704   5.980   5.230   6.431
 1269SOL     OW 4705   1.005   3.803   5.608
 1269SOL    HW1 4706   1.101   3.785   5.627
 1269SOL    HW2 4707   0.958   3.717   5.589
 1270SOL     OW 4708   1.046   2.649   3.904
 1270SOL    HW1 4709   1.005   2.670   3.816
 1270SOL    HW2 4710   1.014   2.559   3.935
 1271SOL     OW 4711   5.324   4.509   2.808
 1271SOL    HW1 4712   5.302   4.500   2.905
 1271SOL    HW2 4713   5.347   4.419   2.770
 1272SOL     OW 4714   5.749   0.265   0.908
 1272SOL    HW1 4715   5.689   0.337   0.875
 1272SOL    HW2 4716   5.826   0.305   0.958
 1273SOL     OW 4717   2.613   6.370   4.347
 1273SOL    HW1 4718   2.683   6.345   4.280
 1273SOL    HW2 4719   2.586   6.289   4.400
 1274SOL     OW 4720   5.597   2.077   1.284
 1274SOL    HW1 4721   5.578   1.996   1.340
 1274SOL    HW2 4722   5.573   2.159   1.336
 1275SOL     OW 4723   3.664   1.246   3.451
 1275SOL    HW1 4724   3.607   1.243   3.533
 1275SOL    HW2 4725   3.606   1.250   3.369
 1276SOL     OW 4726   5.210   6.527   3.015
 1276SOL    HW1 4727   5.206   6.510   2.916
 1276SOL    HW2 4728   5.130   6.580   3.043
 1277SOL     OW 4729   0.773   1.775   5.165
 1277SOL    HW1 4730   0.759   1.690   5.114
 1277SOL    HW2 4731   0.832   1.837   5.113
 1278SOL     OW 4732   2.629   1.636   4.733
 1278SOL    HW1 4733   2.714   1.670   4.693
 1278SOL    HW2 4734   2.637   1.538   4.751
 1279SOL     OW 4735   1.685   4.575   0.653
 1279SOL    HW1 4736   1.694   4.601   0.749
 1279SOL    HW2 4737   1.662   4.478   0.646
 1280SOL     OW 4738   0.654   6.178   3.000
 1280SOL    HW1 4739   0.707   6.096   3.022
 1280SOL    HW2 4740   0.715   6.251   2.969
 1281SOL     OW 4741   1.363   6.090   4.130
 1281SOL    HW1 4742   1.297   6.015   4.135
 1281SOL    HW2 4743   1.322   6.168   4.083
 1282SOL     OW 4744   1.708   6.999   2.586
 1282SOL    HW1 4745   1.778   6.967   2.650
 1282SOL    HW2 4746   1.627   7.028   2.636
 1283SOL     OW 4747   5.559   4.530   5.466
 1283SOL    HW1 4748   5.566   4.496   5.373
 1283SOL    HW2 4749   5.560   4.630   5.465
 1284SOL     OW 4750   2.779   2.312   3.001
 1284SOL    HW1 4751   2.806   2.287   3.094
 1284SOL    HW2 4752   2.858   2.301   2.940
 1285SOL     OW 4753   6.249   2.353   5.634
 1285SOL    HW1 4754   6.230   2.437   5.685
 1285SOL    HW2 4755   6.332   2.310   5.671
 1286SOL     OW 4756   5.156   5.631   1.146
 1286SOL    HW1 4757   5.163   5.547   1.199
 1286SOL    HW2 4758   5.097   5.615   1.066
 1287SOL     OW 4759   5.800   3.466   6.129
 1287SOL    HW1 4760   5.820   3.542   6.067
 1287SOL    HW2 4761   5.847   3.481   6.216
 1288SOL     OW 4762   0.275   3.195   3.519
 1288SOL    HW1 4763   0.269   3.215   3.421
 1288SOL    HW2 4764   0.338   3.119   3.534
 1289SOL     OW 4765   0.567   5.133   3.166
 1289SOL    HW1 4766   0.484   5.179   3.198
 1289SOL    HW2 4767   0.647   5.175   3.210
 1290SOL     OW 4768   0.111   0.269   1.719
 1290SOL    HW1 4769   0.163   0.229   1.794
 1290SOL    HW2 4770   0.154   0.355   1.690
 1291SOL     OW 4771   1.880   5.344   1.472
 1291SOL    HW1 4772   1.866   5.428   1.524
 1291SOL    HW2 4773   1.941   5.363   1.395
 1292SOL     OW 4774   1.434   0.093   0.429
 1292SOL    HW1 4775   1.461   0.040   0.510
 1292SOL    HW2 4776   1.374   0.037   0.372
 1293SOL     OW 4777   6.625   1.038   6.643
 1293SOL    HW1 4778   6.542   1.018   6.591
 1293SOL    HW2 4779   6.701   0.982   6.609
 1294SOL     OW 4780   0.520   1.492   4.213
 1294SOL    HW1 4781   0.507   1.505   4.311
 1294SOL    HW2 4782   0.538   1.396   4.194
 1295SOL     OW 4783   5.040   3.807   0.302
 1295SOL    HW1 4784   5.050   3.738   0.374
 1295SOL    HW2 4785   4.962   3.866   0.322
 1296SOL     OW 4786   3.544   0.900   0.631
 1296SOL    HW1 4787   3.452   0.907   0.669
 1296SOL    HW2 4788   3.546   0.830   0.559
 1297SOL     OW 4789   5.340   0.672   5.963
 1297SOL    HW1 4790   5.259   0.703   6.013
 1297SOL    HW2 4791   5.388   0.603   6.016
 1298SOL     OW 4792   6.210   2.841   3.145
 1298SOL    HW1 4793   6.147   2.914   3.169
 1298SOL    HW2 4794   6.159   2.756   3.132
 1299SOL     OW 4795   1.763   4.478   4.439
 1299SOL    HW1 4796   1.695   4.498   4.368
 1299SOL    HW2 4797   1.762   4.379   4.458
 1300SOL     OW 4798   3.715   3.338   3.263
 1300SOL    HW1 4799   3.654   3.298   3.195
 1300SOL    HW2 4800   3.683   3.429   3.288
 1301SOL     OW 4801   0.602   0.708   1.534
 1301SOL    HW1 4802   0.639   0.633   1.479
 1301SOL    HW2 4803   0.667   0.785   1.534
 1302SOL     OW 4804   2.736   5.432   5.684
 1302SOL    HW1 4805   2.716   5.484   5.767
 1302SOL    HW2 4806   2.651   5.403   5.641
 1303SOL     OW 4807   2.602   0.093   1.639
 1303SOL    HW1 4808   2.630   0.188   1.627
 1303SOL    HW2 4809   2.601   0.071   1.736
 1304SOL     OW 4810   3.457   0.802   6.067
 1304SOL    HW1 4811   3.498   0.731   6.124
 1304SOL    HW2 4812   3.407   0.867   6.125
 1305SOL     OW 4813   5.838   6.257   4.367
 1305SOL    HW1 4814   5.920   6.207   4.341
 1305SOL    HW2 4815   5.860   6.324   4.438
 1306SOL     OW 4816   1.366   5.494   3.633
 1306SOL    HW1 4817   1.412   5.409   3.657
 1306SOL    HW2 4818   1.377   5.512   3.535
 1307SOL     OW 4819   0.701   0.946   5.394
 1307SOL    HW1 4820   0.783   0.963   5.449
 1307SOL    HW2 4821   0.723   0.964   5.298
 1308SOL     OW 4822   4.209   6.406   3.597
 1308SOL    HW1 4823   4.159   6.336   3.648
 1308SOL    HW2 4824   4.240   6.369   3.510
 1309SOL     OW 4825   6.629   2.922   4.212
 1309SOL    HW1 4826   6.707   2.878   4.257
 1309SOL    HW2 4827   6.662   2.997   4.155
 1310SOL     OW 4828   5.362   4.073   6.153
 1310SOL    HW1 4829   5.394   4.163   6.124
 1310SOL    HW2 4830   5.367   4.009   6.076
 1311SOL     OW 4831   5.542   4.725   0.315
 1311SOL    HW1 4832   5.641   4.720   0.299
 1311SOL    HW2 4833   5.494   4.725   0.228
 1312SOL     OW 4834   6.064   1.540   1.490
 1312SOL    HW1 4835   6.048   1.579   1.581
 1312SOL    HW2 4836   6.093   1.445   1.498
 1313SOL     OW 4837   4.188   5.212   5.163
 1313SOL    HW1 4838   4.194   5.132   5.104
 1313SOL    HW2 4839   4.119   5.275   5.128
 1314SOL     OW 4840   7.001   1.455   6.180
 1314SOL    HW1 4841   6.976   1.375   6.125
 1314SOL    HW2 4842   0.070   1.452   6.200
 1315SOL     OW 4843   1.077   6.935   4.000
 1315SOL    HW1 4844   1.069   7.024   3.956
 1315SOL    HW2 4845   1.138   6.941   4.079
 1316SOL     OW 4846   3.584   5.558   4.209
 1316SOL    HW1 4847   3.680   5.586   4.203
 1316SOL    HW2 4848   3.574   5.486   4.277
 1317SOL     OW 4849   0.249   3.226   3.253
 1317SOL    HW1 4850   0.320   3.238   3.185
 1317SOL    HW2 4851   0.182   3.301   3.246
 1318SOL     OW 4852   0.443   6.246   2.645
 1318SOL    HW1 4853   0.523   6.225   2.701
 1318SOL    HW2 4854   0.463   6.325   2.587
 1319SOL     OW 4855   0.146   6.711   0.882
 1319SOL    HW1 4856   0.124   6.754   0.969
 1319SOL    HW2 4857   0.237   6.670   0.886
 1320SOL     OW 4858   6.244   4.897   5.337
 1320SOL    HW1 4859   6.343   4.889   5.336
 1320SOL    HW2 4860   6.203   4.812   5.304
 1321SOL     OW 4861   3.763   0.943   1.301
 1321SOL    HW1 4862   3.740   0.972   1.208
 1321SOL    HW2 4863   3.703   0.989   1.366
 1322SOL     OW 4864   5.239   1.000   5.933
 1322SOL    HW1 4865   5.337   0.988   5.950
 1322SOL    HW2 4866   5.190   1.003   6.020
 1323SOL     OW 4867   6.729   0.408   4.534
 1323SOL    HW1 4868   6.754   0.504   4.521
 1323SOL    HW2 4869   6.639   0.392   4.494
 1324SOL     OW 4870   1.327   2.433   0.750
 1324SOL    HW1 4871   1.397   2.373   0.711
 1324SOL    HW2 4872   1.355   2.528   0.738
 1325SOL     OW 4873   4.921   5.198   3.602
 1325SOL    HW1 4874   4.984   5.269   3.633
 1325SOL    HW2 4875   4.835   5.206   3.653
 1326SOL     OW 4876   4.967   4.231   4.214
 1326SOL    HW1 4877   5.057   4.186   4.211
 1326SOL    HW2 4878   4.905   4.184   4.151
 1327SOL     OW 4879   3.348   5.938   3.495
 1327SOL    HW1 4880   3.353   6.038   3.498
 1327SOL    HW2 4881   3.253   5.910   3.504
 1328SOL     OW 4882   2.417   1.773   1.813
 1328SOL    HW1 4883   2.396   1.781   1.715
 1328SOL    HW2 4884   2.491   1.836   1.836
 1329SOL     OW 4885   0.970   5.719   1.726
 1329SOL    HW1 4886   0.914   5.723   1.644
 1329SOL    HW2 4887   1.067   5.730   1.701
 1330SOL     OW 4888   6.689   6.273   1.525
 1330SOL    HW1 4889   6.662   6.344   1.590
 1330SOL    HW2 4890   6.762   6.306   1.467
 1331SOL     OW 4891   0.784   1.876   1.334
 1331SOL    HW1 4892   0.723   1.810   1.379
 1331SOL    HW2 4893   0.731   1.954   1.302
 1332SOL     OW 4894   4.160   1.863   0.185
 1332SOL    HW1 4895   4.175   1.957   0.155
 1332SOL    HW2 4896   4.122   1.863   0.277
 1333SOL     OW 4897   3.884   3.677   5.617
 1333SOL    HW1 4898   3.976   3.700   5.585
 1333SOL    HW2 4899   3.883   3.582   5.649
 1334SOL     OW 4900   1.929   3.478   3.725
 1334SOL    HW1 4901   2.000   3.539   3.758
 1334SOL    HW2 4902   1.875   3.445   3.802
 1335SOL     OW 4903   1.878   5.807   3.762
 1335SOL    HW1 4904   1.968   5.805   3.719
 1335SOL    HW2 4905   1.869   5.731   3.826
 1336SOL     OW 4906   7.011   6.700   4.521
 1336SOL    HW1 4907   0.077   6.669   4.518
 1336SOL    HW2 4908   6.979   6.721   4.429
 1337SOL     OW 4909   2.865   0.412   6.837
 1337SOL    HW1 4910   2.869   0.392   6.935
 1337SOL    HW2 4911   2.932   0.355   6.789
 1338SOL     OW 4912   4.056   4.483   0.562
 1338SOL    HW1 4913   3.995   4.408   0.539
 1338SOL    HW2 4914   4.129   4.450   0.623
 1339SOL     OW 4915   0.300   4.450   6.522
 1339SOL    HW1 4916   0.315   4.378   6.589
 1339SOL    HW2 4917   0.242   4.521   6.562
 1340SOL     OW 4918   2.604   1.535   5.902
 1340SOL    HW1 4919   2.628   1.445   5.938
 1340SOL    HW2 4920   2.687   1.580   5.868
 1341SOL     OW 4921   5.115   1.644   3.865
 1341SOL    HW1 4922   5.081   1.684   3.780
 1341SOL    HW2 4923   5.068   1.685   3.943
 1342SOL     OW 4924   0.733   5.620   0.220
 1342SOL    HW1 4925   0.810   5.676   0.191
 1342SOL    HW2 4926   0.766   5.533   0.256
 1343SOL     OW 4927   3.126   6.042   3.224
 1343SOL    HW1 4928   3.190   6.116   3.204
 1343SOL    HW2 4929   3.037   6.081   3.248
 1344SOL     OW 4930   4.291   1.482   2.234
 1344SOL    HW1 4931   4.383   1.520   2.234
 1344SOL    HW2 4932   4.226   1.548   2.271
 1345SOL     OW 4933   6.661   5.540   1.815
 1345SOL    HW1 4934   6.597   5.548   1.738
 1345SOL    HW2 4935   6.632   5.465   1.875
 1346SOL     OW 4936   6.501   1.797   3.132
 1346SOL    HW1 4937   6.434   1.864   3.100
 1346SOL    HW2 4938   6.583   1.845   3.163
 1347SOL     OW 4939   4.203   0.912   3.633
 1347SOL    HW1 4940   4.176   1.008   3.638
 1347SOL    HW2 4941   4.130   0.855   3.671
 1348SOL     OW 4942   5.715   6.337   4.692
 1348SOL    HW1 4943   5.807   6.300   4.704
 1348SOL    HW2 4944   5.649   6.278   4.740
 1349SOL     OW 4945   5.019   1.277   6.750
 1349SOL    HW1 4946   4.924   1.305   6.734
 1349SOL    HW2 4947   5.053   1.229   6.669
 1350SOL     OW 4948   4.204   1.801   4.866
 1350SOL    HW1 4949   4.184   1.714   4.910
 1350SOL    HW2 4950   4.135   1.821   4.797
 1351SOL     OW 4951   1.345   1.802   4.579
 1351SOL    HW1 4952   1.255   1.807   4.622
 1351SOL    HW2 4953   1.346   1.727   4.513
 1352SOL     OW 4954   1.355   6.541   4.661
 1352SOL    HW1 4955   1.364   6.446   4.631
 1352SOL    HW2 4956   1.415   6.599   4.606
 1353SOL     OW 4957   2.834   3.255   5.805
 1353SOL    HW1 4958   2.829   3.314   5.886
 1353SOL    HW2 4959   2.761   3.280   5.742
 1354SOL     OW 4960   0.644   6.423   6.866
 1354SOL    HW1 4961   0.700   6.389   6.790
 1354SOL    HW2 4962   0.596   6.346   6.909
 1355SOL     OW 4963   4.697   3.695   0.207
 1355SOL    HW1 4964   4.716   3.721   0.113
 1355SOL    HW2 4965   4.601   3.713   0.228
 1356SOL     OW 4966   3.961   3.072   2.839
 1356SOL    HW1 4967   4.044   3.020   2.861
 1356SOL    HW2 4968   3.953   3.081   2.739
 1357SOL     OW 4969   4.096   2.489   6.138
 1357SOL    HW1 4970   4.149   2.572   6.156
 1357SOL    HW2 4971   4.064   2.450   6.224
 1358SOL     OW 4972   2.291   2.921   4.601
 1358SOL    HW1 4973   2.344   2.851   4.554
 1358SOL    HW2 4974   2.277   2.999   4.540
 1359SOL     OW 4975   0.930   1.506   6.632
 1359SOL    HW1 4976   0.849   1.520   6.690
 1359SOL    HW2 4977   0.959   1.594   6.595
 1360SOL     OW 4978   2.958   3.818   5.171
 1360SOL    HW1 4979   2.931   3.901   5.220
 1360SOL    HW2 4980   3.058   3.808   5.175
 1361SOL     OW 4981   1.308   6.159   1.323
 1361SOL    HW1 4982   1.226   6.211   1.349
 1361SOL    HW2 4983   1.371   6.219   1.273
 1362SOL     OW 4984   3.644   0.891   6.285
 1362SOL    HW1 4985   3.637   0.804   6.334
 1362SOL    HW2 4986   3.733   0.896   6.239
 1363SOL     OW 4987   6.377   5.836   1.473
 1363SOL    HW1 4988   6.346   5.879   1.388
 1363SOL    HW2 4989   6.419   5.905   1.532
 1364SOL     OW 4990   1.422   3.134   1.264
 1364SOL    HW1 4991   1.463   3.105   1.178
 1364SOL    HW2 4992   1.367   3.059   1.302
 1365SOL     OW 4993   1.360   2.965   6.253
 1365SOL    HW1 4994   1.342   2.881   6.204
 1365SOL    HW2 4995   1.451   2.961   6.294
 1366SOL     OW 4996   4.108   0.977   2.017
 1366SOL    HW1 4997   4.024   1.004   2.065
 1366SOL    HW2 4998   4.084   0.929   1.933
 1367SOL     OW 4999   1.844   0.205   4.071
 1367SOL    HW1 5000   1.755   0.201   4.117
 1367SOL    HW2 5001   1.856   0.123   4.015
 1368SOL     OW 5002   2.247   5.816   4.792
 1368SOL    HW1 5003   2.224   5.902   4.746
 1368SOL    HW2 5004   2.258   5.743   4.725
 1369SOL     OW 5005   2.646   5.698   3.285
 1369SOL    HW1 5006   2.727   5.652   3.248
 1369SOL    HW2 5007   2.576   5.631   3.307
 1370SOL     OW 5008   6.379   2.879   2.934
 1370SOL    HW1 5009   6.382   2.964   2.882
 1370SOL    HW2 5010   6.305   2.884   3.001
 1371SOL     OW 5011   6.666   1.863   6.439
 1371SOL    HW1 5012   6.657   1.962   6.443
 1371SOL    HW2 5013   6.677   1.827   6.532
 1372SOL     OW 5014   4.836   2.028   2.112
 1372SOL    HW1 5015   4.839   1.995   2.206
 1372SOL    HW2 5016   4.914   1.991   2.061
 1373SOL     OW 5017   4.032   2.710   0.878
 1373SOL    HW1 5018   3.976   2.781   0.835
 1373SOL    HW2 5019   4.055   2.738   0.972
 1374SOL     OW 5020   3.413   3.486   4.149
 1374SOL    HW1 5021   3.377   3.573   4.114
 1374SOL    HW2 5022   3.509   3.476   4.121
 1375SOL     OW 5023   6.395   3.863   5.455
 1375SOL    HW1 5024   6.365   3.791   5.393
 1375SOL    HW2 5025   6.316   3.912   5.491
 1376SOL     OW 5026   2.758   4.747   6.621
 1376SOL    HW1 5027   2.731   4.717   6.529
 1376SOL    HW2 5028   2.795   4.840   6.616
 1377SOL     OW 5029   1.031   1.927   3.660
 1377SOL    HW1 5030   1.021   1.841   3.609
 1377SOL    HW2 5031   0.948   1.942   3.714
 1378SOL     OW 5032   4.930   2.807   3.632
 1378SOL    HW1 5033   4.947   2.813   3.534
 1378SOL    HW2 5034   4.981   2.730   3.670
 1379SOL     OW 5035   5.478   5.616   6.518
 1379SOL    HW1 5036   5.550   5.572   6.572
 1379SOL    HW2 5037   5.406   5.550   6.499
 1380SOL     OW 5038   6.527   6.784   3.625
 1380SOL    HW1 5039   6.613   6.759   3.582
 1380SOL    HW2 5040   6.525   6.749   3.719
 1381SOL     OW 5041   7.004   3.019   6.216
 1381SOL    HW1 5042   7.020   2.974   6.303
 1381SOL    HW2 5043   6.915   2.994   6.180
 1382SOL     OW 5044   4.345   1.903   5.409
 1382SOL    HW1 5045   4.322   1.809   5.383
 1382SOL    HW2 5046   4.265   1.946   5.452
 1383SOL     OW 5047   5.519   0.019   0.520
 1383SOL    HW1 5048   5.550   0.107   0.555
 1383SOL    HW2 5049   5.516   0.022   0.420
 1384SOL     OW 5050   5.518   1.940   2.271
 1384SOL    HW1 5051   5.527   1.959   2.369
 1384SOL    HW2 5052   5.606   1.911   2.235
 1385SOL     OW 5053   6.877   6.937   2.381
 1385SOL    HW1 5054   6.855   6.841   2.400
 1385SOL    HW2 5055   6.961   6.962   2.430
 1386SOL     OW 5056   1.992   0.588   4.023
 1386SOL    HW1 5057   2.061   0.525   4.058
 1386SOL    HW2 5058   1.944   0.546   3.946
 1387SOL     OW 5059   1.202   5.460   1.431
 1387SOL    HW1 5060   1.185   5.496   1.522
 1387SOL    HW2 5061   1.264   5.382   1.437
 1388SOL     OW 5062   6.248   0.624   1.639
 1388SOL    HW1 5063   6.294   0.603   1.552
 1388SOL    HW2 5064   6.315   0.620   1.713
 1389SOL     OW 5065   6.590   0.193   0.738
 1389SOL    HW1 5066   6.672   0.150   0.702
 1389SOL    HW2 5067   6.599   0.293   0.730
 1390SOL     OW 5068   1.275   1.327   4.457
 1390SOL    HW1 5069   1.281   1.426   4.449
 1390SOL    HW2 5070   1.352   1.285   4.409
 1391SOL     OW 5071   1.024   3.688   3.652
 1391SOL    HW1 5072   0.933   3.699   3.692
 1391SOL    HW2 5073   1.088   3.656   3.722
 1392SOL     OW 5074   5.280   5.726   3.976
 1392SOL    HW1 5075   5.259   5.663   4.051
 1392SOL    HW2 5076   5.249   5.818   4.001
 1393SOL     OW 5077   3.632   4.719   6.605
 1393SOL    HW1 5078   3.548   4.743   6.654
 1393SOL    HW2 5079   3.711   4.736   6.663
 1394SOL     OW 5080   1.256   6.880   6.667
 1394SOL    HW1 5081   1.273   6.964   6.718
 1394SOL    HW2 5082   1.189   6.824   6.716
 1395SOL     OW 5083   4.014   5.104   6.288
 1395SOL    HW1 5084   3.981   5.090   6.381
 1395SOL    HW2 5085   3.944   5.075   6.223
 1396SOL     OW 5086   4.742   5.681   2.903
 1396SOL    HW1 5087   4.675   5.664   2.831
 1396SOL    HW2 5088   4.781   5.594   2.933
 1397SOL     OW 5089   5.960   6.157   4.722
 1397SOL    HW1 5090   5.914   6.090   4.664
 1397SOL    HW2 5091   6.052   6.175   4.686
 1398SOL     OW 5092   1.816   0.252   5.379
 1398SOL    HW1 5093   1.822   0.347   5.411
 1398SOL    HW2 5094   1.754   0.247   5.301
 1399SOL     OW 5095   2.630   5.527   2.361
 1399SOL    HW1 5096   2.681   5.604   2.399
 1399SOL    HW2 5097   2.641   5.525   2.262
 1400SOL     OW 5098   1.396   1.021   3.383
 1400SOL    HW1 5099   1.383   0.952   3.312
 1400SOL    HW2 5100   1.427   0.977   3.468
 1401SOL     OW 5101   6.941   2.424   4.300
 1401SOL    HW1 5102   6.997   2.496   4.259
 1401SOL    HW2 5103   6.873   2.464   4.361
 1402SOL     OW 5104   5.292   2.504   6.864
 1402SOL    HW1 5105   5.298   2.541   6.957
 1402SOL    HW2 5106   5.382   2.505   6.822
 1403SOL     OW 5107   3.848   0.986   2.150
 1403SOL    HW1 5108   3.903   1.032   2.218
 1403SOL    HW2 5109   3.756   1.027   2.148
 1404SOL     OW 5110   4.613   0.951   6.209
 1404SOL    HW1 5111   4.551   1.026   6.185
 1404SOL    HW2 5112   4.667   0.977   6.289
 1405SOL     OW 5113   3.477   2.956   0.626
 1405SOL    HW1 5114   3.446   2.867   0.594
 1405SOL    HW2 5115   3.577   2.958   0.629
 1406SOL     OW 5116   0.639   3.386   1.682
 1406SOL    HW1 5117   0.684   3.434   1.757
 1406SOL    HW2 5118   0.662   3.431   1.595
 1407SOL     OW 5119   6.539   2.497   2.351
 1407SOL    HW1 5120   6.471   2.426   2.365
 1407SOL    HW2 5121   6.609   2.465   2.286
 1408SOL     OW 5122   6.970   4.296   0.009
 1408SOL    HW1 5123   0.033   4.335   0.002
 1408SOL    HW2 5124   6.903   4.369   0.020
 1409SOL     OW 5125   6.795   1.186   3.727
 1409SOL    HW1 5126   6.713   1.241   3.744
 1409SOL    HW2 5127   6.814   1.183   3.629
 1410SOL     OW 5128   0.451   1.726   6.353
 1410SOL    HW1 5129   0.536   1.694   6.394
 1410SOL    HW2 5130   0.466   1.746   6.256
 1411SOL     OW 5131   1.841   1.263   1.012
 1411SOL    HW1 5132   1.754   1.251   1.060
 1411SOL    HW2 5133   1.867   1.359   1.013
 1412SOL     OW 5134   2.079   1.950   0.354
 1412SOL    HW1 5135   2.099   1.911   0.264
 1412SOL    HW2 5136   2.015   2.027   0.343
 1413SOL     OW 5137   3.328   6.853   3.508
 1413SOL    HW1 5138   3.331   6.925   3.438
 1413SOL    HW2 5139   3.399   6.869   3.576
 1414SOL     OW 5140   1.442   0.668   2.537
 1414SOL    HW1 5141   1.428   0.767   2.534
 1414SOL    HW2 5142   1.535   0.648   2.567
 1415SOL     OW 5143   5.522   6.422   4.541
 1415SOL    HW1 5144   5.433   6.390   4.571
 1415SOL    HW2 5145   5.593   6.387   4.602
 1416SOL     OW 5146   4.944   5.909   3.767
 1416SOL    HW1 5147   5.035   5.943   3.743
 1416SOL    HW2 5148   4.934   5.815   3.737
 1417SOL     OW 5149   3.312   3.486   5.772
 1417SOL    HW1 5150   3.212   3.487   5.781
 1417SOL    HW2 5151   3.353   3.447   5.855
 1418SOL     OW 5152   3.511   4.133   4.204
 1418SOL    HW1 5153   3.416   4.151   4.178
 1418SOL    HW2 5154   3.557   4.085   4.131
 1419SOL     OW 5155   3.423   6.118   3.922
 1419SOL    HW1 5156   3.450   6.181   3.849
 1419SOL    HW2 5157   3.324   6.105   3.920
 1420SOL     OW 5158   0.299   6.838   3.104
 1420SOL    HW1 5159   0.288   6.848   3.202
 1420SOL    HW2 5160   0.390   6.801   3.084
 1421SOL     OW 5161   3.703   0.896   3.197
 1421SOL    HW1 5162   3.642   0.824   3.230
 1421SOL    HW2 5163   3.660   0.986   3.211
 1422SOL     OW 5164   2.626   5.514   0.231
 1422SOL    HW1 5165   2.653   5.418   0.244
 1422SOL    HW2 5166   2.574   5.544   0.312
 1423SOL     OW 5167   4.752   0.425   2.566
 1423SOL    HW1 5168   4.669   0.481   2.574
 1423SOL    HW2 5169   4.728   0.333   2.535
 1424SOL     OW 5170   6.557   5.576   2.293
 1424SOL    HW1 5171   6.476   5.543   2.244
 1424SOL    HW2 5172   6.618   5.499   2.313
 1425SOL     OW 5173   1.993   0.021   4.214
 1425SOL    HW1 5174   1.986   0.005   4.116
 1425SOL    HW2 5175   1.922   0.086   4.243
 1426SOL     OW 5176   1.544   1.002   6.276
 1426SOL    HW1 5177   1.602   0.999   6.195
 1426SOL    HW2 5178   1.573   0.931   6.340
 1427SOL     OW 5179   4.923   2.661   6.201
 1427SOL    HW1 5180   4.858   2.678   6.276
 1427SOL    HW2 5181   4.998   2.727   6.206
 1428SOL     OW 5182   5.520   0.477   1.091
 1428SOL    HW1 5183   5.485   0.556   1.141
 1428SOL    HW2 5184   5.480   0.393   1.129
 1429SOL     OW 5185   5.519   5.673   1.440
 1429SOL    HW1 5186   5.424   5.642   1.442
 1429SOL    HW2 5187   5.540   5.720   1.526
 1430SOL     OW 5188   3.073   4.937   2.564
 1430SOL    HW1 5189   3.103   4.931   2.659
 1430SOL    HW2 5190   2.997   5.001   2.557
 1431SOL     OW 5191   2.147   1.137   0.721
 1431SOL    HW1 5192   2.201   1.144   0.805
 1431SOL    HW2 5193   2.061   1.090   0.741
 1432SOL     OW 5194   3.023   0.082   1.202
 1432SOL    HW1 5195   3.072   0.080   1.115
 1432SOL    HW2 5196   3.088   0.075   1.278
 1433SOL     OW 5197   5.356   6.959   3.269
 1433SOL    HW1 5198   5.286   6.999   3.212
 1433SOL    HW2 5199   5.372   6.864   3.241
 1434SOL     OW 5200   0.556   0.810   5.091
 1434SOL    HW1 5201   0.491   0.834   5.019
 1434SOL    HW2 5202   0.642   0.858   5.076
 1435SOL     OW 5203   6.947   2.088   3.886
 1435SOL    HW1 5204   0.002   2.043   3.917
 1435SOL    HW2 5205   6.895   2.026   3.828
 1436SOL     OW 5206   5.470   3.421   1.338
 1436SOL    HW1 5207   5.446   3.480   1.415
 1436SOL    HW2 5208   5.415   3.448   1.258
 1437SOL     OW 5209   4.605   0.687   2.626
 1437SOL    HW1 5210   4.594   0.714   2.722
 1437SOL    HW2 5211   4.594   0.767   2.567
 1438SOL     OW 5212   3.065   6.827   2.128
 1438SOL    HW1 5213   3.021   6.737   2.130
 1438SOL    HW2 5214   3.003   6.895   2.089
 1439SOL     OW 5215   0.587   5.648   2.551
 1439SOL    HW1 5216   0.498   5.653   2.505
 1439SOL    HW2 5217   0.640   5.572   2.513
 1440SOL     OW 5218   2.276   2.854   1.031
 1440SOL    HW1 5219   2.229   2.917   1.092
 1440SOL    HW2 5220   2.354   2.900   0.988
 1441SOL     OW 5221   5.021   6.313   6.406
 1441SOL    HW1 5222   4.930   6.351   6.397
 1441SOL    HW2 5223   5.065   6.348   6.489
 1442SOL     OW 5224   4.607   5.838   1.847
 1442SOL    HW1 5225   4.673   5.898   1.892
 1442SOL    HW2 5226   4.657   5.775   1.787
 1443SOL     OW 5227   6.855   2.783   2.237
 1443SOL    HW1 5228   6.795   2.712   2.273
 1443SOL    HW2 5229   6.824   2.810   2.146
 1444SOL     OW 5230   0.538   6.806   4.733
 1444SOL    HW1 5231   0.585   6.743   4.795
 1444SOL    HW2 5232   0.440   6.788   4.735
 1445SOL     OW 5233   0.599   2.064   1.245
 1445SOL    HW1 5234   0.548   2.115   1.314
 1445SOL    HW2 5235   0.556   2.074   1.156
 1446SOL     OW 5236   6.189   5.638   1.974
 1446SOL    HW1 5237   6.178   5.675   1.882
 1446SOL    HW2 5238   6.106   5.657   2.027
 1447SOL     OW 5239   0.103   6.760   3.878
 1447SOL    HW1 5240   0.182   6.784   3.823
 1447SOL    HW2 5241   0.125   6.682   3.936
 1448SOL     OW 5242   1.830   0.805   5.413
 1448SOL    HW1 5243   1.912   0.846   5.453
 1448SOL    HW2 5244   1.755   0.810   5.478
 1449SOL     OW 5245   2.145   3.254   2.524
 1449SOL    HW1 5246   2.165   3.181   2.458
 1449SOL    HW2 5247   2.097   3.215   2.602
 1450SOL     OW 5248   3.015   2.186   2.485
 1450SOL    HW1 5249   3.102   2.180   2.437
 1450SOL    HW2 5250   2.944   2.217   2.421
 1451SOL     OW 5251   3.940   1.917   2.844
 1451SOL    HW1 5252   4.010   1.845   2.850
 1451SOL    HW2 5253   3.852   1.881   2.874
 1452SOL     OW 5254   3.984   3.097   5.325
 1452SOL    HW1 5255   4.072   3.052   5.311
 1452SOL    HW2 5256   3.926   3.039   5.382
 1453SOL     OW 5257   1.678   3.008   4.853
 1453SOL    HW1 5258   1.709   3.053   4.936
 1453SOL    HW2 5259   1.752   3.007   4.785
 1454SOL     OW 5260   3.283   2.149   2.353
 1454SOL    HW1 5261   3.242   2.123   2.265
 1454SOL    HW2 5262   3.351   2.220   2.338
 1455SOL     OW 5263   6.828   5.916   2.843
 1455SOL    HW1 5264   6.846   5.968   2.759
 1455SOL    HW2 5265   6.752   5.853   2.827
 1456SOL     OW 5266   6.269   5.967   3.576
 1456SOL    HW1 5267   6.193   6.014   3.621
 1456SOL    HW2 5268   6.237   5.923   3.493
 1457SOL     OW 5269   1.470   5.621   5.676
 1457SOL    HW1 5270   1.372   5.640   5.674
 1457SOL    HW2 5271   1.493   5.571   5.760
 1458SOL     OW 5272   6.950   5.359   4.976
 1458SOL    HW1 5273   6.906   5.381   5.063
 1458SOL    HW2 5274   0.021   5.359   4.988
 1459SOL     OW 5275   0.100   6.305   5.377
 1459SOL    HW1 5276   0.030   6.234   5.383
 1459SOL    HW2 5277   0.057   6.395   5.374
 1460SOL     OW 5278   1.857   6.522   5.164
 1460SOL    HW1 5279   1.949   6.485   5.179
 1460SOL    HW2 5280   1.826   6.568   5.247
 1461SOL     OW 5281   5.886   3.890   3.406
 1461SOL    HW1 5282   5.956   3.934   3.350
 1461SOL    HW2 5283   5.846   3.814   3.355
 1462SOL     OW 5284   1.120   1.759   2.276
 1462SOL    HW1 5285   1.135   1.827   2.204
 1462SOL    HW2 5286   1.066   1.684   2.240
 1463SOL     OW 5287   2.013   4.576   6.955
 1463SOL    HW1 5288   2.037   4.625   6.872
 1463SOL    HW2 5289   1.917   4.548   6.952
 1464SOL     OW 5290   0.739   4.164   5.451
 1464SOL    HW1 5291   0.823   4.111   5.436
 1464SOL    HW2 5292   0.754   4.230   5.525
 1465SOL     OW 5293   1.909   3.112   5.526
 1465SOL    HW1 5294   1.852   3.037   5.561
 1465SOL    HW2 5295   2.006   3.091   5.544
 1466SOL     OW 5296   5.583   1.165   2.701
 1466SOL    HW1 5297   5.622   1.096   2.640
 1466SOL    HW2 5298   5.537   1.235   2.646
 1467SOL     OW 5299   0.595   0.617   3.829
 1467SOL    HW1 5300   0.619   0.712   3.845
 1467SOL    HW2 5301   0.499   0.601   3.853
 1468SOL     OW 5302   3.797   6.780   4.069
 1468SOL    HW1 5303   3.722   6.725   4.107
 1468SOL    HW2 5304   3.774   6.808   3.976
 1469SOL     OW 5305   5.277   4.639   3.453
 1469SOL    HW1 5306   5.260   4.642   3.552
 1469SOL    HW2 5307   5.232   4.717   3.409
 1470SOL     OW 5308   6.166   1.302   1.494
 1470SOL    HW1 5309   6.232   1.285   1.568
 1470SOL    HW2 5310   6.091   1.236   1.500
 1471SOL     OW 5311   4.987   6.191   0.317
 1471SOL    HW1 5312   4.915   6.128   0.289
 1471SOL    HW2 5313   5.063   6.141   0.358
 1472SOL     OW 5314   1.956   0.328   0.045
 1472SOL    HW1 5315   2.028   0.398   0.046
 1472SOL    HW2 5316   1.947   0.291   6.982
 1473SOL     OW 5317   1.413   6.067   3.674
 1473SOL    HW1 5318   1.328   6.015   3.680
 1473SOL    HW2 5319   1.490   6.004   3.660
 1474SOL     OW 5320   1.580   4.499   1.570
 1474SOL    HW1 5321   1.517   4.571   1.601
 1474SOL    HW2 5322   1.537   4.447   1.496
 1475SOL     OW 5323   6.613   6.796   6.396
 1475SOL    HW1 5324   6.618   6.732   6.473
 1475SOL    HW2 5325   6.694   6.783   6.338
 1476SOL     OW 5326   6.127   0.228   6.827
 1476SOL    HW1 5327   6.083   0.139   6.837
 1476SOL    HW2 5328   6.226   0.218   6.831
 1477SOL     OW 5329   3.723   4.248   1.849
 1477SOL    HW1 5330   3.771   4.211   1.770
 1477SOL    HW2 5331   3.718   4.178   1.921
 1478SOL     OW 5332   4.161   3.892   6.270
 1478SOL    HW1 5333   4.081   3.831   6.266
 1478SOL    HW2 5334   4.244   3.839   6.253
 1479SOL     OW 5335   4.197   4.602   1.056
 1479SOL    HW1 5336   4.137   4.638   0.985
 1479SOL    HW2 5337   4.291   4.627   1.036
 1480SOL     OW 5338   2.751   1.737   3.794
 1480SOL    HW1 5339   2.772   1.833   3.813
 1480SOL    HW2 5340   2.837   1.685   3.791
 1481SOL     OW 5341   4.074   1.609   5.588
 1481SOL    HW1 5342   4.016   1.577   5.663
 1481SOL    HW2 5343   4.066   1.708   5.579
 1482SOL     OW 5344   6.747   1.343   0.872
 1482SOL    HW1 5345   6.732   1.247   0.893
 1482SOL    HW2 5346   6.693   1.400   0.934
 1483SOL     OW 5347   5.922   6.134   0.384
 1483SOL    HW1 5348   5.982   6.206   0.349
 1483SOL    HW2 5349   5.930   6.129   0.483
 1484SOL     OW 5350   3.338   6.466   5.805
 1484SOL    HW1 5351   3.323   6.562   5.782
 1484SOL    HW2 5352   3.289   6.444   5.890
 1485SOL     OW 5353   5.370   3.990   3.462
 1485SOL    HW1 5354   5.284   3.965   3.506
 1485SOL    HW2 5355   5.353   4.054   3.388
 1486SOL     OW 5356   6.270   6.213   4.429
 1486SOL    HW1 5357   6.230   6.139   4.376
 1486SOL    HW2 5358   6.291   6.290   4.368
 1487SOL     OW 5359   5.872   0.282   6.445
 1487SOL    HW1 5360   5.940   0.266   6.516
 1487SOL    HW2 5361   5.822   0.367   6.465
 1488SOL     OW 5362   6.601   2.903   2.528
 1488SOL    HW1 5363   6.556   2.861   2.607
 1488SOL    HW2 5364   6.627   2.997   2.551
 1489SOL     OW 5365   3.130   5.588   6.733
 1489SOL    HW1 5366   3.204   5.521   6.735
 1489SOL    HW2 5367   3.094   5.596   6.640
 1490SOL     OW 5368   5.895   2.557   2.047
 1490SOL    HW1 5369   5.958   2.568   1.971
 1490SOL    HW2 5370   5.821   2.495   2.021
 1491SOL     OW 5371   5.713   3.666   4.671
 1491SOL    HW1 5372   5.769   3.741   4.637
 1491SOL    HW2 5373   5.771   3.598   4.716
 1492SOL     OW 5374   1.315   2.990   2.018
 1492SOL    HW1 5375   1.220   2.964   2.000
 1492SOL    HW2 5376   1.349   2.939   2.096
 1493SOL     OW 5377   6.388   1.909   6.664
 1493SOL    HW1 5378   6.463   1.850   6.694
 1493SOL    HW2 5379   6.303   1.856   6.660
 1494SOL     OW 5380   1.610   3.209   6.667
 1494SOL    HW1 5381   1.686   3.201   6.604
 1494SOL    HW2 5382   1.540   3.268   6.627
 1495SOL     OW 5383   6.202   3.934   4.116
 1495SOL    HW1 5384   6.188   3.855   4.176
 1495SOL    HW2 5385   6.114   3.968   4.084
 1496SOL     OW 5386   6.713   5.394   5.857
 1496SOL    HW1 5387   6.674   5.303   5.874
 1496SOL    HW2 5388   6.647   5.464   5.883
 1497SOL     OW 5389   4.640   2.578   2.627
 1497SOL    HW1 5390   4.571   2.530   2.573
 1497SOL    HW2 5391   4.663   2.665   2.582
 1498SOL     OW 5392   3.660   4.080   0.663
 1498SOL    HW1 5393   3.580   4.052   0.716
 1498SOL    HW2 5394   3.660   4.033   0.575
 1499SOL     OW 5395   1.428   4.697   4.131
 1499SOL    HW1 5396   1.409   4.627   4.062
 1499SOL    HW2 5397   1.436   4.654   4.221
 1500SOL     OW 5398   2.519   5.745   1.440
 1500SOL    HW1 5399   2.500   5.725   1.536
 1500SOL    HW2 5400   2.561   5.835   1.432
 1501SOL     OW 5401   5.620   1.412   1.374
 1501SOL    HW1 5402   5.544   1.467   1.408
 1501SOL    HW2 5403   5.700   1.470   1.360
 1502SOL     OW 5404   0.706   6.661   5.925
 1502SOL    HW1 5405   0.672   6.700   6.011
 1502SOL    HW2 5406   0.774   6.591   5.945
 1503SOL     OW 5407   6.383   6.344   2.271
 1503SOL    HW1 5408   6.289   6.378   2.263
 1503SOL    HW2 5409   6.438   6.407   2.324
 1504SOL     OW 5410   1.403   0.652   3.718
 1504SOL    HW1 5411   1.361   0.672   3.806
 1504SOL    HW2 5412   1.434   0.737   3.675
 1505SOL     OW 5413   6.920   4.464   4.703
 1505SOL    HW1 5414   6.900   4.368   4.720
 1505SOL    HW2 5415   6.984   4.472   4.626
 1506SOL     OW 5416   0.940   1.349   0.659
 1506SOL    HW1 5417   0.882   1.280   0.615
 1506SOL    HW2 5418   0.883   1.412   0.710
 1507SOL     OW 5419   2.058   2.330   4.036
 1507SOL    HW1 5420   2.125   2.403   4.052
 1507SOL    HW2 5421   1.998   2.356   3.961
 1508SOL     OW 5422   1.615   0.700   1.413
 1508SOL    HW1 5423   1.565   0.616   1.392
 1508SOL    HW2 5424   1.609   0.763   1.336
 1509SOL     OW 5425   4.336   0.625   4.695
 1509SOL    HW1 5426   4.303   0.623   4.790
 1509SOL    HW2 5427   4.343   0.720   4.665
 1510SOL     OW 5428   2.835   6.735   5.292
 1510SOL    HW1 5429   2.764   6.722   5.362
 1510SOL    HW2 5430   2.891   6.653   5.286
 1511SOL     OW 5431   3.899   4.169   5.133
 1511SOL    HW1 5432   3.895   4.268   5.147
 1511SOL    HW2 5433   3.908   4.124   5.222
 1512SOL     OW 5434   5.539   6.664   0.911
 1512SOL    HW1 5435   5.564   6.698   1.002
 1512SOL    HW2 5436   5.539   6.740   0.846
 1513SOL     OW 5437   3.024   6.201   5.667
 1513SOL    HW1 5438   3.002   6.112   5.627
 1513SOL    HW2 5439   3.111   6.235   5.629
 1514SOL     OW 5440   3.202   1.286   6.996
 1514SOL    HW1 5441   3.291   1.248   6.973
 1514SOL    HW2 5442   3.193   1.291   0.067
 1515SOL     OW 5443   3.509   0.757   1.481
 1515SOL    HW1 5444   3.587   0.696   1.469
 1515SOL    HW2 5445   3.542   0.851   1.490
 1516SOL     OW 5446   0.520   6.650   6.771
 1516SOL    HW1 5447   0.428   6.625   6.743
 1516SOL    HW2 5448   0.567   6.569   6.806
 1517SOL     OW 5449   1.876   5.778   2.873
 1517SOL    HW1 5450   1.886   5.679   2.877
 1517SOL    HW2 5451   1.838   5.805   2.785
 1518SOL     OW 5452   2.403   2.462   6.918
 1518SOL    HW1 5453   2.415   2.364   6.934
 1518SOL    HW2 5454   2.474   2.495   6.857
 1519SOL     OW 5455   0.807   4.381   6.907
 1519SOL    HW1 5456   0.728   4.433   6.940
 1519SOL    HW2 5457   0.888   4.439   6.908
 1520SOL     OW 5458   0.319   0.177   3.037
 1520SOL    HW1 5459   0.347   0.153   3.130
 1520SOL    HW2 5460   0.231   0.135   3.017
 1521SOL     OW 5461   2.518   5.044   6.913
 1521SOL    HW1 5462   2.601   5.062   6.861
 1521SOL    HW2 5463   2.465   4.972   6.869
 1522SOL     OW 5464   6.485   6.132   4.124
 1522SOL    HW1 5465   6.393   6.165   4.144
 1522SOL    HW2 5466   6.516   6.173   4.038
 1523SOL     OW 5467   2.586   6.664   0.547
 1523SOL    HW1 5468   2.593   6.672   0.647
 1523SOL    HW2 5469   2.588   6.567   0.522
 1524SOL     OW 5470   1.653   1.931   4.612
 1524SOL    HW1 5471   1.671   1.878   4.529
 1524SOL    HW2 5472   1.649   1.870   4.690
 1525SOL     OW 5473   6.083   4.287   0.356
 1525SOL    HW1 5474   6.128   4.282   0.267
 1525SOL    HW2 5475   6.102   4.204   0.408
 1526SOL     OW 5476   0.552   1.435   2.166
 1526SOL    HW1 5477   0.494   1.475   2.237
 1526SOL    HW2 5478   0.502   1.432   2.079
 1527SOL     OW 5479   4.968   1.265   4.697
 1527SOL    HW1 5480   5.009   1.195   4.639
 1527SOL    HW2 5481   5.030   1.285   4.774
 1528SOL     OW 5482   2.913   3.280   2.474
 1528SOL    HW1 5483   2.873   3.189   2.490
 1528SOL    HW2 5484   2.904   3.303   2.377
 1529SOL     OW 5485   4.577   0.708   5.703
 1529SOL    HW1 5486   4.630   0.696   5.619
 1529SOL    HW2 5487   4.509   0.636   5.710
 1530SOL     OW 5488   2.537   6.797   2.220
 1530SOL    HW1 5489   2.533   6.896   2.222
 1530SOL    HW2 5490   2.445   6.759   2.233
 1531SOL     OW 5491   5.904   6.503   4.486
 1531SOL    HW1 5492   5.990   6.490   4.536
 1531SOL    HW2 5493   5.862   6.589   4.513
 1532SOL     OW 5494   3.117   5.495   2.196
 1532SOL    HW1 5495   3.065   5.410   2.186
 1532SOL    HW2 5496   3.148   5.505   2.290
 1533SOL     OW 5497   5.908   5.626   2.145
 1533SOL    HW1 5498   5.936   5.721   2.130
 1533SOL    HW2 5499   5.918   5.603   2.242
 1534SOL     OW 5500   2.593   5.336   6.533
 1534SOL    HW1 5501   2.642   5.421   6.553
 1534SOL    HW2 5502   2.495   5.351   6.539
 1535SOL     OW 5503   5.363   5.306   3.445
 1535SOL    HW1 5504   5.298   5.362   3.395
 1535SOL    HW2 5505   5.319   5.269   3.527
 1536SOL     OW 5506   3.928   4.827   6.453
 1536SOL    HW1 5507   3.860   4.894   6.422
 1536SOL    HW2 5508   3.899   4.789   6.541
 1537SOL     OW 5509   2.749   6.146   1.875
 1537SOL    HW1 5510   2.834   6.099   1.897
 1537SOL    HW2 5511   2.720   6.202   1.953
 1538SOL     OW 5512   2.797   1.351   0.497
 1538SOL    HW1 5513   2.819   1.446   0.475
 1538SOL    HW2 5514   2.720   1.321   0.441
 1539SOL     OW 5515   6.934   3.125   0.704
 1539SOL    HW1 5516   0.002   3.121   0.677
 1539SOL    HW2 5517   6.926   3.175   0.790
 1540SOL     OW 5518   3.989   5.617   3.662
 1540SOL    HW1 5519   4.043   5.698   3.683
 1540SOL    HW2 5520   3.895   5.644   3.642
 1541SOL     OW 5521   4.410   2.524   5.563
 1541SOL    HW1 5522   4.378   2.617   5.583
 1541SOL    HW2 5523   4.345   2.458   5.601
 1542SOL     OW 5524   0.903   4.445   2.960
 1542SOL    HW1 5525   0.994   4.412   2.933
 1542SOL    HW2 5526   0.835   4.374   2.943
 1543SOL     OW 5527   4.276   5.146   1.010
 1543SOL    HW1 5528   4.251   5.091   0.931
 1543SOL    HW2 5529   4.297   5.239   0.980
 1544SOL     OW 5530   3.904   3.001   3.512
 1544SOL    HW1 5531   3.832   3.051   3.463
 1544SOL    HW2 5532   3.863   2.927   3.564
 1545SOL     OW 5533   6.302   4.213   0.810
 1545SOL    HW1 5534   6.283   4.116   0.802
 1545SOL    HW2 5535   6.217   4.265   0.799
 1546SOL     OW 5536   6.756   6.302   5.881
 1546SOL    HW1 5537   6.848   6.289   5.844
 1546SOL    HW2 5538   6.700   6.221   5.863
 1547SOL     OW 5539   1.203   2.651   6.859
 1547SOL    HW1 5540   1.118   2.681   6.901
 1547SOL    HW2 5541   1.254   2.594   6.924
 1548SOL     OW 5542   6.718   2.106   0.308
 1548SOL    HW1 5543   6.767   2.111   0.395
 1548SOL    HW2 5544   6.672   2.194   0.290
 1549SOL     OW 5545   4.834   0.228   4.198
 1549SOL    HW1 5546   4.880   0.151   4.242
 1549SOL    HW2 5547   4.864   0.313   4.242
 1550SOL     OW 5548   2.976   3.920   4.769
 1550SOL    HW1 5549   2.920   3.860   4.825
 1550SOL    HW2 5550   3.004   3.999   4.822
 1551SOL     OW 5551   0.223   5.125   5.812
 1551SOL    HW1 5552   0.232   5.186   5.734
 1551SOL    HW2 5553   0.157   5.163   5.877
 1552SOL     OW 5554   2.491   3.921   1.216
 1552SOL    HW1 5555   2.488   3.850   1.287
 1552SOL    HW2 5556   2.581   3.965   1.217
 1553SOL     OW 5557   1.077   2.223   5.659
 1553SOL    HW1 5558   1.066   2.178   5.748
 1553SOL    HW2 5559   1.173   2.244   5.644
 1554SOL     OW 5560   4.736   2.287   3.387
 1554SOL    HW1 5561   4.751   2.222   3.312
 1554SOL    HW2 5562   4.639   2.314   3.388
 1555SOL     OW 5563   6.482   4.570   5.493
 1555SOL    HW1 5564   6.454   4.489   5.441
 1555SOL    HW2 5565   6.462   4.652   5.440
 1556SOL     OW 5566   2.217   1.155   5.513
 1556SOL    HW1 5567   2.310   1.128   5.492
 1556SOL    HW2 5568   2.156   1.128   5.438
 1557SOL     OW 5569   1.029   1.560   6.268
 1557SOL    HW1 5570   0.960   1.495   6.236
 1557SOL    HW2 5571   1.082   1.518   6.342
 1558SOL     OW 5572   6.676   6.895   4.157
 1558SOL    HW1 5573   6.768   6.934   4.161
 1558SOL    HW2 5574   6.660   6.839   4.238
 1559SOL     OW 5575   1.785   1.548   6.052
 1559SOL    HW1 5576   1.873   1.512   6.020
 1559SOL    HW2 5577   1.722   1.473   6.068
 1560SOL     OW 5578   0.187   0.058   1.455
 1560SOL    HW1 5579   0.205   7.000   1.501
 1560SOL    HW2 5580   0.100   0.095   1.487
 1561SOL     OW 5581   5.885   6.539   1.881
 1561SOL    HW1 5582   5.841   6.498   1.801
 1561SOL    HW2 5583   5.943   6.615   1.852
 1562SOL     OW 5584   6.055   0.044   4.363
 1562SOL    HW1 5585   6.054   0.143   4.348
 1562SOL    HW2 5586   6.027   7.026   4.279
 1563SOL     OW 5587   2.334   0.346   6.466
 1563SOL    HW1 5588   2.417   0.293   6.487
 1563SOL    HW2 5589   2.344   0.438   6.501
 1564SOL     OW 5590   1.433   1.952   2.867
 1564SOL    HW1 5591   1.475   2.006   2.939
 1564SOL    HW2 5592   1.502   1.930   2.797
 1565SOL     OW 5593   6.176   3.936   1.746
 1565SOL    HW1 5594   6.218   3.884   1.671
 1565SOL    HW2 5595   6.227   4.020   1.762
 1566SOL     OW 5596   5.777   4.432   2.167
 1566SOL    HW1 5597   5.871   4.453   2.193
 1566SOL    HW2 5598   5.769   4.335   2.144
 1567SOL     OW 5599   6.578   5.132   5.818
 1567SOL    HW1 5600   6.531   5.169   5.738
 1567SOL    HW2 5601   6.625   5.047   5.793
 1568SOL     OW 5602   0.466   6.171   1.136
 1568SOL    HW1 5603   0.541   6.219   1.180
 1568SOL    HW2 5604   0.401   6.237   1.098
 1569SOL     OW 5605   3.971   5.643   4.947
 1569SOL    HW1 5606   3.908   5.590   4.890
 1569SOL    HW2 5607   3.976   5.737   4.913
 1570SOL     OW 5608   2.660   2.462   1.558
 1570SOL    HW1 5609   2.609   2.497   1.479
 1570SOL    HW2 5610   2.743   2.416   1.527
 1571SOL     OW 5611   0.419   2.980   6.288
 1571SOL    HW1 5612   0.377   3.007   6.202
 1571SOL    HW2 5613   0.458   2.888   6.279
 1572SOL     OW 5614   0.651   5.813   4.394
 1572SOL    HW1 5615   0.634   5.870   4.474
 1572SOL    HW2 5616   0.584   5.739   4.390
 1573SOL     OW 5617   4.336   0.599   6.887
 1573SOL    HW1 5618   4.409   0.564   6.829
 1573SOL    HW2 5619   4.361   0.691   6.919
 1574SOL     OW 5620   5.054   3.240   2.321
 1574SOL    HW1 5621   5.015   3.188   2.246
 1574SOL    HW2 5622   5.063   3.336   2.294
 1575SOL     OW 5623   3.367   2.722   6.978
 1575SOL    HW1 5624   3.325   2.788   6.915
 1575SOL    HW2 5625   3.301   2.651   7.000
 1576SOL     OW 5626   5.804   5.330   3.484
 1576SOL    HW1 5627   5.751   5.404   3.443
 1576SOL    HW2 5628   5.771   5.312   3.576
 1577SOL     OW 5629   2.043   0.782   0.692
 1577SOL    HW1 5630   2.089   0.802   0.779
 1577SOL    HW2 5631   1.952   0.747   0.710
 1578SOL     OW 5632   5.709   6.463   5.026
 1578SOL    HW1 5633   5.773   6.401   4.981
 1578SOL    HW2 5634   5.656   6.513   4.956
 1579SOL     OW 5635   6.309   1.614   3.234
 1579SOL    HW1 5636   6.312   1.588   3.331
 1579SOL    HW2 5637   6.395   1.659   3.209
 1580SOL     OW 5638   2.798   3.956   5.840
 1580SOL    HW1 5639   2.891   3.981   5.867
 1580SOL    HW2 5640   2.742   3.943   5.922
 1581SOL     OW 5641   6.020   3.148   4.092
 1581SOL    HW1 5642   6.093   3.089   4.128
 1581SOL    HW2 5643   5.951   3.161   4.163
 1582SOL     OW 5644   6.599   6.238   3.897
 1582SOL    HW1 5645   6.538   6.308   3.860
 1582SOL    HW2 5646   6.689   6.278   3.914
 1583SOL     OW 5647   2.944   3.148   0.893
 1583SOL    HW1 5648   3.007   3.088   0.942
 1583SOL    HW2 5649   2.899   3.209   0.959
 1584SOL     OW 5650   1.548   6.964   6.729
 1584SOL    HW1 5651   1.498   6.896   6.783
 1584SOL    HW2 5652   1.507   6.971   6.638
 1585SOL     OW 5653   6.005   1.164   5.860
 1585SOL    HW1 5654   5.950   1.241   5.830
 1585SOL    HW2 5655   6.042   1.116   5.780
 1586SOL     OW 5656   3.926   3.191   3.093
 1586SOL    HW1 5657   3.922   3.176   2.994
 1586SOL    HW2 5658   3.880   3.116   3.140
 1587SOL     OW 5659   1.768   0.085   5.597
 1587SOL    HW1 5660   1.783   0.150   5.522
 1587SOL    HW2 5661   1.760   0.135   5.683
 1588SOL     OW 5662   0.202   3.670   0.655
 1588SOL    HW1 5663   0.135   3.656   0.582
 1588SOL    HW2 5664   0.261   3.747   0.630
 1589SOL     OW 5665   5.239   5.042   2.443
 1589SOL    HW1 5666   5.303   4.981   2.490
 1589SOL    HW2 5667   5.157   4.991   2.416
 1590SOL     OW 5668   2.478   6.206   4.766
 1590SOL    HW1 5669   2.434   6.292   4.791
 1590SOL    HW2 5670   2.540   6.178   4.839
 1591SOL     OW 5671   2.011   3.842   0.230
 1591SOL    HW1 5672   1.915   3.851   0.258
 1591SOL    HW2 5673   2.063   3.920   0.265
 1592SOL     OW 5674   3.770   3.820   4.488
 1592SOL    HW1 5675   3.760   3.911   4.448
 1592SOL    HW2 5676   3.787   3.753   4.415
 1593SOL     OW 5677   0.894   4.750   3.995
 1593SOL    HW1 5678   0.934   4.688   3.928
 1593SOL    HW2 5679   0.904   4.844   3.962
 1594SOL     OW 5680   0.421   5.316   2.780
 1594SOL    HW1 5681   0.424   5.416   2.792
 1594SOL    HW2 5682   0.418   5.294   2.683
 1595SOL     OW 5683   6.549   3.408   5.400
 1595SOL    HW1 5684   6.504   3.320   5.413
 1595SOL    HW2 5685   6.595   3.434   5.485
 1596SOL     OW 5686   3.477   5.062   6.189
 1596SOL    HW1 5687   3.452   4.969   6.163
 1596SOL    HW2 5688   3.399   5.108   6.230
 1597SOL     OW 5689   2.140   6.668   1.404
 1597SOL    HW1 5690   2.144   6.668   1.304
 1597SOL    HW2 5691   2.110   6.758   1.435
 1598SOL     OW 5692   6.888   5.382   1.840
 1598SOL    HW1 5693   6.846   5.309   1.894
 1598SOL    HW2 5694   6.821   5.454   1.824
 1599SOL     OW 5695   3.230   5.352   0.083
 1599SOL    HW1 5696   3.168   5.426   0.109
 1599SOL    HW2 5697   3.304   5.388   0.027
 1600SOL     OW 5698   3.809   1.399   5.070
 1600SOL    HW1 5699   3.724   1.452   5.062
 1600SOL    HW2 5700   3.798   1.331   5.142
 1601SOL     OW 5701   1.589   5.591   4.971
 1601SOL    HW1 5702   1.497   5.589   4.931
 1601SOL    HW2 5703   1.594   5.525   5.046
 1602SOL     OW 5704   0.308   3.130   1.421
 1602SOL    HW1 5705   0.323   3.036   1.453
 1602SOL    HW2 5706   0.342   3.194   1.489
 1603SOL     OW 5707   5.819   0.371   1.425
 1603SOL    HW1 5708   5.884   0.446   1.436
 1603SOL    HW2 5709   5.867   0.290   1.390
 1604SOL     OW 5710   1.173   5.262   3.448
 1604SOL    HW1 5711   1.106   5.312   3.394
 1604SOL    HW2 5712   1.265   5.284   3.416
 1605SOL     OW 5713   5.180   5.180   1.932
 1605SOL    HW1 5714   5.195   5.168   2.030
 1605SOL    HW2 5715   5.091   5.223   1.916
 1606SOL     OW 5716   6.456   5.147   4.511
 1606SOL    HW1 5717   6.477   5.051   4.496
 1606SOL    HW2 5718   6.367   5.156   4.556
 1607SOL     OW 5719   6.121   3.575   1.515
 1607SOL    HW1 5720   6.096   3.550   1.421
 1607SOL    HW2 5721   6.092   3.502   1.577
 1608SOL     OW 5722   1.837   7.004   1.131
 1608SOL    HW1 5723   1.908   0.012   1.192
 1608SOL    HW2 5724   1.830   6.905   1.144
 1609SOL     OW 5725   6.096   2.348   5.372
 1609SOL    HW1 5726   6.167   2.355   5.443
 1609SOL    HW2 5727   6.010   2.384   5.407
 1610SOL     OW 5728   4.099   0.273   3.237
 1610SOL    HW1 5729   4.010   0.316   3.249
 1610SOL    HW2 5730   4.163   0.309   3.305
 1611SOL     OW 5731   4.497   3.791   1.593
 1611SOL    HW1 5732   4.426   3.746   1.646
 1611SOL    HW2 5733   4.471   3.791   1.496
 1612SOL     OW 5734   3.270   0.238   4.258
 1612SOL    HW1 5735   3.274   0.281   4.168
 1612SOL    HW2 5736   3.285   0.139   4.249
 1613SOL     OW 5737   2.371   0.016   1.225
 1613SOL    HW1 5738   2.368   6.970   1.291
 1613SOL    HW2 5739   2.447   7.029   1.161
 1614SOL     OW 5740   6.390   2.058   5.814
 1614SOL    HW1 5741   6.353   2.003   5.739
 1614SOL    HW2 5742   6.317   2.112   5.855
 1615SOL     OW 5743   6.829   5.832   5.090
 1615SOL    HW1 5744   6.837   5.907   5.155
 1615SOL    HW2 5745   6.734   5.824   5.059
 1616SOL     OW 5746   1.999   2.355   5.212
 1616SOL    HW1 5747   1.984   2.423   5.139
 1616SOL    HW2 5748   1.994   2.263   5.173
 1617SOL     OW 5749   3.269   0.694   2.459
 1617SOL    HW1 5750   3.175   0.726   2.453
 1617SOL    HW2 5751   3.278   0.630   2.535
 1618SOL     OW 5752   5.232   2.927   1.773
 1618SOL    HW1 5753   5.175   3.001   1.739
 1618SOL    HW2 5754   5.200   2.840   1.735
 1619SOL     OW 5755   1.727   2.986   4.435
 1619SOL    HW1 5756   1.699   2.906   4.382
 1619SOL    HW2 5757   1.675   3.066   4.405
 1620SOL     OW 5758   3.544   5.829   1.309
 1620SOL    HW1 5759   3.567   5.878   1.225
 1620SOL    HW2 5760   3.570   5.885   1.388
 1621SOL     OW 5761   2.436   2.752   1.472
 1621SOL    HW1 5762   2.363   2.692   1.506
 1621SOL    HW2 5763   2.500   2.698   1.418
 1622SOL     OW 5764   2.408   2.673   5.535
 1622SOL    HW1 5765   2.437   2.578   5.540
 1622SOL    HW2 5766   2.432   2.711   5.445
 1623SOL     OW 5767   2.246   2.224   4.620
 1623SOL    HW1 5768   2.189   2.229   4.538
 1623SOL    HW2 5769   2.194   2.260   4.698
 1624SOL     OW 5770   1.977   0.912   0.443
 1624SOL    HW1 5771   1.967   0.916   0.542
 1624SOL    HW2 5772   1.919   0.982   0.401
 1625SOL     OW 5773   1.690   0.217   0.899
 1625SOL    HW1 5774   1.637   0.139   0.932
 1625SOL    HW2 5775   1.719   0.272   0.978
 1626SOL     OW 5776   2.357   4.158   6.032
 1626SOL    HW1 5777   2.453   4.170   6.057
 1626SOL    HW2 5778   2.332   4.062   6.040
 1627SOL     OW 5779   5.055   4.324   2.665
 1627SOL    HW1 5780   5.042   4.378   2.748
 1627SOL    HW2 5781   5.152   4.304   2.654
 1628SOL     OW 5782   3.768   3.294   0.166
 1628SOL    HW1 5783   3.801   3.249   0.248
 1628SOL    HW2 5784   3.717   3.376   0.191
 1629SOL     OW 5785   2.007   2.536   3.271
 1629SOL    HW1 5786   2.035   2.524   3.176
 1629SOL    HW2 5787   2.055   2.469   3.328
 1630SOL     OW 5788   5.757   4.446   4.102
 1630SOL    HW1 5789   5.674   4.464   4.154
 1630SOL    HW2 5790   5.743   4.367   4.042
 1631SOL     OW 5791   0.561   1.047   5.698
 1631SOL    HW1 5792   0.505   1.118   5.742
 1631SOL    HW2 5793   0.504   0.996   5.632
 1632SOL     OW 5794   3.638   6.610   6.802
 1632SOL    HW1 5795   3.680   6.603   6.711
 1632SOL    HW2 5796   3.552   6.660   6.794
 1633SOL     OW 5797   6.739   3.810   2.578
 1633SOL    HW1 5798   6.835   3.839   2.586
 1633SOL    HW2 5799   6.705   3.831   2.486
 1634SOL     OW 5800   3.716   0.517   0.993
 1634SOL    HW1 5801   3.796   0.508   1.051
 1634SOL    HW2 5802   3.637   0.474   1.038
 1635SOL     OW 5803   2.370   4.310   3.519
 1635SOL    HW1 5804   2.400   4.302   3.614
 1635SOL    HW2 5805   2.343   4.221   3.485
 1636SOL     OW 5806   2.052   6.768   0.875
 1636SOL    HW1 5807   2.099   6.852   0.851
 1636SOL    HW2 5808   1.962   6.766   0.832
 1637SOL     OW 5809   0.582   3.291   2.128
 1637SOL    HW1 5810   0.640   3.212   2.148
 1637SOL    HW2 5811   0.588   3.357   2.202
 1638SOL     OW 5812   0.416   2.399   5.770
 1638SOL    HW1 5813   0.438   2.383   5.674
 1638SOL    HW2 5814   0.465   2.479   5.803
 1639SOL     OW 5815   3.547   5.175   3.323
 1639SOL    HW1 5816   3.457   5.215   3.307
 1639SOL    HW2 5817   3.545   5.078   3.297
 1640SOL     OW 5818   5.825   6.887   0.921
 1640SOL    HW1 5819   5.887   6.817   0.884
 1640SOL    HW2 5820   5.856   6.978   0.893
 1641SOL     OW 5821   6.588   2.783   4.674
 1641SOL    HW1 5822   6.637   2.869   4.660
 1641SOL    HW2 5823   6.602   2.724   4.594
 1642SOL     OW 5824   0.392   2.597   1.295
 1642SOL    HW1 5825   0.382   2.558   1.387
 1642SOL    HW2 5826   0.487   2.591   1.266
 1643SOL     OW 5827   4.656   0.104   5.348
 1643SOL    HW1 5828   4.671   0.137   5.255
 1643SOL    HW2 5829   4.588   0.031   5.347
 1644SOL     OW 5830   3.815   1.353   1.111
 1644SOL    HW1 5831   3.799   1.261   1.149
 1644SOL    HW2 5832   3.855   1.344   1.020
 1645SOL     OW 5833   2.422   5.631   5.577
 1645SOL    HW1 5834   2.468   5.589   5.499
 1645SOL    HW2 5835   2.345   5.686   5.545
 1646SOL     OW 5836   3.071   3.337   0.547
 1646SOL    HW1 5837   3.133   3.414   0.534
 1646SOL    HW2 5838   2.976   3.370   0.547
 1647SOL     OW 5839   6.344   2.712   1.930
 1647SOL    HW1 5840   6.415   2.685   1.865
 1647SOL    HW2 5841   6.329   2.638   1.996
 1648SOL     OW 5842   2.812   0.594   3.637
 1648SOL    HW1 5843   2.765   0.534   3.573
 1648SOL    HW2 5844   2.762   0.681   3.644
 1649SOL     OW 5845   2.909   0.736   4.390
 1649SOL    HW1 5846   2.988   0.685   4.356
 1649SOL    HW2 5847   2.838   0.673   4.420
 1650SOL     OW 5848   2.626   6.638   4.408
 1650SOL    HW1 5849   2.597   6.544   4.391
 1650SOL    HW2 5850   2.578   6.673   4.488
 1651SOL     OW 5851   1.646   6.938   2.217
 1651SOL    HW1 5852   1.696   7.023   2.233
 1651SOL    HW2 5853   1.614   6.901   2.304
 1652SOL     OW 5854   3.936   3.514   0.901
 1652SOL    HW1 5855   3.842   3.487   0.923
 1652SOL    HW2 5856   3.981   3.545   0.985
 1653SOL     OW 5857   1.342   4.319   0.897
 1653SOL    HW1 5858   1.283   4.286   0.824
 1653SOL    HW2 5859   1.413   4.251   0.916
 1654SOL     OW 5860   0.620   2.336   4.116
 1654SOL    HW1 5861   0.549   2.296   4.056
 1654SOL    HW2 5862   0.580   2.355   4.205
 1655SOL     OW 5863   4.291   4.258   5.350
 1655SOL    HW1 5864   4.334   4.280   5.438
 1655SOL    HW2 5865   4.306   4.332   5.286
 1656SOL     OW 5866   6.708   3.170   2.504
 1656SOL    HW1 5867   6.647   3.212   2.437
 1656SOL    HW2 5868   6.732   3.238   2.574
 1657SOL     OW 5869   0.549   0.459   6.070
 1657SOL    HW1 5870   0.498   0.423   5.991
 1657SOL    HW2 5871   0.605   0.537   6.041
 1658SOL     OW 5872   6.019   6.937   3.262
 1658SOL    HW1 5873   6.100   6.960   3.209
 1658SOL    HW2 5874   5.953   7.012   3.257
 1659SOL     OW 5875   6.292   2.918   6.231
 1659SOL    HW1 5876   6.265   2.943   6.324
 1659SOL    HW2 5877   6.391   2.905   6.226
 1660SOL     OW 5878   2.455   5.824   3.836
 1660SOL    HW1 5879   2.385   5.793   3.901
 1660SOL    HW2 5880   2.411   5.853   3.751
 1661SOL     OW 5881   2.550   1.283   3.625
 1661SOL    HW1 5882   2.452   1.270   3.611
 1661SOL    HW2 5883   2.568   1.374   3.662
 1662SOL     OW 5884   0.356   1.304   3.637
 1662SOL    HW1 5885   0.448   1.265   3.634
 1662SOL    HW2 5886   0.334   1.332   3.730
 1663SOL     OW 5887   0.986   0.365   3.142
 1663SOL    HW1 5888   1.009   0.459   3.117
 1663SOL    HW2 5889   0.887   0.353   3.137
 1664SOL     OW 5890   1.752   6.108   4.134
 1664SOL    HW1 5891   1.720   6.201   4.155
 1664SOL    HW2 5892   1.785   6.105   4.040
 1665SOL     OW 5893   0.001   1.219   3.910
 1665SOL    HW1 5894   6.941   1.230   3.865
 1665SOL    HW2 5895   0.064   1.171   3.850
 1666SOL     OW 5896   5.818   2.177   0.240
 1666SOL    HW1 5897   5.870   2.224   0.169
 1666SOL    HW2 5898   5.763   2.243   0.291
 1667SOL     OW 5899   6.390   0.087   0.908
 1667SOL    HW1 5900   6.468   0.128   0.860
 1667SOL    HW2 5901   6.409   7.019   0.924
 1668SOL     OW 5902   2.450   0.074   4.631
 1668SOL    HW1 5903   2.532   0.104   4.681
 1668SOL    HW2 5904   2.379   0.145   4.637
 1669SOL     OW 5905   4.954   5.372   6.627
 1669SOL    HW1 5906   4.996   5.300   6.573
 1669SOL    HW2 5907   4.857   5.352   6.639
 1670SOL     OW 5908   6.515   3.957   6.699
 1670SOL    HW1 5909   6.523   3.949   6.599
 1670SOL    HW2 5910   6.523   4.053   6.726
 1671SOL     OW 5911   6.206   4.102   1.434
 1671SOL    HW1 5912   6.288   4.159   1.435
 1671SOL    HW2 5913   6.230   4.008   1.414
 1672SOL     OW 5914   1.971   4.448   3.305
 1672SOL    HW1 5915   1.907   4.371   3.308
 1672SOL    HW2 5916   1.972   4.487   3.213
 1673SOL     OW 5917   6.507   3.560   3.375
 1673SOL    HW1 5918   6.589   3.607   3.408
 1673SOL    HW2 5919   6.501   3.470   3.420
 1674SOL     OW 5920   2.352   6.046   0.413
 1674SOL    HW1 5921   2.280   6.010   0.472
 1674SOL    HW2 5922   2.427   6.080   0.470
 1675SOL     OW 5923   4.702   2.223   6.412
 1675SOL    HW1 5924   4.643   2.304   6.405
 1675SOL    HW2 5925   4.762   2.219   6.332
 1676SOL     OW 5926   3.017   1.549   3.204
 1676SOL    HW1 5927   2.943   1.552   3.272
 1676SOL    HW2 5928   3.076   1.629   3.215
 1677SOL     OW 5929   5.384   0.071   5.830
 1677SOL    HW1 5930   5.323   0.015   5.774
 1677SOL    HW2 5931   5.479   0.054   5.803
 1678SOL     OW 5932   4.578   6.741   1.995
 1678SOL    HW1 5933   4.526   6.790   2.066
 1678SOL    HW2 5934   4.519   6.675   1.950
 1679SOL     OW 5935   6.387   4.319   0.232
 1679SOL    HW1 5936   6.370   4.392   0.297
 1679SOL    HW2 5937   6.415   4.236   0.280
 1680SOL     OW 5938   0.068   2.038   5.974
 1680SOL    HW1 5939   0.144   2.014   5.913
 1680SOL    HW2 5940   7.013   1.996   5.941
 1681SOL     OW 5941   4.710   5.082   1.362
 1681SOL    HW1 5942   4.708   5.160   1.299
 1681SOL    HW2 5943   4.740   5.000   1.313
 1682SOL     OW 5944   0.462   3.832   5.880
 1682SOL    HW1 5945   0.535   3.769   5.905
 1682SOL    HW2 5946   0.501   3.917   5.847
 1683SOL     OW 5947   6.080   5.610   5.328
 1683SOL    HW1 5948   6.012   5.540   5.309
 1683SOL    HW2 5949   6.078   5.632   5.426
 1684SOL     OW 5950   0.771   0.034   4.448
 1684SOL    HW1 5951   0.779   0.083   4.535
 1684SOL    HW2 5952   0.758   6.965   4.466
 1685SOL     OW 5953   1.390   2.032   7.029
 1685SOL    HW1 5954   1.427   2.102   6.968
 1685SOL    HW2 5955   1.290   2.029   7.019
 1686SOL     OW 5956   1.482   0.596   6.226
 1686SOL    HW1 5957   1.402   0.539   6.244
 1686SOL    HW2 5958   1.565   0.547   6.253
 1687SOL     OW 5959   2.641   7.019   2.492
 1687SOL    HW1 5960   2.623   6.941   2.551
 1687SOL    HW2 5961   2.689   0.061   2.543
 1688SOL     OW 5962   0.127   1.607   2.667
 1688SOL    HW1 5963   0.171   1.678   2.721
 1688SOL    HW2 5964   0.029   1.607   2.685
 1689SOL     OW 5965   2.326   2.178   1.321
 1689SOL    HW1 5966   2.311   2.272   1.291
 1689SOL    HW2 5967   2.247   2.146   1.373
 1690SOL     OW 5968   1.482   1.796   6.933
 1690SOL    HW1 5969   1.474   1.722   7.000
 1690SOL    HW2 5970   1.470   1.884   6.980
 1691SOL     OW 5971   4.553   4.501   3.660
 1691SOL    HW1 5972   4.533   4.478   3.755
 1691SOL    HW2 5973   4.651   4.520   3.650
 1692SOL     OW 5974   0.612   6.218   3.925
 1692SOL    HW1 5975   0.627   6.231   4.023
 1692SOL    HW2 5976   0.517   6.188   3.909
 1693SOL     OW 5977   3.883   2.030   4.035
 1693SOL    HW1 5978   3.951   2.104   4.034
 1693SOL    HW2 5979   3.793   2.067   4.013
 1694SOL     OW 5980   6.287   6.171   5.290
 1694SOL    HW1 5981   6.282   6.257   5.342
 1694SOL    HW2 5982   6.199   6.153   5.247
 1695SOL     OW 5983   3.637   1.543   6.453
 1695SOL    HW1 5984   3.660   1.511   6.545
 1695SOL    HW2 5985   3.538   1.555   6.446
 1696SOL     OW 5986   3.431   5.567   2.220
 1696SOL    HW1 5987   3.473   5.504   2.286
 1696SOL    HW2 5988   3.364   5.625   2.267
 1697SOL     OW 5989   1.707   1.854   1.652
 1697SOL    HW1 5990   1.678   1.910   1.729
 1697SOL    HW2 5991   1.778   1.790   1.682
 1698SOL     OW 5992   4.946   1.773   6.730
 1698SOL    HW1 5993   5.025   1.780   6.790
 1698SOL    HW2 5994   4.908   1.864   6.714
 1699SOL     OW 5995   2.508   5.074   1.634
 1699SOL    HW1 5996   2.594   5.114   1.669
 1699SOL    HW2 5997   2.446   5.058   1.711
 1700SOL     OW 5998   5.848   3.288   4.914
 1700SOL    HW1 5999   5.841   3.195   4.949
 1700SOL    HW2 6000   5.820   3.353   4.985
 1701SOL     OW 6001   5.437   3.208   4.487
 1701SOL    HW1 6002   5.489   3.138   4.536
 1701SOL    HW2 6003   5.471   3.216   4.394
 1702SOL     OW 6004   5.272   2.501   1.557
 1702SOL    HW1 6005   5.368   2.528   1.550
 1702SOL    HW2 6006   5.250   2.478   1.652
 1703SOL     OW 6007   2.151   3.879   1.577
 1703SOL    HW1 6008   2.192   3.906   1.664
 1703SOL    HW2 6009   2.124   3.960   1.526
 1704SOL     OW 6010   6.351   1.860   2.090
 1704SOL    HW1 6011   6.307   1.871   2.001
 1704SOL    HW2 6012   6.414   1.782   2.086
 1705SOL     OW 6013   3.441   2.718   1.835
 1705SOL    HW1 6014   3.446   2.625   1.799
 1705SOL    HW2 6015   3.352   2.732   1.879
 1706SOL     OW 6016   2.715   0.679   6.291
 1706SOL    HW1 6017   2.750   0.602   6.344
 1706SOL    HW2 6018   2.645   0.728   6.343
 1707SOL     OW 6019   4.789   1.557   2.391
 1707SOL    HW1 6020   4.782   1.626   2.463
 1707SOL    HW2 6021   4.885   1.532   2.378
 1708SOL     OW 6022   0.539   3.896   0.824
 1708SOL    HW1 6023   0.593   3.862   0.901
 1708SOL    HW2 6024   0.448   3.920   0.855
 1709SOL     OW 6025   3.248   5.008   3.972
 1709SOL    HW1 6026   3.335   5.036   3.932
 1709SOL    HW2 6027   3.230   5.063   4.054
 1710SOL     OW 6028   6.596   3.971   4.859
 1710SOL    HW1 6029   6.498   3.964   4.841
 1710SOL    HW2 6030   6.613   4.041   4.928
 1711SOL     OW 6031   0.575   4.507   6.055
 1711SOL    HW1 6032   0.645   4.471   6.116
 1711SOL    HW2 6033   0.502   4.549   6.108
 1712SOL     OW 6034   1.902   4.353   2.071
 1712SOL    HW1 6035   1.893   4.315   1.979
 1712SOL    HW2 6036   1.911   4.279   2.137
 1713SOL     OW 6037   2.140   3.481   1.036
 1713SOL    HW1 6038   2.072   3.433   0.981
 1713SOL    HW2 6039   2.146   3.576   1.007
 1714SOL     OW 6040   4.377   0.730   0.678
 1714SOL    HW1 6041   4.284   0.740   0.643
 1714SOL    HW2 6042   4.413   0.819   0.705
 1715SOL     OW 6043   1.742   3.740   3.455
 1715SOL    HW1 6044   1.770   3.698   3.541
 1715SOL    HW2 6045   1.784   3.830   3.446
 1716SOL     OW 6046   0.173   6.958   0.633
 1716SOL    HW1 6047   0.124   6.896   0.572
 1716SOL    HW2 6048   0.207   0.007   0.581
 1717SOL     OW 6049   3.204   1.080   0.602
 1717SOL    HW1 6050   3.290   1.078   0.551
 1717SOL    HW2 6051   3.133   1.122   0.545
 1718SOL     OW 6052   1.539   4.006   5.585
 1718SOL    HW1 6053   1.554   3.909   5.563
 1718SOL    HW2 6054   1.615   4.060   5.548
 1719SOL     OW 6055   2.559   2.414   0.526
 1719SOL    HW1 6056   2.571   2.442   0.431
 1719SOL    HW2 6057   2.635   2.449   0.580
 1720SOL     OW 6058   6.736   2.020   2.092
 1720SOL    HW1 6059   6.770   1.931   2.121
 1720SOL    HW2 6060   6.689   2.010   2.004
 1721SOL     OW 6061   0.887   5.806   4.242
 1721SOL    HW1 6062   0.926   5.714   4.252
 1721SOL    HW2 6063   0.789   5.802   4.262
 1722SOL     OW 6064   4.395   0.443   1.770
 1722SOL    HW1 6065   4.381   0.421   1.674
 1722SOL    HW2 6066   4.485   0.409   1.799
 1723SOL     OW 6067   5.785   1.296   3.379
 1723SOL    HW1 6068   5.709   1.231   3.380
 1723SOL    HW2 6069   5.839   1.286   3.463
 1724SOL     OW 6070   5.629   6.783   7.018
 1724SOL    HW1 6071   5.634   6.743   0.081
 1724SOL    HW2 6072   5.691   6.734   6.956
 1725SOL     OW 6073   4.599   5.542   2.442
 1725SOL    HW1 6074   4.575   5.531   2.538
 1725SOL    HW2 6075   4.568   5.631   2.410
 1726SOL     OW 6076   6.136   4.664   5.244
 1726SOL    HW1 6077   6.189   4.580   5.241
 1726SOL    HW2 6078   6.040   4.643   5.264
 1727SOL     OW 6079   2.494   4.847   5.939
 1727SOL    HW1 6080   2.509   4.820   5.844
 1727SOL    HW2 6081   2.406   4.812   5.970
 1728SOL     OW 6082   4.922   6.471   3.545
 1728SOL    HW1 6083   4.908   6.429   3.634
 1728SOL    HW2 6084   4.835   6.477   3.497
 1729SOL     OW 6085   6.661   3.352   3.836
 1729SOL    HW1 6086   6.666   3.397   3.746
 1729SOL    HW2 6087   6.683   3.418   3.907
 1730SOL     OW 6088   4.933   2.385   5.005
 1730SOL    HW1 6089   4.994   2.337   5.067
 1730SOL    HW2 6090   4.850   2.331   4.990
 1731SOL     OW 6091   0.717   6.929   6.317
 1731SOL    HW1 6092   0.718   6.860   6.245
 1731SOL    HW2 6093   0.806   6.932   6.363
 1732SOL     OW 6094   1.631   4.348   6.739
 1732SOL    HW1 6095   1.630   4.292   6.656
 1732SOL    HW2 6096   1.548   4.405   6.741
 1733SOL     OW 6097   1.833   4.171   6.321
 1733SOL    HW1 6098   1.816   4.233   6.245
 1733SOL    HW2 6099   1.862   4.082   6.286
 1734SOL     OW 6100   5.166   4.096   0.486
 1734SOL    HW1 6101   5.080   4.065   0.529
 1734SOL    HW2 6102   5.149   4.119   0.391
 1735SOL     OW 6103   4.968   4.760   0.005
 1735SOL    HW1 6104   5.033   4.689   7.009
 1735SOL    HW2 6105   4.974   4.836   6.969
 1736SOL     OW 6106   3.867   3.208   0.403
 1736SOL    HW1 6107   3.914   3.277   0.457
 1736SOL    HW2 6108   3.918   3.122   0.406
 1737SOL     OW 6109   0.806   6.403   2.839
 1737SOL    HW1 6110   0.812   6.439   2.932
 1737SOL    HW2 6111   0.783   6.477   2.775
 1738SOL     OW 6112   0.136   1.654   2.380
 1738SOL    HW1 6113   0.217   1.599   2.358
 1738SOL    HW2 6114   0.121   1.654   2.479
 1739SOL     OW 6115   3.868   1.440   6.808
 1739SOL    HW1 6116   3.919   1.426   6.722
 1739SOL    HW2 6117   3.891   1.530   6.845
 1740SOL     OW 6118   1.003   1.698   6.904
 1740SOL    HW1 6119   1.028   1.685   7.000
 1740SOL    HW2 6120   1.077   1.745   6.857
 1741SOL     OW 6121   0.619   0.676   2.587
 1741SOL    HW1 6122   0.611   0.593   2.641
 1741SOL    HW2 6123   0.633   0.652   2.490
 1742SOL     OW 6124   6.033   6.045   3.467
 1742SOL    HW1 6125   6.036   6.145   3.471
 1742SOL    HW2 6126   5.977   6.015   3.390
 1743SOL     OW 6127   4.352   1.625   6.642
 1743SOL    HW1 6128   4.294   1.580   6.574
 1743SOL    HW2 6129   4.427   1.673   6.596
 1744SOL     OW 6130   4.260   6.687   1.523
 1744SOL    HW1 6131   4.341   6.639   1.554
 1744SOL    HW2 6132   4.192   6.622   1.490
 1745SOL     OW 6133   0.488   1.913   5.190
 1745SOL    HW1 6134   0.570   1.903   5.135
 1745SOL    HW2 6135   0.409   1.882   5.138
 1746SOL     OW 6136   2.853   1.606   0.568
 1746SOL    HW1 6137   2.940   1.566   0.595
 1746SOL    HW2 6138   2.869   1.692   0.520
 1747SOL     OW 6139   4.297   0.355   4.627
 1747SOL    HW1 6140   4.362   0.301   4.680
 1747SOL    HW2 6141   4.303   0.451   4.656
 1748SOL     OW 6142   5.259   0.892   1.139
 1748SOL    HW1 6143   5.271   0.932   1.229
 1748SOL    HW2 6144   5.164   0.863   1.128
 1749SOL     OW 6145   5.483   0.087   6.074
 1749SOL    HW1 6146   5.416   0.071   6.001
 1749SOL    HW2 6147   5.556   0.147   6.040
 1750SOL     OW 6148   3.763   1.185   3.099
 1750SOL    HW1 6149   3.836   1.117   3.090
 1750SOL    HW2 6150   3.769   1.250   3.024
 1751SOL     OW 6151   2.788   5.783   4.683
 1751SOL    HW1 6152   2.704   5.836   4.674
 1751SOL    HW2 6153   2.781   5.700   4.627
 1752SOL     OW 6154   6.837   2.720   6.190
 1752SOL    HW1 6155   6.892   2.639   6.206
 1752SOL    HW2 6156   6.848   2.751   6.095
 1753SOL     OW 6157   1.488   0.257   2.257
 1753SOL    HW1 6158   1.570   0.219   2.298
 1753SOL    HW2 6159   1.513   0.322   2.185
 1754SOL     OW 6160   2.927   3.656   3.239
 1754SOL    HW1 6161   2.911   3.748   3.203
 1754SOL    HW2 6162   2.898   3.589   3.171
 1755SOL     OW 6163   0.371   4.202   6.701
 1755SOL    HW1 6164   0.469   4.220   6.706
 1755SOL    HW2 6165   0.351   4.113   6.741
 1756SOL     OW 6166   5.485   5.413   6.009
 1756SOL    HW1 6167   5.481   5.460   5.920
 1756SOL    HW2 6168   5.419   5.338   6.010
 1757SOL     OW 6169   4.029   0.343   4.745
 1757SOL    HW1 6170   3.979   0.429   4.731
 1757SOL    HW2 6171   4.107   0.339   4.684
 1758SOL     OW 6172   2.334   0.704   3.046
 1758SOL    HW1 6173   2.337   0.613   3.087
 1758SOL    HW2 6174   2.368   0.700   2.952
 1759SOL     OW 6175   6.460   5.554   6.065
 1759SOL    HW1 6176   6.402   5.635   6.075
 1759SOL    HW2 6177   6.431   5.484   6.130
 1760SOL     OW 6178   4.561   6.616   3.579
 1760SOL    HW1 6179   4.574   6.517   3.577
 1760SOL    HW2 6180   4.610   6.654   3.658
 1761SOL     OW 6181   6.524   3.099   0.928
 1761SOL    HW1 6182   6.577   3.028   0.881
 1761SOL    HW2 6183   6.482   3.059   1.010
 1762SOL     OW 6184   6.074   2.513   0.090
 1762SOL    HW1 6185   6.021   2.428   0.092
 1762SOL    HW2 6186   6.163   2.498   0.135
 1763SOL     OW 6187   1.898   1.951   4.350
 1763SOL    HW1 6188   1.801   1.933   4.338
 1763SOL    HW2 6189   1.923   2.036   4.303
 1764SOL     OW 6190   6.785   4.615   3.353
 1764SOL    HW1 6191   6.775   4.590   3.257
 1764SOL    HW2 6192   6.817   4.536   3.405
 1765SOL     OW 6193   2.481   2.605   6.507
 1765SOL    HW1 6194   2.552   2.539   6.482
 1765SOL    HW2 6195   2.425   2.626   6.427
 1766SOL     OW 6196   5.998   4.348   6.007
 1766SOL    HW1 6197   6.068   4.353   6.078
 1766SOL    HW2 6198   6.029   4.286   5.934
 1767SOL     OW 6199   6.987   4.252   1.435
 1767SOL    HW1 6200   7.019   4.203   1.516
 1767SOL    HW2 6201   6.986   4.351   1.454
 1768SOL     OW 6202   6.341   7.002   3.318
 1768SOL    HW1 6203   6.283   0.005   3.393
 1768SOL    HW2 6204   6.434   0.006   3.331
 1769SOL     OW 6205   4.546   0.690   4.122
 1769SOL    HW1 6206   4.468   0.629   4.108
 1769SOL    HW2 6207   4.541   0.729   4.214
 1770SOL     OW 6208   3.606   5.575   5.915
 1770SOL    HW1 6209   3.655   5.563   5.828
 1770SOL    HW2 6210   3.649   5.519   5.985
 1771SOL     OW 6211   5.136   5.467   7.001
 1771SOL    HW1 6212   5.236   5.466   6.993
 1771SOL    HW2 6213   5.110   5.493   0.065
 1772SOL     OW 6214   2.390   5.989   2.365
 1772SOL    HW1 6215   2.328   6.049   2.315
 1772SOL    HW2 6216   2.356   5.977   2.458
 1773SOL     OW 6217   1.973   6.434   0.243
 1773SOL    HW1 6218   1.925   6.359   0.290
 1773SOL    HW2 6219   1.967   6.517   0.298
 1774SOL     OW 6220   2.782   5.850   1.200
 1774SOL    HW1 6221   2.734   5.891   1.277
 1774SOL    HW2 6222   2.716   5.811   1.137
 1775SOL     OW 6223   0.475   5.343   0.246
 1775SOL    HW1 6224   0.386   5.388   0.257
 1775SOL    HW2 6225   0.540   5.382   0.310
 1776SOL     OW 6226   3.265   6.457   5.298
 1776SOL    HW1 6227   3.258   6.540   5.243
 1776SOL    HW2 6228   3.184   6.448   5.356
 1777SOL     OW 6229   4.602   6.947   6.472
 1777SOL    HW1 6230   4.580   0.015   6.487
 1777SOL    HW2 6231   4.701   6.934   6.479
 1778SOL     OW 6232   0.930   3.544   6.155
 1778SOL    HW1 6233   0.898   3.637   6.137
 1778SOL    HW2 6234   0.886   3.509   6.237
 1779SOL     OW 6235   4.454   5.774   4.868
 1779SOL    HW1 6236   4.544   5.758   4.909
 1779SOL    HW2 6237   4.384   5.772   4.940
 1780SOL     OW 6238   3.873   2.072   6.476
 1780SOL    HW1 6239   3.837   2.119   6.557
 1780SOL    HW2 6240   3.869   1.973   6.491
 1781SOL     OW 6241   2.004   6.442   3.751
 1781SOL    HW1 6242   2.071   6.508   3.717
 1781SOL    HW2 6243   1.912   6.472   3.726
 1782SOL     OW 6244   3.265   0.971   5.115
 1782SOL    HW1 6245   3.218   0.952   5.029
 1782SOL    HW2 6246   3.324   1.051   5.104
 1783SOL     OW 6247   2.204   5.752   6.915
 1783SOL    HW1 6248   2.191   5.774   6.818
 1783SOL    HW2 6249   2.241   5.832   6.962
 1784SOL     OW 6250   1.217   6.834   6.037
 1784SOL    HW1 6251   1.198   6.897   6.113
 1784SOL    HW2 6252   1.141   6.836   5.972
 1785SOL     OW 6253   0.003   4.885   2.718
 1785SOL    HW1 6254   6.978   4.907   2.800
 1785SOL    HW2 6255   0.056   4.965   2.690
 1786SOL     OW 6256   4.251   2.466   1.781
 1786SOL    HW1 6257   4.326   2.436   1.722
 1786SOL    HW2 6258   4.284   2.474   1.875
 1787SOL     OW 6259   4.710   0.256   5.065
 1787SOL    HW1 6260   4.788   0.285   5.010
 1787SOL    HW2 6261   4.627   0.258   5.009
 1788SOL     OW 6262   1.638   4.998   5.228
 1788SOL    HW1 6263   1.558   5.011   5.287
 1788SOL    HW2 6264   1.631   5.058   5.148
 1789SOL     OW 6265   5.231   5.966   0.987
 1789SOL    HW1 6266   5.327   5.963   0.959
 1789SOL    HW2 6267   5.215   5.903   1.062
 1790SOL     OW 6268   2.145   6.855   3.152
 1790SOL    HW1 6269   2.078   6.806   3.209
 1790SOL    HW2 6270   2.235   6.852   3.195
 1791SOL     OW 6271   1.050   6.895   3.009
 1791SOL    HW1 6272   1.050   6.983   2.961
 1791SOL    HW2 6273   1.127   6.840   2.977
 1792SOL     OW 6274   0.443   4.214   4.227
 1792SOL    HW1 6275   0.535   4.248   4.244
 1792SOL    HW2 6276   0.414   4.240   4.135
 1793SOL     OW 6277   6.889   0.779   4.006
 1793SOL    HW1 6278   6.842   0.867   4.005
 1793SOL    HW2 6279   6.984   0.792   4.035
 1794SOL     OW 6280   4.520   6.359   6.600
 1794SOL    HW1 6281   4.427   6.396   6.605
 1794SOL    HW2 6282   4.548   6.354   6.504
 1795SOL     OW 6283   0.843   2.928   6.701
 1795SOL    HW1 6284   0.795   2.849   6.738
 1795SOL    HW2 6285   0.921   2.950   6.759
 1796SOL     OW 6286   4.563   0.481   5.291
 1796SOL    HW1 6287   4.559   0.455   5.194
 1796SOL    HW2 6288   4.497   0.426   5.343
 1797SOL     OW 6289   0.187   0.564   2.460
 1797SOL    HW1 6290   0.248   0.624   2.512
 1797SOL    HW2 6291   0.206   0.469   2.483
 1798SOL     OW 6292   5.914   2.180   3.141
 1798SOL    HW1 6293   5.914   2.126   3.057
 1798SOL    HW2 6294   5.907   2.118   3.219
 1799SOL     OW 6295   2.779   6.653   1.217
 1799SOL    HW1 6296   2.860   6.630   1.164
 1799SOL    HW2 6297   2.779   6.750   1.238
 1800SOL     OW 6298   2.888   4.760   2.210
 1800SOL    HW1 6299   2.978   4.800   2.193
 1800SOL    HW2 6300   2.852   4.721   2.125
 1801SOL     OW 6301   5.493   6.292   0.571
 1801SOL    HW1 6302   5.578   6.255   0.607
 1801SOL    HW2 6303   5.436   6.327   0.645
 1802SOL     OW 6304   5.581   5.245   4.392
 1802SOL    HW1 6305   5.621   5.188   4.320
 1802SOL    HW2 6306   5.563   5.337   4.356
 1803SOL     OW 6307   6.168   4.782   0.612
 1803SOL    HW1 6308   6.072   4.755   0.626
 1803SOL    HW2 6309   6.181   4.809   0.517
 1804SOL     OW 6310   2.916   4.125   6.180
 1804SOL    HW1 6311   2.893   4.218   6.208
 1804SOL    HW2 6312   2.883   4.060   6.248
 1805SOL     OW 6313   6.983   2.349   7.005
 1805SOL    HW1 6314   6.989   2.322   0.072
 1805SOL    HW2 6315   0.020   2.423   6.987
 1806SOL     OW 6316   6.851   6.564   0.352
 1806SOL    HW1 6317   6.904   6.576   0.267
 1806SOL    HW2 6318   6.755   6.586   0.335
 1807SOL     OW 6319   6.838   1.543   5.790
 1807SOL    HW1 6320   6.767   1.613   5.793
 1807SOL    HW2 6321   6.918   1.574   5.842
 1808SOL     OW 6322   2.348   4.960   4.631
 1808SOL    HW1 6323   2.274   5.010   4.675
 1808SOL    HW2 6324   2.358   4.870   4.673
 1809SOL     OW 6325   4.137   0.122   6.061
 1809SOL    HW1 6326   4.197   0.042   6.068
 1809SOL    HW2 6327   4.082   0.115   5.977
 1810SOL     OW 6328   3.754   6.218   3.881
 1810SOL    HW1 6329   3.770   6.120   3.875
 1810SOL    HW2 6330   3.841   6.266   3.890
 1811SOL     OW 6331   4.567   5.301   2.934
 1811SOL    HW1 6332   4.550   5.365   3.010
 1811SOL    HW2 6333   4.560   5.207   2.968
 1812SOL     OW 6334   4.674   4.644   5.105
 1812SOL    HW1 6335   4.741   4.606   5.042
 1812SOL    HW2 6336   4.613   4.706   5.056
 1813SOL     OW 6337   0.397   6.552   5.036
 1813SOL    HW1 6338   0.318   6.603   5.000
 1813SOL    HW2 6339   0.463   6.616   5.074
 1814SOL     OW 6340   4.040   6.733   2.591
 1814SOL    HW1 6341   4.030   6.831   2.570
 1814SOL    HW2 6342   4.086   6.688   2.515
 1815SOL     OW 6343   0.337   1.239   2.798
 1815SOL    HW1 6344   0.280   1.228   2.879
 1815SOL    HW2 6345   0.419   1.291   2.823
 1816SOL     OW 6346   1.444   5.309   0.730
 1816SOL    HW1 6347   1.363   5.265   0.691
 1816SOL    HW2 6348   1.526   5.272   0.687
 1817SOL     OW 6349   1.083   4.257   1.783
 1817SOL    HW1 6350   0.992   4.218   1.769
 1817SOL    HW2 6351   1.096   4.335   1.721
 1818SOL     OW 6352   0.343   2.124   3.070
 1818SOL    HW1 6353   0.277   2.176   3.124
 1818SOL    HW2 6354   0.357   2.170   2.982
 1819SOL     OW 6355   1.441   4.154   2.312
 1819SOL    HW1 6356   1.474   4.125   2.223
 1819SOL    HW2 6357   1.505   4.219   2.353
 1820SOL     OW 6358   5.757   6.587   2.379
 1820SOL    HW1 6359   5.725   6.662   2.437
 1820SOL    HW2 6360   5.708   6.588   2.292
 1821SOL     OW 6361   1.593   2.132   3.358
 1821SOL    HW1 6362   1.557   2.054   3.307
 1821SOL    HW2 6363   1.610   2.106   3.453
 1822SOL     OW 6364   3.452   3.367   2.601
 1822SOL    HW1 6365   3.438   3.455   2.647
 1822SOL    HW2 6366   3.541   3.368   2.555
 1823SOL     OW 6367   3.572   6.583   2.732
 1823SOL    HW1 6368   3.630   6.658   2.701
 1823SOL    HW2 6369   3.625   6.523   2.792
 1824SOL     OW 6370   4.772   1.379   1.993
 1824SOL    HW1 6371   4.868   1.386   2.020
 1824SOL    HW2 6372   4.717   1.438   2.053
 1825SOL     OW 6373   0.444   0.165   1.400
 1825SOL    HW1 6374   0.347   0.154   1.424
 1825SOL    HW2 6375   0.469   0.095   1.333
 1826SOL     OW 6376   2.406   5.289   6.189
 1826SOL    HW1 6377   2.360   5.200   6.189
 1826SOL    HW2 6378   2.370   5.346   6.116
 1827SOL     OW 6379   5.472   0.504   0.516
 1827SOL    HW1 6380   5.372   0.503   0.517
 1827SOL    HW2 6381   5.506   0.512   0.610
 1828SOL     OW 6382   3.103   2.898   0.027
 1828SOL    HW1 6383   3.106   2.896   0.127
 1828SOL    HW2 6384   3.165   2.969   7.022
 1829SOL     OW 6385   5.332   5.614   2.776
 1829SOL    HW1 6386   5.277   5.631   2.694
 1829SOL    HW2 6387   5.329   5.694   2.836
 1830SOL     OW 6388   4.588   0.643   4.494
 1830SOL    HW1 6389   4.619   0.735   4.517
 1830SOL    HW2 6390   4.502   0.624   4.541
 1831SOL     OW 6391   4.815   0.876   3.181
 1831SOL    HW1 6392   4.907   0.838   3.174
 1831SOL    HW2 6393   4.801   0.946   3.111
 1832SOL     OW 6394   6.397   2.761   6.595
 1832SOL    HW1 6395   6.318   2.820   6.581
 1832SOL    HW2 6396   6.421   2.716   6.509
 1833SOL     OW 6397   6.029   1.918   5.996
 1833SOL    HW1 6398   6.071   1.990   5.941
 1833SOL    HW2 6399   6.095   1.844   6.009
 1834SOL     OW 6400   2.437   4.286   7.009
 1834SOL    HW1 6401   2.363   4.352   6.999
 1834SOL    HW2 6402   2.517   4.316   6.957
 1835SOL     OW 6403   2.236   4.766   0.616
 1835SOL    HW1 6404   2.322   4.761   0.668
 1835SOL    HW2 6405   2.254   4.741   0.521
 1836SOL     OW 6406   0.680   6.288   0.626
 1836SOL    HW1 6407   0.596   6.314   0.580
 1836SOL    HW2 6408   0.659   6.224   0.701
 1837SOL     OW 6409   6.965   3.394   4.364
 1837SOL    HW1 6410   6.992   3.472   4.307
 1837SOL    HW2 6411   0.018   3.349   4.399
 1838SOL     OW 6412   0.957   3.346   4.474
 1838SOL    HW1 6413   0.919   3.280   4.538
 1838SOL    HW2 6414   1.047   3.314   4.443
 1839SOL     OW 6415   1.925   1.301   6.731
 1839SOL    HW1 6416   1.907   1.343   6.820
 1839SOL    HW2 6417   1.891   1.360   6.658
 1840SOL     OW 6418   0.915   5.458   1.401
 1840SOL    HW1 6419   1.013   5.454   1.423
 1840SOL    HW2 6420   0.902   5.514   1.318
 1841SOL     OW 6421   2.078   2.558   3.849
 1841SOL    HW1 6422   2.104   2.530   3.757
 1841SOL    HW2 6423   2.153   2.608   3.891
 1842SOL     OW 6424   1.714   5.601   6.370
 1842SOL    HW1 6425   1.718   5.506   6.403
 1842SOL    HW2 6426   1.727   5.663   6.448
 1843SOL     OW 6427   5.138   2.248   5.602
 1843SOL    HW1 6428   5.108   2.179   5.669
 1843SOL    HW2 6429   5.163   2.332   5.650
 1844SOL     OW 6430   5.587   5.130   3.772
 1844SOL    HW1 6431   5.661   5.195   3.757
 1844SOL    HW2 6432   5.624   5.042   3.799
 1845SOL     OW 6433   5.557   6.419   1.072
 1845SOL    HW1 6434   5.521   6.502   1.029
 1845SOL    HW2 6435   5.546   6.426   1.171
 1846SOL     OW 6436   3.729   0.860   5.812
 1846SOL    HW1 6437   3.629   0.867   5.823
 1846SOL    HW2 6438   3.752   0.852   5.715
 1847SOL     OW 6439   1.322   5.995   6.360
 1847SOL    HW1 6440   1.288   6.089   6.354
 1847SOL    HW2 6441   1.258   5.934   6.313
 1848SOL     OW 6442   2.402   1.568   4.312
 1848SOL    HW1 6443   2.337   1.545   4.384
 1848SOL    HW2 6444   2.357   1.561   4.223
 1849SOL     OW 6445   2.490   1.111   5.449
 1849SOL    HW1 6446   2.573   1.074   5.407
 1849SOL    HW2 6447   2.498   1.210   5.458
 1850SOL     OW 6448   4.633   2.391   1.254
 1850SOL    HW1 6449   4.698   2.426   1.321
 1850SOL    HW2 6450   4.545   2.374   1.298
 1851SOL     OW 6451   6.204   4.549   2.828
 1851SOL    HW1 6452   6.249   4.564   2.740
 1851SOL    HW2 6453   6.249   4.473   2.875
 1852SOL     OW 6454   5.650   1.903   6.105
 1852SOL    HW1 6455   5.555   1.908   6.138
 1852SOL    HW2 6456   5.711   1.889   6.183
 1853SOL     OW 6457   1.560   5.338   0.235
 1853SOL    HW1 6458   1.647   5.380   0.263
 1853SOL    HW2 6459   1.575   5.243   0.209
 1854SOL     OW 6460   2.650   5.275   4.586
 1854SOL    HW1 6461   2.660   5.205   4.656
 1854SOL    HW2 6462   2.595   5.351   4.622
 1855SOL     OW 6463   6.118   4.378   1.972
 1855SOL    HW1 6464   6.097   4.369   2.070
 1855SOL    HW2 6465   6.037   4.354   1.919
 1856SOL     OW 6466   5.040   3.027   0.343
 1856SOL    HW1 6467   5.052   3.094   0.417
 1856SOL    HW2 6468   5.030   2.936   0.383
 1857SOL     OW 6469   5.506   1.734   3.706
 1857SOL    HW1 6470   5.418   1.709   3.666
 1857SOL    HW2 6471   5.564   1.777   3.637
 1858SOL     OW 6472   5.649   3.566   2.265
 1858SOL    HW1 6473   5.702   3.501   2.210
 1858SOL    HW2 6474   5.694   3.655   2.263
 1859SOL     OW 6475   5.850   2.283   4.230
 1859SOL    HW1 6476   5.862   2.250   4.137
 1859SOL    HW2 6477   5.782   2.227   4.278
 1860SOL     OW 6478   3.830   2.110   4.948
 1860SOL    HW1 6479   3.849   2.082   4.854
 1860SOL    HW2 6480   3.773   2.192   4.947
 1861SOL     OW 6481   4.666   0.071   1.970
 1861SOL    HW1 6482   4.624   0.018   2.044
 1861SOL    HW2 6483   4.658   0.020   1.884
 1862SOL     OW 6484   3.203   2.691   1.199
 1862SOL    HW1 6485   3.240   2.775   1.240
 1862SOL    HW2 6486   3.275   2.646   1.146
 1863SOL     OW 6487   1.940   1.651   1.260
 1863SOL    HW1 6488   2.040   1.651   1.252
 1863SOL    HW2 6489   1.913   1.602   1.343
 1864SOL     OW 6490   6.939   6.580   3.302
 1864SOL    HW1 6491   6.909   6.510   3.237
 1864SOL    HW2 6492   7.023   6.549   3.347
 1865SOL     OW 6493   6.080   3.039   7.028
 1865SOL    HW1 6494   6.117   2.946   7.025
 1865SOL    HW2 6495   6.137   3.099   6.972
 1866SOL     OW 6496   6.487   5.753   1.910
 1866SOL    HW1 6497   6.410   5.728   1.969
 1866SOL    HW2 6498   6.528   5.670   1.871
 1867SOL     OW 6499   1.478   4.021   6.635
 1867SOL    HW1 6500   1.539   3.956   6.682
 1867SOL    HW2 6501   1.533   4.094   6.594
 1868SOL     OW 6502   6.468   4.264   5.306
 1868SOL    HW1 6503   6.494   4.224   5.393
 1868SOL    HW2 6504   6.449   4.192   5.240
 1869SOL     OW 6505   5.832   1.254   5.157
 1869SOL    HW1 6506   5.873   1.166   5.181
 1869SOL    HW2 6507   5.859   1.279   5.064
 1870SOL     OW 6508   1.829   3.497   5.265
 1870SOL    HW1 6509   1.850   3.401   5.281
 1870SOL    HW2 6510   1.889   3.532   5.193
 1871SOL     OW 6511   2.210   1.607   0.983
 1871SOL    HW1 6512   2.131   1.657   0.948
 1871SOL    HW2 6513   2.290   1.625   0.926
 1872SOL     OW 6514   1.406   5.270   6.468
 1872SOL    HW1 6515   1.374   5.360   6.495
 1872SOL    HW2 6516   1.381   5.252   6.373
 1873SOL     OW 6517   5.694   6.154   6.228
 1873SOL    HW1 6518   5.685   6.092   6.306
 1873SOL    HW2 6519   5.649   6.241   6.248
 1874SOL     OW 6520   0.994   4.066   2.962
 1874SOL    HW1 6521   0.992   4.062   2.863
 1874SOL    HW2 6522   0.912   4.113   2.995
 1875SOL     OW 6523   0.286   0.354   2.208
 1875SOL    HW1 6524   0.221   0.393   2.142
 1875SOL    HW2 6525   0.236   0.302   2.278
 1876SOL     OW 6526   1.983   6.136   4.344
 1876SOL    HW1 6527   2.060   6.072   4.339
 1876SOL    HW2 6528   1.904   6.096   4.297
 1877SOL     OW 6529   0.108   0.312   4.748
 1877SOL    HW1 6530   0.128   0.343   4.655
 1877SOL    HW2 6531   0.177   0.245   4.776
 1878SOL     OW 6532   6.360   3.355   5.688
 1878SOL    HW1 6533   6.346   3.439   5.637
 1878SOL    HW2 6534   6.451   3.318   5.666
 1879SOL     OW 6535   2.006   5.787   5.240
 1879SOL    HW1 6536   1.916   5.766   5.201
 1879SOL    HW2 6537   1.994   5.848   5.318
 1880SOL     OW 6538   6.716   0.522   4.034
 1880SOL    HW1 6539   6.657   0.492   4.110
 1880SOL    HW2 6540   6.766   0.604   4.062
 1881SOL     OW 6541   0.676   2.294   0.024
 1881SOL    HW1 6542   0.655   2.390   0.045
 1881SOL    HW2 6543   0.760   2.290   6.999
 1882SOL     OW 6544   0.779   6.212   0.014
 1882SOL    HW1 6545   0.803   6.304   7.012
 1882SOL    HW2 6546   0.687   6.212   0.054
 1883SOL     OW 6547   0.279   2.526   4.273
 1883SOL    HW1 6548   0.184   2.550   4.253
 1883SOL    HW2 6549   0.337   2.554   4.196
 1884SOL     OW 6550   6.098   1.610   1.015
 1884SOL    HW1 6551   6.161   1.541   0.980
 1884SOL    HW2 6552   6.010   1.603   0.967
 1885SOL     OW 6553   3.154   1.279   4.536
 1885SOL    HW1 6554   3.071   1.322   4.501
 1885SOL    HW2 6555   3.183   1.327   4.620
 1886SOL     OW 6556   0.631   6.868   3.295
 1886SOL    HW1 6557   0.587   6.782   3.267
 1886SOL    HW2 6558   0.718   6.847   3.339
 1887SOL     OW 6559   2.315   5.383   6.445
 1887SOL    HW1 6560   2.334   5.354   6.351
 1887SOL    HW2 6561   2.230   5.341   6.476
 1888SOL     OW 6562   2.291   0.366   3.516
 1888SOL    HW1 6563   2.217   0.403   3.461
 1888SOL    HW2 6564   2.269   0.272   3.542
 1889SOL     OW 6565   0.623   3.546   2.580
 1889SOL    HW1 6566   0.713   3.518   2.611
 1889SOL    HW2 6567   0.595   3.491   2.501
 1890SOL     OW 6568   2.019   5.407   4.644
 1890SOL    HW1 6569   2.039   5.376   4.737
 1890SOL    HW2 6570   1.938   5.464   4.645
 1891SOL     OW 6571   3.782   3.592   4.347
 1891SOL    HW1 6572   3.838   3.631   4.274
 1891SOL    HW2 6573   3.783   3.492   4.341
 1892SOL     OW 6574   6.892   0.915   2.566
 1892SOL    HW1 6575   6.969   0.900   2.504
 1892SOL    HW2 6576   6.809   0.876   2.526
 1893SOL     OW 6577   3.124   3.590   3.772
 1893SOL    HW1 6578   3.170   3.630   3.693
 1893SOL    HW2 6579   3.157   3.633   3.856
 1894SOL     OW 6580   2.831   2.741   5.655
 1894SOL    HW1 6581   2.773   2.741   5.573
 1894SOL    HW2 6582   2.853   2.835   5.679
 1895SOL     OW 6583   1.039   6.030   1.636
 1895SOL    HW1 6584   1.062   5.935   1.656
 1895SOL    HW2 6585   0.978   6.034   1.557
 1896SOL     OW 6586   6.645   2.481   0.854
 1896SOL    HW1 6587   6.547   2.501   0.851
 1896SOL    HW2 6588   6.662   2.408   0.920
 1897SOL     OW 6589   2.583   4.694   3.162
 1897SOL    HW1 6590   2.645   4.722   3.236
 1897SOL    HW2 6591   2.509   4.638   3.200
 1898SOL     OW 6592   1.857   5.837   1.814
 1898SOL    HW1 6593   1.804   5.920   1.833
 1898SOL    HW2 6594   1.870   5.786   1.899
 1899SOL     OW 6595   6.927   0.974   2.138
 1899SOL    HW1 6596   6.948   0.906   2.208
 1899SOL    HW2 6597   6.914   0.929   2.050
 1900SOL     OW 6598   3.334   6.066   6.500
 1900SOL    HW1 6599   3.262   6.111   6.446
 1900SOL    HW2 6600   3.302   6.054   6.594
 1901SOL     OW 6601   3.911   3.063   2.586
 1901SOL    HW1 6602   3.934   3.093   2.493
 1901SOL    HW2 6603   3.831   3.004   2.583
 1902SOL     OW 6604   1.481   6.888   5.302
 1902SOL    HW1 6605   1.449   6.962   5.242
 1902SOL    HW2 6606   1.577   6.869   5.282
 1903SOL     OW 6607   0.505   2.368   4.396
 1903SOL    HW1 6608   0.433   2.419   4.349
 1903SOL    HW2 6609   0.466   2.292   4.447
 1904SOL     OW 6610   5.757   6.048   2.259
 1904SOL    HW1 6611   5.804   6.135   2.266
 1904SOL    HW2 6612   5.724   6.019   2.349
 1905SOL     OW 6613   0.494   2.728   3.088
 1905SOL    HW1 6614   0.412   2.771   3.052
 1905SOL    HW2 6615   0.539   2.791   3.151
 1906SOL     OW 6616   0.471   6.346   3.545
 1906SOL    HW1 6617   0.504   6.409   3.615
 1906SOL    HW2 6618   0.412   6.277   3.588
 1907SOL     OW 6619   6.681   2.945   0.759
 1907SOL    HW1 6620   6.664   3.005   0.680
 1907SOL    HW2 6621   6.777   2.951   0.786
 1908SOL     OW 6622   4.492   0.648   1.442
 1908SOL    HW1 6623   4.516   0.551   1.442
 1908SOL    HW2 6624   4.401   0.660   1.403
 1909SOL     OW 6625   6.379   5.422   4.696
 1909SOL    HW1 6626   6.360   5.485   4.772
 1909SOL    HW2 6627   6.458   5.454   4.645
 1910SOL     OW 6628   0.215   6.598   4.554
 1910SOL    HW1 6629   0.311   6.602   4.524
 1910SOL    HW2 6630   0.203   6.520   4.615
 1911SOL     OW 6631   5.708   6.151   4.059
 1911SOL    HW1 6632   5.775   6.190   3.996
 1911SOL    HW2 6633   5.714   6.198   4.148
 1912SOL     OW 6634   3.881   4.919   2.313
 1912SOL    HW1 6635   3.898   4.906   2.410
 1912SOL    HW2 6636   3.939   4.993   2.279
 1913SOL     OW 6637   2.825   4.212   6.589
 1913SOL    HW1 6638   2.892   4.285   6.603
 1913SOL    HW2 6639   2.872   4.132   6.552
 1914SOL     OW 6640   4.501   4.831   0.259
 1914SOL    HW1 6641   4.587   4.872   0.229
 1914SOL    HW2 6642   4.457   4.892   0.326
 1915SOL     OW 6643   4.377   1.522   6.889
 1915SOL    HW1 6644   4.421   1.595   6.941
 1915SOL    HW2 6645   4.360   1.552   6.795
 1916SOL     OW 6646   3.531   1.623   3.271
 1916SOL    HW1 6647   3.580   1.537   3.282
 1916SOL    HW2 6648   3.456   1.611   3.206
 1917SOL     OW 6649   2.781   3.986   1.549
 1917SOL    HW1 6650   2.810   3.928   1.472
 1917SOL    HW2 6651   2.682   3.978   1.561
 1918SOL     OW 6652   4.899   3.546   3.996
 1918SOL    HW1 6653   4.845   3.574   3.917
 1918SOL    HW2 6654   4.904   3.446   3.999
 1919SOL     OW 6655   6.403   0.521   6.591
 1919SOL    HW1 6656   6.412   0.599   6.653
 1919SOL    HW2 6657   6.306   0.501   6.576
 1920SOL     OW 6658   4.893   3.364   0.645
 1920SOL    HW1 6659   4.985   3.383   0.611
 1920SOL    HW2 6660   4.848   3.450   0.670
 1921SOL     OW 6661   2.727   1.880   6.935
 1921SOL    HW1 6662   2.774   1.933   7.005
 1921SOL    HW2 6663   2.640   1.846   6.971
 1922SOL     OW 6664   3.772   3.314   4.259
 1922SOL    HW1 6665   3.818   3.301   4.171
 1922SOL    HW2 6666   3.682   3.270   4.256
 1923SOL     OW 6667   2.978   0.250   4.041
 1923SOL    HW1 6668   3.064   0.202   4.023
 1923SOL    HW2 6669   2.959   0.312   3.965
 1924SOL     OW 6670   5.028   1.132   1.247
 1924SOL    HW1 6671   4.979   1.133   1.335
 1924SOL    HW2 6672   5.126   1.145   1.263
 1925SOL     OW 6673   1.062   4.434   1.068
 1925SOL    HW1 6674   1.107   4.377   1.000
 1925SOL    HW2 6675   1.082   4.530   1.049
 1926SOL     OW 6676   2.455   6.608   1.490
 1926SOL    HW1 6677   2.524   6.619   1.561
 1926SOL    HW2 6678   2.484   6.536   1.427
 1927SOL     OW 6679   2.065   4.812   1.557
 1927SOL    HW1 6680   2.160   4.836   1.576
 1927SOL    HW2 6681   2.011   4.896   1.545
 1928SOL     OW 6682   1.460   4.069   2.690
 1928SOL    HW1 6683   1.387   4.063   2.622
 1928SOL    HW2 6684   1.478   4.165   2.712
 1929SOL     OW 6685   3.207   0.522   3.273
 1929SOL    HW1 6686   3.156   0.437   3.258
 1929SOL    HW2 6687   3.145   0.592   3.309
 1930SOL     OW 6688   3.281   3.841   6.907
 1930SOL    HW1 6689   3.219   3.763   6.916
 1930SOL    HW2 6690   3.342   3.844   6.986
 1931SOL     OW 6691   5.840   3.548   3.139
 1931SOL    HW1 6692   5.855   3.455   3.108
 1931SOL    HW2 6693   5.807   3.547   3.234
 1932SOL     OW 6694   4.673   1.123   1.994
 1932SOL    HW1 6695   4.723   1.207   2.016
 1932SOL    HW2 6696   4.578   1.132   2.025
 1933SOL     OW 6697   1.858   1.071   0.773
 1933SOL    HW1 6698   1.849   1.127   0.855
 1933SOL    HW2 6699   1.770   1.028   0.752
 1934SOL     OW 6700   6.221   0.486   0.320
 1934SOL    HW1 6701   6.223   0.387   0.317
 1934SOL    HW2 6702   6.133   0.517   0.357
 1935SOL     OW 6703   5.720   5.603   3.372
 1935SOL    HW1 6704   5.806   5.645   3.342
 1935SOL    HW2 6705   5.705   5.622   3.469
 1936SOL     OW 6706   6.175   2.902   6.513
 1936SOL    HW1 6707   6.129   2.853   6.587
 1936SOL    HW2 6708   6.108   2.926   6.443
 1937SOL     OW 6709   0.897   5.463   6.542
 1937SOL    HW1 6710   0.980   5.431   6.589
 1937SOL    HW2 6711   0.919   5.546   6.490
 1938SOL     OW 6712   6.786   1.110   6.885
 1938SOL    HW1 6713   6.763   1.030   6.940
 1938SOL    HW2 6714   6.739   1.104   6.797
 1939SOL     OW 6715   0.105   0.827   4.237
 1939SOL    HW1 6716   0.176   0.853   4.302
 1939SOL    HW2 6717   0.128   0.739   4.195
 1940SOL     OW 6718   0.740   5.475   2.406
 1940SOL    HW1 6719   0.807   5.511   2.341
 1940SOL    HW2 6720   0.786   5.413   2.470
 1941SOL     OW 6721   6.352   1.116   3.556
 1941SOL    HW1 6722   6.408   1.188   3.515
 1941SOL    HW2 6723   6.408   1.035   3.574
 1942SOL     OW 6724   1.048   6.748   1.584
 1942SOL    HW1 6725   1.024   6.844   1.600
 1942SOL    HW2 6726   1.063   6.702   1.671
 1943SOL     OW 6727   1.132   4.315   3.805
 1943SOL    HW1 6728   1.194   4.360   3.740
 1943SOL    HW2 6729   1.141   4.216   3.797
 1944SOL     OW 6730   0.222   3.847   3.877
 1944SOL    HW1 6731   0.252   3.936   3.843
 1944SOL    HW2 6732   0.146   3.859   3.940
 1945SOL     OW 6733   4.443   1.741   2.250
 1945SOL    HW1 6734   4.349   1.723   2.279
 1945SOL    HW2 6735   4.443   1.816   2.184
 1946SOL     OW 6736   6.175   4.767   6.771
 1946SOL    HW1 6737   6.185   4.691   6.835
 1946SOL    HW2 6738   6.082   4.802   6.776
 1947SOL     OW 6739   5.443   6.177   2.324
 1947SOL    HW1 6740   5.389   6.250   2.282
 1947SOL    HW2 6741   5.478   6.116   2.253
 1948SOL     OW 6742   4.800   2.822   2.870
 1948SOL    HW1 6743   4.745   2.748   2.907
 1948SOL    HW2 6744   4.765   2.910   2.903
 1949SOL     OW 6745   3.172   4.315   6.370
 1949SOL    HW1 6746   3.073   4.306   6.366
 1949SOL    HW2 6747   3.196   4.407   6.402
 1950SOL     OW 6748   3.803   2.997   4.428
 1950SOL    HW1 6749   3.829   2.965   4.519
 1950SOL    HW2 6750   3.707   3.024   4.429
 1951SOL     OW 6751   1.062   5.143   6.070
 1951SOL    HW1 6752   1.073   5.059   6.016
 1951SOL    HW2 6753   0.979   5.190   6.041
 1952SOL     OW 6754   5.538   3.670   6.786
 1952SOL    HW1 6755   5.623   3.668   6.734
 1952SOL    HW2 6756   5.524   3.762   6.825
 1953SOL     OW 6757   6.907   0.958   6.160
 1953SOL    HW1 6758   6.966   0.892   6.113
 1953SOL    HW2 6759   6.956   0.997   6.238
 1954SOL     OW 6760   4.033   6.542   3.239
 1954SOL    HW1 6761   4.126   6.521   3.209
 1954SOL    HW2 6762   3.984   6.589   3.166
 1955SOL     OW 6763   0.239   3.559   3.916
 1955SOL    HW1 6764   0.257   3.648   3.873
 1955SOL    HW2 6765   0.324   3.524   3.955
 1956SOL     OW 6766   4.679   1.215   1.447
 1956SOL    HW1 6767   4.657   1.273   1.526
 1956SOL    HW2 6768   4.617   1.238   1.372
 1957SOL     OW 6769   0.690   3.656   4.743
 1957SOL    HW1 6770   0.604   3.633   4.788
 1957SOL    HW2 6771   0.731   3.736   4.787
 1958SOL     OW 6772   5.497   1.514   0.511
 1958SOL    HW1 6773   5.490   1.449   0.436
 1958SOL    HW2 6774   5.416   1.571   0.514
 1959SOL     OW 6775   2.018   1.285   6.288
 1959SOL    HW1 6776   2.025   1.310   6.385
 1959SOL    HW2 6777   2.031   1.187   6.278
 1960SOL     OW 6778   4.842   3.969   2.092
 1960SOL    HW1 6779   4.751   3.973   2.133
 1960SOL    HW2 6780   4.833   3.945   1.995
 1961SOL     OW 6781   6.496   3.788   4.496
 1961SOL    HW1 6782   6.473   3.692   4.510
 1961SOL    HW2 6783   6.594   3.802   4.510
 1962SOL     OW 6784   0.288   0.001   2.519
 1962SOL    HW1 6785   0.309   6.933   2.534
 1962SOL    HW2 6786   0.242   0.012   2.431
 1963SOL     OW 6787   0.625   1.236   6.793
 1963SOL    HW1 6788   0.674   1.297   6.855
 1963SOL    HW2 6789   0.659   1.250   6.700
 1964SOL     OW 6790   5.622   2.960   0.627
 1964SOL    HW1 6791   5.560   2.969   0.706
 1964SOL    HW2 6792   5.684   3.039   0.625
 1965SOL     OW 6793   5.916   5.085   4.904
 1965SOL    HW1 6794   5.996   5.074   4.963
 1965SOL    HW2 6795   5.834   5.093   4.961
 1966SOL     OW 6796   1.751   4.869   6.791
 1966SOL    HW1 6797   1.713   4.849   6.881
 1966SOL    HW2 6798   1.846   4.901   6.802
 1967SOL     OW 6799   6.237   2.920   4.037
 1967SOL    HW1 6800   6.292   2.837   4.034
 1967SOL    HW2 6801   6.190   2.926   4.125
 1968SOL     OW 6802   2.832   1.584   5.546
 1968SOL    HW1 6803   2.823   1.588   5.646
 1968SOL    HW2 6804   2.801   1.671   5.507
 1969SOL     OW 6805   0.466   6.505   1.645
 1969SOL    HW1 6806   0.513   6.495   1.733
 1969SOL    HW2 6807   0.485   6.425   1.588
 1970SOL     OW 6808   5.374   4.314   2.631
 1970SOL    HW1 6809   5.334   4.247   2.569
 1970SOL    HW2 6810   5.442   4.369   2.582
 1971SOL     OW 6811   1.318   5.746   4.375
 1971SOL    HW1 6812   1.411   5.725   4.345
 1971SOL    HW2 6813   1.254   5.724   4.302
 1972SOL     OW 6814   5.401   2.460   3.543
 1972SOL    HW1 6815   5.406   2.375   3.595
 1972SOL    HW2 6816   5.376   2.535   3.604
 1973SOL     OW 6817   4.499   2.003   6.922
 1973SOL    HW1 6818   4.586   1.987   6.877
 1973SOL    HW2 6819   4.512   2.064   7.000
 1974SOL     OW 6820   2.322   6.073   4.249
 1974SOL    HW1 6821   2.302   5.998   4.312
 1974SOL    HW2 6822   2.382   6.139   4.293
 1975SOL     OW 6823   1.757   2.117   2.543
 1975SOL    HW1 6824   1.733   2.155   2.632
 1975SOL    HW2 6825   1.856   2.110   2.535
 1976SOL     OW 6826   2.641   0.492   4.584
 1976SOL    HW1 6827   2.721   0.536   4.624
 1976SOL    HW2 6828   2.559   0.517   4.636
 1977SOL     OW 6829   1.357   4.604   0.283
 1977SOL    HW1 6830   1.359   4.613   0.383
 1977SOL    HW2 6831   1.346   4.508   0.258
 1978SOL     OW 6832   2.725   0.641   2.141
 1978SOL    HW1 6833   2.693   0.688   2.059
 1978SOL    HW2 6834   2.778   0.560   2.115
 1979SOL     OW 6835   5.344   2.619   0.081
 1979SOL    HW1 6836   5.414   2.690   0.078
 1979SOL    HW2 6837   5.275   2.644   0.148
 1980SOL     OW 6838   4.328   6.783   1.130
 1980SOL    HW1 6839   4.395   6.850   1.160
 1980SOL    HW2 6840   4.370   6.692   1.129
 1981SOL     OW 6841   4.304   2.722   1.689
 1981SOL    HW1 6842   4.396   2.732   1.727
 1981SOL    HW2 6843   4.269   2.631   1.711
 1982SOL     OW 6844   3.233   1.495   6.112
 1982SOL    HW1 6845   3.140   1.500   6.075
 1982SOL    HW2 6846   3.257   1.582   6.155
 1983SOL     OW 6847   0.066   1.980   0.318
 1983SOL    HW1 6848   0.025   1.916   0.252
 1983SOL    HW2 6849   0.111   1.929   0.391
 1984SOL     OW 6850   4.443   3.512   6.075
 1984SOL    HW1 6851   4.516   3.571   6.110
 1984SOL    HW2 6852   4.383   3.485   6.150
 1985SOL     OW 6853   5.267   5.588   5.477
 1985SOL    HW1 6854   5.191   5.632   5.430
 1985SOL    HW2 6855   5.233   5.539   5.557
 1986SOL     OW 6856   3.301   3.244   3.370
 1986SOL    HW1 6857   3.369   3.273   3.303
 1986SOL    HW2 6858   3.277   3.148   3.355
 1987SOL     OW 6859   1.443   2.123   1.745
 1987SOL    HW1 6860   1.496   2.172   1.675
 1987SOL    HW2 6861   1.503   2.099   1.821
 1988SOL     OW 6862   1.071   1.200   2.197
 1988SOL    HW1 6863   1.169   1.210   2.210
 1988SOL    HW2 6864   1.023   1.272   2.248
 1989SOL     OW 6865   3.236   5.107   3.578
 1989SOL    HW1 6866   3.212   5.141   3.487
 1989SOL    HW2 6867   3.276   5.181   3.632
 1990SOL     OW 6868   4.684   0.087   0.652
 1990SOL    HW1 6869   4.634   0.168   0.680
 1990SOL    HW2 6870   4.688   0.022   0.728
 1991SOL     OW 6871   3.165   5.008   2.289
 1991SOL    HW1 6872   3.224   5.084   2.314
 1991SOL    HW2 6873   3.149   4.949   2.368
 1992SOL     OW 6874   0.356   1.193   3.212
 1992SOL    HW1 6875   0.272   1.181   3.160
 1992SOL    HW2 6876   0.434   1.197   3.150
 1993SOL     OW 6877   1.539   1.052   0.977
 1993SOL    HW1 6878   1.579   1.100   0.899
 1993SOL    HW2 6879   1.489   1.117   1.034
 1994SOL     OW 6880   2.917   3.552   1.589
 1994SOL    HW1 6881   2.962   3.628   1.543
 1994SOL    HW2 6882   2.908   3.475   1.525
 1995SOL     OW 6883   6.373   0.797   3.886
 1995SOL    HW1 6884   6.466   0.833   3.873
 1995SOL    HW2 6885   6.315   0.829   3.811
 1996SOL     OW 6886   4.456   0.050   0.918
 1996SOL    HW1 6887   4.380   7.022   0.887
 1996SOL    HW2 6888   4.542   0.012   0.884
 1997SOL     OW 6889   2.886   1.794   2.892
 1997SOL    HW1 6890   2.958   1.862   2.907
 1997SOL    HW2 6891   2.816   1.804   2.963
 1998SOL     OW 6892   2.415   3.491   0.960
 1998SOL    HW1 6893   2.324   3.492   1.001
 1998SOL    HW2 6894   2.482   3.526   1.026
 1999SOL     OW 6895   0.733   0.013   5.407
 1999SOL    HW1 6896   0.772   6.963   5.359
 1999SOL    HW2 6897   0.695   7.012   5.495
 2000SOL     OW 6898   4.163   4.320   6.629
 2000SOL    HW1 6899   4.228   4.245   6.618
 2000SOL    HW2 6900   4.122   4.342   6.540
 2001SOL     OW 6901   1.098   1.379   0.384
 2001SOL    HW1 6902   1.005   1.346   0.372
 2001SOL    HW2 6903   1.121   1.381   0.481
 2002SOL     OW 6904   5.317   4.621   6.676
 2002SOL    HW1 6905   5.356   4.630   6.768
 2002SOL    HW2 6906   5.322   4.709   6.630
 2003SOL     OW 6907   0.014   5.574   1.547
 2003SOL    HW1 6908   0.032   5.659   1.597
 2003SOL    HW2 6909   0.096   5.517   1.547
 2004SOL     OW 6910   3.198   0.748   2.907
 2004SOL    HW1 6911   3.187   0.838   2.949
 2004SOL    HW2 6912   3.264   0.694   2.959
 2005SOL     OW 6913   1.479   6.335   0.151
 2005SOL    HW1 6914   1.557   6.291   0.106
 2005SOL    HW2 6915   1.412   6.266   0.177
 2006SOL     OW 6916   6.330   0.343   2.005
 2006SOL    HW1 6917   6.297   0.266   1.951
 2006SOL    HW2 6918   6.420   0.323   2.042
 2007SOL     OW 6919   5.559   4.748   5.772
 2007SOL    HW1 6920   5.563   4.838   5.817
 2007SOL    HW2 6921   5.467   4.712   5.777
 2008SOL     OW 6922   1.766   2.417   3.021
 2008SOL    HW1 6923   1.711   2.486   3.068
 2008SOL    HW2 6924   1.855   2.456   2.998
 2009SOL     OW 6925   5.788   7.017   3.760
 2009SOL    HW1 6926   5.713   6.998   3.697
 2009SOL    HW2 6927   5.875   6.998   3.715
 2010SOL     OW 6928   6.540   1.060   1.808
 2010SOL    HW1 6929   6.490   1.091   1.889
 2010SOL    HW2 6930   6.576   1.139   1.758
 2011SOL     OW 6931   0.679   0.279   5.376
 2011SOL    HW1 6932   0.706   0.317   5.465
 2011SOL    HW2 6933   0.694   0.180   5.377
 2012SOL     OW 6934   0.473   2.514   0.466
 2012SOL    HW1 6935   0.538   2.550   0.533
 2012SOL    HW2 6936   0.380   2.527   0.501
 2013SOL     OW 6937   0.610   2.564   2.412
 2013SOL    HW1 6938   0.672   2.502   2.363
 2013SOL    HW2 6939   0.516   2.531   2.404
 2014SOL     OW 6940   3.945   2.162   2.950
 2014SOL    HW1 6941   3.949   2.163   3.050
 2014SOL    HW2 6942   3.960   2.069   2.917
 2015SOL     OW 6943   3.843   6.071   1.521
 2015SOL    HW1 6944   3.750   6.059   1.555
 2015SOL    HW2 6945   3.846   6.046   1.424
 2016SOL     OW 6946   2.624   0.849   4.582
 2016SOL    HW1 6947   2.679   0.792   4.643
 2016SOL    HW2 6948   2.554   0.898   4.635
 2017SOL     OW 6949   0.991   6.760   4.404
 2017SOL    HW1 6950   0.905   6.771   4.453
 2017SOL    HW2 6951   0.973   6.734   4.309
 2018SOL     OW 6952   0.417   1.554   5.066
 2018SOL    HW1 6953   0.486   1.482   5.074
 2018SOL    HW2 6954   0.454   1.630   5.015
 2019SOL     OW 6955   1.064   4.886   6.972
 2019SOL    HW1 6956   1.069   4.984   6.950
 2019SOL    HW2 6957   1.116   4.869   0.027
 2020SOL     OW 6958   2.065   6.947   1.458
 2020SOL    HW1 6959   1.973   6.929   1.495
 2020SOL    HW2 6960   2.079   0.017   1.451
 2021SOL     OW 6961   0.218   5.503   3.811
 2021SOL    HW1 6962   0.249   5.408   3.815
 2021SOL    HW2 6963   0.123   5.508   3.840
 2022SOL     OW 6964   2.069   3.236   3.989
 2022SOL    HW1 6965   2.137   3.187   3.936
 2022SOL    HW2 6966   1.992   3.261   3.930
 2023SOL     OW 6967   1.321   5.546   5.973
 2023SOL    HW1 6968   1.285   5.635   5.945
 2023SOL    HW2 6969   1.262   5.507   6.044
 2024SOL     OW 6970   6.198   5.409   3.156
 2024SOL    HW1 6971   6.141   5.346   3.103
 2024SOL    HW2 6972   6.293   5.378   3.155
 2025SOL     OW 6973   1.638   0.524   4.909
 2025SOL    HW1 6974   1.543   0.512   4.878
 2025SOL    HW2 6975   1.698   0.528   4.829
 2026SOL     OW 6976   1.647   6.492   5.706
 2026SOL    HW1 6977   1.636   6.400   5.745
 2026SOL    HW2 6978   1.725   6.537   5.749
 2027SOL     OW 6979   5.639   6.582   3.069
 2027SOL    HW1 6980   5.653   6.483   3.065
 2027SOL    HW2 6981   5.692   6.627   2.997
 2028SOL     OW 6982   2.497   5.840   4.914
 2028SOL    HW1 6983   2.400   5.831   4.892
 2028SOL    HW2 6984   2.520   5.780   4.990
 2029SOL     OW 6985   0.022   1.736   6.756
 2029SOL    HW1 6986   6.980   1.806   6.750
 2029SOL    HW2 6987   0.041   1.699   6.666
 2030SOL     OW 6988   1.309   6.490   2.713
 2030SOL    HW1 6989   1.242   6.461   2.782
 2030SOL    HW2 6990   1.358   6.411   2.678
 2031SOL     OW 6991   6.777   1.025   4.004
 2031SOL    HW1 6992   6.724   1.098   4.047
 2031SOL    HW2 6993   6.824   1.062   3.924
 2032SOL     OW 6994   2.847   2.716   5.939
 2032SOL    HW1 6995   2.834   2.725   5.840
 2032SOL    HW2 6996   2.944   2.727   5.961
 2033SOL     OW 6997   3.177   6.852   1.102
 2033SOL    HW1 6998   3.203   6.916   1.173
 2033SOL    HW2 6999   3.092   6.805   1.128
 2034SOL     OW 7000   0.817   3.740   5.159
 2034SOL    HW1 7001   0.742   3.806   5.153
 2034SOL    HW2 7002   0.900   3.782   5.124
 2035SOL     OW 7003   4.749   6.345   3.265
 2035SOL    HW1 7004   4.678   6.415   3.274
 2035SOL    HW2 7005   4.820   6.377   3.202
 2036SOL     OW 7006   6.860   4.031   5.591
 2036SOL    HW1 7007   6.888   3.950   5.540
 2036SOL    HW2 7008   6.801   4.004   5.667
 2037SOL     OW 7009   0.886   2.287   6.897
 2037SOL    HW1 7010   0.883   2.278   6.797
 2037SOL    HW2 7011   0.972   2.249   6.931
 2038SOL     OW 7012   2.323   0.719   5.817
 2038SOL    HW1 7013   2.386   0.696   5.891
 2038SOL    HW2 7014   2.246   0.772   5.853
 2039SOL     OW 7015   5.209   5.848   4.326
 2039SOL    HW1 7016   5.296   5.890   4.352
 2039SOL    HW2 7017   5.160   5.909   4.265
 2040SOL     OW 7018   2.892   1.601   0.856
 2040SOL    HW1 7019   2.805   1.553   0.866
 2040SOL    HW2 7020   2.966   1.534   0.850
 2041SOL     OW 7021   2.481   0.196   6.682
 2041SOL    HW1 7022   2.523   0.139   6.612
 2041SOL    HW2 7023   2.382   0.187   6.678
 2042SOL     OW 7024   7.008   0.446   5.423
 2042SOL    HW1 7025   0.013   0.360   5.386
 2042SOL    HW2 7026   0.041   0.479   5.494
 2043SOL     OW 7027   1.594   3.310   0.887
 2043SOL    HW1 7028   1.609   3.393   0.832
 2043SOL    HW2 7029   1.519   3.326   0.951
 2044SOL     OW 7030   3.185   1.203   2.088
 2044SOL    HW1 7031   3.163   1.118   2.135
 2044SOL    HW2 7032   3.107   1.231   2.032
 2045SOL     OW 7033   1.630   6.482   3.913
 2045SOL    HW1 7034   1.621   6.396   3.863
 2045SOL    HW2 7035   1.657   6.555   3.851
 2046SOL     OW 7036   6.761   2.167   5.604
 2046SOL    HW1 7037   6.855   2.188   5.632
 2046SOL    HW2 7038   6.698   2.204   5.672
 2047SOL     OW 7039   6.558   0.291   2.111
 2047SOL    HW1 7040   6.564   0.311   2.208
 2047SOL    HW2 7041   6.570   0.193   2.096
 2048SOL     OW 7042   2.286   1.229   3.564
 2048SOL    HW1 7043   2.196   1.250   3.602
 2048SOL    HW2 7044   2.276   1.160   3.492
 2049SOL     OW 7045   4.524   2.311   5.016
 2049SOL    HW1 7046   4.622   2.330   5.027
 2049SOL    HW2 7047   4.505   2.289   4.920
 2050SOL     OW 7048   6.576   1.406   2.725
 2050SOL    HW1 7049   6.605   1.314   2.700
 2050SOL    HW2 7050   6.572   1.463   2.643
 2051SOL     OW 7051   3.525   7.017   6.384
 2051SOL    HW1 7052   3.498   6.928   6.347
 2051SOL    HW2 7053   3.582   7.002   6.466
 2052SOL     OW 7054   0.634   4.294   0.934
 2052SOL    HW1 7055   0.566   4.290   1.008
 2052SOL    HW2 7056   0.725   4.290   0.974
 2053SOL     OW 7057   4.823   4.684   1.568
 2053SOL    HW1 7058   4.769   4.672   1.652
 2053SOL    HW2 7059   4.914   4.720   1.592
 2054SOL     OW 7060   2.977   3.823   4.001
 2054SOL    HW1 7061   2.974   3.758   4.077
 2054SOL    HW2 7062   2.918   3.902   4.021
 2055SOL     OW 7063   2.807   2.982   5.804
 2055SOL    HW1 7064   2.832   3.079   5.812
 2055SOL    HW2 7065   2.723   2.965   5.854
 2056SOL     OW 7066   2.978   5.297   1.109
 2056SOL    HW1 7067   3.045   5.290   1.183
 2056SOL    HW2 7068   2.887   5.310   1.148
 2057SOL     OW 7069   6.108   3.220   4.640
 2057SOL    HW1 7070   6.205   3.226   4.621
 2057SOL    HW2 7071   6.069   3.142   4.591
 2058SOL     OW 7072   5.232   0.790   3.732
 2058SOL    HW1 7073   5.322   0.747   3.721
 2058SOL    HW2 7074   5.242   0.881   3.772
 2059SOL     OW 7075   2.839   1.647   5.814
 2059SOL    HW1 7076   2.881   1.737   5.805
 2059SOL    HW2 7077   2.895   1.590   5.874
 2060SOL     OW 7078   1.497   2.294   6.052
 2060SOL    HW1 7079   1.398   2.306   6.051
 2060SOL    HW2 7080   1.520   2.198   6.034
 2061SOL     OW 7081   2.652   2.471   3.400
 2061SOL    HW1 7082   2.621   2.523   3.320
 2061SOL    HW2 7083   2.706   2.392   3.370
 2062SOL     OW 7084   4.465   4.945   4.375
 2062SOL    HW1 7085   4.554   4.904   4.356
 2062SOL    HW2 7086   4.410   4.881   4.430
 2063SOL     OW 7087   1.209   1.413   4.132
 2063SOL    HW1 7088   1.224   1.450   4.224
 2063SOL    HW2 7089   1.185   1.316   4.139
 2064SOL     OW 7090   0.570   4.009   4.558
 2064SOL    HW1 7091   0.623   4.093   4.548
 2064SOL    HW2 7092   0.579   3.953   4.476
 2065SOL     OW 7093   3.129   3.189   5.290
 2065SOL    HW1 7094   3.046   3.134   5.288
 2065SOL    HW2 7095   3.105   3.286   5.287
 2066SOL     OW 7096   2.581   2.334   4.764
 2066SOL    HW1 7097   2.561   2.370   4.673
 2066SOL    HW2 7098   2.496   2.327   4.817
 2067SOL     OW 7099   5.716   4.893   3.123
 2067SOL    HW1 7100   5.815   4.888   3.126
 2067SOL    HW2 7101   5.681   4.918   3.213
 2068SOL     OW 7102   2.624   6.626   4.101
 2068SOL    HW1 7103   2.625   6.610   4.200
 2068SOL    HW2 7104   2.716   6.648   4.070
 2069SOL     OW 7105   5.428   1.794   2.784
 2069SOL    HW1 7106   5.371   1.762   2.859
 2069SOL    HW2 7107   5.524   1.775   2.804
 2070SOL     OW 7108   0.587   5.782   1.962
 2070SOL    HW1 7109   0.529   5.852   1.921
 2070SOL    HW2 7110   0.654   5.825   2.023
 2071SOL     OW 7111   6.928   2.539   3.748
 2071SOL    HW1 7112   6.982   2.608   3.796
 2071SOL    HW2 7113   6.843   2.580   3.715
 2072SOL     OW 7114   5.324   2.958   6.103
 2072SOL    HW1 7115   5.309   2.885   6.036
 2072SOL    HW2 7116   5.421   2.963   6.126
 2073SOL     OW 7117   3.284   6.000   6.766
 2073SOL    HW1 7118   3.240   5.932   6.825
 2073SOL    HW2 7119   3.268   6.091   6.804
 2074SOL     OW 7120   3.473   4.330   5.594
 2074SOL    HW1 7121   3.483   4.427   5.614
 2074SOL    HW2 7122   3.376   4.307   5.588
 2075SOL     OW 7123   4.855   0.870   1.010
 2075SOL    HW1 7124   4.918   0.871   0.933
 2075SOL    HW2 7125   4.907   0.866   1.096
 2076SOL     OW 7126   6.532   0.196   3.010
 2076SOL    HW1 7127   6.455   0.157   2.960
 2076SOL    HW2 7128   6.618   0.161   2.972
 2077SOL     OW 7129   0.565   4.496   1.726
 2077SOL    HW1 7130   0.512   4.550   1.661
 2077SOL    HW2 7131   0.525   4.405   1.735
 2078SOL     OW 7132   0.522   2.735   0.943
 2078SOL    HW1 7133   0.539   2.806   0.875
 2078SOL    HW2 7134   0.454   2.671   0.908
 2079SOL     OW 7135   4.728   1.757   4.026
 2079SOL    HW1 7136   4.724   1.676   4.083
 2079SOL    HW2 7137   4.747   1.731   3.931
 2080SOL     OW 7138   2.169   2.595   4.118
 2080SOL    HW1 7139   2.112   2.627   4.194
 2080SOL    HW2 7140   2.236   2.665   4.095
 2081SOL     OW 7141   0.276   5.971   2.453
 2081SOL    HW1 7142   0.295   5.987   2.356
 2081SOL    HW2 7143   0.186   6.009   2.476
 2082SOL     OW 7144   6.540   6.520   4.016
 2082SOL    HW1 7145   6.520   6.488   3.923
 2082SOL    HW2 7146   6.625   6.478   4.047
 2083SOL     OW 7147   1.457   5.831   3.013
 2083SOL    HW1 7148   1.379   5.801   3.069
 2083SOL    HW2 7149   1.442   5.804   2.918
 2084SOL     OW 7150   6.129   2.075   1.356
 2084SOL    HW1 7151   6.057   2.129   1.400
 2084SOL    HW2 7152   6.112   1.978   1.373
 2085SOL     OW 7153   6.660   4.673   6.796
 2085SOL    HW1 7154   6.571   4.644   6.763
 2085SOL    HW2 7155   6.691   4.753   6.744
 2086SOL     OW 7156   5.453   1.487   5.470
 2086SOL    HW1 7157   5.427   1.399   5.430
 2086SOL    HW2 7158   5.488   1.547   5.397
 2087SOL     OW 7159   4.788   1.289   5.923
 2087SOL    HW1 7160   4.798   1.281   5.824
 2087SOL    HW2 7161   4.877   1.283   5.967
 2088SOL     OW 7162   0.582   4.022   5.745
 2088SOL    HW1 7163   0.565   4.029   5.647
 2088SOL    HW2 7164   0.601   4.113   5.782
 2089SOL     OW 7165   3.131   5.177   4.211
 2089SOL    HW1 7166   3.050   5.131   4.175
 2089SOL    HW2 7167   3.107   5.227   4.294
 2090SOL     OW 7168   5.794   2.623   6.179
 2090SOL    HW1 7169   5.805   2.548   6.114
 2090SOL    HW2 7170   5.839   2.598   6.266
 2091SOL     OW 7171   5.681   0.282   0.496
 2091SOL    HW1 7172   5.748   0.277   0.422
 2091SOL    HW2 7173   5.613   0.352   0.475
 2092SOL     OW 7174   3.572   3.235   2.878
 2092SOL    HW1 7175   3.622   3.260   2.796
 2092SOL    HW2 7176   3.475   3.223   2.855
 2093SOL     OW 7177   5.556   6.998   6.847
 2093SOL    HW1 7178   5.457   6.983   6.840
 2093SOL    HW2 7179   5.594   6.937   6.916
 2094SOL     OW 7180   4.395   2.635   0.806
 2094SOL    HW1 7181   4.478   2.587   0.836
 2094SOL    HW2 7182   4.419   2.728   0.779
 2095SOL     OW 7183   3.778   5.805   4.724
 2095SOL    HW1 7184   3.709   5.857   4.773
 2095SOL    HW2 7185   3.868   5.846   4.741
 2096SOL     OW 7186   3.396   0.574   3.081
 2096SOL    HW1 7187   3.477   0.607   3.129
 2096SOL    HW2 7188   3.330   0.539   3.147
 2097SOL     OW 7189   2.672   5.550   5.923
 2097SOL    HW1 7190   2.755   5.551   5.978
 2097SOL    HW2 7191   2.652   5.642   5.890
 2098SOL     OW 7192   1.229   7.018   4.196
 2098SOL    HW1 7193   1.225   6.939   4.258
 2098SOL    HW2 7194   1.199   0.071   4.244
 2099SOL     OW 7195   4.557   1.740   6.462
 2099SOL    HW1 7196   4.623   1.808   6.431
 2099SOL    HW2 7197   4.504   1.707   6.384
 2100SOL     OW 7198   4.919   0.123   0.833
 2100SOL    HW1 7199   5.003   0.112   0.778
 2100SOL    HW2 7200   4.892   0.033   0.869
 2101SOL     OW 7201   0.700   0.345   3.123
 2101SOL    HW1 7202   0.650   0.258   3.123
 2101SOL    HW2 7203   0.679   0.396   3.039
 2102SOL     OW 7204   3.723   2.984   2.900
 2102SOL    HW1 7205   3.659   3.059   2.885
 2102SOL    HW2 7206   3.815   3.011   2.870
 2103SOL     OW 7207   1.468   0.219   1.401
 2103SOL    HW1 7208   1.563   0.188   1.406
 2103SOL    HW2 7209   1.463   0.303   1.346
 2104SOL     OW 7210   1.028   4.588   2.662
 2104SOL    HW1 7211   1.052   4.495   2.688
 2104SOL    HW2 7212   0.974   4.630   2.736
 2105SOL     OW 7213   5.647   6.213   5.590
 2105SOL    HW1 7214   5.608   6.136   5.639
 2105SOL    HW2 7215   5.741   6.228   5.620
 2106SOL     OW 7216   3.423   3.831   1.003
 2106SOL    HW1 7217   3.416   3.924   0.967
 2106SOL    HW2 7218   3.440   3.768   0.928
 2107SOL     OW 7219   6.039   4.216   4.331
 2107SOL    HW1 7220   6.079   4.247   4.245
 2107SOL    HW2 7221   5.961   4.156   4.313
 2108SOL     OW 7222   3.963   6.299   5.192
 2108SOL    HW1 7223   4.023   6.380   5.194
 2108SOL    HW2 7224   3.989   6.237   5.266
 2109SOL     OW 7225   2.425   6.358   2.427
 2109SOL    HW1 7226   2.516   6.393   2.403
 2109SOL    HW2 7227   2.392   6.298   2.354
 2110SOL     OW 7228   3.817   5.878   0.497
 2110SOL    HW1 7229   3.889   5.820   0.460
 2110SOL    HW2 7230   3.779   5.934   0.424
 2111SOL     OW 7231   0.667   2.596   0.676
 2111SOL    HW1 7232   0.679   2.498   0.691
 2111SOL    HW2 7233   0.675   2.645   0.763
 2112SOL     OW 7234   0.238   0.065   6.188
 2112SOL    HW1 7235   0.295   0.136   6.231
 2112SOL    HW2 7236   0.297   7.029   6.141
 2113SOL     OW 7237   6.659   1.598   4.327
 2113SOL    HW1 7238   6.703   1.588   4.238
 2113SOL    HW2 7239   6.584   1.663   4.320
 2114SOL     OW 7240   2.640   0.573   5.468
 2114SOL    HW1 7241   2.575   0.631   5.420
 2114SOL    HW2 7242   2.724   0.624   5.485
 2115SOL     OW 7243   0.230   0.112   4.446
 2115SOL    HW1 7244   0.171   0.034   4.465
 2115SOL    HW2 7245   0.186   0.196   4.480
 2116SOL     OW 7246   2.824   6.596   6.401
 2116SOL    HW1 7247   2.759   6.542   6.348
 2116SOL    HW2 7248   2.884   6.535   6.453
 2117SOL     OW 7249   6.922   3.207   0.983
 2117SOL    HW1 7250   6.943   3.113   1.010
 2117SOL    HW2 7251   6.882   3.255   1.061
 2118SOL     OW 7252   0.047   3.577   2.892
 2118SOL    HW1 7253   0.070   3.482   2.869
 2118SOL    HW2 7254   6.996   3.606   2.840
 2119SOL     OW 7255   1.925   2.521   6.662
 2119SOL    HW1 7256   2.024   2.526   6.680
 2119SOL    HW2 7257   1.898   2.598   6.604
 2120SOL     OW 7258   5.919   1.250   0.513
 2120SOL    HW1 7259   6.017   1.247   0.533
 2120SOL    HW2 7260   5.899   1.321   0.447
 2121SOL     OW 7261   2.226   6.191   2.258
 2121SOL    HW1 7262   2.179   6.158   2.176
 2121SOL    HW2 7263   2.199   6.286   2.275
 2122SOL     OW 7264   0.263   1.954   5.421
 2122SOL    HW1 7265   0.265   1.865   5.468
 2122SOL    HW2 7266   0.291   1.942   5.326
 2123SOL     OW 7267   0.970   4.275   3.285
 2123SOL    HW1 7268   0.917   4.198   3.321
 2123SOL    HW2 7269   1.039   4.241   3.221
 2124SOL     OW 7270   5.862   3.435   6.454
 2124SOL    HW1 7271   5.764   3.435   6.434
 2124SOL    HW2 7272   5.909   3.373   6.391
 2125SOL     OW 7273   2.410   5.496   5.991
 2125SOL    HW1 7274   2.350   5.475   5.913
 2125SOL    HW2 7275   2.505   5.495   5.960
 2126SOL     OW 7276   2.113   6.090   1.946
 2126SOL    HW1 7277   2.133   6.012   1.887
 2126SOL    HW2 7278   2.158   6.172   1.910
 2127SOL     OW 7279   1.785   3.502   4.108
 2127SOL    HW1 7280   1.787   3.403   4.108
 2127SOL    HW2 7281   1.848   3.537   4.177
 2128SOL     OW 7282   5.443   2.942   0.840
 2128SOL    HW1 7283   5.390   2.868   0.882
 2128SOL    HW2 7284   5.421   3.029   0.885
 2129SOL     OW 7285   5.378   5.172   4.184
 2129SOL    HW1 7286   5.434   5.203   4.106
 2129SOL    HW2 7287   5.425   5.196   4.269
 2130SOL     OW 7288   2.548   0.420   2.760
 2130SOL    HW1 7289   2.577   0.327   2.737
 2130SOL    HW2 7290   2.609   0.486   2.715
 2131SOL     OW 7291   5.906   6.812   6.314
 2131SOL    HW1 7292   5.839   6.882   6.340
 2131SOL    HW2 7293   5.861   6.741   6.260
 2132SOL     OW 7294   3.038   1.880   0.853
 2132SOL    HW1 7295   2.953   1.899   0.804
 2132SOL    HW2 7296   3.025   1.801   0.913
 2133SOL     OW 7297   3.596   3.122   2.142
 2133SOL    HW1 7298   3.633   3.214   2.153
 2133SOL    HW2 7299   3.669   3.059   2.115
 2134SOL     OW 7300   2.548   6.652   4.756
 2134SOL    HW1 7301   2.481   6.584   4.787
 2134SOL    HW2 7302   2.533   6.738   4.803
 2135SOL     OW 7303   0.138   5.661   4.139
 2135SOL    HW1 7304   0.102   5.706   4.058
 2135SOL    HW2 7305   0.236   5.678   4.146
 2136SOL     OW 7306   0.140   4.564   3.408
 2136SOL    HW1 7307   0.129   4.501   3.331
 2136SOL    HW2 7308   0.089   4.648   3.391
 2137SOL     OW 7309   6.873   0.165   4.567
 2137SOL    HW1 7310   6.840   0.248   4.520
 2137SOL    HW2 7311   6.878   0.183   4.665
 2138SOL     OW 7312   0.853   1.963   0.307
 2138SOL    HW1 7313   0.812   2.029   0.244
 2138SOL    HW2 7314   0.906   2.013   0.376
 2139SOL     OW 7315   3.906   6.464   4.501
 2139SOL    HW1 7316   3.937   6.369   4.500
 2139SOL    HW2 7317   3.921   6.505   4.411
 2140SOL     OW 7318   0.990   5.821   3.444
 2140SOL    HW1 7319   0.939   5.884   3.504
 2140SOL    HW2 7320   0.973   5.727   3.472
 2141SOL     OW 7321   0.051   0.448   6.763
 2141SOL    HW1 7322   6.989   0.414   6.741
 2141SOL    HW2 7323   0.073   0.525   6.703
 2142SOL     OW 7324   4.036   1.244   2.994
 2142SOL    HW1 7325   4.039   1.232   3.093
 2142SOL    HW2 7326   4.074   1.163   2.949
 2143SOL     OW 7327   3.516   5.331   6.987
 2143SOL    HW1 7328   3.603   5.281   6.982
 2143SOL    HW2 7329   3.528   5.412   0.016
 2144SOL     OW 7330   1.046   1.540   1.947
 2144SOL    HW1 7331   1.018   1.462   1.890
 2144SOL    HW2 7332   0.977   1.556   2.017
 2145SOL     OW 7333   2.463   6.095   3.411
 2145SOL    HW1 7334   2.534   6.028   3.389
 2145SOL    HW2 7335   2.427   6.134   3.326
 2146SOL     OW 7336   3.128   1.804   1.312
 2146SOL    HW1 7337   3.182   1.760   1.383
 2146SOL    HW2 7338   3.093   1.892   1.346
 2147SOL     OW 7339   6.965   0.641   3.772
 2147SOL    HW1 7340   6.939   0.654   3.867
 2147SOL    HW2 7341   6.961   0.728   3.723
 2148SOL     OW 7342   6.646   4.616   3.921
 2148SOL    HW1 7343   6.620   4.708   3.890
 2148SOL    HW2 7344   6.636   4.611   4.020
 2149SOL     OW 7345   1.966   1.521   2.127
 2149SOL    HW1 7346   1.922   1.434   2.106
 2149SOL    HW2 7347   1.902   1.596   2.106
 2150SOL     OW 7348   5.640   1.031   3.358
 2150SOL    HW1 7349   5.548   1.052   3.389
 2150SOL    HW2 7350   5.674   0.950   3.405
 2151SOL     OW 7351   4.920   4.833   5.407
 2151SOL    HW1 7352   4.911   4.868   5.500
 2151SOL    HW2 7353   4.886   4.740   5.402
 2152SOL     OW 7354   6.847   6.340   2.750
 2152SOL    HW1 7355   6.840   6.304   2.843
 2152SOL    HW2 7356   6.821   6.269   2.685
 2153SOL     OW 7357   4.102   2.258   3.491
 2153SOL    HW1 7358   4.133   2.170   3.527
 2153SOL    HW2 7359   4.173   2.297   3.432
 2154SOL     OW 7360   4.282   0.274   3.420
 2154SOL    HW1 7361   4.325   0.226   3.496
 2154SOL    HW2 7362   4.350   0.329   3.372
 2155SOL     OW 7363   5.802   3.499   0.831
 2155SOL    HW1 7364   5.761   3.532   0.745
 2155SOL    HW2 7365   5.895   3.467   0.813
 2156SOL     OW 7366   6.145   5.310   2.785
 2156SOL    HW1 7367   6.111   5.368   2.858
 2156SOL    HW2 7368   6.124   5.214   2.806
 2157SOL     OW 7369   5.061   1.699   4.456
 2157SOL    HW1 7370   4.972   1.656   4.469
 2157SOL    HW2 7371   5.051   1.781   4.401
 2158SOL     OW 7372   4.766   1.014   3.528
 2158SOL    HW1 7373   4.702   1.073   3.479
 2158SOL    HW2 7374   4.719   0.930   3.556
 2159SOL     OW 7375   2.290   1.928   4.627
 2159SOL    HW1 7376   2.329   1.900   4.714
 2159SOL    HW2 7377   2.271   2.026   4.629
 2160SOL     OW 7378   2.053   4.198   1.114
 2160SOL    HW1 7379   2.035   4.100   1.119
 2160SOL    HW2 7380   2.135   4.220   1.168
 2161SOL     OW 7381   4.385   2.434   2.010
 2161SOL    HW1 7382   4.334   2.392   2.085
 2161SOL    HW2 7383   4.465   2.377   1.989
 2162SOL     OW 7384   1.464   1.242   2.545
 2162SOL    HW1 7385   1.388   1.233   2.609
 2162SOL    HW2 7386   1.545   1.275   2.593
 2163SOL     OW 7387   4.855   1.436   0.798
 2163SOL    HW1 7388   4.865   1.531   0.767
 2163SOL    HW2 7389   4.898   1.426   0.888
 2164SOL     OW 7390   6.331   6.879   2.659
 2164SOL    HW1 7391   6.358   6.908   2.567
 2164SOL    HW2 7392   6.241   6.836   2.655
 2165SOL     OW 7393   2.025   6.953   2.060
 2165SOL    HW1 7394   2.009   7.027   2.126
 2165SOL    HW2 7395   1.968   6.875   2.085
 2166SOL     OW 7396   5.965   2.683   5.335
 2166SOL    HW1 7397   5.966   2.767   5.389
 2166SOL    HW2 7398   5.929   2.608   5.390
 2167SOL     OW 7399   3.412   1.270   1.379
 2167SOL    HW1 7400   3.429   1.264   1.281
 2167SOL    HW2 7401   3.338   1.336   1.396
 2168SOL     OW 7402   5.566   6.249   4.341
 2168SOL    HW1 7403   5.530   6.311   4.410
 2168SOL    HW2 7404   5.665   6.239   4.354
 2169SOL     OW 7405   4.760   2.820   5.461
 2169SOL    HW1 7406   4.670   2.818   5.416
 2169SOL    HW2 7407   4.831   2.796   5.395
 2170SOL     OW 7408   4.682   5.543   4.550
 2170SOL    HW1 7409   4.765   5.566   4.600
 2170SOL    HW2 7410   4.608   5.522   4.614
 2171SOL     OW 7411   0.490   2.985   0.483
 2171SOL    HW1 7412   0.545   3.048   0.428
 2171SOL    HW2 7413   0.429   2.933   0.424
 2172SOL     OW 7414   2.578   1.068   3.300
 2172SOL    HW1 7415   2.607   0.992   3.242
 2172SOL    HW2 7416   2.498   1.039   3.354
 2173SOL     OW 7417   4.367   1.769   4.564
 2173SOL    HW1 7418   4.370   1.691   4.501
 2173SOL    HW2 7419   4.418   1.747   4.647
 2174SOL     OW 7420   1.398   6.027   5.654
 2174SOL    HW1 7421   1.351   5.956   5.706
 2174SOL    HW2 7422   1.340   6.109   5.648
 2175SOL     OW 7423   0.694   0.511   6.982
 2175SOL    HW1 7424   0.735   0.559   6.905
 2175SOL    HW2 7425   0.727   0.551   0.039
 2176SOL     OW 7426   2.268   2.041   2.538
 2176SOL    HW1 7427   2.362   2.051   2.505
 2176SOL    HW2 7428   2.213   1.996   2.468
 2177SOL     OW 7429   1.100   1.795   1.857
 2177SOL    HW1 7430   1.009   1.821   1.823
 2177SOL    HW2 7431   1.097   1.701   1.891
 2178SOL     OW 7432   6.278   5.633   0.519
 2178SOL    HW1 7433   6.287   5.674   0.429
 2178SOL    HW2 7434   6.363   5.643   0.570
 2179SOL     OW 7435   2.106   3.651   3.829
 2179SOL    HW1 7436   2.101   3.750   3.839
 2179SOL    HW2 7437   2.139   3.610   3.914
 2180SOL     OW 7438   2.963   3.387   2.893
 2180SOL    HW1 7439   2.970   3.371   2.991
 2180SOL    HW2 7440   3.053   3.410   2.856
 2181SOL     OW 7441   3.869   6.342   1.334
 2181SOL    HW1 7442   3.882   6.254   1.379
 2181SOL    HW2 7443   3.879   6.330   1.235
 2182SOL     OW 7444   4.562   3.955   0.051
 2182SOL    HW1 7445   4.640   3.894   0.037
 2182SOL    HW2 7446   4.479   3.911   0.020
 2183SOL     OW 7447   4.624   2.285   1.935
 2183SOL    HW1 7448   4.700   2.349   1.928
 2183SOL    HW2 7449   4.630   2.217   1.862
 2184SOL     OW 7450   4.194   2.557   5.839
 2184SOL    HW1 7451   4.143   2.643   5.829
 2184SOL    HW2 7452   4.199   2.531   5.935
 2185SOL     OW 7453   6.824   0.022   2.121
 2185SOL    HW1 7454   6.815   7.005   2.210
 2185SOL    HW2 7455   6.881   0.104   2.131
 2186SOL     OW 7456   6.389   4.843   2.724
 2186SOL    HW1 7457   6.460   4.815   2.788
 2186SOL    HW2 7458   6.408   4.805   2.634
 2187SOL     OW 7459   6.663   0.131   6.708
 2187SOL    HW1 7460   6.634   0.105   6.616
 2187SOL    HW2 7461   6.594   0.100   6.775
 2188SOL     OW 7462   4.448   2.509   3.620
 2188SOL    HW1 7463   4.530   2.528   3.674
 2188SOL    HW2 7464   4.466   2.529   3.524
 2189SOL     OW 7465   3.314   0.001   6.184
 2189SOL    HW1 7466   3.375   7.020   6.263
 2189SOL    HW2 7467   3.266   0.089   6.190
 2190SOL     OW 7468   6.331   3.217   1.232
 2190SOL    HW1 7469   6.401   3.191   1.299
 2190SOL    HW2 7470   6.350   3.310   1.199
 2191SOL     OW 7471   3.182   0.318   0.100
 2191SOL    HW1 7472   3.189   0.317   0.000
 2191SOL    HW2 7473   3.273   0.325   0.140
 2192SOL     OW 7474   4.103   6.400   2.134
 2192SOL    HW1 7475   4.007   6.398   2.164
 2192SOL    HW2 7476   4.154   6.330   2.183
 2193SOL     OW 7477   0.197   6.614   4.068
 2193SOL    HW1 7478   0.160   6.643   4.156
 2193SOL    HW2 7479   0.290   6.578   4.081
 2194SOL     OW 7480   2.317   0.209   2.993
 2194SOL    HW1 7481   2.302   0.165   2.904
 2194SOL    HW2 7482   2.379   0.153   3.048
 2195SOL     OW 7483   0.333   4.599   2.904
 2195SOL    HW1 7484   0.429   4.582   2.928
 2195SOL    HW2 7485   0.293   4.516   2.867
 2196SOL     OW 7486   4.660   3.898   6.587
 2196SOL    HW1 7487   4.657   3.974   6.652
 2196SOL    HW2 7488   4.567   3.879   6.555
 2197SOL     OW 7489   4.938   3.224   0.871
 2197SOL    HW1 7490   4.914   3.276   0.789
 2197SOL    HW2 7491   4.907   3.129   0.861
 2198SOL     OW 7492   0.988   4.748   6.744
 2198SOL    HW1 7493   0.926   4.794   6.681
 2198SOL    HW2 7494   1.029   4.815   6.806
 2199SOL     OW 7495   3.181   2.121   4.044
 2199SOL    HW1 7496   3.214   2.026   4.051
 2199SOL    HW2 7497   3.205   2.158   3.955
 2200SOL     OW 7498   4.533   0.952   4.013
 2200SOL    HW1 7499   4.547   0.878   4.079
 2200SOL    HW2 7500   4.577   1.035   4.047
 2201SOL     OW 7501   5.069   5.438   3.675
 2201SOL    HW1 7502   5.041   5.434   3.771
 2201SOL    HW2 7503   5.167   5.456   3.669
 2202SOL     OW 7504   4.765   6.070   3.927
 2202SOL    HW1 7505   4.833   6.109   3.989
 2202SOL    HW2 7506   4.811   6.024   3.851
 2203SOL     OW 7507   2.094   2.206   3.212
 2203SOL    HW1 7508   1.996   2.187   3.208
 2203SOL    HW2 7509   2.138   2.174   3.128
 2204SOL     OW 7510   4.436   1.936   0.731
 2204SOL    HW1 7511   4.506   1.949   0.801
 2204SOL    HW2 7512   4.345   1.942   0.773
 2205SOL     OW 7513   3.762   6.980   2.096
 2205SOL    HW1 7514   3.756   0.044   2.059
 2205SOL    HW2 7515   3.696   6.970   2.171
 2206SOL     OW 7516   1.626   5.091   0.207
 2206SOL    HW1 7517   1.695   5.024   0.235
 2206SOL    HW2 7518   1.538   5.065   0.246
 2207SOL     OW 7519   6.621   3.898   5.324
 2207SOL    HW1 7520   6.550   3.869   5.388
 2207SOL    HW2 7521   6.687   3.824   5.312
 2208SOL     OW 7522   6.970   5.291   2.124
 2208SOL    HW1 7523   0.008   5.272   2.196
 2208SOL    HW2 7524   6.927   5.380   2.141
 2209SOL     OW 7525   6.946   0.252   2.425
 2209SOL    HW1 7526   6.875   0.323   2.425
 2209SOL    HW2 7527   6.981   0.239   2.332
 2210SOL     OW 7528   2.653   4.644   3.548
 2210SOL    HW1 7529   2.729   4.709   3.555
 2210SOL    HW2 7530   2.682   4.555   3.583
 2211SOL     OW 7531   5.771   0.975   5.428
 2211SOL    HW1 7532   5.702   0.904   5.444
 2211SOL    HW2 7533   5.774   1.037   5.507
 2212SOL     OW 7534   2.358   5.840   6.497
 2212SOL    HW1 7535   2.276   5.814   6.446
 2212SOL    HW2 7536   2.334   5.907   6.568
 2213SOL     OW 7537   4.345   1.102   3.091
 2213SOL    HW1 7538   4.417   1.074   3.154
 2213SOL    HW2 7539   4.385   1.138   3.007
 2214SOL     OW 7540   4.098   6.827   3.671
 2214SOL    HW1 7541   4.138   6.765   3.738
 2214SOL    HW2 7542   4.097   6.783   3.581
 2215SOL     OW 7543   5.900   2.434   6.416
 2215SOL    HW1 7544   5.917   2.349   6.467
 2215SOL    HW2 7545   5.980   2.454   6.359
 2216SOL     OW 7546   3.057   1.062   2.478
 2216SOL    HW1 7547   2.964   1.029   2.492
 2216SOL    HW2 7548   3.115   1.031   2.553
 2217SOL     OW 7549   2.992   6.626   1.071
 2217SOL    HW1 7550   3.047   6.542   1.077
 2217SOL    HW2 7551   2.975   6.648   0.975
 2218SOL     OW 7552   6.081   1.102   2.093
 2218SOL    HW1 7553   6.047   1.185   2.049
 2218SOL    HW2 7554   6.039   1.022   2.051
 2219SOL     OW 7555   1.767   2.453   3.364
 2219SOL    HW1 7556   1.831   2.523   3.332
 2219SOL    HW2 7557   1.801   2.363   3.337
 2220SOL     OW 7558   1.778   6.525   3.531
 2220SOL    HW1 7559   1.801   6.584   3.454
 2220SOL    HW2 7560   1.780   6.430   3.503
 2221SOL     OW 7561   6.932   0.195   4.848
 2221SOL    HW1 7562   6.998   0.233   4.782
 2221SOL    HW2 7563   6.954   0.229   4.940
 2222SOL     OW 7564   5.163   6.328   3.312
 2222SOL    HW1 7565   5.136   6.299   3.403
 2222SOL    HW2 7566   5.263   6.323   3.303
 2223SOL     OW 7567   6.136   6.754   2.025
 2223SOL    HW1 7568   6.099   6.845   2.044
 2223SOL    HW2 7569   6.095   6.688   2.088
 2224SOL     OW 7570   0.394   5.846   1.401
 2224SOL    HW1 7571   0.464   5.820   1.334
 2224SOL    HW2 7572   0.307   5.804   1.377
 2225SOL     OW 7573   0.384   4.649   1.585
 2225SOL    HW1 7574   0.298   4.693   1.612
 2225SOL    HW2 7575   0.426   4.701   1.511
 2226SOL     OW 7576   3.435   3.751   3.410
 2226SOL    HW1 7577   3.416   3.724   3.504
 2226SOL    HW2 7578   3.351   3.782   3.367
 2227SOL     OW 7579   1.844   1.740   5.484
 2227SOL    HW1 7580   1.751   1.706   5.466
 2227SOL    HW2 7581   1.839   1.828   5.530
 2228SOL     OW 7582   1.296   4.225   4.093
 2228SOL    HW1 7583   1.273   4.179   4.178
 2228SOL    HW2 7584   1.298   4.159   4.018
 2229SOL     OW 7585   5.274   5.599   2.445
 2229SOL    HW1 7586   5.225   5.684   2.425
 2229SOL    HW2 7587   5.336   5.578   2.370
 2230SOL     OW 7588   1.936   5.345   2.890
 2230SOL    HW1 7589   1.917   5.400   2.972
 2230SOL    HW2 7590   1.907   5.395   2.809
 2231SOL     OW 7591   2.119   6.344   0.575
 2231SOL    HW1 7592   2.184   6.282   0.619
 2231SOL    HW2 7593   2.165   6.431   0.556
 2232SOL     OW 7594   6.354   2.856   3.468
 2232SOL    HW1 7595   6.421   2.903   3.410
 2232SOL    HW2 7596   6.270   2.842   3.417
 2233SOL     OW 7597   3.923   1.722   0.568
 2233SOL    HW1 7598   3.987   1.653   0.537
 2233SOL    HW2 7599   3.844   1.678   0.611
 2234SOL     OW 7600   4.470   2.820   1.473
 2234SOL    HW1 7601   4.386   2.820   1.528
 2234SOL    HW2 7602   4.544   2.777   1.525
 2235SOL     OW 7603   1.884   3.527   1.878
 2235SOL    HW1 7604   1.798   3.498   1.834
 2235SOL    HW2 7605   1.937   3.583   1.814
 2236SOL     OW 7606   1.588   3.707   5.022
 2236SOL    HW1 7607   1.552   3.726   5.114
 2236SOL    HW2 7608   1.512   3.690   4.960
 2237SOL     OW 7609   5.836   2.413   3.061
 2237SOL    HW1 7610   5.883   2.330   3.091
 2237SOL    HW2 7611   5.739   2.406   3.081
 2238SOL     OW 7612   4.896   6.002   6.659
 2238SOL    HW1 7613   4.840   6.075   6.698
 2238SOL    HW2 7614   4.855   5.970   6.573
 2239SOL     OW 7615   6.576   5.779   1.154
 2239SOL    HW1 7616   6.598   5.730   1.239
 2239SOL    HW2 7617   6.483   5.755   1.125
 2240SOL     OW 7618   0.408   4.004   1.651
 2240SOL    HW1 7619   0.424   3.917   1.698
 2240SOL    HW2 7620   0.375   4.072   1.716
 2241SOL     OW 7621   0.289   0.379   3.620
 2241SOL    HW1 7622   0.316   0.408   3.529
 2241SOL    HW2 7623   0.342   0.298   3.646
 2242SOL     OW 7624   2.248   1.453   3.099
 2242SOL    HW1 7625   2.162   1.491   3.065
 2242SOL    HW2 7626   2.231   1.364   3.141
 2243SOL     OW 7627   1.260   0.691   4.209
 2243SOL    HW1 7628   1.228   0.667   4.301
 2243SOL    HW2 7629   1.228   0.623   4.144
 2244SOL     OW 7630   3.226   0.773   3.996
 2244SOL    HW1 7631   3.196   0.678   3.991
 2244SOL    HW2 7632   3.147   0.832   4.015
 2245SOL     OW 7633   0.126   1.405   1.200
 2245SOL    HW1 7634   0.027   1.419   1.196
 2245SOL    HW2 7635   0.146   1.314   1.237
 2246SOL     OW 7636   0.778   4.677   4.700
 2246SOL    HW1 7637   0.705   4.628   4.749
 2246SOL    HW2 7638   0.850   4.613   4.675
 2247SOL     OW 7639   2.099   2.047   3.783
 2247SOL    HW1 7640   2.151   2.074   3.864
 2247SOL    HW2 7641   2.028   2.114   3.765
 2248SOL     OW 7642   5.272   4.242   5.883
 2248SOL    HW1 7643   5.189   4.188   5.896
 2248SOL    HW2 7644   5.250   4.328   5.838
 2249SOL     OW 7645   5.516   6.278   5.296
 2249SOL    HW1 7646   5.493   6.243   5.205
 2249SOL    HW2 7647   5.615   6.282   5.306
 2250SOL     OW 7648   4.686   4.924   2.632
 2250SOL    HW1 7649   4.782   4.946   2.650
 2250SOL    HW2 7650   4.639   5.006   2.599
 2251SOL     OW 7651   0.685   1.782   5.630
 2251SOL    HW1 7652   0.690   1.853   5.560
 2251SOL    HW2 7653   0.602   1.728   5.616
 2252SOL     OW 7654   4.546   0.961   5.831
 2252SOL    HW1 7655   4.453   0.997   5.843
 2252SOL    HW2 7656   4.542   0.871   5.787
 2253SOL     OW 7657   0.323   3.987   1.247
 2253SOL    HW1 7658   0.363   3.897   1.229
 2253SOL    HW2 7659   0.240   3.976   1.302
 2254SOL     OW 7660   1.706   5.777   5.603
 2254SOL    HW1 7661   1.770   5.712   5.561
 2254SOL    HW2 7662   1.620   5.730   5.624
 2255SOL     OW 7663   0.025   4.310   6.663
 2255SOL    HW1 7664   0.079   4.302   6.579
 2255SOL    HW2 7665   0.034   4.226   6.716
 2256SOL     OW 7666   2.689   5.971   2.416
 2256SOL    HW1 7667   2.697   5.891   2.475
 2256SOL    HW2 7668   2.597   5.976   2.378
 2257SOL     OW 7669   0.604   4.929   6.415
 2257SOL    HW1 7670   0.576   5.004   6.474
 2257SOL    HW2 7671   0.698   4.944   6.385
 2258SOL     OW 7672   2.098   6.683   6.056
 2258SOL    HW1 7673   2.035   6.694   6.132
 2258SOL    HW2 7674   2.144   6.595   6.063
 2259SOL     OW 7675   5.916   1.874   6.494
 2259SOL    HW1 7676   5.820   1.893   6.477
 2259SOL    HW2 7677   5.972   1.913   6.420
 2260SOL     OW 7678   4.820   2.991   1.639
 2260SOL    HW1 7679   4.800   3.021   1.546
 2260SOL    HW2 7680   4.735   2.983   1.691
 2261SOL     OW 7681   2.045   6.306   5.550
 2261SOL    HW1 7682   1.980   6.277   5.481
 2261SOL    HW2 7683   2.101   6.228   5.578
 2262SOL     OW 7684   2.468   1.854   4.815
 2262SOL    HW1 7685   2.533   1.926   4.839
 2262SOL    HW2 7686   2.517   1.775   4.777
 2263SOL     OW 7687   0.620   4.665   6.323
 2263SOL    HW1 7688   0.707   4.635   6.361
 2263SOL    HW2 7689   0.603   4.760   6.350
 2264SOL     OW 7690   3.218   3.015   4.256
 2264SOL    HW1 7691   3.283   2.945   4.283
 2264SOL    HW2 7692   3.195   3.072   4.335
 2265SOL     OW 7693   0.069   6.358   4.053
 2265SOL    HW1 7694   0.119   6.289   4.000
 2265SOL    HW2 7695   0.125   6.440   4.060
 2266SOL     OW 7696   7.024   0.017   5.127
 2266SOL    HW1 7697   6.942   7.025   5.180
 2266SOL    HW2 7698   0.012   0.115   5.129
 2267SOL     OW 7699   6.324   1.795   4.817
 2267SOL    HW1 7700   6.249   1.753   4.765
 2267SOL    HW2 7701   6.355   1.731   4.887
 2268SOL     OW 7702   0.943   0.108   0.476
 2268SOL    HW1 7703   0.878   0.044   0.435
 2268SOL    HW2 7704   1.024   0.116   0.418
 2269SOL     OW 7705   6.784   6.128   2.586
 2269SOL    HW1 7706   6.796   6.036   2.550
 2269SOL    HW2 7707   6.700   6.168   2.549
 2270SOL     OW 7708   3.085   3.342   3.131
 2270SOL    HW1 7709   3.049   3.311   3.219
 2270SOL    HW2 7710   3.172   3.389   3.145
 2271SOL     OW 7711   1.353   3.739   2.575
 2271SOL    HW1 7712   1.258   3.735   2.606
 2271SOL    HW2 7713   1.369   3.827   2.529
 2272SOL     OW 7714   4.468   0.597   6.081
 2272SOL    HW1 7715   4.558   0.636   6.101
 2272SOL    HW2 7716   4.402   0.670   6.063
 2273SOL     OW 7717   6.701   1.328   1.757
 2273SOL    HW1 7718   6.789   1.333   1.804
 2273SOL    HW2 7719   6.714   1.284   1.667
 2274SOL     OW 7720   6.321   4.659   3.331
 2274SOL    HW1 7721   6.251   4.702   3.273
 2274SOL    HW2 7722   6.276   4.612   3.407
 2275SOL     OW 7723   4.214   6.590   3.811
 2275SOL    HW1 7724   4.203   6.512   3.750
 2275SOL    HW2 7725   4.185   6.564   3.904
 2276SOL     OW 7726   3.842   5.971   3.886
 2276SOL    HW1 7727   3.764   5.913   3.863
 2276SOL    HW2 7728   3.926   5.929   3.853
 2277SOL     OW 7729   3.339   3.020   2.617
 2277SOL    HW1 7730   3.317   3.100   2.674
 2277SOL    HW2 7731   3.328   3.045   2.520
 2278SOL     OW 7732   4.211   5.109   2.076
 2278SOL    HW1 7733   4.124   5.064   2.098
 2278SOL    HW2 7734   4.201   5.161   1.992
 2279SOL     OW 7735   6.247   4.561   5.657
 2279SOL    HW1 7736   6.212   4.654   5.646
 2279SOL    HW2 7737   6.333   4.551   5.607
 2280SOL     OW 7738   5.962   0.791   5.690
 2280SOL    HW1 7739   5.994   0.779   5.596
 2280SOL    HW2 7740   5.915   0.709   5.721
 2281SOL     OW 7741   2.051   0.315   0.320
 2281SOL    HW1 7742   2.011   0.303   0.229
 2281SOL    HW2 7743   2.098   0.404   0.324
 2282SOL     OW 7744   3.286   0.189   2.481
 2282SOL    HW1 7745   3.357   0.201   2.412
 2282SOL    HW2 7746   3.321   0.132   2.555
 2283SOL     OW 7747   1.140   2.988   1.115
 2283SOL    HW1 7748   1.156   2.984   1.213
 2283SOL    HW2 7749   1.170   3.076   1.079
 2284SOL     OW 7750   1.639   2.873   1.099
 2284SOL    HW1 7751   1.696   2.856   1.018
 2284SOL    HW2 7752   1.544   2.885   1.070
 2285SOL     OW 7753   2.653   2.852   0.420
 2285SOL    HW1 7754   2.711   2.829   0.498
 2285SOL    HW2 7755   2.709   2.889   0.346
 2286SOL     OW 7756   6.318   5.407   4.125
 2286SOL    HW1 7757   6.347   5.490   4.078
 2286SOL    HW2 7758   6.246   5.429   4.190
 2287SOL     OW 7759   2.795   2.069   1.087
 2287SOL    HW1 7760   2.782   1.970   1.075
 2287SOL    HW2 7761   2.865   2.101   1.023
 2288SOL     OW 7762   3.263   5.572   4.536
 2288SOL    HW1 7763   3.308   5.640   4.478
 2288SOL    HW2 7764   3.188   5.617   4.586
 2289SOL     OW 7765   4.063   6.978   5.271
 2289SOL    HW1 7766   3.997   6.954   5.342
 2289SOL    HW2 7767   4.030   0.030   5.221
 2290SOL     OW 7768   2.089   3.835   6.568
 2290SOL    HW1 7769   2.152   3.911   6.580
 2290SOL    HW2 7770   2.117   3.759   6.626
 2291SOL     OW 7771   3.760   1.906   0.383
 2291SOL    HW1 7772   3.760   1.842   0.459
 2291SOL    HW2 7773   3.806   1.990   0.409
 2292SOL     OW 7774   5.082   2.103   2.740
 2292SOL    HW1 7775   5.077   2.195   2.778
 2292SOL    HW2 7776   5.046   2.103   2.647
 2293SOL     OW 7777   6.800   0.841   6.575
 2293SOL    HW1 7778   6.859   0.838   6.656
 2293SOL    HW2 7779   6.848   0.803   6.496
 2294SOL     OW 7780   0.089   2.812   5.306
 2294SOL    HW1 7781   0.071   2.732   5.363
 2294SOL    HW2 7782   0.188   2.823   5.294
 2295SOL     OW 7783   5.938   5.724   0.570
 2295SOL    HW1 7784   5.842   5.752   0.568
 2295SOL    HW2 7785   5.945   5.629   0.541
 2296SOL     OW 7786   4.036   5.892   4.784
 2296SOL    HW1 7787   4.063   5.988   4.796
 2296SOL    HW2 7788   4.103   5.845   4.727
 2297SOL     OW 7789   6.295   2.501   0.243
 2297SOL    HW1 7790   6.322   2.536   0.332
 2297SOL    HW2 7791   6.360   2.533   0.174
 2298SOL     OW 7792   2.122   3.994   4.815
 2298SOL    HW1 7793   2.197   4.018   4.877
 2298SOL    HW2 7794   2.105   3.895   4.820
 2299SOL     OW 7795   6.144   3.794   4.605
 2299SOL    HW1 7796   6.217   3.861   4.587
 2299SOL    HW2 7797   6.176   3.728   4.673
 2300SOL     OW 7798   3.895   0.893   2.659
 2300SOL    HW1 7799   3.843   0.864   2.739
 2300SOL    HW2 7800   3.834   0.939   2.595
 2301SOL     OW 7801   4.456   3.302   5.891
 2301SOL    HW1 7802   4.489   3.225   5.945
 2301SOL    HW2 7803   4.438   3.380   5.951
 2302SOL     OW 7804   0.339   3.938   4.728
 2302SOL    HW1 7805   0.346   3.856   4.785
 2302SOL    HW2 7806   0.418   3.944   4.667
 2303SOL     OW 7807   2.191   2.575   6.659
 2303SOL    HW1 7808   2.214   2.672   6.662
 2303SOL    HW2 7809   2.267   2.521   6.694
 2304SOL     OW 7810   3.629   0.250   3.441
 2304SOL    HW1 7811   3.574   0.168   3.426
 2304SOL    HW2 7812   3.570   0.331   3.441
 2305SOL     OW 7813   3.262   5.947   4.731
 2305SOL    HW1 7814   3.303   5.908   4.813
 2305SOL    HW2 7815   3.192   5.884   4.696
 2306SOL     OW 7816   0.933   4.701   5.605
 2306SOL    HW1 7817   0.862   4.749   5.657
 2306SOL    HW2 7818   0.892   4.657   5.525
 2307SOL     OW 7819   6.226   4.031   5.597
 2307SOL    HW1 7820   6.215   4.129   5.578
 2307SOL    HW2 7821   6.166   4.005   5.673
 2308SOL     OW 7822   0.688   6.054   2.722
 2308SOL    HW1 7823   0.643   6.027   2.637
 2308SOL    HW2 7824   0.785   6.070   2.705
 2309SOL     OW 7825   1.586   1.089   4.607
 2309SOL    HW1 7826   1.645   1.125   4.679
 2309SOL    HW2 7827   1.562   1.163   4.543
 2310SOL     OW 7828   5.104   5.830   0.778
 2310SOL    HW1 7829   5.131   5.868   0.866
 2310SOL    HW2 7830   5.046   5.896   0.730
 2311SOL     OW 7831   2.882   5.802   0.316
 2311SOL    HW1 7832   2.864   5.744   0.395
 2311SOL    HW2 7833   2.857   5.753   0.232
 2312SOL     OW 7834   2.946   5.074   1.468
 2312SOL    HW1 7835   2.879   5.147   1.486
 2312SOL    HW2 7836   2.902   4.985   1.477
 2313SOL     OW 7837   4.883   4.868   1.352
 2313SOL    HW1 7838   4.929   4.820   1.277
 2313SOL    HW2 7839   4.854   4.801   1.421
 2314SOL     OW 7840   2.065   4.602   2.511
 2314SOL    HW1 7841   2.125   4.538   2.464
 2314SOL    HW2 7842   2.085   4.601   2.609
 2315SOL     OW 7843   3.620   2.202   6.641
 2315SOL    HW1 7844   3.619   2.264   6.719
 2315SOL    HW2 7845   3.606   2.254   6.557
 2316SOL     OW 7846   5.902   4.047   1.670
 2316SOL    HW1 7847   5.951   3.962   1.649
 2316SOL    HW2 7848   5.914   4.070   1.766
 2317SOL     OW 7849   0.373   0.112   3.665
 2317SOL    HW1 7850   0.439   0.114   3.590
 2317SOL    HW2 7851   0.394   0.035   3.725
 2318SOL     OW 7852   6.325   1.763   3.500
 2318SOL    HW1 7853   6.343   1.859   3.524
 2318SOL    HW2 7854   6.403   1.727   3.448
 2319SOL     OW 7855   0.864   6.070   3.511
 2319SOL    HW1 7856   0.924   6.135   3.557
 2319SOL    HW2 7857   0.772   6.076   3.551
 2320SOL     OW 7858   6.825   4.748   3.638
 2320SOL    HW1 7859   6.853   4.751   3.542
 2320SOL    HW2 7860   6.858   4.663   3.680
 2321SOL     OW 7861   2.884   4.774   3.725
 2321SOL    HW1 7862   2.913   4.812   3.638
 2321SOL    HW2 7863   2.958   4.784   3.792
 2322SOL     OW 7864   1.888   1.764   5.221
 2322SOL    HW1 7865   1.858   1.858   5.210
 2322SOL    HW2 7866   1.861   1.730   5.312
 2323SOL     OW 7867   5.835   3.534   1.529
 2323SOL    HW1 7868   5.934   3.537   1.542
 2323SOL    HW2 7869   5.813   3.467   1.459
 2324SOL     OW 7870   0.132   5.304   4.195
 2324SOL    HW1 7871   0.079   5.317   4.112
 2324SOL    HW2 7872   0.092   5.358   4.269
 2325SOL     OW 7873   6.573   1.518   0.377
 2325SOL    HW1 7874   6.627   1.465   0.441
 2325SOL    HW2 7875   6.608   1.612   0.372
 2326SOL     OW 7876   0.775   5.368   0.351
 2326SOL    HW1 7877   0.766   5.349   0.449
 2326SOL    HW2 7878   0.780   5.281   0.302
 2327SOL     OW 7879   5.045   1.057   2.836
 2327SOL    HW1 7880   4.962   1.078   2.784
 2327SOL    HW2 7881   5.057   0.958   2.841
 2328SOL     OW 7882   6.405   5.733   3.726
 2328SOL    HW1 7883   6.363   5.812   3.682
 2328SOL    HW2 7884   6.493   5.712   3.683
 2329SOL     OW 7885   1.421   6.653   3.366
 2329SOL    HW1 7886   1.360   6.703   3.304
 2329SOL    HW2 7887   1.434   6.560   3.333
 2330SOL     OW 7888   1.674   3.880   6.795
 2330SOL    HW1 7889   1.725   3.958   6.830
 2330SOL    HW2 7890   1.641   3.824   6.872
 2331SOL     OW 7891   1.602   4.285   5.127
 2331SOL    HW1 7892   1.594   4.216   5.054
 2331SOL    HW2 7893   1.679   4.261   5.186
 2332SOL     OW 7894   6.291   3.784   6.720
 2332SOL    HW1 7895   6.204   3.814   6.756
 2332SOL    HW2 7896   6.356   3.860   6.720
 2333SOL     OW 7897   2.271   4.908   4.005
 2333SOL    HW1 7898   2.216   4.990   4.021
 2333SOL    HW2 7899   2.347   4.906   4.070
 2334SOL     OW 7900   1.866   0.205   6.141
 2334SOL    HW1 7901   1.851   0.179   6.236
 2334SOL    HW2 7902   1.783   0.247   6.104
 2335SOL     OW 7903   5.303   4.383   4.835
 2335SOL    HW1 7904   5.303   4.477   4.868
 2335SOL    HW2 7905   5.224   4.369   4.774
 2336SOL     OW 7906   4.779   1.327   5.610
 2336SOL    HW1 7907   4.814   1.408   5.562
 2336SOL    HW2 7908   4.714   1.280   5.551
 2337SOL     OW 7909   6.166   0.499   5.004
 2337SOL    HW1 7910   6.223   0.544   5.073
 2337SOL    HW2 7911   6.072   0.530   5.012
 2338SOL     OW 7912   1.481   6.604   0.095
 2338SOL    HW1 7913   1.565   6.651   0.120
 2338SOL    HW2 7914   1.482   6.511   0.131
 2339SOL     OW 7915   3.017   4.335   5.806
 2339SOL    HW1 7916   3.027   4.425   5.848
 2339SOL    HW2 7917   3.101   4.312   5.756
 2340SOL     OW 7918   4.231   5.167   3.967
 2340SOL    HW1 7919   4.312   5.223   3.951
 2340SOL    HW2 7920   4.256   5.085   4.017
 2341SOL     OW 7921   0.810   3.792   6.054
 2341SOL    HW1 7922   0.863   3.816   5.973
 2341SOL    HW2 7923   0.727   3.744   6.025
 2342SOL     OW 7924   4.736   1.293   5.025
 2342SOL    HW1 7925   4.698   1.378   5.063
 2342SOL    HW2 7926   4.771   1.311   4.933
 2343SOL     OW 7927   0.690   5.998   1.729
 2343SOL    HW1 7928   0.599   5.961   1.709
 2343SOL    HW2 7929   0.749   5.986   1.649
 2344SOL     OW 7930   1.743   0.507   3.143
 2344SOL    HW1 7931   1.772   0.494   3.049
 2344SOL    HW2 7932   1.818   0.486   3.205
 2345SOL     OW 7933   1.166   2.583   1.946
 2345SOL    HW1 7934   1.162   2.502   1.888
 2345SOL    HW2 7935   1.105   2.571   2.024
 2346SOL     OW 7936   5.736   2.874   4.863
 2346SOL    HW1 7937   5.687   2.798   4.906
 2346SOL    HW2 7938   5.828   2.845   4.838
 2347SOL     OW 7939   1.686   4.297   1.296
 2347SOL    HW1 7940   1.709   4.351   1.215
 2347SOL    HW2 7941   1.588   4.307   1.315
 2348SOL     OW 7942   2.881   6.949   1.657
 2348SOL    HW1 7943   2.951   6.883   1.631
 2348SOL    HW2 7944   2.791   6.906   1.655
 2349SOL     OW 7945   5.661   2.431   0.113
 2349SOL    HW1 7946   5.705   2.441   0.203
 2349SOL    HW2 7947   5.593   2.503   0.101
 2350SOL     OW 7948   2.554   5.539   5.356
 2350SOL    HW1 7949   2.504   5.569   5.275
 2350SOL    HW2 7950   2.634   5.597   5.370
 2351SOL     OW 7951   1.480   5.988   3.308
 2351SOL    HW1 7952   1.538   5.973   3.228
 2351SOL    HW2 7953   1.435   6.077   3.301
 2352SOL     OW 7954   5.898   5.969   6.080
 2352SOL    HW1 7955   5.923   6.046   6.022
 2352SOL    HW2 7956   5.809   5.986   6.123
 2353SOL     OW 7957   3.030   2.963   6.567
 2353SOL    HW1 7958   3.008   2.940   6.662
 2353SOL    HW2 7959   3.002   3.057   6.548
 2354SOL     OW 7960   3.218   1.571   2.411
 2354SOL    HW1 7961   3.229   1.490   2.353
 2354SOL    HW2 7962   3.168   1.641   2.360
 2355SOL     OW 7963   6.405   1.116   2.038
 2355SOL    HW1 7964   6.329   1.053   2.055
 2355SOL    HW2 7965   6.414   1.179   2.116
 2356SOL     OW 7966   4.056   5.136   3.784
 2356SOL    HW1 7967   4.026   5.219   3.737
 2356SOL    HW2 7968   4.117   5.161   3.860
 2357SOL     OW 7969   0.204   5.564   0.881
 2357SOL    HW1 7970   0.132   5.601   0.822
 2357SOL    HW2 7971   0.260   5.500   0.828
 2358SOL     OW 7972   2.191   0.974   4.810
 2358SOL    HW1 7973   2.162   1.062   4.770
 2358SOL    HW2 7974   2.111   0.924   4.841
 2359SOL     OW 7975   3.606   2.575   5.414
 2359SOL    HW1 7976   3.586   2.632   5.335
 2359SOL    HW2 7977   3.639   2.485   5.383
 2360SOL     OW 7978   3.652   4.996   1.877
 2360SOL    HW1 7979   3.604   5.023   1.961
 2360SOL    HW2 7980   3.659   4.896   1.874
 2361SOL     OW 7981   3.775   4.763   1.011
 2361SOL    HW1 7982   3.772   4.793   1.106
 2361SOL    HW2 7983   3.731   4.832   0.953
 2362SOL     OW 7984   3.417   4.996   4.383
 2362SOL    HW1 7985   3.505   5.008   4.429
 2362SOL    HW2 7986   3.343   5.006   4.450
 2363SOL     OW 7987   2.502   3.945   1.617
 2363SOL    HW1 7988   2.472   3.850   1.612
 2363SOL    HW2 7989   2.440   3.996   1.677
 2364SOL     OW 7990   4.562   1.007   2.690
 2364SOL    HW1 7991   4.487   1.066   2.719
 2364SOL    HW2 7992   4.542   0.969   2.600
 2365SOL     OW 7993   5.753   3.901   2.823
 2365SOL    HW1 7994   5.671   3.957   2.812
 2365SOL    HW2 7995   5.762   3.874   2.919
 2366SOL     OW 7996   4.458   5.095   4.764
 2366SOL    HW1 7997   4.361   5.084   4.741
 2366SOL    HW2 7998   4.479   5.192   4.777
 2367SOL     OW 7999   5.799   4.585   5.593
 2367SOL    HW1 8000   5.724   4.562   5.531
 2367SOL    HW2 8001   5.785   4.538   5.680
 2368SOL     OW 8002   5.392   1.692   4.965
 2368SOL    HW1 8003   5.368   1.595   4.958
 2368SOL    HW2 8004   5.389   1.720   5.061
 2369SOL     OW 8005   4.328   2.026   3.997
 2369SOL    HW1 8006   4.277   1.949   3.960
 2369SOL    HW2 8007   4.416   1.995   4.032
 2370SOL     OW 8008   4.140   1.885   0.473
 2370SOL    HW1 8009   4.043   1.875   0.494
 2370SOL    HW2 8010   4.188   1.799   0.493
 2371SOL     OW 8011   2.166   6.649   3.459
 2371SOL    HW1 8012   2.204   6.678   3.546
 2371SOL    HW2 8013   2.071   6.681   3.452
 2372SOL     OW 8014   5.677   6.485   7.009
 2372SOL    HW1 8015   5.682   6.388   0.003
 2372SOL    HW2 8016   5.583   6.509   6.986
 2373SOL     OW 8017   6.443   4.482   6.317
 2373SOL    HW1 8018   6.444   4.465   6.416
 2373SOL    HW2 8019   6.532   4.455   6.278
 2374SOL     OW 8020   0.716   5.521   2.945
 2374SOL    HW1 8021   0.636   5.575   2.970
 2374SOL    HW2 8022   0.780   5.518   3.022
 2375SOL     OW 8023   2.255   0.605   4.374
 2375SOL    HW1 8024   2.221   0.512   4.359
 2375SOL    HW2 8025   2.244   0.629   4.471
 2376SOL     OW 8026   5.973   3.031   4.454
 2376SOL    HW1 8027   5.929   2.944   4.477
 2376SOL    HW2 8028   5.916   3.081   4.389
 2377SOL     OW 8029   3.579   5.025   5.826
 2377SOL    HW1 8030   3.518   4.949   5.850
 2377SOL    HW2 8031   3.570   5.098   5.893
 2378SOL     OW 8032   0.783   7.007   1.003
 2378SOL    HW1 8033   0.783   6.924   1.059
 2378SOL    HW2 8034   0.858   7.002   0.937
 2379SOL     OW 8035   0.764   4.369   3.494
 2379SOL    HW1 8036   0.821   4.307   3.549
 2379SOL    HW2 8037   0.674   4.329   3.481
 2380SOL     OW 8038   4.498   5.583   6.194
 2380SOL    HW1 8039   4.429   5.560   6.124
 2380SOL    HW2 8040   4.558   5.654   6.159
 2381SOL     OW 8041   2.349   5.024   3.694
 2381SOL    HW1 8042   2.359   4.946   3.632
 2381SOL    HW2 8043   2.332   4.990   3.786
 2382SOL     OW 8044   6.458   5.968   2.246
 2382SOL    HW1 8045   6.530   6.027   2.211
 2382SOL    HW2 8046   6.458   5.971   2.346
 2383SOL     OW 8047   4.106   3.594   6.100
 2383SOL    HW1 8048   4.138   3.677   6.055
 2383SOL    HW2 8049   4.067   3.532   6.033
 2384SOL     OW 8050   1.074   2.260   3.255
 2384SOL    HW1 8051   0.978   2.278   3.272
 2384SOL    HW2 8052   1.100   2.297   3.166
 2385SOL     OW 8053   0.724   0.578   0.989
 2385SOL    HW1 8054   0.753   0.484   1.007
 2385SOL    HW2 8055   0.629   0.579   0.960
 2386SOL     OW 8056   7.007   4.842   6.817
 2386SOL    HW1 8057   0.055   4.884   6.866
 2386SOL    HW2 8058   0.007   4.754   6.779
 2387SOL     OW 8059   6.096   0.422   3.048
 2387SOL    HW1 8060   6.161   0.415   3.123
 2387SOL    HW2 8061   6.131   0.484   2.978
 2388SOL     OW 8062   1.929   5.185   3.858
 2388SOL    HW1 8063   1.968   5.146   3.941
 2388SOL    HW2 8064   1.962   5.279   3.846
 2389SOL     OW 8065   3.393   6.388   3.016
 2389SOL    HW1 8066   3.338   6.418   2.937
 2389SOL    HW2 8067   3.395   6.461   3.084
 2390SOL     OW 8068   4.976   3.649   4.710
 2390SOL    HW1 8069   5.030   3.641   4.626
 2390SOL    HW2 8070   4.921   3.733   4.706
 2391SOL     OW 8071   2.686   4.156   6.830
 2391SOL    HW1 8072   2.748   4.201   6.765
 2391SOL    HW2 8073   2.663   4.065   6.795
 2392SOL     OW 8074   3.995   4.958   5.382
 2392SOL    HW1 8075   3.917   4.956   5.319
 2392SOL    HW2 8076   4.023   5.052   5.398
 2393SOL     OW 8077   5.049   5.049   0.667
 2393SOL    HW1 8078   4.988   5.061   0.590
 2393SOL    HW2 8079   5.043   5.130   0.727
 2394SOL     OW 8080   6.891   2.464   2.759
 2394SOL    HW1 8081   6.849   2.374   2.764
 2394SOL    HW2 8082   6.856   2.513   2.679
 2395SOL     OW 8083   0.736   3.107   3.128
 2395SOL    HW1 8084   0.794   3.188   3.140
 2395SOL    HW2 8085   0.768   3.053   3.050
 2396SOL     OW 8086   0.538   6.999   5.171
 2396SOL    HW1 8087   0.602   7.007   5.247
 2396SOL    HW2 8088   0.533   6.903   5.142
 2397SOL     OW 8089   2.848   4.740   5.584
 2397SOL    HW1 8090   2.799   4.654   5.571
 2397SOL    HW2 8091   2.787   4.817   5.567
 2398SOL     OW 8092   3.993   6.188   4.937
 2398SOL    HW1 8093   3.921   6.193   4.869
 2398SOL    HW2 8094   3.961   6.229   5.023
 2399SOL     OW 8095   2.957   1.265   1.959
 2399SOL    HW1 8096   2.901   1.324   2.016
 2399SOL    HW2 8097   2.909   1.179   1.941
 2400SOL     OW 8098   1.047   1.923   6.154
 2400SOL    HW1 8099   0.959   1.875   6.155
 2400SOL    HW2 8100   1.078   1.934   6.060
 2401SOL     OW 8101   1.373   6.677   0.691
 2401SOL    HW1 8102   1.452   6.645   0.639
 2401SOL    HW2 8103   1.293   6.622   0.667
 2402SOL     OW 8104   0.832   2.894   1.575
 2402SOL    HW1 8105   0.767   2.917   1.647
 2402SOL    HW2 8106   0.903   2.964   1.570
 2403SOL     OW 8107   3.258   4.299   5.285
 2403SOL    HW1 8108   3.356   4.295   5.269
 2403SOL    HW2 8109   3.236   4.382   5.336
 2404SOL     OW 8110   6.399   2.219   1.441
 2404SOL    HW1 8111   6.471   2.195   1.376
 2404SOL    HW2 8112   6.312   2.229   1.392
 2405SOL     OW 8113   2.780   3.536   0.651
 2405SOL    HW1 8114   2.780   3.442   0.685
 2405SOL    HW2 8115   2.734   3.540   0.562
 2406SOL     OW 8116   4.800   5.872   5.655
 2406SOL    HW1 8117   4.740   5.814   5.710
 2406SOL    HW2 8118   4.881   5.897   5.708
 2407SOL     OW 8119   2.207   1.948   3.569
 2407SOL    HW1 8120   2.186   1.851   3.555
 2407SOL    HW2 8121   2.156   1.982   3.648
 2408SOL     OW 8122   4.559   6.540   5.597
 2408SOL    HW1 8123   4.527   6.617   5.651
 2408SOL    HW2 8124   4.568   6.568   5.501
 2409SOL     OW 8125   1.802   2.465   6.916
 2409SOL    HW1 8126   1.711   2.505   6.917
 2409SOL    HW2 8127   1.859   2.511   6.848
 2410SOL     OW 8128   0.038   3.459   4.798
 2410SOL    HW1 8129   0.095   3.463   4.716
 2410SOL    HW2 8130   6.972   3.485   4.774
 2411SOL     OW 8131   3.111   0.876   0.966
 2411SOL    HW1 8132   3.111   0.887   1.065
 2411SOL    HW2 8133   3.131   0.780   0.944
 2412SOL     OW 8134   3.435   2.714   0.510
 2412SOL    HW1 8135   3.412   2.689   0.416
 2412SOL    HW2 8136   3.493   2.642   0.550
 2413SOL     OW 8137   0.519   3.855   6.674
 2413SOL    HW1 8138   0.542   3.884   6.581
 2413SOL    HW2 8139   0.423   3.876   6.692
 2414SOL     OW 8140   6.039   1.863   5.279
 2414SOL    HW1 8141   6.017   1.863   5.377
 2414SOL    HW2 8142   6.133   1.830   5.266
 2415SOL     OW 8143   3.288   4.052   5.543
 2415SOL    HW1 8144   3.375   4.042   5.495
 2415SOL    HW2 8145   3.297   4.018   5.637
 2416SOL     OW 8146   6.512   3.328   3.488
 2416SOL    HW1 8147   6.591   3.267   3.487
 2416SOL    HW2 8148   6.430   3.276   3.510
 2417SOL     OW 8149   3.041   2.713   1.738
 2417SOL    HW1 8150   3.076   2.699   1.645
 2417SOL    HW2 8151   3.012   2.626   1.777
 2418SOL     OW 8152   6.324   3.545   6.312
 2418SOL    HW1 8153   6.289   3.453   6.299
 2418SOL    HW2 8154   6.248   3.608   6.326
 2419SOL     OW 8155   2.853   1.529   2.771
 2419SOL    HW1 8156   2.793   1.604   2.796
 2419SOL    HW2 8157   2.928   1.564   2.715
 2420SOL     OW 8158   0.597   2.833   1.443
 2420SOL    HW1 8159   0.680   2.852   1.495
 2420SOL    HW2 8160   0.607   2.868   1.350
 2421SOL     OW 8161   2.623   0.747   3.330
 2421SOL    HW1 8162   2.623   0.733   3.231
 2421SOL    HW2 8163   2.624   0.658   3.377
 2422SOL     OW 8164   3.945   7.027   0.432
 2422SOL    HW1 8165   3.899   0.081   0.401
 2422SOL    HW2 8166   4.029   0.023   0.480
 2423SOL     OW 8167   3.510   4.980   5.294
 2423SOL    HW1 8168   3.441   4.913   5.267
 2423SOL    HW2 8169   3.497   5.005   5.390
 2424SOL     OW 8170   5.311   0.467   6.471
 2424SOL    HW1 8171   5.337   0.562   6.454
 2424SOL    HW2 8172   5.220   0.464   6.511
 2425SOL     OW 8173   5.468   5.173   4.795
 2425SOL    HW1 8174   5.369   5.166   4.803
 2425SOL    HW2 8175   5.498   5.132   4.709
 2426SOL     OW 8176   3.096   2.059   5.240
 2426SOL    HW1 8177   3.124   2.144   5.194
 2426SOL    HW2 8178   3.101   2.072   5.339
 2427SOL     OW 8179   4.181   3.071   6.647
 2427SOL    HW1 8180   4.272   3.092   6.682
 2427SOL    HW2 8181   4.188   3.036   6.554
 2428SOL     OW 8182   1.594   1.878   2.160
 2428SOL    HW1 8183   1.590   1.832   2.248
 2428SOL    HW2 8184   1.585   1.811   2.087
 2429SOL     OW 8185   4.752   5.212   1.602
 2429SOL    HW1 8186   4.834   5.159   1.622
 2429SOL    HW2 8187   4.710   5.178   1.518
 2430SOL     OW 8188   0.022   5.974   6.740
 2430SOL    HW1 8189   6.957   5.946   6.759
 2430SOL    HW2 8190   0.071   5.899   6.695
 2431SOL     OW 8191   2.231   3.297   1.421
 2431SOL    HW1 8192   2.231   3.206   1.463
 2431SOL    HW2 8193   2.144   3.343   1.440
 2432SOL     OW 8194   2.979   5.616   2.898
 2432SOL    HW1 8195   2.941   5.622   2.806
 2432SOL    HW2 8196   3.073   5.649   2.898
 2433SOL     OW 8197   0.269   4.482   4.205
 2433SOL    HW1 8198   0.311   4.458   4.293
 2433SOL    HW2 8199   0.267   4.401   4.146
 2434SOL     OW 8200   3.626   2.055   3.036
 2434SOL    HW1 8201   3.678   1.977   3.001
 2434SOL    HW2 8202   3.588   2.108   2.959
 2435SOL     OW 8203   5.693   6.442   5.848
 2435SOL    HW1 8204   5.769   6.390   5.808
 2435SOL    HW2 8205   5.654   6.503   5.780
 2436SOL     OW 8206   0.093   3.494   0.021
 2436SOL    HW1 8207   0.088   3.498   0.121
 2436SOL    HW2 8208   0.133   3.578   7.015
 2437SOL     OW 8209   1.171   4.704   0.962
 2437SOL    HW1 8210   1.265   4.675   0.946
 2437SOL    HW2 8211   1.171   4.795   1.005
 2438SOL     OW 8212   3.911   1.827   4.654
 2438SOL    HW1 8213   3.826   1.811   4.604
 2438SOL    HW2 8214   3.988   1.792   4.600
 2439SOL     OW 8215   0.612   6.070   6.655
 2439SOL    HW1 8216   0.637   5.976   6.681
 2439SOL    HW2 8217   0.689   6.131   6.675
 2440SOL     OW 8218   0.054   2.486   5.265
 2440SOL    HW1 8219   0.053   2.505   5.363
 2440SOL    HW2 8220   6.989   2.487   5.230
 2441SOL     OW 8221   6.798   0.023   6.930
 2441SOL    HW1 8222   6.746   6.968   6.910
 2441SOL    HW2 8223   6.770   0.095   6.867
 2442SOL     OW 8224   5.766   3.129   3.378
 2442SOL    HW1 8225   5.688   3.086   3.424
 2442SOL    HW2 8226   5.844   3.067   3.380
 2443SOL     OW 8227   1.044   3.187   1.480
 2443SOL    HW1 8228   1.126   3.230   1.518
 2443SOL    HW2 8229   0.965   3.211   1.536
 2444SOL     OW 8230   3.633   5.209   2.718
 2444SOL    HW1 8231   3.667   5.177   2.806
 2444SOL    HW2 8232   3.677   5.158   2.644
 2445SOL     OW 8233   0.272   1.199   1.336
 2445SOL    HW1 8234   0.266   1.127   1.267
 2445SOL    HW2 8235   0.355   1.187   1.390
 2446SOL     OW 8236   6.446   5.659   0.742
 2446SOL    HW1 8237   6.546   5.650   0.745
 2446SOL    HW2 8238   6.410   5.663   0.835
 2447SOL     OW 8239   1.742   0.250   6.666
 2447SOL    HW1 8240   1.684   0.298   6.601
 2447SOL    HW2 8241   1.690   0.229   6.749
 2448SOL     OW 8242   5.020   0.786   4.538
 2448SOL    HW1 8243   5.083   0.727   4.590
 2448SOL    HW2 8244   4.942   0.732   4.507
 2449SOL     OW 8245   1.867   3.833   1.193
 2449SOL    HW1 8246   1.898   3.820   1.099
 2449SOL    HW2 8247   1.945   3.824   1.255
 2450SOL     OW 8248   6.672   6.313   6.145
 2450SOL    HW1 8249   6.763   6.275   6.165
 2450SOL    HW2 8250   6.665   6.332   6.048
 2451SOL     OW 8251   1.163   0.566   0.192
 2451SOL    HW1 8252   1.100   0.548   0.267
 2451SOL    HW2 8253   1.254   0.585   0.229
 2452SOL     OW 8254   1.464   2.314   3.994
 2452SOL    HW1 8255   1.408   2.367   3.929
 2452SOL    HW2 8256   1.427   2.324   4.086
 2453SOL     OW 8257   0.487   2.119   6.956
 2453SOL    HW1 8258   0.470   2.142   6.860
 2453SOL    HW2 8259   0.577   2.153   6.983
 2454SOL     OW 8260   2.065   6.411   0.870
 2454SOL    HW1 8261   2.151   6.382   0.912
 2454SOL    HW2 8262   2.080   6.437   0.775
 2455SOL     OW 8263   4.890   2.240   6.190
 2455SOL    HW1 8264   4.939   2.327   6.180
 2455SOL    HW2 8265   4.923   2.174   6.123
 2456SOL     OW 8266   1.329   2.930   5.669
 2456SOL    HW1 8267   1.305   2.868   5.743
 2456SOL    HW2 8268   1.385   3.005   5.705
 2457SOL     OW 8269   5.868   1.637   5.990
 2457SOL    HW1 8270   5.874   1.731   5.958
 2457SOL    HW2 8271   5.922   1.627   6.074
 2458SOL     OW 8272   1.372   7.003   1.469
 2458SOL    HW1 8273   1.394   0.053   1.411
 2458SOL    HW2 8274   1.424   7.010   1.555
 2459SOL     OW 8275   1.781   0.346   1.134
 2459SOL    HW1 8276   1.860   0.407   1.141
 2459SOL    HW2 8277   1.791   0.272   1.200
 2460SOL     OW 8278   0.544   1.234   4.358
 2460SOL    HW1 8279   0.487   1.166   4.311
 2460SOL    HW2 8280   0.491   1.278   4.430
 2461SOL     OW 8281   2.112   1.864   3.172
 2461SOL    HW1 8282   2.106   1.785   3.232
 2461SOL    HW2 8283   2.045   1.855   3.098
 2462SOL     OW 8284   0.291   5.391   0.685
 2462SOL    HW1 8285   0.232   5.451   0.631
 2462SOL    HW2 8286   0.385   5.400   0.652
 2463SOL     OW 8287   6.716   6.018   0.066
 2463SOL    HW1 8288   6.775   6.068   0.002
 2463SOL    HW2 8289   6.772   5.958   0.123
 2464SOL     OW 8290   0.841   2.727   4.787
 2464SOL    HW1 8291   0.924   2.738   4.731
 2464SOL    HW2 8292   0.827   2.808   4.843
 2465SOL     OW 8293   6.957   1.322   6.851
 2465SOL    HW1 8294   6.896   1.247   6.874
 2465SOL    HW2 8295   6.938   1.354   6.758
 2466SOL     OW 8296   1.135   1.914   1.169
 2466SOL    HW1 8297   1.062   1.908   1.101
 2466SOL    HW2 8298   1.102   1.959   1.251
 2467SOL     OW 8299   4.935   3.342   4.716
 2467SOL    HW1 8300   4.885   3.389   4.644
 2467SOL    HW2 8301   4.890   3.256   4.738
 2468SOL     OW 8302   3.563   6.508   4.372
 2468SOL    HW1 8303   3.529   6.426   4.418
 2468SOL    HW2 8304   3.608   6.568   4.438
 2469SOL     OW 8305   3.132   2.197   6.103
 2469SOL    HW1 8306   3.065   2.210   6.031
 2469SOL    HW2 8307   3.087   2.159   6.184
 2470SOL     OW 8308   1.744   5.351   6.487
 2470SOL    HW1 8309   1.803   5.344   6.568
 2470SOL    HW2 8310   1.722   5.259   6.455
 2471SOL     OW 8311   2.239   6.292   2.626
 2471SOL    HW1 8312   2.214   6.200   2.656
 2471SOL    HW2 8313   2.316   6.286   2.562
 2472SOL     OW 8314   5.001   0.597   2.658
 2472SOL    HW1 8315   5.091   0.554   2.667
 2472SOL    HW2 8316   4.947   0.547   2.590
 2473SOL     OW 8317   0.676   3.942   5.058
 2473SOL    HW1 8318   0.709   4.028   5.097
 2473SOL    HW2 8319   0.726   3.923   4.973
 2474SOL     OW 8320   2.039   0.445   1.151
 2474SOL    HW1 8321   2.013   0.535   1.116
 2474SOL    HW2 8322   2.066   0.386   1.076
 2475SOL     OW 8323   5.638   1.887   0.438
 2475SOL    HW1 8324   5.576   1.876   0.361
 2475SOL    HW2 8325   5.590   1.868   0.524
 2476SOL     OW 8326   4.407   6.545   6.934
 2476SOL    HW1 8327   4.406   6.645   6.931
 2476SOL    HW2 8328   4.421   6.510   6.841
 2477SOL     OW 8329   4.279   1.617   4.129
 2477SOL    HW1 8330   4.305   1.522   4.112
 2477SOL    HW2 8331   4.290   1.670   4.045
 2478SOL     OW 8332   3.118   0.469   3.886
 2478SOL    HW1 8333   3.202   0.425   3.917
 2478SOL    HW2 8334   3.139   0.534   3.813
 2479SOL     OW 8335   6.315   4.150   2.423
 2479SOL    HW1 8336   6.363   4.197   2.497
 2479SOL    HW2 8337   6.238   4.098   2.461
 2480SOL     OW 8338   2.692   2.152   1.666
 2480SOL    HW1 8339   2.669   2.116   1.575
 2480SOL    HW2 8340   2.704   2.251   1.660
 2481SOL     OW 8341   3.146   0.281   2.122
 2481SOL    HW1 8342   3.116   0.258   2.029
 2481SOL    HW2 8343   3.187   0.200   2.164
 2482SOL     OW 8344   0.060   3.414   6.808
 2482SOL    HW1 8345   0.090   3.425   6.903
 2482SOL    HW2 8346   7.001   3.459   6.795
 2483SOL     OW 8347   2.743   1.813   1.022
 2483SOL    HW1 8348   2.801   1.741   1.060
 2483SOL    HW2 8349   2.757   1.818   0.923
 2484SOL     OW 8350   4.540   1.175   6.032
 2484SOL    HW1 8351   4.626   1.224   6.018
 2484SOL    HW2 8352   4.510   1.135   5.945
 2485SOL     OW 8353   0.329   1.462   6.989
 2485SOL    HW1 8354   0.382   1.536   0.002
 2485SOL    HW2 8355   0.231   1.480   7.003
 2486SOL     OW 8356   6.556   5.711   2.525
 2486SOL    HW1 8357   6.556   5.667   2.436
 2486SOL    HW2 8358   6.505   5.798   2.519
 2487SOL     OW 8359   4.127   6.318   6.940
 2487SOL    HW1 8360   4.136   6.391   6.872
 2487SOL    HW2 8361   4.097   6.358   7.027
 2488SOL     OW 8362   0.671   3.476   0.681
 2488SOL    HW1 8363   0.690   3.553   0.621
 2488SOL    HW2 8364   0.572   3.467   0.692
 2489SOL     OW 8365   5.896   5.910   4.584
 2489SOL    HW1 8366   5.801   5.883   4.578
 2489SOL    HW2 8367   5.920   5.928   4.680
 2490SOL     OW 8368   3.185   5.729   2.732
 2490SOL    HW1 8369   3.241   5.807   2.704
 2490SOL    HW2 8370   3.241   5.664   2.783
 2491SOL     OW 8371   3.921   4.361   1.579
 2491SOL    HW1 8372   3.876   4.438   1.623
 2491SOL    HW2 8373   3.871   4.277   1.600
 2492SOL     OW 8374   6.757   4.458   2.321
 2492SOL    HW1 8375   6.829   4.440   2.387
 2492SOL    HW2 8376   6.759   4.554   2.293
 2493SOL     OW 8377   5.996   6.410   0.761
 2493SOL    HW1 8378   5.967   6.359   0.680
 2493SOL    HW2 8379   6.087   6.379   0.788
 2494SOL     OW 8380   0.036   3.153   1.392
 2494SOL    HW1 8381   0.027   3.166   1.491
 2494SOL    HW2 8382   0.132   3.164   1.366
 2495SOL     OW 8383   6.569   3.015   2.131
 2495SOL    HW1 8384   6.508   3.035   2.055
 2495SOL    HW2 8385   6.523   2.954   2.197
 2496SOL     OW 8386   5.080   4.010   5.911
 2496SOL    HW1 8387   5.020   3.932   5.890
 2496SOL    HW2 8388   5.163   3.977   5.955
 2497SOL     OW 8389   0.606   0.029   3.908
 2497SOL    HW1 8390   0.680   0.026   3.975
 2497SOL    HW2 8391   0.548   0.109   3.925
 2498SOL     OW 8392   1.987   2.980   4.331
 2498SOL    HW1 8393   1.957   2.992   4.236
 2498SOL    HW2 8394   1.907   2.970   4.390
 2499SOL     OW 8395   6.023   2.429   0.767
 2499SOL    HW1 8396   6.114   2.393   0.783
 2499SOL    HW2 8397   6.029   2.519   0.722
 2500SOL     OW 8398   3.773   3.659   2.886
 2500SOL    HW1 8399   3.783   3.655   2.787
 2500SOL    HW2 8400   3.733   3.748   2.911
 2501SOL     OW 8401   6.200   5.052   4.135
 2501SOL    HW1 8402   6.251   4.979   4.181
 2501SOL    HW2 8403   6.177   5.123   4.200
 2502SOL     OW 8404   2.329   5.992   3.625
 2502SOL    HW1 8405   2.357   6.045   3.545
 2502SOL    HW2 8406   2.243   6.029   3.661
 2503SOL     OW 8407   2.219   7.022   5.200
 2503SOL    HW1 8408   2.264   6.961   5.265
 2503SOL    HW2 8409   2.244   6.995   5.107
 2504SOL     OW 8410   4.332   1.151   2.688
 2504SOL    HW1 8411   4.343   1.244   2.723
 2504SOL    HW2 8412   4.236   1.124   2.693
 2505SOL     OW 8413   5.326   4.376   4.007
 2505SOL    HW1 8414   5.399   4.441   4.027
 2505SOL    HW2 8415   5.326   4.304   4.076
 2506SOL     OW 8416   5.899   4.875   6.518
 2506SOL    HW1 8417   5.826   4.908   6.458
 2506SOL    HW2 8418   5.964   4.822   6.463
 2507SOL     OW 8419   5.940   3.545   3.829
 2507SOL    HW1 8420   5.940   3.630   3.778
 2507SOL    HW2 8421   6.034   3.510   3.837
 2508SOL     OW 8422   5.873   0.556   4.110
 2508SOL    HW1 8423   5.786   0.600   4.133
 2508SOL    HW2 8424   5.882   0.550   4.011
 2509SOL     OW 8425   0.335   3.653   6.083
 2509SOL    HW1 8426   0.376   3.728   6.032
 2509SOL    HW2 8427   0.252   3.623   6.037
 2510SOL     OW 8428   3.347   3.829   2.223
 2510SOL    HW1 8429   3.434   3.863   2.259
 2510SOL    HW2 8430   3.331   3.736   2.257
 2511SOL     OW 8431   2.450   0.998   4.732
 2511SOL    HW1 8432   2.357   0.981   4.763
 2511SOL    HW2 8433   2.458   1.091   4.697
 2512SOL     OW 8434   3.056   4.897   3.500
 2512SOL    HW1 8435   2.990   4.964   3.464
 2512SOL    HW2 8436   3.131   4.946   3.544
 2513SOL     OW 8437   2.032   5.233   6.283
 2513SOL    HW1 8438   2.005   5.309   6.224
 2513SOL    HW2 8439   1.953   5.175   6.303
 2514SOL     OW 8440   1.111   2.795   2.517
 2514SOL    HW1 8441   1.085   2.872   2.576
 2514SOL    HW2 8442   1.098   2.821   2.421
 2515SOL     OW 8443   0.180   1.780   0.999
 2515SOL    HW1 8444   0.172   1.849   1.071
 2515SOL    HW2 8445   0.131   1.811   0.918
 2516SOL     OW 8446   0.048   2.592   4.891
 2516SOL    HW1 8447   0.118   2.660   4.870
 2516SOL    HW2 8448   0.017   2.549   4.806
 2517SOL     OW 8449   0.189   1.828   4.546
 2517SOL    HW1 8450   0.153   1.829   4.452
 2517SOL    HW2 8451   0.199   1.922   4.579
 2518SOL     OW 8452   3.505   3.433   1.103
 2518SOL    HW1 8453   3.534   3.474   1.017
 2518SOL    HW2 8454   3.460   3.345   1.085
 2519SOL     OW 8455   1.540   0.614   0.110
 2519SOL    HW1 8456   1.475   0.673   0.157
 2519SOL    HW2 8457   1.599   0.670   0.051
 2520SOL     OW 8458   2.718   2.955   1.233
 2520SOL    HW1 8459   2.672   3.042   1.215
 2520SOL    HW2 8460   2.724   2.941   1.332
 2521SOL     OW 8461   5.698   1.638   4.801
 2521SOL    HW1 8462   5.719   1.547   4.765
 2521SOL    HW2 8463   5.696   1.635   4.901
 2522SOL     OW 8464   1.836   2.072   0.268
 2522SOL    HW1 8465   1.898   2.143   0.235
 2522SOL    HW2 8466   1.756   2.115   0.311
 2523SOL     OW 8467   1.006   5.352   4.901
 2523SOL    HW1 8468   0.991   5.382   4.995
 2523SOL    HW2 8469   0.925   5.307   4.866
 2524SOL     OW 8470   1.116   2.223   4.755
 2524SOL    HW1 8471   1.150   2.308   4.715
 2524SOL    HW2 8472   1.187   2.182   4.813
 2525SOL     OW 8473   6.921   3.363   6.516
 2525SOL    HW1 8474   6.949   3.366   6.612
 2525SOL    HW2 8475   6.831   3.406   6.506
 2526SOL     OW 8476   2.396   1.170   1.145
 2526SOL    HW1 8477   2.335   1.109   1.195
 2526SOL    HW2 8478   2.355   1.262   1.142
 2527SOL     OW 8479   3.947   5.305   0.166
 2527SOL    HW1 8480   4.044   5.291   0.190
 2527SOL    HW2 8481   3.892   5.233   0.208
 2528SOL     OW 8482   4.471   5.571   6.595
 2528SOL    HW1 8483   4.507   5.526   6.513
 2528SOL    HW2 8484   4.519   5.537   6.675
 2529SOL     OW 8485   0.194   6.303   5.964
 2529SOL    HW1 8486   0.173   6.386   6.015
 2529SOL    HW2 8487   0.112   6.269   5.919
 2530SOL     OW 8488   2.340   6.019   6.715
 2530SOL    HW1 8489   2.343   6.004   6.814
 2530SOL    HW2 8490   2.379   6.108   6.694
 2531SOL     OW 8491   0.128   4.241   6.386
 2531SOL    HW1 8492   0.225   4.263   6.375
 2531SOL    HW2 8493   0.112   4.147   6.353
 2532SOL     OW 8494   5.064   6.582   3.265
 2532SOL    HW1 8495   4.972   6.604   3.296
 2532SOL    HW2 8496   5.090   6.491   3.299
 2533SOL     OW 8497   4.459   0.371   3.765
 2533SOL    HW1 8498   4.399   0.449   3.748
 2533SOL    HW2 8499   4.536   0.400   3.822
 2534SOL     OW 8500   4.163   1.734   2.598
 2534SOL    HW1 8501   4.171   1.635   2.597
 2534SOL    HW2 8502   4.183   1.769   2.690
 2535SOL     OW 8503   3.732   2.910   6.169
 2535SOL    HW1 8504   3.767   2.818   6.156
 2535SOL    HW2 8505   3.690   2.941   6.084
 2536SOL     OW 8506   1.002   0.664   0.914
 2536SOL    HW1 8507   0.992   0.591   0.982
 2536SOL    HW2 8508   1.008   0.752   0.961
 2537SOL     OW 8509   4.482   6.633   5.334
 2537SOL    HW1 8510   4.385   6.621   5.313
 2537SOL    HW2 8511   4.527   6.681   5.258
 2538SOL     OW 8512   6.354   3.884   3.844
 2538SOL    HW1 8513   6.299   3.897   3.927
 2538SOL    HW2 8514   6.338   3.791   3.809
 2539SOL     OW 8515   5.395   2.286   4.774
 2539SOL    HW1 8516   5.435   2.242   4.693
 2539SOL    HW2 8517   5.340   2.219   4.823
 2540SOL     OW 8518   2.440   2.326   1.856
 2540SOL    HW1 8519   2.483   2.339   1.945
 2540SOL    HW2 8520   2.490   2.378   1.787
 2541SOL     OW 8521   3.062   7.027   4.729
 2541SOL    HW1 8522   3.022   0.052   4.654
 2541SOL    HW2 8523   3.082   0.059   4.806
 2542SOL     OW 8524   1.852   5.617   5.863
 2542SOL    HW1 8525   1.826   5.550   5.933
 2542SOL    HW2 8526   1.809   5.592   5.776
 2543SOL     OW 8527   1.074   1.068   3.640
 2543SOL    HW1 8528   1.077   1.114   3.728
 2543SOL    HW2 8529   1.059   1.135   3.567
 2544SOL     OW 8530   0.865   5.924   6.181
 2544SOL    HW1 8531   0.805   5.854   6.142
 2544SOL    HW2 8532   0.810   6.000   6.215
 2545SOL     OW 8533   2.896   6.753   2.583
 2545SOL    HW1 8534   2.922   6.737   2.678
 2545SOL    HW2 8535   2.976   6.780   2.530
 2546SOL     OW 8536   6.984   1.232   2.525
 2546SOL    HW1 8537   0.002   1.177   2.456
 2546SOL    HW2 8538   0.019   1.299   2.563
 2547SOL     OW 8539   0.262   4.207   4.709
 2547SOL    HW1 8540   0.260   4.109   4.688
 2547SOL    HW2 8541   0.249   4.221   4.807
 2548SOL     OW 8542   6.803   0.630   5.613
 2548SOL    HW1 8543   6.727   0.668   5.666
 2548SOL    HW2 8544   6.784   0.640   5.516
 2549SOL     OW 8545   5.660   2.492   3.429
 2549SOL    HW1 8546   5.563   2.498   3.452
 2549SOL    HW2 8547   5.692   2.581   3.397
 2550SOL     OW 8548   5.678   5.179   0.287
 2550SOL    HW1 8549   5.703   5.181   0.384
 2550SOL    HW2 8550   5.585   5.212   0.275
 2551SOL     OW 8551   1.335   4.536   6.065
 2551SOL    HW1 8552   1.320   4.569   6.158
 2551SOL    HW2 8553   1.304   4.606   6.000
 2552SOL     OW 8554   1.441   6.401   3.247
 2552SOL    HW1 8555   1.428   6.346   3.330
 2552SOL    HW2 8556   1.514   6.361   3.191
 2553SOL     OW 8557   4.485   2.914   0.736
 2553SOL    HW1 8558   4.463   2.985   0.804
 2553SOL    HW2 8559   4.533   2.956   0.659
 2554SOL     OW 8560   0.828   1.700   0.287
 2554SOL    HW1 8561   0.821   1.800   0.291
 2554SOL    HW2 8562   0.924   1.673   0.283
 2555SOL     OW 8563   0.176   0.146   5.703
 2555SOL    HW1 8564   0.145   0.175   5.793
 2555SOL    HW2 8565   0.159   0.218   5.636
 2556SOL     OW 8566   4.247   5.283   0.218
 2556SOL    HW1 8567   4.318   5.300   0.150
 2556SOL    HW2 8568   4.255   5.189   0.252
 2557SOL     OW 8569   2.381   4.853   6.805
 2557SOL    HW1 8570   2.290   4.818   6.785
 2557SOL    HW2 8571   2.439   4.779   6.839
 2558SOL     OW 8572   4.368   0.943   5.133
 2558SOL    HW1 8573   4.404   0.938   5.040
 2558SOL    HW2 8574   4.416   0.877   5.192
 2559SOL     OW 8575   7.025   4.854   5.254
 2559SOL    HW1 8576   7.025   4.777   5.189
 2559SOL    HW2 8577   7.012   4.939   5.204
 2560SOL     OW 8578   6.399   0.202   0.475
 2560SOL    HW1 8579   6.402   0.137   0.552
 2560SOL    HW2 8580   6.493   0.226   0.449
 2561SOL     OW 8581   3.051   5.871   4.096
 2561SOL    HW1 8582   3.106   5.932   4.153
 2561SOL    HW2 8583   3.004   5.924   4.026
 2562SOL     OW 8584   1.771   3.899   0.329
 2562SOL    HW1 8585   1.779   3.972   0.397
 2562SOL    HW2 8586   1.710   3.930   0.255
 2563SOL     OW 8587   1.547   0.875   1.614
 2563SOL    HW1 8588   1.615   0.865   1.688
 2563SOL    HW2 8589   1.569   0.811   1.540
 2564SOL     OW 8590   1.442   6.272   2.629
 2564SOL    HW1 8591   1.521   6.268   2.568
 2564SOL    HW2 8592   1.442   6.190   2.687
 2565SOL     OW 8593   1.388   1.252   0.818
 2565SOL    HW1 8594   1.337   1.262   0.904
 2565SOL    HW2 8595   1.465   1.315   0.818
 2566SOL     OW 8596   2.574   6.473   5.309
 2566SOL    HW1 8597   2.500   6.442   5.369
 2566SOL    HW2 8598   2.625   6.546   5.354
 2567SOL     OW 8599   1.116   0.450   0.641
 2567SOL    HW1 8600   1.160   0.385   0.579
 2567SOL    HW2 8601   1.184   0.489   0.703
 2568SOL     OW 8602   5.429   3.736   0.098
 2568SOL    HW1 8603   5.528   3.736   0.110
 2568SOL    HW2 8604   5.391   3.824   0.128
 2569SOL     OW 8605   2.545   1.014   2.303
 2569SOL    HW1 8606   2.518   1.018   2.207
 2569SOL    HW2 8607   2.581   1.103   2.331
 2570SOL     OW 8608   6.564   2.860   6.264
 2570SOL    HW1 8609   6.647   2.806   6.249
 2570SOL    HW2 8610   6.584   2.935   6.327
 2571SOL     OW 8611   1.417   4.448   4.001
 2571SOL    HW1 8612   1.488   4.408   4.058
 2571SOL    HW2 8613   1.330   4.403   4.020
 2572SOL     OW 8614   1.362   5.039   3.246
 2572SOL    HW1 8615   1.416   5.052   3.162
 2572SOL    HW2 8616   1.402   4.965   3.300
 2573SOL     OW 8617   1.158   6.792   0.445
 2573SOL    HW1 8618   1.063   6.760   0.443
 2573SOL    HW2 8619   1.172   6.850   0.525
 2574SOL     OW 8620   6.789   3.219   1.456
 2574SOL    HW1 8621   6.796   3.225   1.556
 2574SOL    HW2 8622   6.876   3.188   1.419
 2575SOL     OW 8623   0.848   0.303   5.165
 2575SOL    HW1 8624   0.940   0.307   5.204
 2575SOL    HW2 8625   0.788   0.253   5.226
 2576SOL     OW 8626   4.532   6.342   5.324
 2576SOL    HW1 8627   4.556   6.439   5.334
 2576SOL    HW2 8628   4.604   6.286   5.363
 2577SOL     OW 8629   1.856   3.673   2.390
 2577SOL    HW1 8630   1.821   3.739   2.456
 2577SOL    HW2 8631   1.938   3.711   2.345
 2578SOL     OW 8632   4.256   1.551   1.937
 2578SOL    HW1 8633   4.200   1.509   1.866
 2578SOL    HW2 8634   4.241   1.504   2.024
 2579SOL     OW 8635   0.259   6.266   2.987
 2579SOL    HW1 8636   0.317   6.209   3.044
 2579SOL    HW2 8637   0.292   6.360   2.988
 2580SOL     OW 8638   3.104   2.107   5.504
 2580SOL    HW1 8639   3.054   2.026   5.535
 2580SOL    HW2 8640   3.152   2.147   5.581
 2581SOL     OW 8641   3.746   0.646   5.978
 2581SOL    HW1 8642   3.705   0.679   6.063
 2581SOL    HW2 8643   3.753   0.721   5.913
 2582SOL     OW 8644   0.363   3.266   0.256
 2582SOL    HW1 8645   0.335   3.361   0.271
 2582SOL    HW2 8646   0.301   3.205   0.307
 2583SOL     OW 8647   4.749   0.932   0.770
 2583SOL    HW1 8648   4.803   1.003   0.725
 2583SOL    HW2 8649   4.770   0.931   0.867
 2584SOL     OW 8650   3.180   4.361   6.799
 2584SOL    HW1 8651   3.222   4.285   6.849
 2584SOL    HW2 8652   3.250   4.409   6.746
 2585SOL     OW 8653   1.951   5.170   0.173
 2585SOL    HW1 8654   1.968   5.208   0.083
 2585SOL    HW2 8655   1.984   5.076   0.177
 2586SOL     OW 8656   1.819   1.497   2.736
 2586SOL    HW1 8657   1.780   1.424   2.681
 2586SOL    HW2 8658   1.872   1.457   2.811
 2587SOL     OW 8659   5.908   0.957   3.772
 2587SOL    HW1 8660   5.847   1.021   3.724
 2587SOL    HW2 8661   5.886   0.957   3.869
 2588SOL     OW 8662   4.863   1.690   6.125
 2588SOL    HW1 8663   4.803   1.769   6.115
 2588SOL    HW2 8664   4.810   1.610   6.151
 2589SOL     OW 8665   1.282   5.997   0.330
 2589SOL    HW1 8666   1.291   6.014   0.428
 2589SOL    HW2 8667   1.194   5.953   0.312
 2590SOL     OW 8668   3.036   4.567   0.660
 2590SOL    HW1 8669   2.993   4.611   0.581
 2590SOL    HW2 8670   2.971   4.561   0.735
 2591SOL     OW 8671   4.808   6.721   2.677
 2591SOL    HW1 8672   4.882   6.750   2.616
 2591SOL    HW2 8673   4.739   6.793   2.682
 2592SOL     OW 8674   3.558   3.563   0.870
 2592SOL    HW1 8675   3.468   3.599   0.846
 2592SOL    HW2 8676   3.622   3.582   0.795
 2593SOL     OW 8677   2.470   4.546   6.647
 2593SOL    HW1 8678   2.513   4.612   6.585
 2593SOL    HW2 8679   2.487   4.573   6.742
 2594SOL     OW 8680   2.269   2.804   3.186
 2594SOL    HW1 8681   2.310   2.778   3.099
 2594SOL    HW2 8682   2.203   2.877   3.172
 2595SOL     OW 8683   1.420   0.971   2.474
 2595SOL    HW1 8684   1.438   1.062   2.512
 2595SOL    HW2 8685   1.325   0.965   2.444
 2596SOL     OW 8686   6.881   0.505   1.165
 2596SOL    HW1 8687   6.869   0.468   1.073
 2596SOL    HW2 8688   6.951   0.452   1.213
 2597SOL     OW 8689   6.040   5.885   0.368
 2597SOL    HW1 8690   5.992   5.969   0.395
 2597SOL    HW2 8691   6.009   5.809   0.425
 2598SOL     OW 8692   4.815   2.780   2.213
 2598SOL    HW1 8693   4.748   2.710   2.187
 2598SOL    HW2 8694   4.788   2.868   2.176
 2599SOL     OW 8695   2.213   5.642   1.811
 2599SOL    HW1 8696   2.159   5.599   1.884
 2599SOL    HW2 8697   2.194   5.740   1.809
 2600SOL     OW 8698   5.667   5.594   4.390
 2600SOL    HW1 8699   5.598   5.565   4.323
 2600SOL    HW2 8700   5.758   5.570   4.357
 2601SOL     OW 8701   6.866   1.480   3.077
 2601SOL    HW1 8702   6.855   1.472   2.978
 2601SOL    HW2 8703   6.962   1.465   3.101
 2602SOL     OW 8704   2.154   4.661   3.360
 2602SOL    HW1 8705   2.094   4.581   3.360
 2602SOL    HW2 8706   2.111   4.734   3.413
 2603SOL     OW 8707   1.416   6.027   1.660
 2603SOL    HW1 8708   1.447   6.023   1.754
 2603SOL    HW2 8709   1.426   6.121   1.625
 2604SOL     OW 8710   5.256   3.259   2.727
 2604SOL    HW1 8711   5.285   3.191   2.794
 2604SOL    HW2 8712   5.169   3.230   2.686
 2605SOL     OW 8713   1.205   2.052   0.808
 2605SOL    HW1 8714   1.174   2.121   0.873
 2605SOL    HW2 8715   1.260   2.095   0.737
 2606SOL     OW 8716   5.208   3.911   0.831
 2606SOL    HW1 8717   5.244   3.868   0.914
 2606SOL    HW2 8718   5.178   4.004   0.852
 2607SOL     OW 8719   2.093   2.543   2.109
 2607SOL    HW1 8720   2.019   2.588   2.060
 2607SOL    HW2 8721   2.060   2.513   2.199
 2608SOL     OW 8722   3.263   4.821   5.188
 2608SOL    HW1 8723   3.178   4.825   5.241
 2608SOL    HW2 8724   3.289   4.726   5.174
 2609SOL     OW 8725   6.790   1.733   2.092
 2609SOL    HW1 8726   6.701   1.744   2.136
 2609SOL    HW2 8727   6.808   1.636   2.077
 2610SOL     OW 8728   1.354   4.640   5.107
 2610SOL    HW1 8729   1.313   4.624   5.017
 2610SOL    HW2 8730   1.448   4.607   5.108
 2611SOL     OW 8731   5.151   2.212   5.325
 2611SOL    HW1 8732   5.123   2.198   5.420
 2611SOL    HW2 8733   5.168   2.309   5.309
 2612SOL     OW 8734   6.551   5.861   0.297
 2612SOL    HW1 8735   6.544   5.951   0.253
 2612SOL    HW2 8736   6.459   5.826   0.316
 2613SOL     OW 8737   1.918   0.014   0.381
 2613SOL    HW1 8738   1.915   0.093   0.442
 2613SOL    HW2 8739   1.921   0.045   0.286
 2614SOL     OW 8740   6.408   1.748   0.538
 2614SOL    HW1 8741   6.483   1.814   0.536
 2614SOL    HW2 8742   6.430   1.670   0.479
 2615SOL     OW 8743   1.172   2.879   0.173
 2615SOL    HW1 8744   1.221   2.963   0.149
 2615SOL    HW2 8745   1.084   2.878   0.126
 2616SOL     OW 8746   1.284   1.469   5.176
 2616SOL    HW1 8747   1.231   1.553   5.174
 2616SOL    HW2 8748   1.326   1.453   5.086
 2617SOL     OW 8749   6.086   0.125   6.566
 2617SOL    HW1 8750   6.129   0.035   6.572
 2617SOL    HW2 8751   6.098   0.174   6.652
 2618SOL     OW 8752   1.958   6.751   0.337
 2618SOL    HW1 8753   1.953   6.850   0.325
 2618SOL    HW2 8754   2.046   6.726   0.377
 2619SOL     OW 8755   4.126   1.005   2.878
 2619SOL    HW1 8756   4.185   0.924   2.877
 2619SOL    HW2 8757   4.042   0.985   2.829
 2620SOL     OW 8758   5.728   2.357   1.875
 2620SOL    HW1 8759   5.658   2.409   1.924
 2620SOL    HW2 8760   5.684   2.281   1.826
 2621SOL     OW 8761   2.207   6.319   1.109
 2621SOL    HW1 8762   2.116   6.350   1.136
 2621SOL    HW2 8763   2.198   6.241   1.047
 2622SOL     OW 8764   2.235   3.494   0.157
 2622SOL    HW1 8765   2.271   3.420   0.214
 2622SOL    HW2 8766   2.139   3.477   0.138
 2623SOL     OW 8767   0.347   2.052   4.091
 2623SOL    HW1 8768   0.334   2.117   4.016
 2623SOL    HW2 8769   0.328   2.098   4.178
 2624SOL     OW 8770   1.541   0.963   5.401
 2624SOL    HW1 8771   1.565   1.044   5.347
 2624SOL    HW2 8772   1.459   0.983   5.455
 2625SOL     OW 8773   3.375   5.648   6.084
 2625SOL    HW1 8774   3.434   5.606   6.015
 2625SOL    HW2 8775   3.279   5.637   6.057
 2626SOL     OW 8776   0.049   6.755   0.494
 2626SOL    HW1 8777   0.027   6.658   0.506
 2626SOL    HW2 8778   7.002   6.800   0.447
 2627SOL     OW 8779   2.856   0.081   5.488
 2627SOL    HW1 8780   2.948   0.117   5.502
 2627SOL    HW2 8781   2.800   0.149   5.441
 2628SOL     OW 8782   0.024   5.788   1.705
 2628SOL    HW1 8783   0.106   5.834   1.740
 2628SOL    HW2 8784   7.008   5.848   1.639
 2629SOL     OW 8785   3.278   3.820   2.563
 2629SOL    HW1 8786   3.235   3.911   2.574
 2629SOL    HW2 8787   3.241   3.776   2.481
 2630SOL     OW 8788   3.091   1.489   4.729
 2630SOL    HW1 8789   3.150   1.481   4.809
 2630SOL    HW2 8790   2.997   1.507   4.758
 2631SOL     OW 8791   5.606   5.454   0.551
 2631SOL    HW1 8792   5.673   5.494   0.489
 2631SOL    HW2 8793   5.618   5.494   0.642
 2632SOL     OW 8794   4.385   5.556   2.096
 2632SOL    HW1 8795   4.485   5.561   2.088
 2632SOL    HW2 8796   4.360   5.516   2.184
 2633SOL     OW 8797   6.759   3.015   6.081
 2633SOL    HW1 8798   6.734   3.102   6.125
 2633SOL    HW2 8799   6.680   2.979   6.032
 2634SOL     OW 8800   2.364   1.939   6.180
 2634SOL    HW1 8801   2.343   1.893   6.267
 2634SOL    HW2 8802   2.397   1.871   6.114
 2635SOL     OW 8803   4.413   5.715   3.352
 2635SOL    HW1 8804   4.329   5.754   3.389
 2635SOL    HW2 8805   4.418   5.732   3.254
 2636SOL     OW 8806   3.383   6.655   6.053
 2636SOL    HW1 8807   3.320   6.660   5.975
 2636SOL    HW2 8808   3.462   6.599   6.028
 2637SOL     OW 8809   6.318   0.964   2.676
 2637SOL    HW1 8810   6.293   1.054   2.711
 2637SOL    HW2 8811   6.274   0.950   2.587
 2638SOL     OW 8812   0.278   6.140   4.655
 2638SOL    HW1 8813   0.371   6.147   4.619
 2638SOL    HW2 8814   0.222   6.087   4.592
 2639SOL     OW 8815   5.180   5.243   4.687
 2639SOL    HW1 8816   5.198   5.271   4.782
 2639SOL    HW2 8817   5.082   5.237   4.672
 2640SOL     OW 8818   1.780   0.786   2.832
 2640SOL    HW1 8819   1.750   0.731   2.754
 2640SOL    HW2 8820   1.713   0.777   2.906
 2641SOL     OW 8821   4.773   2.310   1.031
 2641SOL    HW1 8822   4.860   2.316   1.081
 2641SOL    HW2 8823   4.700   2.348   1.089
 2642SOL     OW 8824   0.328   0.695   2.935
 2642SOL    HW1 8825   0.358   0.624   2.872
 2642SOL    HW2 8826   0.408   0.743   2.972
 2643SOL     OW 8827   1.572   4.922   4.944
 2643SOL    HW1 8828   1.567   5.011   4.898
 2643SOL    HW2 8829   1.506   4.921   5.019
 2644SOL     OW 8830   5.786   5.311   3.769
 2644SOL    HW1 8831   5.878   5.291   3.801
 2644SOL    HW2 8832   5.771   5.410   3.769
 2645SOL     OW 8833   4.526   5.611   2.713
 2645SOL    HW1 8834   4.477   5.698   2.702
 2645SOL    HW2 8835   4.461   5.540   2.741
 2646SOL     OW 8836   1.212   1.176   6.672
 2646SOL    HW1 8837   1.225   1.175   6.572
 2646SOL    HW2 8838   1.191   1.269   6.701
 2647SOL     OW 8839   4.241   0.271   2.762
 2647SOL    HW1 8840   4.238   0.172   2.754
 2647SOL    HW2 8841   4.219   0.298   2.856
 2648SOL     OW 8842   2.023   0.341   5.714
 2648SOL    HW1 8843   1.990   0.264   5.770
 2648SOL    HW2 8844   2.102   0.312   5.661
 2649SOL     OW 8845   5.866   2.084   3.655
 2649SOL    HW1 8846   5.796   2.014   3.639
 2649SOL    HW2 8847   5.829   2.174   3.630
 2650SOL     OW 8848   1.550   6.647   4.450
 2650SOL    HW1 8849   1.628   6.653   4.389
 2650SOL    HW2 8850   1.509   6.556   4.442
 2651SOL     OW 8851   2.955   1.923   2.565
 2651SOL    HW1 8852   2.975   2.021   2.572
 2651SOL    HW2 8853   2.933   1.887   2.656
 2652SOL     OW 8854   3.949   3.676   6.305
 2652SOL    HW1 8855   3.978   3.604   6.241
 2652SOL    HW2 8856   3.849   3.682   6.304
 2653SOL     OW 8857   2.504   6.972   0.688
 2653SOL    HW1 8858   2.459   6.926   0.612
 2653SOL    HW2 8859   2.436   7.009   0.751
 2654SOL     OW 8860   6.396   0.103   1.535
 2654SOL    HW1 8861   6.392   0.097   1.635
 2654SOL    HW2 8862   6.376   0.196   1.506
 2655SOL     OW 8863   5.452   6.380   4.149
 2655SOL    HW1 8864   5.503   6.333   4.221
 2655SOL    HW2 8865   5.392   6.314   4.103
 2656SOL     OW 8866   5.553   0.005   4.722
 2656SOL    HW1 8867   5.557   6.941   4.684
 2656SOL    HW2 8868   5.515   0.001   4.814
 2657SOL     OW 8869   1.600   3.378   5.909
 2657SOL    HW1 8870   1.565   3.323   5.986
 2657SOL    HW2 8871   1.652   3.319   5.847
 2658SOL     OW 8872   3.443   4.041   0.820
 2658SOL    HW1 8873   3.365   4.038   0.759
 2658SOL    HW2 8874   3.464   4.136   0.844
 2659SOL     OW 8875   0.444   2.351   5.492
 2659SOL    HW1 8876   0.537   2.383   5.473
 2659SOL    HW2 8877   0.399   2.326   5.407
 2660SOL     OW 8878   0.827   1.271   0.354
 2660SOL    HW1 8879   0.779   1.192   0.392
 2660SOL    HW2 8880   0.775   1.354   0.374
 2661SOL     OW 8881   1.813   1.579   1.729
 2661SOL    HW1 8882   1.730   1.523   1.729
 2661SOL    HW2 8883   1.885   1.532   1.779
 2662SOL     OW 8884   2.933   1.635   1.163
 2662SOL    HW1 8885   3.017   1.685   1.184
 2662SOL    HW2 8886   2.872   1.639   1.243
 2663SOL     OW 8887   3.666   7.007   0.862
 2663SOL    HW1 8888   3.674   7.025   0.764
 2663SOL    HW2 8889   3.755   7.020   0.905
 2664SOL     OW 8890   4.670   3.265   5.296
 2664SOL    HW1 8891   4.728   3.280   5.375
 2664SOL    HW2 8892   4.652   3.353   5.250
 2665SOL     OW 8893   1.375   3.504   4.365
 2665SOL    HW1 8894   1.436   3.519   4.286
 2665SOL    HW2 8895   1.430   3.489   4.447
 2666SOL     OW 8896   1.956   3.475   2.184
 2666SOL    HW1 8897   1.922   3.568   2.197
 2666SOL    HW2 8898   1.910   3.414   2.249
 2667SOL     OW 8899   6.530   2.603   4.479
 2667SOL    HW1 8900   6.448   2.625   4.532
 2667SOL    HW2 8901   6.511   2.612   4.382
 2668SOL     OW 8902   5.928   0.746   3.020
 2668SOL    HW1 8903   5.850   0.804   3.046
 2668SOL    HW2 8904   6.009   0.774   3.071
 2669SOL     OW 8905   2.597   1.963   1.839
 2669SOL    HW1 8906   2.620   2.002   1.928
 2669SOL    HW2 8907   2.635   2.020   1.767
 2670SOL     OW 8908   0.621   6.633   1.363
 2670SOL    HW1 8909   0.650   6.646   1.458
 2670SOL    HW2 8910   0.693   6.667   1.302
 2671SOL     OW 8911   5.049   4.179   6.541
 2671SOL    HW1 8912   5.044   4.136   6.451
 2671SOL    HW2 8913   5.115   4.254   6.539
 2672SOL     OW 8914   1.907   0.850   2.402
 2672SOL    HW1 8915   1.969   0.873   2.478
 2672SOL    HW2 8916   1.908   0.925   2.336
 2673SOL     OW 8917   3.063   0.941   3.674
 2673SOL    HW1 8918   3.077   1.000   3.754
 2673SOL    HW2 8919   2.978   0.966   3.628
 2674SOL     OW 8920   5.093   5.741   2.666
 2674SOL    HW1 8921   5.058   5.669   2.606
 2674SOL    HW2 8922   5.095   5.828   2.615
 2675SOL     OW 8923   4.993   1.021   3.706
 2675SOL    HW1 8924   4.911   1.019   3.648
 2675SOL    HW2 8925   4.989   0.946   3.772
 2676SOL     OW 8926   3.723   3.794   5.825
 2676SOL    HW1 8927   3.701   3.704   5.789
 2676SOL    HW2 8928   3.757   3.853   5.751
 2677SOL     OW 8929   2.060   5.548   1.028
 2677SOL    HW1 8930   2.060   5.648   1.027
 2677SOL    HW2 8931   2.138   5.514   0.975
 2678SOL     OW 8932   3.308   1.678   1.535
 2678SOL    HW1 8933   3.381   1.746   1.533
 2678SOL    HW2 8934   3.247   1.696   1.612
 2679SOL     OW 8935   2.374   4.492   2.674
 2679SOL    HW1 8936   2.431   4.515   2.753
 2679SOL    HW2 8937   2.325   4.407   2.693
 2680SOL     OW 8938   6.138   1.773   6.633
 2680SOL    HW1 8939   6.057   1.808   6.586
 2680SOL    HW2 8940   6.131   1.674   6.641
 2681SOL     OW 8941   2.404   2.718   2.967
 2681SOL    HW1 8942   2.422   2.759   2.878
 2681SOL    HW2 8943   2.466   2.641   2.981
 2682SOL     OW 8944   3.805   3.892   2.710
 2682SOL    HW1 8945   3.774   3.910   2.803
 2682SOL    HW2 8946   3.841   3.976   2.670
 2683SOL     OW 8947   2.236   3.122   1.180
 2683SOL    HW1 8948   2.240   3.202   1.239
 2683SOL    HW2 8949   2.255   3.148   1.085
 2684SOL     OW 8950   5.748   0.513   3.413
 2684SOL    HW1 8951   5.757   0.493   3.315
 2684SOL    HW2 8952   5.777   0.434   3.466
 2685SOL     OW 8953   2.270   6.735   5.715
 2685SOL    HW1 8954   2.203   6.786   5.770
 2685SOL    HW2 8955   2.300   6.792   5.639
 2686SOL     OW 8956   2.347   2.086   5.849
 2686SOL    HW1 8957   2.430   2.138   5.829
 2686SOL    HW2 8958   2.370   1.989   5.856
 2687SOL     OW 8959   3.733   2.567   1.718
 2687SOL    HW1 8960   3.732   2.635   1.791
 2687SOL    HW2 8961   3.704   2.478   1.754
 2688SOL     OW 8962   4.796   2.314   0.343
 2688SOL    HW1 8963   4.708   2.266   0.353
 2688SOL    HW2 8964   4.799   2.361   0.255
 2689SOL     OW 8965   0.630   3.982   2.170
 2689SOL    HW1 8966   0.628   4.077   2.203
 2689SOL    HW2 8967   0.607   3.920   2.245
 2690SOL     OW 8968   5.292   0.930   4.175
 2690SOL    HW1 8969   5.235   0.982   4.113
 2690SOL    HW2 8970   5.328   0.991   4.246
 2691SOL     OW 8971   5.759   3.771   3.750
 2691SOL    HW1 8972   5.791   3.864   3.732
 2691SOL    HW2 8973   5.661   3.766   3.729
 2692SOL     OW 8974   1.056   5.663   1.032
 2692SOL    HW1 8975   0.973   5.628   1.076
 2692SOL    HW2 8976   1.131   5.666   1.098
 2693SOL     OW 8977   1.086   5.937   2.850
 2693SOL    HW1 8978   1.045   6.001   2.785
 2693SOL    HW2 8979   1.015   5.883   2.894
 2694SOL     OW 8980   2.990   0.710   2.445
 2694SOL    HW1 8981   2.943   0.629   2.410
 2694SOL    HW2 8982   2.925   0.786   2.452
 2695SOL     OW 8983   6.488   6.317   2.864
 2695SOL    HW1 8984   6.428   6.250   2.906
 2695SOL    HW2 8985   6.583   6.295   2.886
 2696SOL     OW 8986   3.656   4.643   6.112
 2696SOL    HW1 8987   3.612   4.682   6.193
 2696SOL    HW2 8988   3.617   4.553   6.093
 2697SOL     OW 8989   4.683   3.392   0.150
 2697SOL    HW1 8990   4.662   3.371   0.246
 2697SOL    HW2 8991   4.681   3.491   0.137
 2698SOL     OW 8992   2.175   5.424   0.408
 2698SOL    HW1 8993   2.078   5.400   0.412
 2698SOL    HW2 8994   2.216   5.381   0.326
 2699SOL     OW 8995   2.967   0.237   2.770
 2699SOL    HW1 8996   2.961   0.142   2.740
 2699SOL    HW2 8997   3.010   0.292   2.698
 2700SOL     OW 8998   4.680   2.349   0.764
 2700SOL    HW1 8999   4.713   2.312   0.851
 2700SOL    HW2 9000   4.623   2.280   0.718
 2701SOL     OW 9001   5.194   4.153   5.493
 2701SOL    HW1 9002   5.269   4.165   5.558
 2701SOL    HW2 9003   5.109   4.186   5.534
 2702SOL     OW 9004   1.540   2.145   5.035
 2702SOL    HW1 9005   1.554   2.215   4.965
 2702SOL    HW2 9006   1.616   2.080   5.033
 2703SOL     OW 9007   1.994   6.246   1.335
 2703SOL    HW1 9008   2.044   6.241   1.421
 2703SOL    HW2 9009   2.016   6.166   1.279
 2704SOL     OW 9010   4.651   0.656   3.297
 2704SOL    HW1 9011   4.705   0.704   3.229
 2704SOL    HW2 9012   4.677   0.687   3.389
 2705SOL     OW 9013   0.986   1.000   5.459
 2705SOL    HW1 9014   0.973   0.972   5.364
 2705SOL    HW2 9015   1.058   1.069   5.465
 2706SOL     OW 9016   0.938   4.483   4.617
 2706SOL    HW1 9017   1.016   4.545   4.625
 2706SOL    HW2 9018   0.943   4.414   4.690
 2707SOL     OW 9019   4.026   0.660   2.903
 2707SOL    HW1 9020   4.106   0.664   2.843
 2707SOL    HW2 9021   3.950   0.707   2.859
 2708SOL     OW 9022   5.427   3.225   5.190
 2708SOL    HW1 9023   5.419   3.221   5.091
 2708SOL    HW2 9024   5.336   3.225   5.231
 2709SOL     OW 9025   5.191   1.470   5.296
 2709SOL    HW1 9026   5.163   1.418   5.377
 2709SOL    HW2 9027   5.144   1.558   5.294
 2710SOL     OW 9028   0.825   3.090   4.201
 2710SOL    HW1 9029   0.896   3.136   4.148
 2710SOL    HW2 9030   0.865   3.013   4.250
 2711SOL     OW 9031   4.697   0.578   1.147
 2711SOL    HW1 9032   4.775   0.570   1.084
 2711SOL    HW2 9033   4.711   0.656   1.208
 2712SOL     OW 9034   4.637   6.437   1.785
 2712SOL    HW1 9035   4.621   6.348   1.742
 2712SOL    HW2 9036   4.605   6.433   1.880
 2713SOL     OW 9037   4.104   4.489   5.355
 2713SOL    HW1 9038   4.176   4.432   5.316
 2713SOL    HW2 9039   4.137   4.583   5.364
 2714SOL     OW 9040   3.065   4.064   5.940
 2714SOL    HW1 9041   3.070   4.154   5.896
 2714SOL    HW2 9042   3.014   4.072   6.026
 2715SOL     OW 9043   4.896   6.815   0.497
 2715SOL    HW1 9044   4.888   6.733   0.441
 2715SOL    HW2 9045   4.912   6.894   0.438
 2716SOL     OW 9046   4.523   0.766   1.976
 2716SOL    HW1 9047   4.469   0.841   2.014
 2716SOL    HW2 9048   4.585   0.731   2.047
 2717SOL     OW 9049   6.624   1.673   1.804
 2717SOL    HW1 9050   6.674   1.651   1.888
 2717SOL    HW2 9051   6.631   1.771   1.786
 2718SOL     OW 9052   5.859   1.156   6.530
 2718SOL    HW1 9053   5.792   1.152   6.604
 2718SOL    HW2 9054   5.814   1.137   6.443
 2719SOL     OW 9055   1.396   4.447   4.421
 2719SOL    HW1 9056   1.302   4.419   4.402
 2719SOL    HW2 9057   1.398   4.545   4.442
 2720SOL     OW 9058   2.022   4.826   6.228
 2720SOL    HW1 9059   1.944   4.767   6.207
 2720SOL    HW2 9060   2.012   4.863   6.320
 2721SOL     OW 9061   2.550   6.258   3.711
 2721SOL    HW1 9062   2.548   6.324   3.787
 2721SOL    HW2 9063   2.456   6.241   3.679
 2722SOL     OW 9064   3.453   4.744   6.827
 2722SOL    HW1 9065   3.485   4.700   6.911
 2722SOL    HW2 9066   3.353   4.746   6.826
 2723SOL     OW 9067   4.736   4.964   0.407
 2723SOL    HW1 9068   4.800   4.930   0.337
 2723SOL    HW2 9069   4.711   4.889   0.468
 2724SOL     OW 9070   0.287   6.367   1.091
 2724SOL    HW1 9071   0.282   6.398   1.186
 2724SOL    HW2 9072   0.195   6.357   1.054
 2725SOL     OW 9073   6.190   4.076   3.057
 2725SOL    HW1 9074   6.218   3.981   3.043
 2725SOL    HW2 9075   6.127   4.081   3.135
 2726SOL     OW 9076   6.317   2.308   2.365
 2726SOL    HW1 9077   6.300   2.217   2.329
 2726SOL    HW2 9078   6.255   2.326   2.441
 2727SOL     OW 9079   1.476   4.445   3.727
 2727SOL    HW1 9080   1.404   4.404   3.671
 2727SOL    HW2 9081   1.441   4.460   3.820
 2728SOL     OW 9082   4.335   4.103   6.625
 2728SOL    HW1 9083   4.334   4.006   6.649
 2728SOL    HW2 9084   4.360   4.113   6.529
 2729SOL     OW 9085   0.522   0.083   0.907
 2729SOL    HW1 9086   0.618   0.070   0.932
 2729SOL    HW2 9087   0.491   0.005   0.852
 2730SOL     OW 9088   1.166   5.331   3.009
 2730SOL    HW1 9089   1.234   5.285   3.065
 2730SOL    HW2 9090   1.128   5.266   2.943
 2731SOL     OW 9091   3.802   3.883   5.459
 2731SOL    HW1 9092   3.877   3.949   5.467
 2731SOL    HW2 9093   3.831   3.796   5.499
 2732SOL     OW 9094   4.358   0.926   2.115
 2732SOL    HW1 9095   4.261   0.909   2.100
 2732SOL    HW2 9096   4.373   1.024   2.124
 2733SOL     OW 9097   0.490   0.357   0.236
 2733SOL    HW1 9098   0.501   0.343   0.138
 2733SOL    HW2 9099   0.498   0.454   0.257
 2734SOL     OW 9100   3.699   0.141   1.873
 2734SOL    HW1 9101   3.785   0.091   1.863
 2734SOL    HW2 9102   3.626   0.089   1.829
 2735SOL     OW 9103   0.818   2.874   2.985
 2735SOL    HW1 9104   0.816   2.800   3.052
 2735SOL    HW2 9105   0.913   2.894   2.961
 2736SOL     OW 9106   5.405   4.376   1.823
 2736SOL    HW1 9107   5.469   4.429   1.767
 2736SOL    HW2 9108   5.313   4.381   1.783
 2737SOL     OW 9109   2.816   0.469   6.425
 2737SOL    HW1 9110   2.784   0.437   6.514
 2737SOL    HW2 9111   2.795   0.400   6.356
 2738SOL     OW 9112   5.035   5.415   1.704
 2738SOL    HW1 9113   4.958   5.361   1.736
 2738SOL    HW2 9114   5.115   5.356   1.691
 2739SOL     OW 9115   0.664   5.584   1.804
 2739SOL    HW1 9116   0.622   5.647   1.868
 2739SOL    HW2 9117   0.737   5.532   1.850
 2740SOL     OW 9118   6.571   5.884   5.089
 2740SOL    HW1 9119   6.474   5.866   5.075
 2740SOL    HW2 9120   6.602   5.841   5.174
 2741SOL     OW 9121   6.867   6.932   0.337
 2741SOL    HW1 9122   6.782   6.919   0.285
 2741SOL    HW2 9123   6.945   6.908   0.278
 2742SOL     OW 9124   2.757   4.860   1.563
 2742SOL    HW1 9125   2.704   4.895   1.641
 2742SOL    HW2 9126   2.817   4.786   1.594
 2743SOL     OW 9127   4.967   2.091   3.953
 2743SOL    HW1 9128   5.056   2.047   3.960
 2743SOL    HW2 9129   4.944   2.107   3.856
 2744SOL     OW 9130   3.186   3.764   3.296
 2744SOL    HW1 9131   3.141   3.703   3.361
 2744SOL    HW2 9132   3.117   3.813   3.243
 2745SOL     OW 9133   0.892   6.183   6.432
 2745SOL    HW1 9134   0.958   6.109   6.444
 2745SOL    HW2 9135   0.935   6.259   6.383
 2746SOL     OW 9136   1.968   0.864   4.116
 2746SOL    HW1 9137   2.003   0.774   4.090
 2746SOL    HW2 9138   1.984   0.879   4.214
 2747SOL     OW 9139   5.433   5.095   0.624
 2747SOL    HW1 9140   5.375   5.143   0.558
 2747SOL    HW2 9141   5.418   4.996   0.615
 2748SOL     OW 9142   4.367   0.444   0.113
 2748SOL    HW1 9143   4.307   0.426   0.191
 2748SOL    HW2 9144   4.312   0.474   0.035
 2749SOL     OW 9145   4.476   1.021   6.712
 2749SOL    HW1 9146   4.478   0.959   6.633
 2749SOL    HW2 9147   4.409   0.988   6.778
 2750SOL     OW 9148   2.097   6.225   1.574
 2750SOL    HW1 9149   2.040   6.262   1.647
 2750SOL    HW2 9150   2.193   6.225   1.602
 2751SOL     OW 9151   6.697   5.928   2.035
 2751SOL    HW1 9152   6.616   5.890   1.989
 2751SOL    HW2 9153   6.779   5.882   2.001
 2752SOL     OW 9154   3.957   5.464   6.492
 2752SOL    HW1 9155   3.903   5.403   6.434
 2752SOL    HW2 9156   4.045   5.422   6.512
 2753SOL     OW 9157   4.223   4.966   5.018
 2753SOL    HW1 9158   4.303   4.924   5.060
 2753SOL    HW2 9159   4.207   4.925   4.928
 2754SOL     OW 9160   0.948   0.951   4.029
 2754SOL    HW1 9161   0.960   0.891   3.950
 2754SOL    HW2 9162   0.914   0.899   4.107
 2755SOL     OW 9163   3.666   0.626   2.076
 2755SOL    HW1 9164   3.592   0.593   2.017
 2755SOL    HW2 9165   3.739   0.663   2.019
 2756SOL     OW 9166   4.267   5.472   6.074
 2756SOL    HW1 9167   4.218   5.409   6.134
 2756SOL    HW2 9168   4.202   5.530   6.025
 2757SOL     OW 9169   1.366   4.910   0.567
 2757SOL    HW1 9170   1.306   4.985   0.595
 2757SOL    HW2 9171   1.448   4.909   0.626
 2758SOL     OW 9172   5.492   6.983   5.375
 2758SOL    HW1 9173   5.458   0.028   5.433
 2758SOL    HW2 9174   5.427   6.908   5.374
 2759SOL     OW 9175   4.471   4.853   2.808
 2759SOL    HW1 9176   4.549   4.900   2.765
 2759SOL    HW2 9177   4.499   4.760   2.833
 2760SOL     OW 9178   0.580   0.216   3.471
 2760SOL    HW1 9179   0.672   0.247   3.446
 2760SOL    HW2 9180   0.531   0.186   3.389
 2761SOL     OW 9181   2.722   4.778   4.785
 2761SOL    HW1 9182   2.753   4.709   4.850
 2761SOL    HW2 9183   2.799   4.805   4.726
 2762SOL     OW 9184   1.767   2.374   5.654
 2762SOL    HW1 9185   1.672   2.396   5.678
 2762SOL    HW2 9186   1.793   2.424   5.572
 2763SOL     OW 9187   5.971   0.095   1.814
 2763SOL    HW1 9188   5.889   0.076   1.760
 2763SOL    HW2 9189   5.954   0.074   1.910
 2764SOL     OW 9190   6.294   0.333   1.348
 2764SOL    HW1 9191   6.235   0.274   1.404
 2764SOL    HW2 9192   6.351   0.275   1.289
 2765SOL     OW 9193   5.231   1.685   3.251
 2765SOL    HW1 9194   5.276   1.707   3.337
 2765SOL    HW2 9195   5.132   1.699   3.259
 2766SOL     OW 9196   4.795   6.732   2.160
 2766SOL    HW1 9197   4.832   6.805   2.103
 2766SOL    HW2 9198   4.712   6.695   2.117
 2767SOL     OW 9199   6.791   4.117   5.335
 2767SOL    HW1 9200   6.811   4.114   5.433
 2767SOL    HW2 9201   6.711   4.061   5.315
 2768SOL     OW 9202   5.405   0.552   5.734
 2768SOL    HW1 9203   5.360   0.601   5.807
 2768SOL    HW2 9204   5.366   0.460   5.726
 2769SOL     OW 9205   0.933   4.270   2.011
 2769SOL    HW1 9206   0.890   4.181   1.993
 2769SOL    HW2 9207   1.025   4.271   1.972
 2770SOL     OW 9208   4.177   6.570   2.384
 2770SOL    HW1 9209   4.164   6.536   2.290
 2770SOL    HW2 9210   4.259   6.527   2.423
 2771SOL     OW 9211   4.247   0.694   1.298
 2771SOL    HW1 9212   4.210   0.628   1.233
 2771SOL    HW2 9213   4.181   0.768   1.311
 2772SOL     OW 9214   3.481   0.585   0.795
 2772SOL    HW1 9215   3.560   0.564   0.853
 2772SOL    HW2 9216   3.512   0.627   0.710
 2773SOL     OW 9217   3.180   5.345   1.307
 2773SOL    HW1 9218   3.206   5.371   1.214
 2773SOL    HW2 9219   3.262   5.340   1.364
 2774SOL     OW 9220   4.849   2.834   1.883
 2774SOL    HW1 9221   4.836   2.868   1.790
 2774SOL    HW2 9222   4.804   2.896   1.947
 2775SOL     OW 9223   1.037   0.230   1.620
 2775SOL    HW1 9224   0.965   0.290   1.583
 2775SOL    HW2 9225   1.014   0.135   1.600
 2776SOL     OW 9226   2.832   5.639   0.099
 2776SOL    HW1 9227   2.839   5.600   0.007
 2776SOL    HW2 9228   2.759   5.592   0.149
 2777SOL     OW 9229   0.963   2.412   4.304
 2777SOL    HW1 9230   0.947   2.397   4.207
 2777SOL    HW2 9231   0.875   2.426   4.351
 2778SOL     OW 9232   3.407   2.196   5.317
 2778SOL    HW1 9233   3.340   2.259   5.278
 2778SOL    HW2 9234   3.366   2.105   5.325
 2779SOL     OW 9235   6.471   0.502   0.434
 2779SOL    HW1 9236   6.452   0.456   0.521
 2779SOL    HW2 9237   6.388   0.505   0.379
 2780SOL     OW 9238   2.803   6.509   6.078
 2780SOL    HW1 9239   2.879   6.568   6.106
 2780SOL    HW2 9240   2.780   6.527   5.982
 2781SOL     OW 9241   5.587   3.793   6.458
 2781SOL    HW1 9242   5.643   3.761   6.534
 2781SOL    HW2 9243   5.497   3.819   6.492
 2782SOL     OW 9244   3.704   0.301   6.183
 2782SOL    HW1 9245   3.626   0.292   6.245
 2782SOL    HW2 9246   3.695   0.236   6.108
 2783SOL     OW 9247   0.525   3.997   5.477
 2783SOL    HW1 9248   0.615   4.036   5.457
 2783SOL    HW2 9249   0.508   3.919   5.417
 2784SOL     OW 9250   2.943   1.878   1.525
 2784SOL    HW1 9251   2.927   1.843   1.617
 2784SOL    HW2 9252   2.984   1.970   1.531
 2785SOL     OW 9253   5.557   2.781   2.430
 2785SOL    HW1 9254   5.621   2.736   2.367
 2785SOL    HW2 9255   5.471   2.801   2.383
 2786SOL     OW 9256   3.725   0.399   0.711
 2786SOL    HW1 9257   3.803   0.338   0.726
 2786SOL    HW2 9258   3.640   0.347   0.714
 2787SOL     OW 9259   1.652   4.316   5.883
 2787SOL    HW1 9260   1.730   4.346   5.827
 2787SOL    HW2 9261   1.581   4.280   5.823
 2788SOL     OW 9262   2.215   2.160   0.647
 2788SOL    HW1 9263   2.187   2.067   0.672
 2788SOL    HW2 9264   2.179   2.183   0.557
 2789SOL     OW 9265   6.847   3.429   3.184
 2789SOL    HW1 9266   6.791   3.441   3.266
 2789SOL    HW2 9267   6.796   3.461   3.104
 2790SOL     OW 9268   3.201   6.608   5.006
 2790SOL    HW1 9269   3.178   6.511   4.997
 2790SOL    HW2 9270   3.290   6.625   4.963
 2791SOL     OW 9271   2.164   3.686   2.226
 2791SOL    HW1 9272   2.150   3.607   2.166
 2791SOL    HW2 9273   2.248   3.673   2.278
 2792SOL     OW 9274   0.328   1.666   6.039
 2792SOL    HW1 9275   0.311   1.646   5.942
 2792SOL    HW2 9276   0.397   1.737   6.047
 2793SOL     OW 9277   5.412   0.386   5.048
 2793SOL    HW1 9278   5.386   0.365   5.143
 2793SOL    HW2 9279   5.382   0.312   4.988
 2794SOL     OW 9280   0.647   1.349   2.499
 2794SOL    HW1 9281   0.674   1.254   2.480
 2794SOL    HW2 9282   0.629   1.396   2.413
 2795SOL     OW 9283   1.502   3.604   1.006
 2795SOL    HW1 9284   1.498   3.674   1.077
 2795SOL    HW2 9285   1.448   3.524   1.035
 2796SOL     OW 9286   3.905   5.334   2.080
 2796SOL    HW1 9287   3.883   5.400   2.152
 2796SOL    HW2 9288   3.969   5.376   2.016
 2797SOL     OW 9289   5.279   4.659   5.331
 2797SOL    HW1 9290   5.278   4.752   5.368
 2797SOL    HW2 9291   5.295   4.594   5.405
 2798SOL     OW 9292   2.087   3.816   3.107
 2798SOL    HW1 9293   2.125   3.869   3.031
 2798SOL    HW2 9294   2.042   3.734   3.071
 2799SOL     OW 9295   6.906   5.859   0.173
 2799SOL    HW1 9296   6.847   5.781   0.195
 2799SOL    HW2 9297   7.001   5.828   0.167
 2800SOL     OW 9298   2.629   0.798   6.525
 2800SOL    HW1 9299   2.564   0.841   6.587
 2800SOL    HW2 9300   2.721   0.807   6.563
 2801SOL     OW 9301   4.017   5.695   1.921
 2801SOL    HW1 9302   3.948   5.766   1.919
 2801SOL    HW2 9303   4.092   5.723   1.982
 2802SOL     OW 9304   6.335   6.949   6.523
 2802SOL    HW1 9305   6.307   7.010   6.448
 2802SOL    HW2 9306   6.286   6.863   6.516
 2803SOL     OW 9307   3.230   6.236   4.585
 2803SOL    HW1 9308   3.137   6.268   4.597
 2803SOL    HW2 9309   3.242   6.148   4.632
 2804SOL     OW 9310   0.460   5.214   2.469
 2804SOL    HW1 9311   0.547   5.253   2.440
 2804SOL    HW2 9312   0.477   5.137   2.531
 2805SOL     OW 9313   6.806   4.366   6.717
 2805SOL    HW1 9314   6.902   4.357   6.691
 2805SOL    HW2 9315   6.759   4.424   6.651
 2806SOL     OW 9316   5.564   4.094   2.705
 2806SOL    HW1 9317   5.541   4.063   2.612
 2806SOL    HW2 9318   5.505   4.172   2.729
 2807SOL     OW 9319   4.008   4.825   4.193
 2807SOL    HW1 9320   3.916   4.830   4.154
 2807SOL    HW2 9321   4.067   4.771   4.133
 2808SOL     OW 9322   4.548   0.275   4.217
 2808SOL    HW1 9323   4.508   0.366   4.228
 2808SOL    HW2 9324   4.636   0.282   4.169
 2809SOL     OW 9325   5.260   1.660   0.498
 2809SOL    HW1 9326   5.213   1.748   0.498
 2809SOL    HW2 9327   5.228   1.604   0.421
 2810SOL     OW 9328   2.775   0.925   5.978
 2810SOL    HW1 9329   2.720   0.940   5.896
 2810SOL    HW2 9330   2.774   0.829   6.003
 2811SOL     OW 9331   7.019   0.492   4.334
 2811SOL    HW1 9332   6.950   0.424   4.308
 2811SOL    HW2 9333   6.975   0.583   4.339
 2812SOL     OW 9334   4.803   4.217   2.515
 2812SOL    HW1 9335   4.746   4.294   2.486
 2812SOL    HW2 9336   4.894   4.249   2.540
 2813SOL     OW 9337   6.471   1.855   6.260
 2813SOL    HW1 9338   6.510   1.857   6.351
 2813SOL    HW2 9339   6.495   1.770   6.214
 2814SOL     OW 9340   5.821   4.803   5.372
 2814SOL    HW1 9341   5.854   4.710   5.383
 2814SOL    HW2 9342   5.737   4.816   5.426
 2815SOL     OW 9343   1.442   1.183   4.298
 2815SOL    HW1 9344   1.377   1.115   4.265
 2815SOL    HW2 9345   1.535   1.148   4.287
 2816SOL     OW 9346   3.925   6.129   3.338
 2816SOL    HW1 9347   3.950   6.064   3.411
 2816SOL    HW2 9348   3.928   6.082   3.250
 2817SOL     OW 9349   1.419   1.183   1.185
 2817SOL    HW1 9350   1.340   1.243   1.172
 2817SOL    HW2 9351   1.413   1.139   1.275
 2818SOL     OW 9352   1.289   2.196   6.490
 2818SOL    HW1 9353   1.246   2.266   6.547
 2818SOL    HW2 9354   1.241   2.188   6.403
 2819SOL     OW 9355   6.595   3.254   2.239
 2819SOL    HW1 9356   6.500   3.282   2.248
 2819SOL    HW2 9357   6.599   3.163   2.197
 2820SOL     OW 9358   5.519   3.432   3.987
 2820SOL    HW1 9359   5.608   3.464   4.019
 2820SOL    HW2 9360   5.449   3.455   4.054
 2821SOL     OW 9361   1.472   3.302   2.913
 2821SOL    HW1 9362   1.479   3.263   2.822
 2821SOL    HW2 9363   1.564   3.308   2.954
 2822SOL     OW 9364   3.256   2.271   0.402
 2822SOL    HW1 9365   3.245   2.370   0.391
 2822SOL    HW2 9366   3.178   2.224   0.361
 2823SOL     OW 9367   1.554   0.869   4.436
 2823SOL    HW1 9368   1.473   0.911   4.394
 2823SOL    HW2 9369   1.585   0.924   4.513
 2824SOL     OW 9370   3.036   2.951   5.995
 2824SOL    HW1 9371   3.087   2.865   5.987
 2824SOL    HW2 9372   2.977   2.962   5.915
 2825SOL     OW 9373   5.716   6.186   1.031
 2825SOL    HW1 9374   5.733   6.140   1.118
 2825SOL    HW2 9375   5.681   6.278   1.048
 2826SOL     OW 9376   5.982   4.054   5.179
 2826SOL    HW1 9377   5.950   4.102   5.097
 2826SOL    HW2 9378   5.937   3.964   5.185
 2827SOL     OW 9379   0.636   0.119   6.168
 2827SOL    HW1 9380   0.678   0.044   6.219
 2827SOL    HW2 9381   0.707   0.185   6.142
 2828SOL     OW 9382   3.489   2.574   6.194
 2828SOL    HW1 9383   3.499   2.510   6.118
 2828SOL    HW2 9384   3.392   2.586   6.215
 2829SOL     OW 9385   3.192   1.299   0.264
 2829SOL    HW1 9386   3.163   1.254   0.348
 2829SOL    HW2 9387   3.282   1.265   0.237
 2830SOL     OW 9388   3.091   4.017   0.396
 2830SOL    HW1 9389   2.991   4.006   0.389
 2830SOL    HW2 9390   3.132   4.010   0.306
 2831SOL     OW 9391   6.393   6.450   4.303
 2831SOL    HW1 9392   6.410   6.478   4.208
 2831SOL    HW2 9393   6.452   6.502   4.364
 2832SOL     OW 9394   0.622   0.841   2.037
 2832SOL    HW1 9395   0.561   0.871   1.963
 2832SOL    HW2 9396   0.586   0.757   2.078
 2833SOL     OW 9397   5.281   2.739   2.251
 2833SOL    HW1 9398   5.260   2.837   2.246
 2833SOL    HW2 9399   5.198   2.688   2.273
 2834SOL     OW 9400   4.969   0.947   5.072
 2834SOL    HW1 9401   5.013   1.019   5.019
 2834SOL    HW2 9402   4.878   0.977   5.101
 2835SOL     OW 9403   6.423   6.272   3.200
 2835SOL    HW1 9404   6.397   6.360   3.160
 2835SOL    HW2 9405   6.341   6.220   3.222
 2836SOL     OW 9406   6.639   6.643   1.288
 2836SOL    HW1 9407   6.547   6.628   1.325
 2836SOL    HW2 9408   6.652   6.741   1.271
 2837SOL     OW 9409   6.129   2.192   4.602
 2837SOL    HW1 9410   6.145   2.215   4.698
 2837SOL    HW2 9411   6.153   2.270   4.544
 2838SOL     OW 9412   1.984   4.585   4.207
 2838SOL    HW1 9413   2.020   4.678   4.206
 2838SOL    HW2 9414   1.889   4.586   4.177
 2839SOL     OW 9415   5.152   2.930   1.474
 2839SOL    HW1 9416   5.115   2.850   1.521
 2839SOL    HW2 9417   5.134   3.012   1.528
 2840SOL     OW 9418   0.913   2.649   5.146
 2840SOL    HW1 9419   0.844   2.678   5.212
 2840SOL    HW2 9420   0.877   2.661   5.053
 2841SOL     OW 9421   0.313   5.849   0.163
 2841SOL    HW1 9422   0.249   5.876   0.090
 2841SOL    HW2 9423   0.337   5.753   0.152
 2842SOL     OW 9424   5.273   3.050   2.381
 2842SOL    HW1 9425   5.203   3.112   2.344
 2842SOL    HW2 9426   5.238   3.008   2.465
 2843SOL     OW 9427   3.940   0.452   3.763
 2843SOL    HW1 9428   4.024   0.401   3.746
 2843SOL    HW2 9429   3.866   0.389   3.787
 2844SOL     OW 9430   1.663   3.887   4.630
 2844SOL    HW1 9431   1.713   3.834   4.699
 2844SOL    HW2 9432   1.568   3.897   4.657
 2845SOL     OW 9433   1.109   4.319   6.429
 2845SOL    HW1 9434   1.108   4.389   6.501
 2845SOL    HW2 9435   1.191   4.262   6.440
 2846SOL     OW 9436   5.749   0.973   5.774
 2846SOL    HW1 9437   5.778   1.055   5.723
 2846SOL    HW2 9438   5.804   0.895   5.745
 2847SOL     OW 9439   3.753   5.017   4.780
 2847SOL    HW1 9440   3.681   5.067   4.828
 2847SOL    HW2 9441   3.831   5.004   4.841
 2848SOL     OW 9442   2.274   7.007   6.327
 2848SOL    HW1 9443   2.226   6.968   6.405
 2848SOL    HW2 9444   2.217   6.999   6.245
 2849SOL     OW 9445   2.185   2.569   1.561
 2849SOL    HW1 9446   2.100   2.568   1.509
 2849SOL    HW2 9447   2.164   2.576   1.659
 2850SOL     OW 9448   4.554   1.135   0.439
 2850SOL    HW1 9449   4.534   1.045   0.398
 2850SOL    HW2 9450   4.649   1.160   0.417
 2851SOL     OW 9451   3.486   6.341   5.422
 2851SOL    HW1 9452   3.429   6.396   5.362
 2851SOL    HW2 9453   3.455   6.246   5.420
 2852SOL     OW 9454   0.585   2.096   6.231
 2852SOL    HW1 9455   0.585   2.167   6.160
 2852SOL    HW2 9456   0.637   2.129   6.311
 2853SOL     OW 9457   3.738   3.123   1.258
 2853SOL    HW1 9458   3.727   3.080   1.347
 2853SOL    HW2 9459   3.711   3.059   1.186
 2854SOL     OW 9460   0.333   1.639   4.105
 2854SOL    HW1 9461   0.250   1.633   4.161
 2854SOL    HW2 9462   0.411   1.605   4.158
 2855SOL     OW 9463   3.186   2.060   3.407
 2855SOL    HW1 9464   3.111   2.075   3.472
 2855SOL    HW2 9465   3.270   2.042   3.457
 2856SOL     OW 9466   3.417   1.463   5.362
 2856SOL    HW1 9467   3.334   1.496   5.408
 2856SOL    HW2 9468   3.396   1.446   5.265
 2857SOL     OW 9469   3.048   3.664   5.664
 2857SOL    HW1 9470   2.984   3.600   5.623
 2857SOL    HW2 9471   3.071   3.736   5.598
 2858SOL     OW 9472   5.440   2.934   3.051
 2858SOL    HW1 9473   5.478   2.850   3.013
 2858SOL    HW2 9474   5.439   2.928   3.151
 2859SOL     OW 9475   6.497   5.087   0.059
 2859SOL    HW1 9476   6.582   5.119   0.017
 2859SOL    HW2 9477   6.498   4.987   0.065
 2860SOL     OW 9478   4.314   2.347   0.480
 2860SOL    HW1 9479   4.258   2.367   0.561
 2860SOL    HW2 9480   4.392   2.409   0.478
 2861SOL     OW 9481   4.421   4.156   6.069
 2861SOL    HW1 9482   4.334   4.114   6.044
 2861SOL    HW2 9483   4.495   4.109   6.020
 2862SOL     OW 9484   6.635   6.542   3.321
 2862SOL    HW1 9485   6.562   6.609   3.319
 2862SOL    HW2 9486   6.699   6.564   3.395
 2863SOL     OW 9487   6.309   6.252   6.854
 2863SOL    HW1 9488   6.298   6.197   6.937
 2863SOL    HW2 9489   6.380   6.210   6.796
 2864SOL     OW 9490   4.595   2.202   0.077
 2864SOL    HW1 9491   4.669   2.135   0.071
 2864SOL    HW2 9492   4.632   2.290   0.105
 2865SOL     OW 9493   4.927   4.569   5.029
 2865SOL    HW1 9494   4.983   4.506   5.083
 2865SOL    HW2 9495   4.962   4.662   5.038
 2866SOL     OW 9496   0.437   0.162   6.358
 2866SOL    HW1 9497   0.483   0.152   6.445
 2866SOL    HW2 9498   0.501   0.144   6.283
 2867SOL     OW 9499   6.271   3.963   4.858
 2867SOL    HW1 9500   6.197   4.029   4.844
 2867SOL    HW2 9501   6.310   3.937   4.770
 2868SOL     OW 9502   2.086   4.759   4.776
 2868SOL    HW1 9503   2.035   4.710   4.706
 2868SOL    HW2 9504   2.023   4.802   4.840
 2869SOL     OW 9505   5.908   2.032   2.542
 2869SOL    HW1 9506   5.881   2.094   2.468
 2869SOL    HW2 9507   5.899   1.937   2.512
 2870SOL     OW 9508   4.177   1.923   1.478
 2870SOL    HW1 9509   4.179   1.876   1.566
 2870SOL    HW2 9510   4.127   1.867   1.412
 2871SOL     OW 9511   1.150   1.139   5.724
 2871SOL    HW1 9512   1.128   1.190   5.806
 2871SOL    HW2 9513   1.103   1.051   5.724
 2872SOL     OW 9514   1.613   0.167   4.218
 2872SOL    HW1 9515   1.606   0.263   4.244
 2872SOL    HW2 9516   1.546   0.146   4.147
 2873SOL     OW 9517   6.296   5.052   2.401
 2873SOL    HW1 9518   6.312   5.148   2.378
 2873SOL    HW2 9519   6.207   5.023   2.366
 2874SOL     OW 9520   5.097   1.899   1.994
 2874SOL    HW1 9521   5.167   1.887   2.064
 2874SOL    HW2 9522   5.035   1.820   1.996
 2875SOL     OW 9523   2.630   5.245   0.341
 2875SOL    HW1 9524   2.683   5.172   0.298
 2875SOL    HW2 9525   2.549   5.206   0.386
 2876SOL     OW 9526   5.399   1.994   1.636
 2876SOL    HW1 9527   5.388   1.976   1.538
 2876SOL    HW2 9528   5.464   1.928   1.675
 2877SOL     OW 9529   1.158   3.419   5.640
 2877SOL    HW1 9530   1.233   3.404   5.576
 2877SOL    HW2 9531   1.194   3.433   5.732
 2878SOL     OW 9532   5.075   4.895   0.897
 2878SOL    HW1 9533   5.164   4.854   0.874
 2878SOL    HW2 9534   5.048   4.959   0.825
 2879SOL     OW 9535   5.329   4.823   0.140
 2879SOL    HW1 9536   5.319   4.738   0.089
 2879SOL    HW2 9537   5.286   4.814   0.229
 2880SOL     OW 9538   1.655   0.645   4.021
 2880SOL    HW1 9539   1.579   0.625   4.083
 2880SOL    HW2 9540   1.636   0.729   3.970
 2881SOL     OW 9541   0.132   0.342   7.013
 2881SOL    HW1 9542   0.112   0.406   0.059
 2881SOL    HW2 9543   0.114   0.387   6.925
 2882SOL     OW 9544   6.489   4.571   3.094
 2882SOL    HW1 9545   6.460   4.618   3.177
 2882SOL    HW2 9546   6.511   4.476   3.116
 2883SOL     OW 9547   3.189   6.609   2.298
 2883SOL    HW1 9548   3.250   6.637   2.224
 2883SOL    HW2 9549   3.195   6.675   2.373
 2884SOL     OW 9550   2.232   4.755   3.124
 2884SOL    HW1 9551   2.203   4.694   3.198
 2884SOL    HW2 9552   2.235   4.704   3.038
 2885SOL     OW 9553   1.079   2.004   4.059
 2885SOL    HW1 9554   1.134   1.950   4.123
 2885SOL    HW2 9555   1.008   2.053   4.110
 2886SOL     OW 9556   2.859   2.392   6.261
 2886SOL    HW1 9557   2.769   2.412   6.222
 2886SOL    HW2 9558   2.862   2.424   6.356
 2887SOL     OW 9559   2.250   0.309   5.328
 2887SOL    HW1 9560   2.212   0.257   5.252
 2887SOL    HW2 9561   2.208   0.400   5.330
 2888SOL     OW 9562   0.356   5.292   6.853
 2888SOL    HW1 9563   0.311   5.304   6.765
 2888SOL    HW2 9564   0.423   5.366   6.866
 2889SOL     OW 9565   1.211   1.360   0.645
 2889SOL    HW1 9566   1.289   1.337   0.703
 2889SOL    HW2 9567   1.126   1.353   0.697
 2890SOL     OW 9568   2.323   0.556   0.386
 2890SOL    HW1 9569   2.227   0.575   0.406
 2890SOL    HW2 9570   2.378   0.638   0.404
 2891SOL     OW 9571   3.017   4.769   5.301
 2891SOL    HW1 9572   2.985   4.686   5.256
 2891SOL    HW2 9573   2.970   4.781   5.388
 2892SOL     OW 9574   4.036   4.087   5.378
 2892SOL    HW1 9575   4.112   4.151   5.370
 2892SOL    HW2 9576   4.058   4.003   5.329
 2893SOL     OW 9577   2.903   0.717   4.989
 2893SOL    HW1 9578   2.931   0.812   5.003
 2893SOL    HW2 9579   2.983   0.657   4.997
 2894SOL     OW 9580   3.813   2.975   2.324
 2894SOL    HW1 9581   3.902   2.944   2.290
 2894SOL    HW2 9582   3.741   2.913   2.292
 2895SOL     OW 9583   3.631   2.786   6.954
 2895SOL    HW1 9584   3.532   2.794   6.960
 2895SOL    HW2 9585   3.657   2.766   6.860
 2896SOL     OW 9586   1.063   4.961   0.324
 2896SOL    HW1 9587   0.970   4.926   0.329
 2896SOL    HW2 9588   1.110   4.920   0.246
 2897SOL     OW 9589   0.180   0.491   3.110
 2897SOL    HW1 9590   0.268   0.527   3.079
 2897SOL    HW2 9591   0.107   0.533   3.056
 2898SOL     OW 9592   1.811   4.892   2.699
 2898SOL    HW1 9593   1.753   4.834   2.754
 2898SOL    HW2 9594   1.853   4.963   2.757
 2899SOL     OW 9595   5.162   1.266   0.837
 2899SOL    HW1 9596   5.071   1.250   0.877
 2899SOL    HW2 9597   5.156   1.338   0.768
 2900SOL     OW 9598   2.165   5.563   6.590
 2900SOL    HW1 9599   2.244   5.520   6.545
 2900SOL    HW2 9600   2.167   5.541   6.688
 2901SOL     OW 9601   2.863   0.088   0.966
 2901SOL    HW1 9602   2.843   0.028   0.888
 2901SOL    HW2 9603   2.948   0.059   1.009
 2902SOL     OW 9604   4.583   4.918   1.592
 2902SOL    HW1 9605   4.619   4.988   1.531
 2902SOL    HW2 9606   4.636   4.834   1.581
 2903SOL     OW 9607   3.008   2.284   1.692
 2903SOL    HW1 9608   2.951   2.352   1.737
 2903SOL    HW2 9609   3.104   2.305   1.708
 2904SOL     OW 9610   2.998   2.220   4.476
 2904SOL    HW1 9611   3.057   2.300   4.471
 2904SOL    HW2 9612   2.950   2.219   4.564
 2905SOL     OW 9613   0.784   2.337   2.318
 2905SOL    HW1 9614   0.702   2.284   2.339
 2905SOL    HW2 9615   0.847   2.334   2.396
 2906SOL     OW 9616   5.253   5.338   2.742
 2906SOL    HW1 9617   5.286   5.431   2.759
 2906SOL    HW2 9618   5.310   5.273   2.792
 2907SOL     OW 9619   6.248   0.406   4.242
 2907SOL    HW1 9620   6.174   0.365   4.189
 2907SOL    HW2 9621   6.218   0.421   4.336
 2908SOL     OW 9622   4.463   5.901   4.631
 2908SOL    HW1 9623   4.468   5.850   4.716
 2908SOL    HW2 9624   4.432   5.840   4.557
 2909SOL     OW 9625   2.175   6.413   6.468
 2909SOL    HW1 9626   2.210   6.420   6.562
 2909SOL    HW2 9627   2.240   6.361   6.412
 2910SOL     OW 9628   4.108   5.208   5.433
 2910SOL    HW1 9629   4.151   5.233   5.346
 2910SOL    HW2 9630   4.069   5.290   5.475
 2911SOL     OW 9631   2.757   4.910   2.909
 2911SOL    HW1 9632   2.726   4.844   2.841
 2911SOL    HW2 9633   2.680   4.936   2.967
 2912SOL     OW 9634   3.118   5.240   0.872
 2912SOL    HW1 9635   3.059   5.253   0.952
 2912SOL    HW2 9636   3.169   5.154   0.882
 2913SOL     OW 9637   0.074   2.331   1.402
 2913SOL    HW1 9638   0.082   2.317   1.303
 2913SOL    HW2 9639   7.014   2.297   1.433
 2914SOL     OW 9640   5.127   4.748   6.428
 2914SOL    HW1 9641   5.070   4.814   6.476
 2914SOL    HW2 9642   5.089   4.656   6.439
 2915SOL     OW 9643   4.546   0.798   2.868
 2915SOL    HW1 9644   4.580   0.791   2.962
 2915SOL    HW2 9645   4.572   0.887   2.830
 2916SOL     OW 9646   5.103   0.711   4.183
 2916SOL    HW1 9647   5.187   0.764   4.186
 2916SOL    HW2 9648   5.037   0.756   4.123
 2917SOL     OW 9649   3.904   0.468   2.570
 2917SOL    HW1 9650   3.821   0.509   2.608
 2917SOL    HW2 9651   3.959   0.539   2.526
 2918SOL     OW 9652   1.385   3.037   4.483
 2918SOL    HW1 9653   1.400   2.939   4.492
 2918SOL    HW2 9654   1.441   3.086   4.549
 2919SOL     OW 9655   6.008   5.239   0.310
 2919SOL    HW1 9656   5.991   5.144   0.284
 2919SOL    HW2 9657   5.957   5.300   0.249
 2920SOL     OW 9658   4.654   1.497   2.747
 2920SOL    HW1 9659   4.663   1.442   2.663
 2920SOL    HW2 9660   4.730   1.477   2.808
 2921SOL     OW 9661   6.413   0.957   6.936
 2921SOL    HW1 9662   6.418   0.987   6.841
 2921SOL    HW2 9663   6.447   1.029   6.996
 2922SOL     OW 9664   4.635   0.494   3.922
 2922SOL    HW1 9665   4.725   0.449   3.920
 2922SOL    HW2 9666   4.637   0.570   3.987
 2923SOL     OW 9667   0.064   4.025   0.689
 2923SOL    HW1 9668   0.002   3.994   0.617
 2923SOL    HW2 9669   0.139   4.078   0.648
 2924SOL     OW 9670   6.341   6.418   6.584
 2924SOL    HW1 9671   6.399   6.348   6.625
 2924SOL    HW2 9672   6.269   6.375   6.530
 2925SOL     OW 9673   6.639   4.531   0.780
 2925SOL    HW1 9674   6.571   4.604   0.765
 2925SOL    HW2 9675   6.718   4.547   0.722
 2926SOL     OW 9676   6.828   1.434   2.814
 2926SOL    HW1 9677   6.876   1.348   2.800
 2926SOL    HW2 9678   6.734   1.426   2.780
 2927SOL     OW 9679   6.807   3.040   3.243
 2927SOL    HW1 9680   6.901   3.075   3.236
 2927SOL    HW2 9681   6.809   2.941   3.251
 2928SOL     OW 9682   5.600   5.880   0.688
 2928SOL    HW1 9683   5.653   5.816   0.744
 2928SOL    HW2 9684   5.531   5.925   0.744
 2929SOL     OW 9685   0.030   0.551   5.668
 2929SOL    HW1 9686   0.030   0.535   5.767
 2929SOL    HW2 9687   6.967   0.577   5.639
 2930SOL     OW 9688   2.512   0.030   4.343
 2930SOL    HW1 9689   2.415   0.047   4.324
 2930SOL    HW2 9690   2.546   0.101   4.405
 2931SOL     OW 9691   4.992   4.504   6.479
 2931SOL    HW1 9692   4.910   4.446   6.470
 2931SOL    HW2 9693   5.040   4.481   6.564
 2932SOL     OW 9694   0.621   5.123   1.815
 2932SOL    HW1 9695   0.668   5.109   1.902
 2932SOL    HW2 9696   0.608   5.221   1.799
 2933SOL     OW 9697   4.019   2.112   3.205
 2933SOL    HW1 9698   4.108   2.128   3.162
 2933SOL    HW2 9699   4.030   2.103   3.304
 2934SOL     OW 9700   1.679   1.292   1.249
 2934SOL    HW1 9701   1.632   1.378   1.268
 2934SOL    HW2 9702   1.612   1.220   1.233
 2935SOL     OW 9703   6.747   1.065   0.888
 2935SOL    HW1 9704   6.833   1.069   0.836
 2935SOL    HW2 9705   6.670   1.065   0.825
 2936SOL     OW 9706   4.141   4.393   1.435
 2936SOL    HW1 9707   4.129   4.481   1.389
 2936SOL    HW2 9708   4.061   4.375   1.493
 2937SOL     OW 9709   2.442   4.316   0.810
 2937SOL    HW1 9710   2.488   4.293   0.724
 2937SOL    HW2 9711   2.498   4.381   0.862
 2938SOL     OW 9712   4.848   5.782   0.008
 2938SOL    HW1 9713   4.761   5.778   6.989
 2938SOL    HW2 9714   4.918   5.736   6.982
 2939SOL     OW 9715   6.704   6.358   6.704
 2939SOL    HW1 9716   6.659   6.357   6.794
 2939SOL    HW2 9717   6.708   6.264   6.668
 2940SOL     OW 9718   3.868   6.875   5.452
 2940SOL    HW1 9719   3.925   6.824   5.516
 2940SOL    HW2 9720   3.849   6.818   5.372
 2941SOL     OW 9721   4.061   1.180   5.411
 2941SOL    HW1 9722   3.975   1.231   5.403
 2941SOL    HW2 9723   4.125   1.231   5.469
 2942SOL     OW 9724   2.834   6.422   3.833
 2942SOL    HW1 9725   2.894   6.363   3.888
 2942SOL    HW2 9726   2.832   6.389   3.739
 2943SOL     OW 9727   5.214   4.489   3.074
 2943SOL    HW1 9728   5.179   4.577   3.103
 2943SOL    HW2 9729   5.139   4.423   3.069
 2944SOL     OW 9730   5.475   5.272   0.813
 2944SOL    HW1 9731   5.530   5.230   0.885
 2944SOL    HW2 9732   5.451   5.203   0.744
 2945SOL     OW 9733   3.305   3.760   4.344
 2945SOL    HW1 9734   3.247   3.840   4.326
 2945SOL    HW2 9735   3.251   3.689   4.388
 2946SOL     OW 9736   1.646   6.342   5.282
 2946SOL    HW1 9737   1.565   6.395   5.255
 2946SOL    HW2 9738   1.724   6.369   5.225
 2947SOL     OW 9739   0.417   5.122   0.041
 2947SOL    HW1 9740   0.403   5.178   0.122
 2947SOL    HW2 9741   0.381   5.169   6.990
 2948SOL     OW 9742   6.776   3.202   4.989
 2948SOL    HW1 9743   6.724   3.265   4.931
 2948SOL    HW2 9744   6.802   3.247   5.074
 2949SOL     OW 9745   0.717   6.789   1.162
 2949SOL    HW1 9746   0.811   6.767   1.190
 2949SOL    HW2 9747   0.691   6.733   1.084
 2950SOL     OW 9748   5.472   4.004   4.813
 2950SOL    HW1 9749   5.421   3.936   4.761
 2950SOL    HW2 9750   5.507   3.962   4.897
 2951SOL     OW 9751   6.615   0.644   0.066
 2951SOL    HW1 9752   6.638   0.604   7.006
 2951SOL    HW2 9753   6.522   0.617   0.093
 2952SOL     OW 9754   0.488   3.743   1.778
 2952SOL    HW1 9755   0.568   3.755   1.837
 2952SOL    HW2 9756   0.517   3.700   1.692
 2953SOL     OW 9757   5.688   1.524   1.680
 2953SOL    HW1 9758   5.718   1.498   1.589
 2953SOL    HW2 9759   5.602   1.478   1.702
 2954SOL     OW 9760   4.978   6.356   2.067
 2954SOL    HW1 9761   4.933   6.357   1.977
 2954SOL    HW2 9762   4.968   6.446   2.110
 2955SOL     OW 9763   5.499   1.861   1.410
 2955SOL    HW1 9764   5.592   1.845   1.443
 2955SOL    HW2 9765   5.473   1.787   1.348
 2956SOL     OW 9766   5.065   6.095   3.191
 2956SOL    HW1 9767   5.096   6.188   3.212
 2956SOL    HW2 9768   5.059   6.042   3.276
 2957SOL     OW 9769   0.738   5.207   1.159
 2957SOL    HW1 9770   0.797   5.286   1.174
 2957SOL    HW2 9771   0.644   5.237   1.143
 2958SOL     OW 9772   1.985   4.865   6.487
 2958SOL    HW1 9773   2.010   4.945   6.540
 2958SOL    HW2 9774   1.887   4.847   6.498
 2959SOL     OW 9775   3.045   5.842   6.498
 2959SOL    HW1 9776   3.143   5.841   6.479
 2959SOL    HW2 9777   2.994   5.854   6.412
 2960SOL     OW 9778   3.440   1.139   6.905
 2960SOL    HW1 9779   3.492   1.082   6.968
 2960SOL    HW2 9780   3.498   1.213   6.871
 2961SOL     OW 9781   5.727   1.167   3.668
 2961SOL    HW1 9782   5.647   1.217   3.635
 2961SOL    HW2 9783   5.809   1.224   3.657
 2962SOL     OW 9784   4.288   0.127   2.348
 2962SOL    HW1 9785   4.268   0.029   2.343
 2962SOL    HW2 9786   4.376   0.141   2.393
 2963SOL     OW 9787   2.395   2.677   4.441
 2963SOL    HW1 9788   2.434   2.655   4.351
 2963SOL    HW2 9789   2.450   2.635   4.512
 2964SOL     OW 9790   2.299   6.030   6.988
 2964SOL    HW1 9791   2.387   6.017   0.004
 2964SOL    HW2 9792   2.231   6.057   0.026
 2965SOL     OW 9793   0.977   2.826   5.831
 2965SOL    HW1 9794   0.970   2.886   5.911
 2965SOL    HW2 9795   1.064   2.776   5.835
 2966SOL     OW 9796   4.787   5.313   2.439
 2966SOL    HW1 9797   4.877   5.329   2.480
 2966SOL    HW2 9798   4.736   5.398   2.435
 2967SOL     OW 9799   5.649   3.106   4.704
 2967SOL    HW1 9800   5.667   3.016   4.743
 2967SOL    HW2 9801   5.722   3.169   4.729
 2968SOL     OW 9802   6.578   4.403   4.377
 2968SOL    HW1 9803   6.488   4.360   4.377
 2968SOL    HW2 9804   6.649   4.334   4.362
 2969SOL     OW 9805   3.808   1.302   5.361
 2969SOL    HW1 9806   3.880   1.369   5.339
 2969SOL    HW2 9807   3.754   1.336   5.438
 2970SOL     OW 9808   1.086   4.366   6.152
 2970SOL    HW1 9809   1.178   4.383   6.119
 2970SOL    HW2 9810   1.089   4.334   6.246
 2971SOL     OW 9811   5.694   2.914   1.576
 2971SOL    HW1 9812   5.695   3.014   1.586
 2971SOL    HW2 9813   5.637   2.874   1.648
 2972SOL     OW 9814   0.899   4.583   4.246
 2972SOL    HW1 9815   0.906   4.663   4.186
 2972SOL    HW2 9816   0.811   4.585   4.295
 2973SOL     OW 9817   6.138   6.954   4.100
 2973SOL    HW1 9818   6.177   6.898   4.026
 2973SOL    HW2 9819   6.136   0.021   4.072
 2974SOL     OW 9820   6.087   4.045   1.059
 2974SOL    HW1 9821   6.187   4.038   1.062
 2974SOL    HW2 9822   6.056   4.112   1.126
 2975SOL     OW 9823   6.161   1.993   3.889
 2975SOL    HW1 9824   6.129   1.916   3.945
 2975SOL    HW2 9825   6.177   1.961   3.795
 2976SOL     OW 9826   2.259   5.706   1.344
 2976SOL    HW1 9827   2.348   5.744   1.366
 2976SOL    HW2 9828   2.254   5.612   1.379
 2977SOL     OW 9829   1.966   0.143   3.444
 2977SOL    HW1 9830   1.998   0.094   3.364
 2977SOL    HW2 9831   2.031   0.131   3.519
 2978SOL     OW 9832   1.934   0.224   6.450
 2978SOL    HW1 9833   2.011   0.287   6.438
 2978SOL    HW2 9834   1.874   0.258   6.522
 2979SOL     OW 9835   2.111   0.888   3.086
 2979SOL    HW1 9836   2.200   0.846   3.071
 2979SOL    HW2 9837   2.063   0.897   2.999
 2980SOL     OW 9838   5.860   0.127   3.331
 2980SOL    HW1 9839   5.799   0.053   3.357
 2980SOL    HW2 9840   5.890   0.177   3.412
 2981SOL     OW 9841   0.786   0.854   5.757
 2981SOL    HW1 9842   0.748   0.767   5.726
 2981SOL    HW2 9843   0.731   0.929   5.721
 2982SOL     OW 9844   5.266   5.887   2.148
 2982SOL    HW1 9845   5.252   5.964   2.086
 2982SOL    HW2 9846   5.355   5.895   2.192
 2983SOL     OW 9847   0.498   1.546   3.010
 2983SOL    HW1 9848   0.499   1.513   3.105
 2983SOL    HW2 9849   0.567   1.496   2.957
 2984SOL     OW 9850   6.281   4.248   1.761
 2984SOL    HW1 9851   6.274   4.288   1.852
 2984SOL    HW2 9852   6.202   4.275   1.706
 2985SOL     OW 9853   6.480   2.257   3.114
 2985SOL    HW1 9854   6.414   2.249   3.039
 2985SOL    HW2 9855   6.573   2.254   3.078
 2986SOL     OW 9856   1.923   3.286   4.554
 2986SOL    HW1 9857   2.008   3.239   4.531
 2986SOL    HW2 9858   1.911   3.287   4.653
 2987SOL     OW 9859   5.230   1.618   4.688
 2987SOL    HW1 9860   5.273   1.693   4.739
 2987SOL    HW2 9861   5.192   1.655   4.603
 2988SOL     OW 9862   0.174   1.352   2.599
 2988SOL    HW1 9863   0.164   1.447   2.630
 2988SOL    HW2 9864   0.250   1.309   2.648
 2989SOL     OW 9865   0.050   4.926   0.928
 2989SOL    HW1 9866   0.003   4.961   1.009
 2989SOL    HW2 9867   0.141   4.966   0.923
 2990SOL     OW 9868   2.744   1.079   0.898
 2990SOL    HW1 9869   2.837   1.087   0.863
 2990SOL    HW2 9870   2.736   0.997   0.954
 2991SOL     OW 9871   5.860   4.186   0.229
 2991SOL    HW1 9872   5.945   4.235   0.250
 2991SOL    HW2 9873   5.807   4.174   0.313
 2992SOL     OW 9874   3.692   4.968   6.410
 2992SOL    HW1 9875   3.649   4.918   6.485
 2992SOL    HW2 9876   3.622   4.999   6.346
 2993SOL     OW 9877   1.007   3.634   0.252
 2993SOL    HW1 9878   0.951   3.713   0.274
 2993SOL    HW2 9879   1.075   3.659   0.183
 2994SOL     OW 9880   4.072   6.690   6.405
 2994SOL    HW1 9881   4.079   6.789   6.396
 2994SOL    HW2 9882   4.048   6.667   6.499
 2995SOL     OW 9883   2.488   0.741   5.270
 2995SOL    HW1 9884   2.530   0.832   5.267
 2995SOL    HW2 9885   2.507   0.693   5.184
 2996SOL     OW 9886   4.603   6.594   6.388
 2996SOL    HW1 9887   4.540   6.594   6.310
 2996SOL    HW2 9888   4.646   6.684   6.397
 2997SOL     OW 9889   3.528   5.683   0.455
 2997SOL    HW1 9890   3.460   5.694   0.382
 2997SOL    HW2 9891   3.605   5.744   0.438
 2998SOL     OW 9892   6.453   3.979   6.052
 2998SOL    HW1 9893   6.404   4.052   6.005
 2998SOL    HW2 9894   6.550   4.004   6.062
 2999SOL     OW 9895   2.905   1.376   1.127
 2999SOL    HW1 9896   2.813   1.379   1.165
 2999SOL    HW2 9897   2.941   1.469   1.117
 3000SOL     OW 9898   1.343   1.864   5.431
 3000SOL    HW1 9899   1.397   1.797   5.380
 3000SOL    HW2 9900   1.369   1.956   5.402
 3001SOL     OW 9901   4.874   5.960   6.053
 3001SOL    HW1 9902   4.962   5.991   6.088
 3001SOL    HW2 9903   4.889   5.890   5.983
 3002SOL     OW 9904   3.701   0.428   5.382
 3002SOL    HW1 9905   3.659   0.340   5.361
 3002SOL    HW2 9906   3.719   0.434   5.480
 3003SOL     OW 9907   1.317   0.628   5.735
 3003SOL    HW1 9908   1.360   0.649   5.647
 3003SOL    HW2 9909   1.389   0.611   5.803
 3004SOL     OW 9910   0.204   3.707   6.332
 3004SOL    HW1 9911   0.246   3.645   6.398
 3004SOL    HW2 9912   0.245   3.692   6.242
 3005SOL     OW 9913   4.525   2.136   1.124
 3005SOL    HW1 9914   4.473   2.206   1.075
 3005SOL    HW2 9915   4.587   2.180   1.189
 3006SOL     OW 9916   3.980   6.214   2.352
 3006SOL    HW1 9917   4.068   6.197   2.305
 3006SOL    HW2 9918   3.934   6.127   2.368
 3007SOL     OW 9919   5.493   5.203   1.904
 3007SOL    HW1 9920   5.545   5.288   1.900
 3007SOL    HW2 9921   5.411   5.212   1.848
 3008SOL     OW 9922   4.899   4.960   5.649
 3008SOL    HW1 9923   4.947   5.048   5.655
 3008SOL    HW2 9924   4.810   4.968   5.695
 3009SOL     OW 9925   1.837   0.557   1.856
 3009SOL    HW1 9926   1.818   0.560   1.758
 3009SOL    HW2 9927   1.750   0.553   1.906
 3010SOL     OW 9928   3.431   0.893   3.851
 3010SOL    HW1 9929   3.356   0.846   3.898
 3010SOL    HW2 9930   3.495   0.930   3.918
 3011SOL     OW 9931   5.618   0.101   0.216
 3011SOL    HW1 9932   5.555   0.046   0.162
 3011SOL    HW2 9933   5.674   0.157   0.156
 3012SOL     OW 9934   0.113   5.105   1.597
 3012SOL    HW1 9935   0.180   5.148   1.536
 3012SOL    HW2 9936   0.152   5.094   1.688
 3013SOL     OW 9937   5.674   5.130   1.518
 3013SOL    HW1 9938   5.709   5.223   1.530
 3013SOL    HW2 9939   5.715   5.070   1.587
 3014SOL     OW 9940   5.452   5.417   5.418
 3014SOL    HW1 9941   5.425   5.356   5.343
 3014SOL    HW2 9942   5.370   5.463   5.454
 3015SOL     OW 9943   3.428   1.324   0.582
 3015SOL    HW1 9944   3.420   1.419   0.551
 3015SOL    HW2 9945   3.445   1.265   0.504
 3016SOL     OW 9946   4.198   6.366   4.332
 3016SOL    HW1 9947   4.109   6.358   4.286
 3016SOL    HW2 9948   4.196   6.315   4.418
 3017SOL     OW 9949   0.597   6.452   2.518
 3017SOL    HW1 9950   0.686   6.427   2.479
 3017SOL    HW2 9951   0.603   6.543   2.558
 3018SOL     OW 9952   4.157   6.814   5.900
 3018SOL    HW1 9953   4.174   6.757   5.981
 3018SOL    HW2 9954   4.159   6.757   5.818
 3019SOL     OW 9955   4.876   0.858   1.554
 3019SOL    HW1 9956   4.849   0.887   1.646
 3019SOL    HW2 9957   4.807   0.795   1.518
 3020SOL     OW 9958   2.039   0.141   1.711
 3020SOL    HW1 9959   2.119   0.135   1.653
 3020SOL    HW2 9960   1.999   0.050   1.723
 3021SOL     OW 9961   4.359   0.275   6.272
 3021SOL    HW1 9962   4.330   0.294   6.366
 3021SOL    HW2 9963   4.290   0.310   6.209
 3022SOL     OW 9964   6.881   0.440   3.195
 3022SOL    HW1 9965   6.865   0.385   3.276
 3022SOL    HW2 9966   6.930   0.386   3.126
 3023SOL     OW 9967   5.495   0.193   1.872
 3023SOL    HW1 9968   5.578   0.166   1.822
 3023SOL    HW2 9969   5.442   0.257   1.816
 3024SOL     OW 9970   1.724   6.759   0.087
 3024SOL    HW1 9971   1.725   6.816   0.169
 3024SOL    HW2 9972   1.749   6.815   0.008
 3025SOL     OW 9973   1.710   2.314   2.351
 3025SOL    HW1 9974   1.741   2.255   2.425
 3025SOL    HW2 9975   1.641   2.266   2.297
 3026SOL     OW 9976   2.882   5.613   0.541
 3026SOL    HW1 9977   2.802   5.659   0.580
 3026SOL    HW2 9978   2.896   5.526   0.587
 3027SOL     OW 9979   0.844   2.445   4.053
 3027SOL    HW1 9980   0.757   2.407   4.085
 3027SOL    HW2 9981   0.864   2.411   3.961
 3028SOL     OW 9982   1.803   0.743   4.457
 3028SOL    HW1 9983   1.843   0.694   4.380
 3028SOL    HW2 9984   1.711   0.775   4.433
 3029SOL     OW 9985   6.302   5.151   5.948
 3029SOL    HW1 9986   6.376   5.160   6.015
 3029SOL    HW2 9987   6.313   5.065   5.898
 3030SOL     OW 9988   0.441   1.188   5.971
 3030SOL    HW1 9989   0.395   1.186   6.060
 3030SOL    HW2 9990   0.390   1.249   5.909
 3031SOL     OW 9991   7.018   4.950   5.957
 3031SOL    HW1 9992   6.984   5.027   6.010
 3031SOL    HW2 9993   0.083   4.928   5.985
 3032SOL     OW 9994   4.190   0.275   5.612
 3032SOL    HW1 9995   4.112   0.336   5.602
 3032SOL    HW2 9996   4.216   0.269   5.708
 3033SOL     OW 9997   4.894   4.126   6.165
 3033SOL    HW1 9998   4.980   4.104   6.211
 3033SOL    HW2 9999   4.895   4.221   6.135
 3034SOL     OW10000   2.924   6.578   5.024
 3034SOL    HW110001   2.930   6.493   5.077
 3034SOL    HW210002   2.996   6.641   5.053
 3035SOL     OW10003   5.909   6.187   6.956
 3035SOL    HW110004   5.815   6.155   6.960
 3035SOL    HW210005   5.929   6.222   6.864
 3036SOL     OW10006   0.187   4.767   5.435
 3036SOL    HW110007   0.170   4.672   5.459
 3036SOL    HW210008   0.106   4.805   5.390
 3037SOL     OW10009   5.291   6.191   6.469
 3037SOL    HW110010   5.264   6.178   6.564
 3037SOL    HW210011   5.217   6.238   6.420
 3038SOL     OW10012   5.786   5.491   5.235
 3038SOL    HW110013   5.737   5.404   5.235
 3038SOL    HW210014   5.774   5.536   5.324
 3039SOL     OW10015   0.538   4.633   0.802
 3039SOL    HW110016   0.492   4.549   0.772
 3039SOL    HW210017   0.470   4.697   0.837
 3040SOL     OW10018   2.522   0.757   0.356
 3040SOL    HW110019   2.490   0.851   0.341
 3040SOL    HW210020   2.564   0.722   0.273
 3041SOL     OW10021   2.066   1.879   5.998
 3041SOL    HW110022   2.110   1.799   5.957
 3041SOL    HW210023   2.129   1.957   5.994
 3042SOL     OW10024   5.317   0.220   1.100
 3042SOL    HW110025   5.326   0.259   1.192
 3042SOL    HW210026   5.246   0.150   1.100
 3043SOL     OW10027   0.437   4.631   6.873
 3043SOL    HW110028   0.473   4.566   6.940
 3043SOL    HW210029   0.436   4.723   6.914
 3044SOL     OW10030   2.413   2.963   6.934
 3044SOL    HW110031   2.446   3.033   6.871
 3044SOL    HW210032   2.348   3.004   6.998
 3045SOL     OW10033   4.416   2.426   4.605
 3045SOL    HW110034   4.378   2.390   4.690
 3045SOL    HW210035   4.383   2.372   4.528
 3046SOL     OW10036   2.655   2.505   5.707
 3046SOL    HW110037   2.728   2.572   5.711
 3046SOL    HW210038   2.655   2.460   5.618
 3047SOL     OW10039   6.747   5.173   1.982
 3047SOL    HW110040   6.754   5.076   1.958
 3047SOL    HW210041   6.812   5.194   2.055
 3048SOL     OW10042   3.380   3.084   2.351
 3048SOL    HW110043   3.311   3.155   2.366
 3048SOL    HW210044   3.468   3.126   2.330
 3049SOL     OW10045   0.674   0.848   0.853
 3049SOL    HW110046   0.703   0.760   0.892
 3049SOL    HW210047   0.622   0.832   0.769
 3050SOL     OW10048   1.435   0.351   4.639
 3050SOL    HW110049   1.402   0.396   4.722
 3050SOL    HW210050   1.437   0.417   4.564
 3051SOL     OW10051   2.643   5.300   5.248
 3051SOL    HW110052   2.621   5.202   5.250
 3051SOL    HW210053   2.583   5.348   5.312
 3052SOL     OW10054   4.795   6.248   2.447
 3052SOL    HW110055   4.795   6.302   2.363
 3052SOL    HW210056   4.807   6.309   2.525
 3053SOL     OW10057   3.619   6.157   1.880
 3053SOL    HW110058   3.549   6.087   1.866
 3053SOL    HW210059   3.614   6.225   1.807
 3054SOL     OW10060   1.619   4.535   5.088
 3054SOL    HW110061   1.622   4.547   4.989
 3054SOL    HW210062   1.595   4.440   5.109
 3055SOL     OW10063   6.067   6.842   2.691
 3055SOL    HW110064   6.031   6.927   2.729
 3055SOL    HW210065   6.037   6.765   2.746
 3056SOL     OW10066   5.092   0.767   2.441
 3056SOL    HW110067   5.069   0.747   2.536
 3056SOL    HW210068   5.082   0.865   2.423
 3057SOL     OW10069   6.963   4.406   2.481
 3057SOL    HW110070   6.997   4.485   2.532
 3057SOL    HW210071   0.003   4.377   2.414
 3058SOL     OW10072   5.593   7.023   1.319
 3058SOL    HW110073   5.693   7.024   1.323
 3058SOL    HW210074   5.562   0.044   1.238
 3059SOL     OW10075   2.352   2.589   0.129
 3059SOL    HW110076   2.402   2.675   0.127
 3059SOL    HW210077   2.349   2.550   0.037
 3060SOL     OW10078   0.364   6.029   6.925
 3060SOL    HW110079   0.400   6.026   6.832
 3060SOL    HW210080   0.290   5.963   6.934
 3061SOL     OW10081   6.609   0.736   5.745
 3061SOL    HW110082   6.544   0.768   5.677
 3061SOL    HW210083   6.563   0.722   5.833
 3062SOL     OW10084   3.606   5.792   6.172
 3062SOL    HW110085   3.538   5.785   6.099
 3062SOL    HW210086   3.588   5.874   6.226
 3063SOL     OW10087   3.019   6.256   1.294
 3063SOL    HW110088   3.097   6.264   1.231
 3063SOL    HW210089   2.988   6.347   1.320
 3064SOL     OW10090   6.609   4.714   2.891
 3064SOL    HW110091   6.673   4.667   2.829
 3064SOL    HW210092   6.567   4.647   2.952
 3065SOL     OW10093   3.452   1.454   1.622
 3065SOL    HW110094   3.373   1.421   1.570
 3065SOL    HW210095   3.499   1.525   1.569
 3066SOL     OW10096   6.104   5.354   0.869
 3066SOL    HW110097   6.026   5.324   0.814
 3066SOL    HW210098   6.160   5.274   0.892
 3067SOL     OW10099   3.713   6.962   3.134
 3067SOL    HW110100   3.646   6.896   3.099
 3067SOL    HW210101   3.710   0.016   3.078
 3068SOL     OW10102   6.405   4.730   6.626
 3068SOL    HW110103   6.396   4.762   6.532
 3068SOL    HW210104   6.324   4.758   6.679
 3069SOL     OW10105   1.040   5.543   3.507
 3069SOL    HW110106   1.058   5.457   3.553
 3069SOL    HW210107   1.112   5.560   3.440
 3070SOL     OW10108   4.651   2.305   4.025
 3070SOL    HW110109   4.738   2.286   4.072
 3070SOL    HW210110   4.580   2.324   4.093
 3071SOL     OW10111   5.359   0.593   3.466
 3071SOL    HW110112   5.411   0.669   3.428
 3071SOL    HW210113   5.379   0.584   3.564
 3072SOL     OW10114   0.073   0.732   1.276
 3072SOL    HW110115   0.036   0.707   1.366
 3072SOL    HW210116   0.099   0.648   1.228
 3073SOL     OW10117   1.786   1.358   4.621
 3073SOL    HW110118   1.838   1.428   4.573
 3073SOL    HW210119   1.835   1.271   4.615
 3074SOL     OW10120   4.418   3.690   5.762
 3074SOL    HW110121   4.454   3.705   5.670
 3074SOL    HW210122   4.400   3.593   5.776
 3075SOL     OW10123   6.855   5.430   1.420
 3075SOL    HW110124   6.932   5.480   1.460
 3075SOL    HW210125   6.839   5.346   1.472
 3076SOL     OW10126   0.155   0.990   5.891
 3076SOL    HW110127   0.107   0.960   5.808
 3076SOL    HW210128   0.241   1.034   5.865
 3077SOL     OW10129   4.382   4.641   3.497
 3077SOL    HW110130   4.449   4.584   3.544
 3077SOL    HW210131   4.404   4.648   3.400
 3078SOL     OW10132   2.476   3.021   0.942
 3078SOL    HW110133   2.523   3.021   1.030
 3078SOL    HW210134   2.477   3.114   0.904
 3079SOL     OW10135   5.287   3.184   5.957
 3079SOL    HW110136   5.203   3.236   5.950
 3079SOL    HW210137   5.272   3.103   6.013
 3080SOL     OW10138   5.727   6.856   2.457
 3080SOL    HW110139   5.818   6.850   2.416
 3080SOL    HW210140   5.682   6.940   2.427
 3081SOL     OW10141   0.720   4.808   5.771
 3081SOL    HW110142   0.706   4.880   5.838
 3081SOL    HW210143   0.632   4.776   5.737
 3082SOL     OW10144   3.270   6.515   2.808
 3082SOL    HW110145   3.241   6.470   2.723
 3082SOL    HW210146   3.359   6.558   2.793
 3083SOL     OW10147   3.393   6.796   2.761
 3083SOL    HW110148   3.428   6.739   2.686
 3083SOL    HW210149   3.409   6.892   2.740
 3084SOL     OW10150   5.069   0.409   3.968
 3084SOL    HW110151   5.009   0.442   4.042
 3084SOL    HW210152   5.156   0.457   3.971
 3085SOL     OW10153   0.911   4.940   2.421
 3085SOL    HW110154   0.881   4.948   2.326
 3085SOL    HW210155   1.007   4.966   2.428
 3086SOL     OW10156   6.183   1.414   4.770
 3086SOL    HW110157   6.257   1.365   4.815
 3086SOL    HW210158   6.142   1.356   4.699
 3087SOL     OW10159   5.793   3.329   1.052
 3087SOL    HW110160   5.819   3.385   0.973
 3087SOL    HW210161   5.761   3.240   1.020
 3088SOL     OW10162   2.888   3.824   6.679
 3088SOL    HW110163   2.974   3.874   6.684
 3088SOL    HW210164   2.907   3.726   6.688
 3089SOL     OW10165   3.204   2.089   2.090
 3089SOL    HW110166   3.121   2.100   2.035
 3089SOL    HW210167   3.281   2.069   2.029
 3090SOL     OW10168   6.416   1.480   0.702
 3090SOL    HW110169   6.360   1.440   0.774
 3090SOL    HW210170   6.436   1.575   0.724
 3091SOL     OW10171   1.877   6.553   6.682
 3091SOL    HW110172   1.925   6.631   6.723
 3091SOL    HW210173   1.912   6.537   6.590
 3092SOL     OW10174   4.822   5.282   6.991
 3092SOL    HW110175   4.787   5.199   6.946
 3092SOL    HW210176   4.874   5.256   0.044
 3093SOL     OW10177   4.382   6.825   2.764
 3093SOL    HW110178   4.394   6.726   2.769
 3093SOL    HW210179   4.471   6.869   2.753
 3094SOL     OW10180   4.073   5.323   4.744
 3094SOL    HW110181   4.125   5.394   4.791
 3094SOL    HW210182   4.019   5.364   4.671
 3095SOL     OW10183   2.135   5.093   4.767
 3095SOL    HW110184   2.090   5.162   4.822
 3095SOL    HW210185   2.111   5.106   4.670
 3096SOL     OW10186   0.023   2.191   5.644
 3096SOL    HW110187   0.040   2.248   5.564
 3096SOL    HW210188   0.050   2.242   5.726
 3097SOL     OW10189   1.724   0.581   6.763
 3097SOL    HW110190   1.802   0.554   6.708
 3097SOL    HW210191   1.755   0.632   6.843
 3098SOL     OW10192   3.700   3.100   0.666
 3098SOL    HW110193   3.715   3.125   0.570
 3098SOL    HW210194   3.638   3.166   0.708
 3099SOL     OW10195   1.485   5.802   5.239
 3099SOL    HW110196   1.474   5.857   5.322
 3099SOL    HW210197   1.463   5.858   5.159
 3100SOL     OW10198   6.129   6.544   5.971
 3100SOL    HW110199   6.198   6.603   6.013
 3100SOL    HW210200   6.168   6.453   5.955
 3101SOL     OW10201   2.871   0.607   1.034
 3101SOL    HW110202   2.936   0.600   1.109
 3101SOL    HW210203   2.863   0.519   0.987
 3102SOL     OW10204   0.854   6.055   0.930
 3102SOL    HW110205   0.938   6.105   0.952
 3102SOL    HW210206   0.877   5.970   0.881
 3103SOL     OW10207   4.253   4.074   1.699
 3103SOL    HW110208   4.305   4.139   1.754
 3103SOL    HW210209   4.184   4.030   1.756
 3104SOL     OW10210   5.648   6.068   3.263
 3104SOL    HW110211   5.745   6.044   3.255
 3104SOL    HW210212   5.611   6.029   3.347
 3105SOL     OW10213   5.731   6.135   3.668
 3105SOL    HW110214   5.663   6.198   3.704
 3105SOL    HW210215   5.688   6.074   3.602
 3106SOL     OW10216   0.259   3.447   4.208
 3106SOL    HW110217   0.302   3.450   4.298
 3106SOL    HW210218   0.276   3.358   4.166
 3107SOL     OW10219   2.400   6.839   4.535
 3107SOL    HW110220   2.369   6.855   4.441
 3107SOL    HW210221   2.421   6.927   4.578
 3108SOL     OW10222   2.202   6.846   2.873
 3108SOL    HW110223   2.289   6.887   2.847
 3108SOL    HW210224   2.192   6.850   2.973
 3109SOL     OW10225   4.667   5.249   3.669
 3109SOL    HW110226   4.613   5.331   3.686
 3109SOL    HW210227   4.635   5.174   3.727
 3110SOL     OW10228   0.843   2.648   1.666
 3110SOL    HW110229   0.833   2.730   1.610
 3110SOL    HW210230   0.760   2.634   1.720
 3111SOL     OW10231   0.364   4.582   2.220
 3111SOL    HW110232   0.301   4.643   2.269
 3111SOL    HW210233   0.450   4.630   2.202
 3112SOL     OW10234   3.243   3.203   5.844
 3112SOL    HW110235   3.276   3.110   5.826
 3112SOL    HW210236   3.155   3.199   5.890
 3113SOL     OW10237   4.144   0.262   3.680
 3113SOL    HW110238   4.168   0.172   3.716
 3113SOL    HW210239   4.170   0.268   3.583
 3114SOL     OW10240   5.447   5.631   1.071
 3114SOL    HW110241   5.378   5.667   1.133
 3114SOL    HW210242   5.483   5.545   1.108
 3115SOL     OW10243   3.492   3.198   3.143
 3115SOL    HW110244   3.532   3.210   3.052
 3115SOL    HW210245   3.483   3.100   3.162
 3116SOL     OW10246   0.292   1.528   6.501
 3116SOL    HW110247   0.343   1.500   6.582
 3116SOL    HW210248   0.337   1.606   6.458
 3117SOL     OW10249   3.113   4.636   6.481
 3117SOL    HW110250   3.120   4.728   6.521
 3117SOL    HW210251   3.054   4.580   6.539
 3118SOL     OW10252   6.148   5.259   0.037
 3118SOL    HW110253   6.062   5.207   0.040
 3118SOL    HW210254   6.222   5.198   0.007
 3119SOL     OW10255   2.321   3.930   6.695
 3119SOL    HW110256   2.278   3.853   6.742
 3119SOL    HW210257   2.405   3.955   6.743
 3120SOL     OW10258   2.400   5.326   6.782
 3120SOL    HW110259   2.461   5.292   6.853
 3120SOL    HW210260   2.379   5.253   6.718
 3121SOL     OW10261   6.865   6.416   3.673
 3121SOL    HW110262   6.810   6.344   3.630
 3121SOL    HW210263   6.960   6.387   3.677
 3122SOL     OW10264   3.173   5.892   1.369
 3122SOL    HW110265   3.226   5.946   1.304
 3122SOL    HW210266   3.093   5.854   1.324
 3123SOL     OW10267   2.703   6.899   3.810
 3123SOL    HW110268   2.770   6.962   3.849
 3123SOL    HW210269   2.723   6.806   3.842
 3124SOL     OW10270   4.223   0.032   4.996
 3124SOL    HW110271   4.182   0.064   4.911
 3124SOL    HW210272   4.249   0.110   5.053
 3125SOL     OW10273   6.844   2.362   5.872
 3125SOL    HW110274   6.894   2.382   5.956
 3125SOL    HW210275   6.758   2.315   5.894
 3126SOL     OW10276   3.861   5.981   6.373
 3126SOL    HW110277   3.892   5.887   6.359
 3126SOL    HW210278   3.776   5.996   6.323
 3127SOL     OW10279   0.997   1.412   4.426
 3127SOL    HW110280   0.934   1.351   4.473
 3127SOL    HW210281   1.088   1.368   4.421
 3128SOL     OW10282   2.087   1.085   1.008
 3128SOL    HW110283   2.092   1.183   1.029
 3128SOL    HW210284   1.995   1.051   1.028
 3129SOL     OW10285   1.730   3.406   2.742
 3129SOL    HW110286   1.695   3.352   2.665
 3129SOL    HW210287   1.686   3.496   2.743
 3130SOL     OW10288   2.960   5.635   2.612
 3130SOL    HW110289   3.024   5.699   2.655
 3130SOL    HW210290   3.011   5.564   2.563
 3131SOL     OW10291   0.844   3.370   3.579
 3131SOL    HW110292   0.786   3.301   3.536
 3131SOL    HW210293   0.895   3.419   3.509
 3132SOL     OW10294   4.816   3.277   5.498
 3132SOL    HW110295   4.758   3.307   5.574
 3132SOL    HW210296   4.903   3.244   5.533
 3133SOL     OW10297   2.004   1.219   3.367
 3133SOL    HW110298   2.054   1.220   3.453
 3133SOL    HW210299   1.954   1.305   3.356
 3134SOL     OW10300   5.577   2.148   1.763
 3134SOL    HW110301   5.558   2.145   1.861
 3134SOL    HW210302   5.505   2.100   1.713
 3135SOL     OW10303   1.147   2.387   3.010
 3135SOL    HW110304   1.202   2.376   2.927
 3135SOL    HW210305   1.147   2.484   3.037
 3136SOL     OW10306   6.747   1.188   4.617
 3136SOL    HW110307   6.697   1.256   4.563
 3136SOL    HW210308   6.700   1.100   4.612
 3137SOL     OW10309   0.458   1.771   4.912
 3137SOL    HW110310   0.452   1.871   4.911
 3137SOL    HW210311   0.476   1.738   4.819
 3138SOL     OW10312   6.778   2.576   4.804
 3138SOL    HW110313   6.699   2.610   4.854
 3138SOL    HW210314   6.831   2.652   4.768
 3139SOL     OW10315   5.435   5.263   5.701
 3139SOL    HW110316   5.450   5.182   5.759
 3139SOL    HW210317   5.501   5.262   5.626
 3140SOL     OW10318   6.622   6.041   5.861
 3140SOL    HW110319   6.634   6.005   5.953
 3140SOL    HW210320   6.658   5.975   5.794
 3141SOL     OW10321   1.177   0.517   1.938
 3141SOL    HW110322   1.181   0.490   2.034
 3141SOL    HW210323   1.193   0.437   1.880
 3142SOL     OW10324   3.786   6.581   1.034
 3142SOL    HW110325   3.783   6.605   1.131
 3142SOL    HW210326   3.811   6.485   1.024
 3143SOL     OW10327   0.266   2.193   0.320
 3143SOL    HW110328   0.351   2.231   0.281
 3143SOL    HW210329   0.237   2.115   0.266
 3144SOL     OW10330   2.705   3.191   0.153
 3144SOL    HW110331   2.679   3.127   0.225
 3144SOL    HW210332   2.628   3.204   0.090
 3145SOL     OW10333   1.834   4.793   2.410
 3145SOL    HW110334   1.815   4.818   2.505
 3145SOL    HW210335   1.920   4.835   2.382
 3146SOL     OW10336   2.022   6.630   4.271
 3146SOL    HW110337   1.925   6.650   4.257
 3146SOL    HW210338   2.040   6.535   4.244
 3147SOL     OW10339   4.223   4.363   0.768
 3147SOL    HW110340   4.283   4.435   0.733
 3147SOL    HW210341   4.255   4.335   0.859
 3148SOL     OW10342   3.003   6.068   4.432
 3148SOL    HW110343   3.070   5.995   4.438
 3148SOL    HW210344   2.998   6.116   4.519
 3149SOL     OW10345   1.968   5.930   5.488
 3149SOL    HW110346   1.988   5.927   5.586
 3149SOL    HW210347   1.907   6.006   5.470
 3150SOL     OW10348   6.345   0.699   4.610
 3150SOL    HW110349   6.351   0.629   4.681
 3150SOL    HW210350   6.297   0.779   4.645
 3151SOL     OW10351   3.598   6.461   1.762
 3151SOL    HW110352   3.632   6.499   1.848
 3151SOL    HW210353   3.670   6.463   1.693
 3152SOL     OW10354   1.287   4.718   5.832
 3152SOL    HW110355   1.381   4.683   5.841
 3152SOL    HW210356   1.237   4.660   5.767
 3153SOL     OW10357   0.427   4.290   2.976
 3153SOL    HW110358   0.338   4.262   2.940
 3153SOL    HW210359   0.434   4.264   3.072
 3154SOL     OW10360   5.947   2.587   6.648
 3154SOL    HW110361   5.995   2.507   6.685
 3154SOL    HW210362   5.885   2.558   6.576
 3155SOL     OW10363   4.209   5.856   0.573
 3155SOL    HW110364   4.182   5.947   0.545
 3155SOL    HW210365   4.207   5.794   0.494
 3156SOL     OW10366   3.020   3.403   3.589
 3156SOL    HW110367   3.053   3.316   3.625
 3156SOL    HW210368   3.035   3.475   3.657
 3157SOL     OW10369   2.113   2.143   5.035
 3157SOL    HW110370   2.072   2.054   5.013
 3157SOL    HW210371   2.200   2.128   5.083
 3158SOL     OW10372   4.525   6.631   1.653
 3158SOL    HW110373   4.580   6.665   1.577
 3158SOL    HW210374   4.562   6.545   1.686
 3159SOL     OW10375   5.244   4.324   0.607
 3159SOL    HW110376   5.169   4.381   0.574
 3159SOL    HW210377   5.226   4.229   0.583
 3160SOL     OW10378   6.055   4.368   0.805
 3160SOL    HW110379   6.046   4.419   0.720
 3160SOL    HW210380   5.979   4.304   0.815
 3161SOL     OW10381   0.082   1.923   4.044
 3161SOL    HW110382   0.158   1.980   4.075
 3161SOL    HW210383   0.056   1.860   4.117
 3162SOL     OW10384   0.262   0.638   6.200
 3162SOL    HW110385   0.315   0.559   6.231
 3162SOL    HW210386   0.171   0.636   6.242
 3163SOL     OW10387   1.710   4.248   5.522
 3163SOL    HW110388   1.629   4.307   5.515
 3163SOL    HW210389   1.757   4.245   5.434
 3164SOL     OW10390   6.086   5.135   6.142
 3164SOL    HW110391   6.147   5.131   6.063
 3164SOL    HW210392   6.109   5.214   6.199
 3165SOL     OW10393   0.063   2.726   1.473
 3165SOL    HW110394   0.059   2.689   1.566
 3165SOL    HW210395   0.152   2.770   1.459
 3166SOL     OW10396   3.793   3.312   6.307
 3166SOL    HW110397   3.723   3.251   6.344
 3166SOL    HW210398   3.880   3.296   6.354
 3167SOL     OW10399   6.997   4.772   2.052
 3167SOL    HW110400   0.013   4.820   2.127
 3167SOL    HW210401   0.033   4.707   2.012
 3168SOL     OW10402   6.416   3.562   0.629
 3168SOL    HW110403   6.394   3.465   0.633
 3168SOL    HW210404   6.338   3.612   0.592
 3169SOL     OW10405   3.387   1.814   5.450
 3169SOL    HW110406   3.372   1.747   5.524
 3169SOL    HW210407   3.442   1.890   5.485
 3170SOL     OW10408   3.215   0.666   4.430
 3170SOL    HW110409   3.270   0.702   4.355
 3170SOL    HW210410   3.186   0.572   4.409
 3171SOL     OW10411   6.221   5.442   2.563
 3171SOL    HW110412   6.192   5.535   2.585
 3171SOL    HW210413   6.205   5.382   2.642
 3172SOL     OW10414   5.197   6.741   4.761
 3172SOL    HW110415   5.158   6.828   4.732
 3172SOL    HW210416   5.199   6.737   4.861
 3173SOL     OW10417   1.816   0.851   1.174
 3173SOL    HW110418   1.867   0.918   1.227
 3173SOL    HW210419   1.718   0.871   1.179
 3174SOL     OW10420   2.429   2.974   0.495
 3174SOL    HW110421   2.518   2.931   0.481
 3174SOL    HW210422   2.387   2.938   0.578
 3175SOL     OW10423   0.235   5.698   0.429
 3175SOL    HW110424   0.320   5.736   0.391
 3175SOL    HW210425   0.190   5.768   0.485
 3176SOL     OW10426   0.909   5.265   6.783
 3176SOL    HW110427   0.944   5.300   6.870
 3176SOL    HW210428   0.959   5.305   6.707
 3177SOL     OW10429   1.088   0.267   3.773
 3177SOL    HW110430   1.133   0.257   3.683
 3177SOL    HW210431   0.994   0.235   3.766
 3178SOL     OW10432   3.637   3.549   0.108
 3178SOL    HW110433   3.677   3.481   0.048
 3178SOL    HW210434   3.539   3.533   0.117
 3179SOL     OW10435   1.173   2.535   4.205
 3179SOL    HW110436   1.084   2.517   4.247
 3179SOL    HW210437   1.169   2.618   4.151
 3180SOL     OW10438   6.430   1.353   6.685
 3180SOL    HW110439   6.430   1.255   6.707
 3180SOL    HW210440   6.437   1.365   6.586
 3181SOL     OW10441   6.507   1.625   2.182
 3181SOL    HW110442   6.490   1.670   2.270
 3181SOL    HW210443   6.441   1.550   2.171
 3182SOL     OW10444   0.904   6.474   5.984
 3182SOL    HW110445   0.872   6.395   5.931
 3182SOL    HW210446   0.968   6.528   5.929
 3183SOL     OW10447   4.667   3.568   1.287
 3183SOL    HW110448   4.735   3.516   1.340
 3183SOL    HW210449   4.591   3.508   1.265
 3184SOL     OW10450   0.021   2.132   2.728
 3184SOL    HW110451   0.073   2.050   2.705
 3184SOL    HW210452   6.973   2.108   2.787
 3185SOL     OW10453   0.170   6.097   0.261
 3185SOL    HW110454   0.219   6.010   0.256
 3185SOL    HW210455   0.119   6.101   0.347
 3186SOL     OW10456   3.564   0.312   1.368
 3186SOL    HW110457   3.560   0.362   1.282
 3186SOL    HW210458   3.606   0.370   1.438
 3187SOL     OW10459   3.691   4.250   1.067
 3187SOL    HW110460   3.603   4.205   1.080
 3187SOL    HW210461   3.680   4.326   1.002
 3188SOL     OW10462   3.359   0.334   3.980
 3188SOL    HW110463   3.413   0.283   3.912
 3188SOL    HW210464   3.407   0.419   4.003
 3189SOL     OW10465   5.738   6.318   1.468
 3189SOL    HW110466   5.650   6.320   1.422
 3189SOL    HW210467   5.727   6.352   1.562
 3190SOL     OW10468   0.932   0.630   2.553
 3190SOL    HW110469   0.924   0.530   2.558
 3190SOL    HW210470   0.842   0.669   2.532
 3191SOL     OW10471   3.474   1.575   0.784
 3191SOL    HW110472   3.511   1.643   0.848
 3191SOL    HW210473   3.415   1.511   0.833
 3192SOL     OW10474   5.805   3.497   4.304
 3192SOL    HW110475   5.724   3.524   4.356
 3192SOL    HW210476   5.887   3.532   4.350
 3193SOL     OW10477   5.649   4.240   1.828
 3193SOL    HW110478   5.551   4.250   1.844
 3193SOL    HW210479   5.677   4.147   1.850
 3194SOL     OW10480   3.400   5.420   4.741
 3194SOL    HW110481   3.354   5.459   4.661
 3194SOL    HW210482   3.351   5.339   4.771
 3195SOL     OW10483   6.959   4.256   4.165
 3195SOL    HW110484   0.001   4.235   4.098
 3195SOL    HW210485   6.882   4.301   4.120
 3196SOL     OW10486   0.159   5.859   6.969
 3196SOL    HW110487   0.097   5.934   6.944
 3196SOL    HW210488   0.140   5.780   6.911
 3197SOL     OW10489   0.492   4.288   5.910
 3197SOL    HW110490   0.508   4.204   5.962
 3197SOL    HW210491   0.486   4.365   5.973
 3198SOL     OW10492   5.586   0.135   1.066
 3198SOL    HW110493   5.665   0.173   1.017
 3198SOL    HW210494   5.502   0.178   1.033
 3199SOL     OW10495   2.861   2.235   3.246
 3199SOL    HW110496   2.866   2.246   3.345
 3199SOL    HW210497   2.916   2.157   3.218
 3200SOL     OW10498   6.697   1.410   0.067
 3200SOL    HW110499   6.747   1.435   7.014
 3200SOL    HW210500   6.619   1.472   0.080
 3201SOL     OW10501   3.899   5.331   3.659
 3201SOL    HW110502   3.964   5.382   3.603
 3201SOL    HW210503   3.863   5.253   3.607
 3202SOL     OW10504   1.286   4.810   2.102
 3202SOL    HW110505   1.187   4.811   2.090
 3202SOL    HW210506   1.312   4.873   2.175
 3203SOL     OW10507   5.048   6.818   0.741
 3203SOL    HW110508   5.128   6.871   0.713
 3203SOL    HW210509   4.986   6.809   0.663
 3204SOL     OW10510   6.207   6.520   2.370
 3204SOL    HW110511   6.137   6.581   2.334
 3204SOL    HW210512   6.213   6.531   2.470
 3205SOL     OW10513   1.938   4.603   4.612
 3205SOL    HW110514   1.940   4.553   4.698
 3205SOL    HW210515   1.855   4.578   4.561
 3206SOL     OW10516   2.252   6.524   0.267
 3206SOL    HW110517   2.278   6.497   0.360
 3206SOL    HW210518   2.159   6.493   0.248
 3207SOL     OW10519   1.645   1.103   3.508
 3207SOL    HW110520   1.745   1.111   3.501
 3207SOL    HW210521   1.607   1.190   3.540
 3208SOL     OW10522   6.276   6.010   6.150
 3208SOL    HW110523   6.206   5.944   6.177
 3208SOL    HW210524   6.333   5.971   6.078
 3209SOL     OW10525   0.839   6.493   3.112
 3209SOL    HW110526   0.932   6.473   3.142
 3209SOL    HW210527   0.774   6.451   3.175
 3210SOL     OW10528   0.752   5.867   2.141
 3210SOL    HW110529   0.791   5.956   2.117
 3210SOL    HW210530   0.730   5.866   2.239
 3211SOL     OW10531   0.047   4.660   4.032
 3211SOL    HW110532   0.107   4.741   4.034
 3211SOL    HW210533   0.089   4.587   4.087
 3212SOL     OW10534   4.654   2.001   4.613
 3212SOL    HW110535   4.576   1.968   4.666
 3212SOL    HW210536   4.652   2.100   4.608
 3213SOL     OW10537   5.439   0.230   2.237
 3213SOL    HW110538   5.438   0.155   2.304
 3213SOL    HW210539   5.373   0.211   2.165
 3214SOL     OW10540   4.347   3.778   0.630
 3214SOL    HW110541   4.263   3.724   0.628
 3214SOL    HW210542   4.426   3.717   0.627
 3215SOL     OW10543   6.666   1.469   6.799
 3215SOL    HW110544   6.584   1.413   6.785
 3215SOL    HW210545   6.721   1.468   6.716
 3216SOL     OW10546   5.102   6.722   5.581
 3216SOL    HW110547   5.065   6.631   5.565
 3216SOL    HW210548   5.033   6.780   5.625
 3217SOL     OW10549   0.159   4.574   6.798
 3217SOL    HW110550   0.115   4.599   6.712
 3217SOL    HW210551   0.258   4.591   6.791
 3218SOL     OW10552   4.307   2.674   1.259
 3218SOL    HW110553   4.360   2.625   1.189
 3218SOL    HW210554   4.368   2.731   1.314
 3219SOL     OW10555   0.611   2.210   3.127
 3219SOL    HW110556   0.610   2.175   3.033
 3219SOL    HW210557   0.545   2.285   3.135
 3220SOL     OW10558   6.944   2.591   6.504
 3220SOL    HW110559   6.892   2.676   6.493
 3220SOL    HW210560   6.980   2.563   6.415
 3221SOL     OW10561   3.918   0.458   1.191
 3221SOL    HW110562   3.885   0.507   1.272
 3221SOL    HW210563   4.017   0.473   1.182
 3222SOL     OW10564   5.988   3.606   2.098
 3222SOL    HW110565   5.966   3.675   2.167
 3222SOL    HW210566   5.926   3.528   2.108
 3223SOL     OW10567   1.179   4.320   5.510
 3223SOL    HW110568   1.124   4.375   5.447
 3223SOL    HW210569   1.148   4.335   5.604
 3224SOL     OW10570   2.667   6.908   1.470
 3224SOL    HW110571   2.628   6.820   1.498
 3224SOL    HW210572   2.656   6.974   1.545
 3225SOL     OW10573   1.219   1.467   0.119
 3225SOL    HW110574   1.130   1.449   0.079
 3225SOL    HW210575   1.214   1.456   0.218
 3226SOL     OW10576   6.897   1.648   3.529
 3226SOL    HW110577   6.954   1.714   3.578
 3226SOL    HW210578   6.873   1.684   3.439
 3227SOL     OW10579   2.293   1.740   5.002
 3227SOL    HW110580   2.357   1.775   4.933
 3227SOL    HW210581   2.342   1.724   5.088
 3228SOL     OW10582   5.203   3.477   4.868
 3228SOL    HW110583   5.219   3.463   4.771
 3228SOL    HW210584   5.261   3.551   4.901
 3229SOL     OW10585   4.821   1.578   4.445
 3229SOL    HW110586   4.808   1.525   4.529
 3229SOL    HW210587   4.756   1.654   4.443
 3230SOL     OW10588   1.266   6.842   4.397
 3230SOL    HW110589   1.175   6.836   4.438
 3230SOL    HW210590   1.326   6.894   4.458
 3231SOL     OW10591   4.383   4.528   6.950
 3231SOL    HW110592   4.348   4.616   6.920
 3231SOL    HW210593   4.311   4.476   6.995
 3232SOL     OW10594   1.166   4.047   3.850
 3232SOL    HW110595   1.166   4.008   3.942
 3232SOL    HW210596   1.252   4.025   3.805
 3233SOL     OW10597   2.782   4.023   1.118
 3233SOL    HW110598   2.810   4.115   1.146
 3233SOL    HW210599   2.752   4.025   1.023
 3234SOL     OW10600   6.769   2.331   4.024
 3234SOL    HW110601   6.789   2.237   3.998
 3234SOL    HW210602   6.827   2.357   4.102
 3235SOL     OW10603   6.176   0.546   1.927
 3235SOL    HW110604   6.089   0.503   1.901
 3235SOL    HW210605   6.244   0.476   1.948
 3236SOL     OW10606   0.478   1.313   1.042
 3236SOL    HW110607   0.490   1.214   1.044
 3236SOL    HW210608   0.405   1.336   0.978
 3237SOL     OW10609   2.979   5.302   4.955
 3237SOL    HW110610   2.946   5.337   5.042
 3237SOL    HW210611   2.979   5.202   4.956
 3238SOL     OW10612   0.128   6.243   6.769
 3238SOL    HW110613   0.167   6.277   6.855
 3238SOL    HW210614   0.064   6.169   6.789
 3239SOL     OW10615   2.379   6.671   6.394
 3239SOL    HW110616   2.413   6.577   6.388
 3239SOL    HW210617   2.400   6.719   6.309
 3240SOL     OW10618   1.137   2.521   4.525
 3240SOL    HW110619   1.228   2.549   4.496
 3240SOL    HW210620   1.094   2.466   4.453
 3241SOL     OW10621   4.195   5.834   5.054
 3241SOL    HW110622   4.154   5.860   4.967
 3241SOL    HW210623   4.125   5.835   5.126
 3242SOL     OW10624   3.068   1.372   0.898
 3242SOL    HW110625   3.150   1.317   0.881
 3242SOL    HW210626   3.027   1.344   0.985
 3243SOL     OW10627   3.257   5.999   2.614
 3243SOL    HW110628   3.308   6.028   2.695
 3243SOL    HW210629   3.168   6.045   2.613
 3244SOL     OW10630   1.553   0.292   5.210
 3244SOL    HW110631   1.542   0.294   5.309
 3244SOL    HW210632   1.524   0.380   5.172
 3245SOL     OW10633   3.595   2.131   6.018
 3245SOL    HW110634   3.654   2.113   6.097
 3245SOL    HW210635   3.612   2.224   5.985
 3246SOL     OW10636   6.117   6.855   1.604
 3246SOL    HW110637   6.173   6.895   1.676
 3246SOL    HW210638   6.161   6.771   1.570
 3247SOL     OW10639   5.970   2.746   4.730
 3247SOL    HW110640   6.061   2.778   4.704
 3247SOL    HW210641   5.909   2.751   4.651
 3248SOL     OW10642   5.114   3.864   3.447
 3248SOL    HW110643   5.166   3.782   3.423
 3248SOL    HW210644   5.117   3.929   3.371
 3249SOL     OW10645   3.972   5.006   5.990
 3249SOL    HW110646   3.887   5.049   6.020
 3249SOL    HW210647   3.952   4.940   5.917
 3250SOL     OW10648   4.303   4.865   0.578
 3250SOL    HW110649   4.317   4.769   0.605
 3250SOL    HW210650   4.238   4.869   0.503
 3251SOL     OW10651   2.485   1.426   2.939
 3251SOL    HW110652   2.497   1.483   2.858
 3251SOL    HW210653   2.407   1.459   2.992
 3252SOL     OW10654   3.365   2.105   2.870
 3252SOL    HW110655   3.351   2.201   2.847
 3252SOL    HW210656   3.336   2.088   2.964
 3253SOL     OW10657   5.252   4.125   2.015
 3253SOL    HW110658   5.308   4.158   2.091
 3253SOL    HW210659   5.161   4.166   2.020
 3254SOL     OW10660   6.292   3.762   3.079
 3254SOL    HW110661   6.236   3.681   3.064
 3254SOL    HW210662   6.300   3.814   2.994
 3255SOL     OW10663   2.610   4.705   0.544
 3255SOL    HW110664   2.644   4.799   0.533
 3255SOL    HW210665   2.543   4.703   0.618
 3256SOL     OW10666   6.267   6.420   5.434
 3256SOL    HW110667   6.278   6.514   5.403
 3256SOL    HW210668   6.343   6.394   5.493
 3257SOL     OW10669   2.724   0.888   1.614
 3257SOL    HW110670   2.821   0.875   1.591
 3257SOL    HW210671   2.708   0.984   1.637
 3258SOL     OW10672   4.515   6.617   2.277
 3258SOL    HW110673   4.528   6.704   2.324
 3258SOL    HW210674   4.453   6.560   2.331
 3259SOL     OW10675   5.679   5.708   3.665
 3259SOL    HW110676   5.612   5.732   3.735
 3259SOL    HW210677   5.755   5.658   3.707
 3260SOL     OW10678   1.817   1.543   1.026
 3260SOL    HW110679   1.763   1.623   1.002
 3260SOL    HW210680   1.879   1.565   1.101
 3261SOL     OW10681   4.848   6.416   4.410
 3261SOL    HW110682   4.802   6.366   4.337
 3261SOL    HW210683   4.899   6.493   4.372
 3262SOL     OW10684   4.725   2.591   3.697
 3262SOL    HW110685   4.798   2.632   3.643
 3262SOL    HW210686   4.763   2.522   3.759
 3263SOL     OW10687   3.199   4.921   2.811
 3263SOL    HW110688   3.266   4.866   2.861
 3263SOL    HW210689   3.110   4.915   2.856
 3264SOL     OW10690   4.813   3.865   6.096
 3264SOL    HW110691   4.854   3.956   6.102
 3264SOL    HW210692   4.886   3.797   6.080
 3265SOL     OW10693   5.286   6.817   5.398
 3265SOL    HW110694   5.341   6.740   5.367
 3265SOL    HW210695   5.199   6.783   5.435
 3266SOL     OW10696   1.521   2.459   5.799
 3266SOL    HW110697   1.444   2.411   5.758
 3266SOL    HW210698   1.491   2.505   5.882
 3267SOL     OW10699   5.484   4.041   0.687
 3267SOL    HW110700   5.533   3.973   0.633
 3267SOL    HW210701   5.402   3.999   0.726
 3268SOL     OW10702   2.525   5.054   0.712
 3268SOL    HW110703   2.461   5.021   0.781
 3268SOL    HW210704   2.474   5.091   0.634
 3269SOL     OW10705   4.043   3.389   1.614
 3269SOL    HW110706   4.018   3.477   1.654
 3269SOL    HW210707   3.960   3.338   1.592
 3270SOL     OW10708   6.167   6.102   3.193
 3270SOL    HW110709   6.214   6.039   3.133
 3270SOL    HW210710   6.179   6.074   3.288
 3271SOL     OW10711   4.911   0.222   0.215
 3271SOL    HW110712   4.850   0.300   0.195
 3271SOL    HW210713   4.929   0.172   0.130
 3272SOL     OW10714   4.237   6.399   6.635
 3272SOL    HW110715   4.237   6.493   6.670
 3272SOL    HW210716   4.158   6.385   6.576
 3273SOL     OW10717   6.529   0.823   2.778
 3273SOL    HW110718   6.530   0.786   2.685
 3273SOL    HW210719   6.470   0.904   2.781
 3274SOL     OW10720   3.351   0.218   1.523
 3274SOL    HW110721   3.432   0.262   1.483
 3274SOL    HW210722   3.269   0.251   1.477
 3275SOL     OW10723   4.849   0.358   6.081
 3275SOL    HW110724   4.749   0.354   6.078
 3275SOL    HW210725   4.877   0.440   6.129
 3276SOL     OW10726   2.037   5.431   1.279
 3276SOL    HW110727   2.037   5.482   1.193
 3276SOL    HW210728   2.127   5.438   1.322
 3277SOL     OW10729   0.663   6.052   6.317
 3277SOL    HW110730   0.570   6.089   6.315
 3277SOL    HW210731   0.718   6.104   6.382
 3278SOL     OW10732   1.178   6.669   6.869
 3278SOL    HW110733   1.103   6.689   6.933
 3278SOL    HW210734   1.192   6.570   6.865
 3279SOL     OW10735   2.018   6.474   1.994
 3279SOL    HW110736   2.026   6.422   2.079
 3279SOL    HW210737   1.971   6.560   2.013
 3280SOL     OW10738   3.097   5.759   3.265
 3280SOL    HW110739   3.108   5.856   3.248
 3280SOL    HW210740   3.016   5.725   3.216
 3281SOL     OW10741   1.732   0.151   1.442
 3281SOL    HW110742   1.824   0.190   1.455
 3281SOL    HW210743   1.741   0.058   1.407
 3282SOL     OW10744   1.003   4.640   2.233
 3282SOL    HW110745   1.062   4.622   2.154
 3282SOL    HW210746   0.936   4.710   2.209
 3283SOL     OW10747   1.625   0.509   3.593
 3283SOL    HW110748   1.691   0.572   3.553
 3283SOL    HW210749   1.543   0.559   3.622
 3284SOL     OW10750   2.355   6.410   6.103
 3284SOL    HW110751   2.362   6.352   6.184
 3284SOL    HW210752   2.263   6.401   6.064
 3285SOL     OW10753   1.057   3.603   3.910
 3285SOL    HW110754   1.001   3.529   3.947
 3285SOL    HW210755   1.071   3.674   3.980
 3286SOL     OW10756   4.953   4.694   0.434
 3286SOL    HW110757   4.962   4.594   0.427
 3286SOL    HW210758   4.893   4.717   0.510
 3287SOL     OW10759   0.507   1.678   1.184
 3287SOL    HW110760   0.571   1.753   1.168
 3287SOL    HW210761   0.478   1.640   1.096
 3288SOL     OW10762   1.214   6.504   0.593
 3288SOL    HW110763   1.228   6.408   0.569
 3288SOL    HW210764   1.124   6.533   0.560
 3289SOL     OW10765   1.642   0.928   4.012
 3289SOL    HW110766   1.669   0.950   4.106
 3289SOL    HW210767   1.721   0.893   3.962
 3290SOL     OW10768   0.269   4.771   4.763
 3290SOL    HW110769   0.330   4.824   4.704
 3290SOL    HW210770   0.255   4.680   4.723
 3291SOL     OW10771   1.578   1.401   1.739
 3291SOL    HW110772   1.516   1.454   1.796
 3291SOL    HW210773   1.573   1.433   1.644
 3292SOL     OW10774   1.079   6.642   3.926
 3292SOL    HW110775   1.103   6.730   3.885
 3292SOL    HW210776   1.133   6.628   4.008
 3293SOL     OW10777   5.611   1.430   3.207
 3293SOL    HW110778   5.530   1.423   3.264
 3293SOL    HW210779   5.692   1.401   3.259
 3294SOL     OW10780   0.083   6.488   1.813
 3294SOL    HW110781   0.171   6.445   1.833
 3294SOL    HW210782   0.015   6.416   1.796
 3295SOL     OW10783   2.845   2.735   6.577
 3295SOL    HW110784   2.798   2.768   6.495
 3295SOL    HW210785   2.845   2.808   6.646
 3296SOL     OW10786   1.121   6.721   1.851
 3296SOL    HW110787   1.117   6.747   1.947
 3296SOL    HW210788   1.172   6.635   1.841
 3297SOL     OW10789   3.863   0.521   5.158
 3297SOL    HW110790   3.817   0.480   5.236
 3297SOL    HW210791   3.807   0.511   5.076
 3298SOL     OW10792   6.688   5.206   3.282
 3298SOL    HW110793   6.749   5.179   3.356
 3298SOL    HW210794   6.613   5.140   3.275
 3299SOL     OW10795   2.348   1.405   4.842
 3299SOL    HW110796   2.270   1.464   4.863
 3299SOL    HW210797   2.362   1.339   4.916
 3300SOL     OW10798   0.504   6.975   4.317
 3300SOL    HW110799   0.441   7.020   4.254
 3300SOL    HW210800   0.530   0.010   4.390
 3301SOL     OW10801   6.123   4.230   2.259
 3301SOL    HW110802   6.206   4.207   2.309
 3301SOL    HW210803   6.097   4.324   2.280
 3302SOL     OW10804   2.067   5.941   5.730
 3302SOL    HW110805   2.085   5.859   5.785
 3302SOL    HW210806   2.153   5.988   5.712
 3303SOL     OW10807   3.053   3.444   5.313
 3303SOL    HW110808   2.983   3.458   5.383
 3303SOL    HW210809   3.142   3.474   5.348
 3304SOL     OW10810   2.250   1.091   3.808
 3304SOL    HW110811   2.272   1.115   3.713
 3304SOL    HW210812   2.248   1.174   3.863
 3305SOL     OW10813   1.604   2.319   0.870
 3305SOL    HW110814   1.623   2.416   0.879
 3305SOL    HW210815   1.631   2.288   0.778
 3306SOL     OW10816   1.071   1.663   0.548
 3306SOL    HW110817   1.070   1.565   0.530
 3306SOL    HW210818   1.095   1.679   0.644
 3307SOL     OW10819   0.364   6.299   0.269
 3307SOL    HW110820   0.294   6.229   0.283
 3307SOL    HW210821   0.374   6.353   0.352
 3308SOL     OW10822   5.690   5.202   0.559
 3308SOL    HW110823   5.661   5.296   0.540
 3308SOL    HW210824   5.612   5.148   0.589
 3309SOL     OW10825   0.349   4.232   1.770
 3309SOL    HW110826   0.316   4.261   1.860
 3309SOL    HW210827   0.296   4.278   1.699
 3310SOL     OW10828   2.068   0.379   2.328
 3310SOL    HW110829   1.993   0.401   2.265
 3310SOL    HW210830   2.111   0.463   2.360
 3311SOL     OW10831   4.109   4.998   0.781
 3311SOL    HW110832   4.098   5.097   0.772
 3311SOL    HW210833   4.196   4.970   0.739
 3312SOL     OW10834   2.185   2.400   5.750
 3312SOL    HW110835   2.150   2.372   5.661
 3312SOL    HW210836   2.139   2.484   5.779
 3313SOL     OW10837   5.272   6.250   5.494
 3313SOL    HW110838   5.349   6.314   5.496
 3313SOL    HW210839   5.301   6.161   5.528
 3314SOL     OW10840   0.651   4.204   6.687
 3314SOL    HW110841   0.700   4.166   6.609
 3314SOL    HW210842   0.715   4.253   6.746
 3315SOL     OW10843   6.778   3.517   3.620
 3315SOL    HW110844   6.865   3.524   3.668
 3315SOL    HW210845   6.779   3.578   3.540
 3316SOL     OW10846   3.623   0.024   6.659
 3316SOL    HW110847   3.642   0.114   6.621
 3316SOL    HW210848   3.709   7.009   6.688
 3317SOL     OW10849   6.231   2.318   1.230
 3317SOL    HW110850   6.186   2.231   1.211
 3317SOL    HW210851   6.164   2.384   1.263
 3318SOL     OW10852   2.397   4.959   6.357
 3318SOL    HW110853   2.433   4.901   6.284
 3318SOL    HW210854   2.473   5.005   6.404
 3319SOL     OW10855   1.209   6.279   6.271
 3319SOL    HW110856   1.225   6.239   6.180
 3319SOL    HW210857   1.285   6.339   6.295
 3320SOL     OW10858   1.557   0.767   0.849
 3320SOL    HW110859   1.529   0.850   0.897
 3320SOL    HW210860   1.478   0.727   0.803
 3321SOL     OW10861   4.067   3.677   4.592
 3321SOL    HW110862   4.122   3.594   4.595
 3321SOL    HW210863   3.993   3.665   4.527
 3322SOL     OW10864   5.466   3.695   2.905
 3322SOL    HW110865   5.408   3.647   2.971
 3322SOL    HW210866   5.421   3.694   2.815
 3323SOL     OW10867   2.068   3.655   0.593
 3323SOL    HW110868   2.069   3.747   0.632
 3323SOL    HW210869   2.006   3.653   0.514
 3324SOL     OW10870   6.349   3.074   1.585
 3324SOL    HW110871   6.425   3.063   1.519
 3324SOL    HW210872   6.377   3.137   1.657
 3325SOL     OW10873   1.578   4.616   5.860
 3325SOL    HW110874   1.590   4.516   5.861
 3325SOL    HW210875   1.585   4.649   5.766
 3326SOL     OW10876   4.205   6.848   2.392
 3326SOL    HW110877   4.205   6.748   2.382
 3326SOL    HW210878   4.151   6.888   2.318
 3327SOL     OW10879   4.725   6.451   2.253
 3327SOL    HW110880   4.702   6.538   2.298
 3327SOL    HW210881   4.744   6.468   2.156
 3328SOL     OW10882   6.586   6.334   3.550
 3328SOL    HW110883   6.631   6.245   3.545
 3328SOL    HW210884   6.559   6.364   3.458
 3329SOL     OW10885   5.658   0.039   5.795
 3329SOL    HW110886   5.671   6.970   5.814
 3329SOL    HW210887   5.675   0.056   5.698
 3330SOL     OW10888   5.615   0.897   3.681
 3330SOL    HW110889   5.644   0.874   3.589
 3330SOL    HW210890   5.621   0.996   3.694
 3331SOL     OW10891   0.868   3.457   2.748
 3331SOL    HW110892   0.946   3.509   2.783
 3331SOL    HW210893   0.787   3.477   2.803
 3332SOL     OW10894   4.303   4.950   1.481
 3332SOL    HW110895   4.238   4.875   1.491
 3332SOL    HW210896   4.396   4.916   1.496
 3333SOL     OW10897   2.195   3.743   1.020
 3333SOL    HW110898   2.198   3.719   1.117
 3333SOL    HW210899   2.230   3.836   1.008
 3334SOL     OW10900   1.918   2.473   2.313
 3334SOL    HW110901   1.826   2.437   2.298
 3334SOL    HW210902   1.934   2.481   2.411
 3335SOL     OW10903   4.347   3.824   6.635
 3335SOL    HW110904   4.287   3.772   6.697
 3335SOL    HW210905   4.326   3.800   6.540
 3336SOL     OW10906   3.540   6.023   6.294
 3336SOL    HW110907   3.469   6.035   6.364
 3336SOL    HW210908   3.576   6.112   6.267
 3337SOL     OW10909   2.948   3.820   4.492
 3337SOL    HW110910   2.998   3.889   4.439
 3337SOL    HW210911   2.950   3.845   4.589
 3338SOL     OW10912   3.408   2.881   1.567
 3338SOL    HW110913   3.385   2.837   1.655
 3338SOL    HW210914   3.390   2.979   1.573
 3339SOL     OW10915   0.829   6.882   5.740
 3339SOL    HW110916   0.915   6.868   5.691
 3339SOL    HW210917   0.812   6.805   5.800
 3340SOL     OW10918   4.550   2.468   6.571
 3340SOL    HW110919   4.457   2.465   6.535
 3340SOL    HW210920   4.564   2.391   6.633
 3341SOL     OW10921   1.177   3.646   1.682
 3341SOL    HW110922   1.187   3.714   1.754
 3341SOL    HW210923   1.268   3.620   1.648
 3342SOL     OW10924   5.884   0.343   3.566
 3342SOL    HW110925   5.974   0.369   3.531
 3342SOL    HW210926   5.894   0.308   3.659
 3343SOL     OW10927   3.244   5.195   6.870
 3343SOL    HW110928   3.328   5.142   6.860
 3343SOL    HW210929   3.215   5.193   6.966
 3344SOL     OW10930   2.294   3.651   0.404
 3344SOL    HW110931   2.264   3.600   0.324
 3344SOL    HW210932   2.220   3.656   0.471
 3345SOL     OW10933   4.115   5.252   0.663
 3345SOL    HW110934   4.157   5.342   0.665
 3345SOL    HW210935   4.016   5.262   0.671
 3346SOL     OW10936   0.653   0.799   0.558
 3346SOL    HW110937   0.582   0.731   0.538
 3346SOL    HW210938   0.725   0.756   0.613
 3347SOL     OW10939   1.255   3.193   5.892
 3347SOL    HW110940   1.263   3.286   5.858
 3347SOL    HW210941   1.160   3.162   5.883
 3348SOL     OW10942   2.766   4.366   5.923
 3348SOL    HW110943   2.748   4.457   5.887
 3348SOL    HW210944   2.837   4.321   5.869
 3349SOL     OW10945   2.649   5.471   1.667
 3349SOL    HW110946   2.720   5.520   1.719
 3349SOL    HW210947   2.562   5.519   1.677
 3350SOL     OW10948   3.082   4.890   4.363
 3350SOL    HW110949   3.111   4.958   4.430
 3350SOL    HW210950   3.083   4.799   4.406
 3351SOL     OW10951   4.249   7.003   1.984
 3351SOL    HW110952   4.182   6.994   2.058
 3351SOL    HW210953   4.216   0.041   1.917
 3352SOL     OW10954   5.960   0.604   0.433
 3352SOL    HW110955   5.884   0.637   0.487
 3352SOL    HW210956   5.927   0.569   0.345
 3353SOL     OW10957   5.030   6.850   6.021
 3353SOL    HW110958   5.045   6.922   5.953
 3353SOL    HW210959   5.048   6.886   6.113
 3354SOL     OW10960   3.795   1.371   0.402
 3354SOL    HW110961   3.809   1.320   0.487
 3354SOL    HW210962   3.872   1.434   0.388
 3355SOL     OW10963   1.029   2.034   5.874
 3355SOL    HW110964   0.978   1.952   5.847
 3355SOL    HW210965   1.124   2.008   5.894
 3356SOL     OW10966   2.989   0.197   5.216
 3356SOL    HW110967   2.981   0.293   5.193
 3356SOL    HW210968   3.053   0.186   5.293
 3357SOL     OW10969   3.130   3.546   4.420
 3357SOL    HW110970   3.049   3.533   4.478
 3357SOL    HW210971   3.198   3.476   4.442
 3358SOL     OW10972   0.168   1.879   1.415
 3358SOL    HW110973   0.214   1.798   1.377
 3358SOL    HW210974   0.223   1.960   1.396
 3359SOL     OW10975   0.651   7.017   2.925
 3359SOL    HW110976   0.616   0.035   2.845
 3359SOL    HW210977   0.596   6.935   2.943
 3360SOL     OW10978   1.641   5.779   4.651
 3360SOL    HW110979   1.563   5.737   4.696
 3360SOL    HW210980   1.665   5.863   4.699
 3361SOL     OW10981   0.953   0.316   4.598
 3361SOL    HW110982   0.980   0.238   4.542
 3361SOL    HW210983   0.924   0.391   4.539
 3362SOL     OW10984   3.992   0.673   5.331
 3362SOL    HW110985   3.979   0.612   5.253
 3362SOL    HW210986   4.023   0.762   5.299
 3363SOL     OW10987   5.152   3.343   0.519
 3363SOL    HW110988   5.195   3.373   0.605
 3363SOL    HW210989   5.205   3.376   0.442
 3364SOL     OW10990   2.577   3.326   1.448
 3364SOL    HW110991   2.523   3.249   1.413
 3364SOL    HW210992   2.567   3.330   1.548
 3365SOL     OW10993   0.315   3.425   2.866
 3365SOL    HW110994   0.343   3.502   2.922
 3365SOL    HW210995   0.392   3.361   2.857
 3366SOL     OW10996   5.350   2.800   3.284
 3366SOL    HW110997   5.336   2.731   3.355
 3366SOL    HW210998   5.270   2.859   3.277
 3367SOL     OW10999   3.226   4.086   3.144
 3367SOL    HW111000   3.172   4.072   3.227
 3367SOL    HW211001   3.175   4.145   3.081
 3368SOL     OW11002   1.397   1.020   3.894
 3368SOL    HW111003   1.391   1.119   3.911
 3368SOL    HW211004   1.489   0.988   3.917
 3369SOL     OW11005   6.249   3.042   0.557
 3369SOL    HW111006   6.334   3.000   0.525
 3369SOL    HW211007   6.186   2.971   0.588
 3370SOL     OW11008   0.254   5.971   3.535
 3370SOL    HW111009   0.161   5.966   3.571
 3370SOL    HW211010   0.251   5.973   3.435
 3371SOL     OW11011   2.973   2.673   1.337
 3371SOL    HW111012   3.043   2.674   1.266
 3371SOL    HW211013   2.883   2.685   1.295
 3372SOL     OW11014   6.020   2.658   3.429
 3372SOL    HW111015   6.023   2.561   3.453
 3372SOL    HW211016   6.054   2.712   3.507
 3373SOL     OW11017   0.792   4.657   1.421
 3373SOL    HW111018   0.794   4.657   1.520
 3373SOL    HW211019   0.862   4.719   1.386
 3374SOL     OW11020   0.831   5.484   4.418
 3374SOL    HW111021   0.848   5.533   4.503
 3374SOL    HW211022   0.810   5.388   4.438
 3375SOL     OW11023   6.983   6.498   5.649
 3375SOL    HW111024   0.006   6.526   5.568
 3375SOL    HW211025   6.987   6.569   5.719
 3376SOL     OW11026   3.269   3.713   4.848
 3376SOL    HW111027   3.176   3.689   4.875
 3376SOL    HW211028   3.269   3.805   4.809
 3377SOL     OW11029   5.804   5.589   4.712
 3377SOL    HW111030   5.818   5.506   4.658
 3377SOL    HW211031   5.743   5.651   4.663
 3378SOL     OW11032   0.535   5.630   6.598
 3378SOL    HW111033   0.587   5.609   6.681
 3378SOL    HW211034   0.580   5.705   6.549
 3379SOL     OW11035   6.127   4.684   3.838
 3379SOL    HW111036   6.212   4.721   3.802
 3379SOL    HW211037   6.058   4.756   3.840
 3380SOL     OW11038   1.101   4.552   1.982
 3380SOL    HW111039   1.078   4.625   1.917
 3380SOL    HW211040   1.166   4.489   1.940
 3381SOL     OW11041   3.012   4.918   0.309
 3381SOL    HW111042   2.990   4.835   0.360
 3381SOL    HW211043   3.082   4.970   0.358
 3382SOL     OW11044   0.444   3.259   7.011
 3382SOL    HW111045   0.398   3.245   0.071
 3382SOL    HW211046   0.412   3.190   6.946
 3383SOL     OW11047   3.471   5.665   6.929
 3383SOL    HW111048   3.444   5.625   6.842
 3383SOL    HW211049   3.515   5.753   6.913
 3384SOL     OW11050   2.978   2.811   6.836
 3384SOL    HW111051   2.900   2.759   6.870
 3384SOL    HW211052   3.025   2.855   6.914
 3385SOL     OW11053   6.484   1.708   4.096
 3385SOL    HW111054   6.389   1.679   4.089
 3385SOL    HW211055   6.489   1.797   4.142
 3386SOL     OW11056   6.781   4.327   5.196
 3386SOL    HW111057   6.741   4.292   5.111
 3386SOL    HW211058   6.766   4.260   5.269
 3387SOL     OW11059   5.814   1.219   2.882
 3387SOL    HW111060   5.770   1.193   2.967
 3387SOL    HW211061   5.745   1.245   2.815
 3388SOL     OW11062   1.440   4.064   1.462
 3388SOL    HW111063   1.456   3.977   1.510
 3388SOL    HW211064   1.400   4.044   1.372
 3389SOL     OW11065   6.010   5.199   6.801
 3389SOL    HW111066   6.024   5.183   6.703
 3389SOL    HW211067   6.095   5.178   6.850
 3390SOL     OW11068   3.320   4.592   0.998
 3390SOL    HW111069   3.224   4.564   0.992
 3390SOL    HW211070   3.373   4.520   1.042
 3391SOL     OW11071   6.073   4.286   5.740
 3391SOL    HW111072   6.009   4.298   5.664
 3391SOL    HW211073   6.149   4.350   5.731
 3392SOL     OW11074   4.665   5.771   5.878
 3392SOL    HW111075   4.681   5.784   5.975
 3392SOL    HW211076   4.576   5.726   5.865
 3393SOL     OW11077   3.327   1.253   0.832
 3393SOL    HW111078   3.306   1.157   0.816
 3393SOL    HW211079   3.375   1.291   0.753
 3394SOL     OW11080   3.349   5.312   2.118
 3394SOL    HW111081   3.390   5.397   2.152
 3394SOL    HW211082   3.250   5.314   2.132
 3395SOL     OW11083   1.511   6.104   2.924
 3395SOL    HW111084   1.504   6.005   2.931
 3395SOL    HW211085   1.445   6.147   2.986
 3396SOL     OW11086   4.007   0.003   4.050
 3396SOL    HW111087   3.977   6.944   4.088
 3396SOL    HW211088   3.941   0.074   4.076
 3397SOL     OW11089   3.178   6.116   2.230
 3397SOL    HW111090   3.239   6.190   2.255
 3397SOL    HW211091   3.084   6.141   2.253
 3398SOL     OW11092   6.467   0.219   1.153
 3398SOL    HW111093   6.512   0.299   1.113
 3398SOL    HW211094   6.479   0.140   1.092
 3399SOL     OW11095   5.993   6.619   2.831
 3399SOL    HW111096   6.020   6.568   2.912
 3399SOL    HW211097   5.923   6.568   2.781
 3400SOL     OW11098   3.132   3.266   5.584
 3400SOL    HW111099   3.043   3.225   5.568
 3400SOL    HW211100   3.149   3.272   5.682
 3401SOL     OW11101   6.571   4.101   3.678
 3401SOL    HW111102   6.518   4.180   3.647
 3401SOL    HW211103   6.529   4.063   3.760
 3402SOL     OW11104   6.961   3.947   0.479
 3402SOL    HW111105   6.876   3.903   0.452
 3402SOL    HW211106   0.006   3.917   0.418
 3403SOL     OW11107   5.358   6.911   4.031
 3403SOL    HW111108   5.394   6.953   4.114
 3403SOL    HW211109   5.405   6.948   3.951
 3404SOL     OW11110   5.179   4.932   2.917
 3404SOL    HW111111   5.147   4.935   3.012
 3404SOL    HW211112   5.274   4.904   2.914
 3405SOL     OW11113   4.600   0.373   0.421
 3405SOL    HW111114   4.580   0.454   0.478
 3405SOL    HW211115   4.665   0.398   0.349
 3406SOL     OW11116   4.861   4.321   0.704
 3406SOL    HW111117   4.923   4.301   0.780
 3406SOL    HW211118   4.808   4.403   0.724
 3407SOL     OW11119   2.455   1.674   0.865
 3407SOL    HW111120   2.484   1.638   0.776
 3407SOL    HW211121   2.446   1.773   0.859
 3408SOL     OW11122   3.294   6.880   4.567
 3408SOL    HW111123   3.216   6.933   4.600
 3408SOL    HW211124   3.306   6.799   4.624
 3409SOL     OW11125   5.118   2.388   0.206
 3409SOL    HW111126   5.165   2.473   0.230
 3409SOL    HW211127   5.031   2.384   0.254
 3410SOL     OW11128   6.282   2.043   2.298
 3410SOL    HW111129   6.201   2.006   2.342
 3410SOL    HW211130   6.300   1.992   2.213
 3411SOL     OW11131   5.110   3.226   6.578
 3411SOL    HW111132   5.137   3.311   6.622
 3411SOL    HW211133   5.093   3.242   6.480
 3412SOL     OW11134   5.003   3.419   2.876
 3412SOL    HW111135   5.098   3.426   2.847
 3412SOL    HW211136   4.943   3.418   2.796
 3413SOL     OW11137   1.242   1.995   0.367
 3413SOL    HW111138   1.257   2.087   0.331
 3413SOL    HW211139   1.328   1.945   0.368
 3414SOL     OW11140   3.114   3.425   1.990
 3414SOL    HW111141   3.032   3.470   1.954
 3414SOL    HW211142   3.152   3.364   1.920
 3415SOL     OW11143   2.638   1.039   0.113
 3415SOL    HW111144   2.566   1.099   0.079
 3415SOL    HW211145   2.661   1.064   0.207
 3416SOL     OW11146   5.104   5.578   6.688
 3416SOL    HW111147   5.036   5.623   6.745
 3416SOL    HW211148   5.081   5.481   6.679
 3417SOL     OW11149   5.627   0.550   2.610
 3417SOL    HW111150   5.592   0.470   2.658
 3417SOL    HW211151   5.686   0.602   2.672
 3418SOL     OW11152   4.616   6.189   1.646
 3418SOL    HW111153   4.577   6.129   1.577
 3418SOL    HW211154   4.701   6.150   1.680
 3419SOL     OW11155   2.683   4.654   5.267
 3419SOL    HW111156   2.746   4.623   5.195
 3419SOL    HW211157   2.684   4.589   5.343
 3420SOL     OW11158   4.880   0.061   2.316
 3420SOL    HW111159   4.912   0.077   2.223
 3420SOL    HW211160   4.950   0.012   2.368
 3421SOL     OW11161   0.753   1.250   4.819
 3421SOL    HW111162   0.802   1.166   4.842
 3421SOL    HW211163   0.690   1.274   4.893
 3422SOL     OW11164   3.127   4.981   1.701
 3422SOL    HW111165   3.107   5.001   1.605
 3422SOL    HW211166   3.050   4.931   1.742
 3423SOL     OW11167   1.758   5.848   5.998
 3423SOL    HW111168   1.794   5.761   5.964
 3423SOL    HW211169   1.666   5.833   6.033
 3424SOL     OW11170   6.453   5.106   2.788
 3424SOL    HW111171   6.422   5.121   2.881
 3424SOL    HW211172   6.419   5.017   2.755
 3425SOL     OW11173   6.196   3.283   6.335
 3425SOL    HW111174   6.113   3.264   6.283
 3425SOL    HW211175   6.211   3.211   6.402
 3426SOL     OW11176   6.796   4.803   6.499
 3426SOL    HW111177   6.775   4.898   6.525
 3426SOL    HW211178   6.821   4.800   6.403
 3427SOL     OW11179   1.681   0.987   6.592
 3427SOL    HW111180   1.606   0.924   6.574
 3427SOL    HW211181   1.767   0.937   6.598
 3428SOL     OW11182   3.956   1.286   4.127
 3428SOL    HW111183   3.964   1.258   4.032
 3428SOL    HW211184   3.904   1.218   4.178
 3429SOL     OW11185   6.098   5.429   0.545
 3429SOL    HW111186   6.171   5.488   0.511
 3429SOL    HW211187   6.063   5.373   0.470
 3430SOL     OW11188   2.631   4.824   0.138
 3430SOL    HW111189   2.583   4.778   0.064
 3430SOL    HW211190   2.658   4.757   0.207
 3431SOL     OW11191   1.732   3.526   1.519
 3431SOL    HW111192   1.735   3.427   1.526
 3431SOL    HW211193   1.823   3.564   1.534
 3432SOL     OW11194   7.004   5.571   0.070
 3432SOL    HW111195   7.004   5.473   0.088
 3432SOL    HW211196   0.020   5.589   7.011
 3433SOL     OW11197   0.288   1.002   0.110
 3433SOL    HW111198   0.280   1.069   0.036
 3433SOL    HW211199   0.369   0.946   0.095
 3434SOL     OW11200   3.987   2.889   1.384
 3434SOL    HW111201   3.895   2.928   1.379
 3434SOL    HW211202   4.002   2.850   1.475
 3435SOL     OW11203   3.617   2.715   1.499
 3435SOL    HW111204   3.553   2.783   1.533
 3435SOL    HW211205   3.643   2.653   1.573
 3436SOL     OW11206   4.882   5.512   4.812
 3436SOL    HW111207   4.886   5.451   4.891
 3436SOL    HW211208   4.954   5.582   4.821
 3437SOL     OW11209   3.139   5.868   0.214
 3437SOL    HW111210   3.143   5.862   0.114
 3437SOL    HW211211   3.047   5.844   0.244
 3438SOL     OW11212   2.366   3.964   0.973
 3438SOL    HW111213   2.414   3.949   1.060
 3438SOL    HW211214   2.339   4.060   0.965
 3439SOL     OW11215   3.178   5.689   1.038
 3439SOL    HW111216   3.222   5.600   1.041
 3439SOL    HW211217   3.118   5.700   1.117
 3440SOL     OW11218   4.017   4.559   5.648
 3440SOL    HW111219   3.949   4.531   5.715
 3440SOL    HW211220   4.054   4.478   5.602
 3441SOL     OW11221   0.350   5.922   5.512
 3441SOL    HW111222   0.446   5.951   5.520
 3441SOL    HW211223   0.298   5.993   5.464
 3442SOL     OW11224   1.785   2.062   6.658
 3442SOL    HW111225   1.689   2.076   6.682
 3442SOL    HW211226   1.791   2.028   6.564
 3443SOL     OW11227   6.984   6.493   2.107
 3443SOL    HW111228   6.997   6.432   2.185
 3443SOL    HW211229   7.018   6.449   2.024
 3444SOL     OW11230   1.502   3.850   5.977
 3444SOL    HW111231   1.584   3.895   5.939
 3444SOL    HW211232   1.530   3.777   6.039
 3445SOL     OW11233   6.005   4.475   3.985
 3445SOL    HW111234   6.049   4.545   3.928
 3445SOL    HW211235   5.919   4.511   4.021
 3446SOL     OW11236   5.839   1.487   6.768
 3446SOL    HW111237   5.745   1.510   6.793
 3446SOL    HW211238   5.855   1.389   6.781
 3447SOL     OW11239   5.529   1.720   6.492
 3447SOL    HW111240   5.437   1.745   6.460
 3447SOL    HW211241   5.539   1.621   6.492
 3448SOL     OW11242   0.839   5.688   4.989
 3448SOL    HW111243   0.819   5.627   4.912
 3448SOL    HW211244   0.935   5.716   4.986
 3449SOL     OW11245   1.465   4.235   4.612
 3449SOL    HW111246   1.537   4.175   4.578
 3449SOL    HW211247   1.466   4.321   4.560
 3450SOL     OW11248   2.359   6.894   3.325
 3450SOL    HW111249   2.442   6.875   3.377
 3450SOL    HW211250   2.293   6.942   3.383
 3451SOL     OW11251   2.534   1.790   1.245
 3451SOL    HW111252   2.605   1.777   1.176
 3451SOL    HW211253   2.457   1.839   1.204
 3452SOL     OW11254   4.704   1.042   5.081
 3452SOL    HW111255   4.630   1.016   5.019
 3452SOL    HW211256   4.722   1.140   5.073
 3453SOL     OW11257   4.789   6.239   6.080
 3453SOL    HW111258   4.755   6.306   6.013
 3453SOL    HW211259   4.841   6.168   6.033
 3454SOL     OW11260   1.808   3.270   3.861
 3454SOL    HW111261   1.791   3.199   3.792
 3454SOL    HW211262   1.790   3.233   3.952
 3455SOL     OW11263   2.073   3.809   6.293
 3455SOL    HW111264   2.108   3.901   6.275
 3455SOL    HW211265   2.085   3.788   6.390
 3456SOL     OW11266   4.940   4.945   2.696
 3456SOL    HW111267   4.956   5.033   2.739
 3456SOL    HW211268   5.004   4.878   2.733
 3457SOL     OW11269   4.452   4.211   0.005
 3457SOL    HW111270   4.485   4.128   0.051
 3457SOL    HW211271   4.435   4.282   0.073
 3458SOL     OW11272   4.573   1.415   0.811
 3458SOL    HW111273   4.565   1.503   0.858
 3458SOL    HW211274   4.669   1.398   0.788
 3459SOL     OW11275   6.270   1.153   2.300
 3459SOL    HW111276   6.224   1.173   2.386
 3459SOL    HW211277   6.216   1.087   2.247
 3460SOL     OW11278   5.362   1.851   5.211
 3460SOL    HW111279   5.317   1.935   5.182
 3460SOL    HW211280   5.328   1.825   5.302
 3461SOL     OW11281   5.100   4.481   5.226
 3461SOL    HW111282   5.183   4.536   5.236
 3461SOL    HW211283   5.122   4.384   5.236
 3462SOL     OW11284   1.158   3.693   0.034
 3462SOL    HW111285   1.222   3.672   6.989
 3462SOL    HW211286   1.120   3.784   0.020
 3463SOL     OW11287   6.171   3.437   0.187
 3463SOL    HW111288   6.227   3.418   0.106
 3463SOL    HW211289   6.182   3.364   0.254
 3464SOL     OW11290   0.836   4.908   4.840
 3464SOL    HW111291   0.913   4.970   4.823
 3464SOL    HW211292   0.832   4.839   4.768
 3465SOL     OW11293   1.196   2.287   0.917
 3465SOL    HW111294   1.260   2.342   0.864
 3465SOL    HW211295   1.108   2.334   0.922
 3466SOL     OW11296   4.836   3.748   3.149
 3466SOL    HW111297   4.890   3.681   3.099
 3466SOL    HW211298   4.842   3.837   3.103
 3467SOL     OW11299   1.839   1.422   6.512
 3467SOL    HW111300   1.847   1.519   6.534
 3467SOL    HW211301   1.815   1.411   6.416
 3468SOL     OW11302   5.855   5.326   2.134
 3468SOL    HW111303   5.783   5.333   2.203
 3468SOL    HW211304   5.868   5.415   2.090
 3469SOL     OW11305   5.787   3.254   0.613
 3469SOL    HW111306   5.862   3.263   0.679
 3469SOL    HW211307   5.733   3.339   0.613
 3470SOL     OW11308   6.088   5.833   6.247
 3470SOL    HW111309   6.043   5.771   6.311
 3470SOL    HW211310   6.022   5.900   6.213
 3471SOL     OW11311   4.171   6.821   4.794
 3471SOL    HW111312   4.114   6.811   4.876
 3471SOL    HW211313   4.178   6.917   4.769
 3472SOL     OW11314   3.572   0.594   3.878
 3472SOL    HW111315   3.585   0.606   3.976
 3472SOL    HW211316   3.658   0.613   3.830
 3473SOL     OW11317   4.358   0.031   3.534
 3473SOL    HW111318   4.373   0.027   3.632
 3473SOL    HW211319   4.370   6.969   3.494
 3474SOL     OW11320   6.356   5.269   1.179
 3474SOL    HW111321   6.342   5.256   1.277
 3474SOL    HW211322   6.401   5.357   1.162
 3475SOL     OW11323   2.210   5.696   5.068
 3475SOL    HW111324   2.148   5.752   5.122
 3475SOL    HW211325   2.202   5.721   4.971
 3476SOL     OW11326   2.134   1.996   2.764
 3476SOL    HW111327   2.052   1.941   2.753
 3476SOL    HW211328   2.184   1.999   2.677
 3477SOL     OW11329   4.863   5.757   2.439
 3477SOL    HW111330   4.863   5.684   2.508
 3477SOL    HW211331   4.801   5.733   2.365
 3478SOL     OW11332   3.745   5.180   7.007
 3478SOL    HW111333   3.766   5.172   6.909
 3478SOL    HW211334   3.830   5.200   0.028
 3479SOL     OW11335   1.953   1.289   0.495
 3479SOL    HW111336   2.012   1.235   0.555
 3479SOL    HW211337   2.000   1.373   0.470
 3480SOL     OW11338   2.259   6.973   4.898
 3480SOL    HW111339   2.276   0.040   4.920
 3480SOL    HW211340   2.174   6.965   4.846
 3481SOL     OW11341   1.562   3.987   0.085
 3481SOL    HW111342   1.484   4.049   0.074
 3481SOL    HW211343   1.551   3.909   0.024
 3482SOL     OW11344   0.264   2.057   1.157
 3482SOL    HW111345   0.325   2.046   1.079
 3482SOL    HW211346   0.315   2.098   1.233
 3483SOL     OW11347   4.036   1.697   1.429
 3483SOL    HW111348   4.065   1.673   1.521
 3483SOL    HW211349   4.081   1.639   1.362
 3484SOL     OW11350   3.720   4.061   4.399
 3484SOL    HW111351   3.649   4.094   4.337
 3484SOL    HW211352   3.703   4.097   4.491
 3485SOL     OW11353   6.277   3.185   3.916
 3485SOL    HW111354   6.321   3.251   3.976
 3485SOL    HW211355   6.295   3.092   3.948
 3486SOL     OW11356   6.212   2.012   2.579
 3486SOL    HW111357   6.113   1.997   2.591
 3486SOL    HW211358   6.260   1.980   2.661
 3487SOL     OW11359   1.743   6.062   1.878
 3487SOL    HW111360   1.699   6.142   1.838
 3487SOL    HW211361   1.711   6.051   1.972
 3488SOL     OW11362   0.097   2.932   4.857
 3488SOL    HW111363   0.137   3.007   4.910
 3488SOL    HW211364   0.161   2.904   4.786
 3489SOL     OW11365   1.721   5.831   6.607
 3489SOL    HW111366   1.676   5.908   6.563
 3489SOL    HW211367   1.819   5.834   6.588
 3490SOL     OW11368   5.296   3.008   0.204
 3490SOL    HW111369   5.211   3.034   0.250
 3490SOL    HW211370   5.303   3.056   0.116
 3491SOL     OW11371   6.269   2.403   5.173
 3491SOL    HW111372   6.203   2.350   5.226
 3491SOL    HW211373   6.245   2.500   5.177
 3492SOL     OW11374   1.298   4.127   6.458
 3492SOL    HW111375   1.312   4.100   6.362
 3492SOL    HW211376   1.375   4.096   6.513
 3493SOL     OW11377   0.305   5.118   1.110
 3493SOL    HW111378   0.205   5.114   1.111
 3493SOL    HW211379   0.342   5.069   1.189
 3494SOL     OW11380   3.299   6.695   0.938
 3494SOL    HW111381   3.253   6.765   0.992
 3494SOL    HW211382   3.397   6.714   0.935
 3495SOL     OW11383   5.417   4.353   6.083
 3495SOL    HW111384   5.358   4.317   6.011
 3495SOL    HW211385   5.484   4.416   6.043
 3496SOL     OW11386   0.733   6.272   1.470
 3496SOL    HW111387   0.721   6.317   1.381
 3496SOL    HW211388   0.789   6.330   1.529
 3497SOL     OW11389   3.093   0.515   4.906
 3497SOL    HW111390   3.061   0.458   4.830
 3497SOL    HW211391   3.189   0.539   4.891
 3498SOL     OW11392   1.892   1.814   0.548
 3498SOL    HW111393   1.947   1.881   0.499
 3498SOL    HW211394   1.874   1.736   0.488
 3499SOL     OW11395   7.012   4.282   2.936
 3499SOL    HW111396   0.035   4.307   2.854
 3499SOL    HW211397   0.020   4.329   3.016
 3500SOL     OW11398   6.565   2.302   0.209
 3500SOL    HW111399   6.544   2.384   0.261
 3500SOL    HW211400   6.600   2.328   0.119
 3501SOL     OW11401   6.893   4.923   3.259
 3501SOL    HW111402   6.908   5.019   3.284
 3501SOL    HW211403   6.794   4.905   3.257
 3502SOL     OW11404   0.884   6.458   1.626
 3502SOL    HW111405   0.895   6.458   1.725
 3502SOL    HW211406   0.974   6.450   1.583
 3503SOL     OW11407   2.867   0.844   3.325
 3503SOL    HW111408   2.864   0.942   3.345
 3503SOL    HW211409   2.779   0.803   3.349
 3504SOL     OW11410   1.582   2.247   1.973
 3504SOL    HW111411   1.555   2.335   1.934
 3504SOL    HW211412   1.681   2.240   1.976
 3505SOL     OW11413   4.211   0.343   3.940
 3505SOL    HW111414   4.172   0.279   3.873
 3505SOL    HW211415   4.238   0.427   3.893
 3506SOL     OW11416   6.078   3.160   3.481
 3506SOL    HW111417   6.157   3.150   3.542
 3506SOL    HW211418   6.104   3.138   3.387
 3507SOL     OW11419   0.000   6.558   4.919
 3507SOL    HW111420   0.001   6.492   4.843
 3507SOL    HW211421   0.080   6.618   4.912
 3508SOL     OW11422   0.676   4.562   0.450
 3508SOL    HW111423   0.591   4.510   0.446
 3508SOL    HW211424   0.750   4.503   0.483
 3509SOL     OW11425   3.685   6.942   0.334
 3509SOL    HW111426   3.653   7.015   0.275
 3509SOL    HW211427   3.785   6.945   0.340
 3510SOL     OW11428   2.643   1.741   3.007
 3510SOL    HW111429   2.587   1.715   2.928
 3510SOL    HW211430   2.655   1.661   3.067
 3511SOL     OW11431   0.210   1.055   3.778
 3511SOL    HW111432   0.209   0.963   3.739
 3511SOL    HW211433   0.231   1.121   3.706
 3512SOL     OW11434   3.159   2.911   2.242
 3512SOL    HW111435   3.156   2.839   2.311
 3512SOL    HW211436   3.245   2.961   2.250
 3513SOL     OW11437   6.396   4.625   0.268
 3513SOL    HW111438   6.490   4.598   0.247
 3513SOL    HW211439   6.373   4.598   0.361
 3514SOL     OW11440   3.199   5.499   3.561
 3514SOL    HW111441   3.217   5.502   3.463
 3514SOL    HW211442   3.196   5.593   3.597
 3515SOL     OW11443   3.830   5.694   4.199
 3515SOL    HW111444   3.835   5.728   4.293
 3515SOL    HW211445   3.910   5.726   4.148
 3516SOL     OW11446   1.593   1.395   0.273
 3516SOL    HW111447   1.520   1.342   0.317
 3516SOL    HW211448   1.613   1.355   0.183
 3517SOL     OW11449   0.580   1.340   6.316
 3517SOL    HW111450   0.626   1.300   6.395
 3517SOL    HW211451   0.502   1.283   6.290
 3518SOL     OW11452   4.264   3.780   5.967
 3518SOL    HW111453   4.308   3.771   5.878
 3518SOL    HW211454   4.325   3.743   6.038
 3519SOL     OW11455   4.152   0.584   6.302
 3519SOL    HW111456   4.097   0.516   6.255
 3519SOL    HW211457   4.144   0.572   6.401
 3520SOL     OW11458   4.393   4.569   1.423
 3520SOL    HW111459   4.435   4.524   1.502
 3520SOL    HW211460   4.315   4.623   1.453
 3521SOL     OW11461   0.201   1.637   5.436
 3521SOL    HW111462   0.196   1.631   5.336
 3521SOL    HW211463   0.109   1.631   5.474
 3522SOL     OW11464   2.146   0.351   0.898
 3522SOL    HW111465   2.213   0.280   0.874
 3522SOL    HW211466   2.192   0.439   0.902
 3523SOL     OW11467   2.200   4.222   4.261
 3523SOL    HW111468   2.151   4.141   4.294
 3523SOL    HW211469   2.179   4.300   4.320
 3524SOL     OW11470   2.748   1.358   3.013
 3524SOL    HW111471   2.650   1.356   2.991
 3524SOL    HW211472   2.797   1.406   2.941
 3525SOL     OW11473   1.889   3.082   3.442
 3525SOL    HW111474   1.833   3.025   3.502
 3525SOL    HW211475   1.871   3.178   3.462
 3526SOL     OW11476   3.581   6.135   4.139
 3526SOL    HW111477   3.546   6.046   4.169
 3526SOL    HW211478   3.525   6.169   4.063
 3527SOL     OW11479   6.743   3.995   7.017
 3527SOL    HW111480   6.646   4.008   0.010
 3527SOL    HW211481   6.798   4.063   0.037
 3528SOL     OW11482   0.803   6.608   3.921
 3528SOL    HW111483   0.772   6.515   3.940
 3528SOL    HW211484   0.898   6.607   3.892
 3529SOL     OW11485   3.495   0.334   0.217
 3529SOL    HW111486   3.546   0.391   0.281
 3529SOL    HW211487   3.548   0.252   0.195
 3530SOL     OW11488   2.219   5.776   2.230
 3530SOL    HW111489   2.307   5.816   2.205
 3530SOL    HW211490   2.216   5.680   2.202
 3531SOL     OW11491   5.183   4.089   6.928
 3531SOL    HW111492   5.088   4.069   6.907
 3531SOL    HW211493   5.212   4.172   6.879
 3532SOL     OW11494   2.098   0.456   6.411
 3532SOL    HW111495   2.192   0.425   6.398
 3532SOL    HW211496   2.060   0.486   6.323
 3533SOL     OW11497   1.033   1.088   2.799
 3533SOL    HW111498   1.105   1.138   2.847
 3533SOL    HW211499   0.957   1.150   2.779
 3534SOL     OW11500   4.576   6.783   4.754
 3534SOL    HW111501   4.538   6.700   4.794
 3534SOL    HW211502   4.519   6.861   4.779
 3535SOL     OW11503   3.548   4.538   7.027
 3535SOL    HW111504   3.584   4.458   6.980
 3535SOL    HW211505   3.480   4.509   0.066
 3536SOL     OW11506   1.962   2.822   2.689
 3536SOL    HW111507   2.034   2.889   2.706
 3536SOL    HW211508   1.875   2.858   2.721
 3537SOL     OW11509   3.465   5.217   1.802
 3537SOL    HW111510   3.461   5.144   1.733
 3537SOL    HW211511   3.490   5.177   1.890
 3538SOL     OW11512   2.775   0.330   4.216
 3538SOL    HW111513   2.849   0.293   4.160
 3538SOL    HW211514   2.763   0.427   4.195
 3539SOL     OW11515   5.243   4.928   6.256
 3539SOL    HW111516   5.308   4.880   6.197
 3539SOL    HW211517   5.213   4.867   6.329
 3540SOL     OW11518   5.354   3.815   6.570
 3540SOL    HW111519   5.356   3.738   6.633
 3540SOL    HW211520   5.297   3.888   6.608
 3541SOL     OW11521   0.431   3.152   2.850
 3541SOL    HW111522   0.359   3.156   2.782
 3541SOL    HW211523   0.520   3.143   2.805
 3542SOL     OW11524   5.755   0.795   6.567
 3542SOL    HW111525   5.736   0.840   6.480
 3542SOL    HW211526   5.724   0.854   6.642
 3543SOL     OW11527   0.392   3.350   5.082
 3543SOL    HW111528   0.413   3.253   5.090
 3543SOL    HW211529   0.293   3.363   5.085
 3544SOL     OW11530   4.655   5.062   6.164
 3544SOL    HW111531   4.658   5.162   6.155
 3544SOL    HW211532   4.611   5.023   6.084
 3545SOL     OW11533   2.340   6.644   1.879
 3545SOL    HW111534   2.328   6.743   1.884
 3545SOL    HW211535   2.280   6.607   1.807
 3546SOL     OW11536   6.776   3.555   1.414
 3546SOL    HW111537   6.825   3.641   1.420
 3546SOL    HW211538   6.828   3.484   1.462
 3547SOL     OW11539   2.044   4.441   3.908
 3547SOL    HW111540   1.971   4.505   3.932
 3547SOL    HW211541   2.112   4.440   3.982
 3548SOL     OW11542   6.502   6.371   5.585
 3548SOL    HW111543   6.480   6.339   5.678
 3548SOL    HW211544   6.579   6.319   5.549
 3549SOL     OW11545   0.818   6.756   0.236
 3549SOL    HW111546   0.785   6.683   0.295
 3549SOL    HW211547   0.787   6.845   0.271
 3550SOL     OW11548   6.910   2.772   4.659
 3550SOL    HW111549   6.943   2.852   4.709
 3550SOL    HW211550   6.899   2.795   4.562
 3551SOL     OW11551   6.296   1.804   5.235
 3551SOL    HW111552   6.367   1.865   5.200
 3551SOL    HW211553   6.280   1.731   5.169
 3552SOL     OW11554   6.423   0.988   4.196
 3552SOL    HW111555   6.415   0.909   4.135
 3552SOL    HW211556   6.421   0.957   4.291
 3553SOL     OW11557   5.221   5.486   6.457
 3553SOL    HW111558   5.151   5.515   6.523
 3553SOL    HW211559   5.196   5.518   6.365
 3554SOL     OW11560   5.735   3.477   0.315
 3554SOL    HW111561   5.805   3.537   0.352
 3554SOL    HW211562   5.778   3.399   0.270
 3555SOL     OW11563   2.919   1.080   4.825
 3555SOL    HW111564   2.936   1.053   4.730
 3555SOL    HW211565   2.861   1.162   4.826
 3556SOL     OW11566   5.170   1.508   0.301
 3556SOL    HW111567   5.131   1.527   0.211
 3556SOL    HW211568   5.096   1.495   0.368
 3557SOL     OW11569   4.940   0.496   1.009
 3557SOL    HW111570   5.009   0.501   0.937
 3557SOL    HW211571   4.910   0.401   1.019
 3558SOL     OW11572   4.560   6.064   3.545
 3558SOL    HW111573   4.462   6.050   3.552
 3558SOL    HW211574   4.607   5.999   3.605
 3559SOL     OW11575   4.334   6.444   0.143
 3559SOL    HW111576   4.377   6.465   0.055
 3559SOL    HW211577   4.237   6.424   0.130
 3560SOL     OW11578   1.937   5.800   4.388
 3560SOL    HW111579   1.906   5.762   4.475
 3560SOL    HW211580   1.884   5.882   4.367
 3561SOL     OW11581   4.473   3.233   6.485
 3561SOL    HW111582   4.572   3.240   6.471
 3561SOL    HW211583   4.455   3.198   6.577
 3562SOL     OW11584   2.766   0.904   0.620
 3562SOL    HW111585   2.729   0.997   0.624
 3562SOL    HW211586   2.831   0.891   0.695
 3563SOL     OW11587   5.916   2.176   6.537
 3563SOL    HW111588   5.961   2.120   6.607
 3563SOL    HW211589   5.892   2.118   6.459
 3564SOL     OW11590   5.836   2.825   3.078
 3564SOL    HW111591   5.888   2.744   3.102
 3564SOL    HW211592   5.873   2.904   3.127
 3565SOL     OW11593   5.276   6.044   5.242
 3565SOL    HW111594   5.257   6.095   5.159
 3565SOL    HW211595   5.331   6.100   5.305
 3566SOL     OW11596   0.786   0.928   4.459
 3566SOL    HW111597   0.821   0.897   4.371
 3566SOL    HW211598   0.786   1.028   4.462
 3567SOL     OW11599   1.829   4.043   0.042
 3567SOL    HW111600   1.735   4.013   0.054
 3567SOL    HW211601   1.837   4.094   6.985
 3568SOL     OW11602   1.824   3.294   5.726
 3568SOL    HW111603   1.838   3.392   5.711
 3568SOL    HW211604   1.867   3.243   5.652
 3569SOL     OW11605   0.803   0.325   3.397
 3569SOL    HW111606   0.892   0.280   3.392
 3569SOL    HW211607   0.791   0.385   3.318
 3570SOL     OW11608   0.216   1.855   5.125
 3570SOL    HW111609   0.196   1.867   5.028
 3570SOL    HW211610   0.167   1.775   5.160
 3571SOL     OW11611   0.241   5.583   5.214
 3571SOL    HW111612   0.297   5.666   5.207
 3571SOL    HW211613   0.144   5.609   5.208
 3572SOL     OW11614   5.219   6.998   5.188
 3572SOL    HW111615   5.156   0.037   5.226
 3572SOL    HW211616   5.266   6.951   5.262
 3573SOL     OW11617   0.586   2.634   1.785
 3573SOL    HW111618   0.559   2.541   1.758
 3573SOL    HW211619   0.510   2.697   1.769
 3574SOL     OW11620   1.255   3.518   0.742
 3574SOL    HW111621   1.180   3.470   0.787
 3574SOL    HW211622   1.267   3.483   0.650
 3575SOL     OW11623   6.656   0.817   2.498
 3575SOL    HW111624   6.601   0.870   2.433
 3575SOL    HW211625   6.664   0.723   2.465
 3576SOL     OW11626   0.552   1.027   1.022
 3576SOL    HW111627   0.573   0.979   1.107
 3576SOL    HW211628   0.596   0.980   0.945
 3577SOL     OW11629   2.401   4.495   1.208
 3577SOL    HW111630   2.402   4.446   1.121
 3577SOL    HW211631   2.490   4.539   1.223
 3578SOL     OW11632   3.673   5.131   1.456
 3578SOL    HW111633   3.591   5.102   1.505
 3578SOL    HW211634   3.741   5.058   1.459
 3579SOL     OW11635   2.003   2.805   6.746
 3579SOL    HW111636   2.084   2.799   6.688
 3579SOL    HW211637   1.922   2.818   6.689
 3580SOL     OW11638   5.654   0.942   2.476
 3580SOL    HW111639   5.612   0.855   2.450
 3580SOL    HW211640   5.744   0.924   2.516
 3581SOL     OW11641   6.876   1.663   2.658
 3581SOL    HW111642   6.869   1.628   2.565
 3581SOL    HW211643   6.850   1.591   2.723
 3582SOL     OW11644   0.636   0.688   5.967
 3582SOL    HW111645   0.721   0.739   5.954
 3582SOL    HW211646   0.566   0.726   5.907
 3583SOL     OW11647   0.714   6.708   2.675
 3583SOL    HW111648   0.753   6.742   2.761
 3583SOL    HW211649   0.624   6.749   2.661
 3584SOL     OW11650   5.735   6.770   4.473
 3584SOL    HW111651   5.657   6.756   4.535
 3584SOL    HW211652   5.709   6.745   4.380
 3585SOL     OW11653   2.190   5.093   2.358
 3585SOL    HW111654   2.146   5.162   2.416
 3585SOL    HW211655   2.147   5.004   2.373
 3586SOL     OW11656   1.371   1.253   6.438
 3586SOL    HW111657   1.458   1.235   6.484
 3586SOL    HW211658   1.376   1.217   6.344
 3587SOL     OW11659   3.399   6.088   5.463
 3587SOL    HW111660   3.345   6.125   5.539
 3587SOL    HW211661   3.472   6.030   5.499
 3588SOL     OW11662   2.622   2.269   5.241
 3588SOL    HW111663   2.564   2.233   5.167
 3588SOL    HW211664   2.714   2.287   5.205
 3589SOL     OW11665   3.136   6.307   5.005
 3589SOL    HW111666   3.103   6.267   5.091
 3589SOL    HW211667   3.065   6.299   4.935
 3590SOL     OW11668   1.193   6.620   0.242
 3590SOL    HW111669   1.196   6.671   0.328
 3590SOL    HW211670   1.283   6.623   0.199
 3591SOL     OW11671   5.108   2.261   4.525
 3591SOL    HW111672   5.193   2.229   4.483
 3591SOL    HW211673   5.030   2.216   4.482
 3592SOL     OW11674   5.616   0.775   1.633
 3592SOL    HW111675   5.535   0.723   1.605
 3592SOL    HW211676   5.587   0.856   1.684
 3593SOL     OW11677   1.161   5.001   4.982
 3593SOL    HW111678   1.131   5.096   4.989
 3593SOL    HW211679   1.204   4.986   4.893
 3594SOL     OW11680   4.460   1.586   4.337
 3594SOL    HW111681   4.398   1.621   4.267
 3594SOL    HW211682   4.530   1.530   4.293
 3595SOL     OW11683   1.990   6.800   6.698
 3595SOL    HW111684   2.088   6.808   6.679
 3595SOL    HW211685   1.938   6.832   6.619
 3596SOL     OW11686   6.438   3.165   2.850
 3596SOL    HW111687   6.513   3.145   2.912
 3596SOL    HW211688   6.474   3.213   2.770
 3597SOL     OW11689   4.519   0.388   3.248
 3597SOL    HW111690   4.539   0.474   3.294
 3597SOL    HW211691   4.510   0.404   3.149
 3598SOL     OW11692   2.194   0.013   0.543
 3598SOL    HW111693   2.128   0.038   0.471
 3598SOL    HW211694   2.255   0.091   0.559
 3599SOL     OW11695   0.405   2.168   4.565
 3599SOL    HW111696   0.485   2.147   4.621
 3599SOL    HW211697   0.323   2.168   4.623
 3600SOL     OW11698   6.248   6.329   0.863
 3600SOL    HW111699   6.214   6.240   0.893
 3600SOL    HW211700   6.308   6.367   0.933
 3601SOL     OW11701   0.287   4.038   6.042
 3601SOL    HW111702   0.268   4.133   6.063
 3601SOL    HW211703   0.378   4.014   6.074
 3602SOL     OW11704   3.772   2.041   1.078
 3602SOL    HW111705   3.857   2.085   1.050
 3602SOL    HW211706   3.729   2.095   1.150
 3603SOL     OW11707   3.399   5.421   5.330
 3603SOL    HW111708   3.339   5.498   5.306
 3603SOL    HW211709   3.433   5.434   5.423
 3604SOL     OW11710   5.503   4.538   3.382
 3604SOL    HW111711   5.521   4.604   3.309
 3604SOL    HW211712   5.407   4.544   3.409
 3605SOL     OW11713   5.572   1.286   6.289
 3605SOL    HW111714   5.528   1.198   6.269
 3605SOL    HW211715   5.626   1.315   6.210
 3606SOL     OW11716   1.653   4.471   2.062
 3606SOL    HW111717   1.608   4.420   2.135
 3606SOL    HW211718   1.752   4.466   2.073
 3607SOL     OW11719   4.555   6.295   4.897
 3607SOL    HW111720   4.531   6.215   4.953
 3607SOL    HW211721   4.479   6.360   4.899
 3608SOL     OW11722   0.000   3.045   2.945
 3608SOL    HW111723   0.032   3.069   3.037
 3608SOL    HW211724   6.998   3.127   2.898
 3609SOL     OW11725   1.142   0.986   4.403
 3609SOL    HW111726   1.139   1.037   4.316
 3609SOL    HW211727   1.140   1.051   4.479
 3610SOL     OW11728   1.544   4.667   5.605
 3610SOL    HW111729   1.635   4.670   5.563
 3610SOL    HW211730   1.474   4.679   5.534
 3611SOL     OW11731   4.330   4.835   6.927
 3611SOL    HW111732   4.382   4.839   6.842
 3611SOL    HW211733   4.353   4.914   6.984
 3612SOL     OW11734   3.047   5.907   1.607
 3612SOL    HW111735   2.988   5.834   1.573
 3612SOL    HW211736   3.130   5.912   1.550
 3613SOL     OW11737   5.228   4.031   6.657
 3613SOL    HW111738   5.250   4.044   6.754
 3613SOL    HW211739   5.147   4.085   6.634
 3614SOL     OW11740   3.795   3.225   5.127
 3614SOL    HW111741   3.855   3.164   5.178
 3614SOL    HW211742   3.847   3.272   5.055
 3615SOL     OW11743   6.052   6.492   6.549
 3615SOL    HW111744   6.046   6.422   6.478
 3615SOL    HW211745   6.061   6.448   6.639
 3616SOL     OW11746   6.985   1.375   4.119
 3616SOL    HW111747   7.020   1.338   4.205
 3616SOL    HW211748   0.007   1.337   4.042
 3617SOL     OW11749   0.326   0.866   1.433
 3617SOL    HW111750   0.292   0.795   1.372
 3617SOL    HW211751   0.423   0.850   1.452
 3618SOL     OW11752   3.776   5.619   6.260
 3618SOL    HW111753   3.696   5.675   6.238
 3618SOL    HW211754   3.838   5.671   6.319
 3619SOL     OW11755   4.939   3.280   3.854
 3619SOL    HW111756   5.012   3.293   3.786
 3619SOL    HW211757   4.871   3.217   3.817
 3620SOL     OW11758   5.733   2.078   5.614
 3620SOL    HW111759   5.821   2.119   5.638
 3620SOL    HW211760   5.697   2.028   5.693
 3621SOL     OW11761   2.348   2.808   6.663
 3621SOL    HW111762   2.384   2.828   6.754
 3621SOL    HW211763   2.412   2.748   6.614
 3622SOL     OW11764   1.572   3.834   1.181
 3622SOL    HW111765   1.635   3.910   1.199
 3622SOL    HW211766   1.603   3.752   1.228
 3623SOL     OW11767   5.804   4.918   4.674
 3623SOL    HW111768   5.883   4.884   4.622
 3623SOL    HW211769   5.836   4.961   4.758
 3624SOL     OW11770   1.942   6.937   1.788
 3624SOL    HW111771   1.843   6.940   1.796
 3624SOL    HW211772   1.982   6.916   1.877
 3625SOL     OW11773   1.618   2.633   4.833
 3625SOL    HW111774   1.581   2.712   4.883
 3625SOL    HW211775   1.699   2.662   4.781
 3626SOL     OW11776   2.232   2.774   4.926
 3626SOL    HW111777   2.269   2.738   4.841
 3626SOL    HW211778   2.290   2.849   4.959
 3627SOL     OW11779   3.924   3.040   4.166
 3627SOL    HW111780   3.900   3.028   4.263
 3627SOL    HW211781   3.863   3.108   4.126
 3628SOL     OW11782   2.746   5.059   3.934
 3628SOL    HW111783   2.709   4.973   3.899
 3628SOL    HW211784   2.832   5.079   3.887
 3629SOL     OW11785   6.192   3.887   5.098
 3629SOL    HW111786   6.133   3.959   5.135
 3629SOL    HW211787   6.209   3.905   5.001
 3630SOL     OW11788   6.520   2.172   4.557
 3630SOL    HW111789   6.512   2.223   4.643
 3630SOL    HW211790   6.457   2.094   4.559
 3631SOL     OW11791   2.444   1.253   4.628
 3631SOL    HW111792   2.389   1.249   4.544
 3631SOL    HW211793   2.395   1.307   4.697
 3632SOL     OW11794   5.135   6.451   6.597
 3632SOL    HW111795   5.171   6.392   6.669
 3632SOL    HW211796   5.151   6.547   6.621
 3633SOL     OW11797   0.703   2.829   6.017
 3633SOL    HW111798   0.747   2.844   6.105
 3633SOL    HW211799   0.690   2.918   5.971
 3634SOL     OW11800   2.000   4.307   6.725
 3634SOL    HW111801   2.100   4.309   6.733
 3634SOL    HW211802   1.967   4.399   6.702
 3635SOL     OW11803   1.291   1.877   4.201
 3635SOL    HW111804   1.321   1.944   4.134
 3635SOL    HW211805   1.339   1.791   4.186
 3636SOL     OW11806   0.939   6.718   1.301
 3636SOL    HW111807   0.905   6.699   1.393
 3636SOL    HW211808   1.024   6.668   1.285
 3637SOL     OW11809   5.281   1.572   2.368
 3637SOL    HW111810   5.327   1.514   2.301
 3637SOL    HW211811   5.342   1.590   2.445
 3638SOL     OW11812   6.847   5.318   3.098
 3638SOL    HW111813   6.783   5.288   3.169
 3638SOL    HW211814   6.912   5.245   3.078
 3639SOL     OW11815   2.414   5.596   6.795
 3639SOL    HW111816   2.482   5.633   6.731
 3639SOL    HW211817   2.409   5.497   6.784
 3640SOL     OW11818   2.590   6.896   3.447
 3640SOL    HW111819   2.610   6.962   3.519
 3640SOL    HW211820   2.664   6.898   3.379
 3641SOL     OW11821   2.500   0.173   5.270
 3641SOL    HW111822   2.563   0.245   5.301
 3641SOL    HW211823   2.408   0.212   5.260
 3642SOL     OW11824   5.877   0.831   2.626
 3642SOL    HW111825   5.878   0.789   2.717
 3642SOL    HW211826   5.931   0.775   2.563
 3643SOL     OW11827   3.574   6.543   3.330
 3643SOL    HW111828   3.551   6.533   3.426
 3643SOL    HW211829   3.663   6.499   3.312
 3644SOL     OW11830   5.754   0.716   0.870
 3644SOL    HW111831   5.797   0.701   0.959
 3644SOL    HW211832   5.667   0.765   0.883
 3645SOL     OW11833   4.583   5.649   3.890
 3645SOL    HW111834   4.534   5.563   3.881
 3645SOL    HW211835   4.676   5.632   3.921
 3646SOL     OW11836   0.505   5.930   4.893
 3646SOL    HW111837   0.444   5.999   4.930
 3646SOL    HW211838   0.580   5.913   4.958
 3647SOL     OW11839   3.857   2.244   0.269
 3647SOL    HW111840   3.801   2.279   0.344
 3647SOL    HW211841   3.952   2.237   0.298
 3648SOL     OW11842   2.301   6.259   4.035
 3648SOL    HW111843   2.376   6.313   3.996
 3648SOL    HW211844   2.338   6.195   4.102
 3649SOL     OW11845   3.434   2.912   3.190
 3649SOL    HW111846   3.400   2.912   3.096
 3649SOL    HW211847   3.360   2.886   3.252
 3650SOL     OW11848   5.569   5.762   2.343
 3650SOL    HW111849   5.604   5.804   2.259
 3650SOL    HW211850   5.553   5.664   2.328
 3651SOL     OW11851   1.835   5.634   1.624
 3651SOL    HW111852   1.860   5.711   1.683
 3651SOL    HW211853   1.737   5.616   1.633
 3652SOL     OW11854   3.850   0.039   3.670
 3652SOL    HW111855   3.946   0.033   3.642
 3652SOL    HW211856   3.793   7.017   3.605
 3653SOL     OW11857   7.007   3.778   3.318
 3653SOL    HW111858   6.908   3.790   3.305
 3653SOL    HW211859   0.011   3.705   3.258
 3654SOL     OW11860   1.888   0.215   1.940
 3654SOL    HW111861   1.920   0.233   1.847
 3654SOL    HW211862   1.809   0.153   1.937
 3655SOL     OW11863   6.452   1.108   3.928
 3655SOL    HW111864   6.380   1.080   3.991
 3655SOL    HW211865   6.435   1.201   3.895
 3656SOL     OW11866   1.516   1.476   2.752
 3656SOL    HW111867   1.571   1.536   2.811
 3656SOL    HW211868   1.503   1.519   2.663
 3657SOL     OW11869   6.316   4.995   1.212
 3657SOL    HW111870   6.321   5.089   1.178
 3657SOL    HW211871   6.408   4.958   1.220
 3658SOL     OW11872   2.864   4.017   5.341
 3658SOL    HW111873   2.773   3.977   5.333
 3658SOL    HW211874   2.860   4.113   5.312
 3659SOL     OW11875   1.250   3.359   0.507
 3659SOL    HW111876   1.189   3.289   0.545
 3659SOL    HW211877   1.344   3.324   0.509
 3660SOL     OW11878   5.304   3.733   0.623
 3660SOL    HW111879   5.244   3.804   0.660
 3660SOL    HW211880   5.253   3.675   0.561
 3661SOL     OW11881   5.380   1.019   2.496
 3661SOL    HW111882   5.479   1.016   2.486
 3661SOL    HW211883   5.337   1.006   2.407
 3662SOL     OW11884   2.073   6.357   4.205
 3662SOL    HW111885   2.041   6.281   4.262
 3662SOL    HW211886   2.159   6.332   4.161
 3663SOL     OW11887   2.694   2.326   5.934
 3663SOL    HW111888   2.671   2.369   5.847
 3663SOL    HW211889   2.632   2.358   6.005
 3664SOL     OW11890   3.911   0.012   1.760
 3664SOL    HW111891   3.987   6.978   1.745
 3664SOL    HW211892   3.886   0.056   1.674
 3665SOL     OW11893   2.481   1.815   5.558
 3665SOL    HW111894   2.402   1.777   5.510
 3665SOL    HW211895   2.473   1.914   5.563
 3666SOL     OW11896   0.759   4.498   3.238
 3666SOL    HW111897   0.828   4.476   3.170
 3666SOL    HW211898   0.778   4.450   3.324
 3667SOL     OW11899   0.313   0.973   6.748
 3667SOL    HW111900   0.240   0.933   6.693
 3667SOL    HW211901   0.274   1.039   6.812
 3668SOL     OW11902   2.113   0.027   0.814
 3668SOL    HW111903   2.146   0.027   0.720
 3668SOL    HW211904   2.076   0.117   0.837
 3669SOL     OW11905   5.346   1.874   4.783
 3669SOL    HW111906   5.357   1.810   4.860
 3669SOL    HW211907   5.434   1.885   4.737
 3670SOL     OW11908   3.391   4.780   6.147
 3670SOL    HW111909   3.305   4.735   6.173
 3670SOL    HW211910   3.414   4.756   6.053
 3671SOL     OW11911   1.359   1.250   2.893
 3671SOL    HW111912   1.433   1.304   2.855
 3671SOL    HW211913   1.296   1.310   2.943
 3672SOL     OW11914   6.119   5.899   0.078
 3672SOL    HW111915   6.101   5.886   0.176
 3672SOL    HW211916   6.183   5.975   0.067
 3673SOL     OW11917   3.828   0.139   5.768
 3673SOL    HW111918   3.775   0.090   5.700
 3673SOL    HW211919   3.925   0.118   5.756
 3674SOL     OW11920   1.526   6.784   0.883
 3674SOL    HW111921   1.622   6.767   0.864
 3674SOL    HW211922   1.472   6.770   0.799
 3675SOL     OW11923   1.608   1.801   4.015
 3675SOL    HW111924   1.703   1.781   4.040
 3675SOL    HW211925   1.607   1.853   3.930
 3676SOL     OW11926   0.573   4.546   2.511
 3676SOL    HW111927   0.621   4.631   2.490
 3676SOL    HW211928   0.638   4.479   2.546
 3677SOL     OW11929   6.543   1.268   3.391
 3677SOL    HW111930   6.627   1.214   3.385
 3677SOL    HW211931   6.488   1.253   3.309
 3678SOL     OW11932   0.685   2.689   3.968
 3678SOL    HW111933   0.755   2.619   3.988
 3678SOL    HW211934   0.723   2.779   3.988
 3679SOL     OW11935   6.411   1.033   1.251
 3679SOL    HW111936   6.505   1.000   1.261
 3679SOL    HW211937   6.351   0.982   1.314
 3680SOL     OW11938   6.607   4.565   5.167
 3680SOL    HW111939   6.552   4.524   5.094
 3680SOL    HW211940   6.681   4.503   5.193
 3681SOL     OW11941   5.255   0.210   4.186
 3681SOL    HW111942   5.256   0.309   4.197
 3681SOL    HW211943   5.179   0.185   4.126
 3682SOL     OW11944   0.266   1.816   6.847
 3682SOL    HW111945   0.191   1.765   6.804
 3682SOL    HW211946   0.313   1.757   6.913
 3683SOL     OW11947   4.617   6.936   4.231
 3683SOL    HW111948   4.715   6.922   4.215
 3683SOL    HW211949   4.576   6.978   4.150
 3684SOL     OW11950   2.149   3.935   2.084
 3684SOL    HW111951   2.196   4.011   2.128
 3684SOL    HW211952   2.179   3.849   2.125
 3685SOL     OW11953   5.716   5.722   6.346
 3685SOL    HW111954   5.643   5.698   6.281
 3685SOL    HW211955   5.717   5.656   6.421
 3686SOL     OW11956   0.637   4.150   0.410
 3686SOL    HW111957   0.644   4.154   0.510
 3686SOL    HW211958   0.620   4.055   0.382
 3687SOL     OW11959   3.941   0.761   1.049
 3687SOL    HW111960   3.924   0.715   1.137
 3687SOL    HW211961   4.036   0.790   1.045
 3688SOL     OW11962   0.481   2.235   6.692
 3688SOL    HW111963   0.404   2.173   6.678
 3688SOL    HW211964   0.558   2.205   6.634
 3689SOL     OW11965   1.216   6.393   3.669
 3689SOL    HW111966   1.278   6.472   3.658
 3689SOL    HW211967   1.269   6.309   3.661
 3690SOL     OW11968   4.826   4.403   6.077
 3690SOL    HW111969   4.758   4.430   6.144
 3690SOL    HW211970   4.874   4.484   6.043
 3691SOL     OW11971   2.975   3.220   6.482
 3691SOL    HW111972   2.987   3.319   6.489
 3691SOL    HW211973   2.980   3.192   6.386
 3692SOL     OW11974   6.473   0.521   5.291
 3692SOL    HW111975   6.459   0.567   5.203
 3692SOL    HW211976   6.551   0.459   5.285
 3693SOL     OW11977   1.657   1.618   3.464
 3693SOL    HW111978   1.660   1.713   3.434
 3693SOL    HW211979   1.599   1.566   3.401
 3694SOL     OW11980   1.845   4.295   3.612
 3694SOL    HW111981   1.938   4.333   3.617
 3694SOL    HW211982   1.793   4.322   3.693
 3695SOL     OW11983   2.526   2.154   1.090
 3695SOL    HW111984   2.483   2.156   1.181
 3695SOL    HW211985   2.624   2.137   1.101
 3696SOL     OW11986   2.955   6.052   5.937
 3696SOL    HW111987   2.952   6.133   5.996
 3696SOL    HW211988   3.008   5.981   5.981
 3697SOL     OW11989   5.349   1.428   3.308
 3697SOL    HW111990   5.290   1.359   3.350
 3697SOL    HW211991   5.293   1.502   3.271
 3698SOL     OW11992   2.846   0.780   5.559
 3698SOL    HW111993   2.861   0.804   5.463
 3698SOL    HW211994   2.927   0.804   5.612
 3699SOL     OW11995   1.176   5.053   2.361
 3699SOL    HW111996   1.133   5.143   2.352
 3699SOL    HW211997   1.270   5.058   2.328
 3700SOL     OW11998   6.129   6.765   3.761
 3700SOL    HW111999   6.213   6.800   3.802
 3700SOL    HW212000   6.149   6.681   3.712
 3701SOL     OW12001   4.303   1.756   3.873
 3701SOL    HW112002   4.229   1.741   3.808
 3701SOL    HW212003   4.390   1.731   3.830
 3702SOL     OW12004   5.242   1.021   6.276
 3702SOL    HW112005   5.145   1.012   6.256
 3702SOL    HW212006   5.267   0.963   6.353
 3703SOL     OW12007   3.607   4.648   0.394
 3703SOL    HW112008   3.659   4.707   0.331
 3703SOL    HW212009   3.610   4.554   0.361
 3704SOL     OW12010   3.718   5.836   1.017
 3704SOL    HW112011   3.776   5.787   1.082
 3704SOL    HW212012   3.771   5.908   0.973
 3705SOL     OW12013   6.648   1.344   4.006
 3705SOL    HW112014   6.700   1.427   4.027
 3705SOL    HW212015   6.573   1.367   3.944
 3706SOL     OW12016   2.548   2.462   2.995
 3706SOL    HW112017   2.643   2.428   2.993
 3706SOL    HW212018   2.488   2.388   3.026
 3707SOL     OW12019   4.426   1.322   5.428
 3707SOL    HW112020   4.436   1.421   5.416
 3707SOL    HW212021   4.359   1.303   5.500
 3708SOL     OW12022   6.086   6.131   0.610
 3708SOL    HW112023   6.154   6.183   0.559
 3708SOL    HW212024   6.124   6.043   0.638
 3709SOL     OW12025   0.709   6.312   6.178
 3709SOL    HW112026   0.707   6.213   6.196
 3709SOL    HW212027   0.791   6.352   6.219
 3710SOL     OW12028   1.213   5.103   6.299
 3710SOL    HW112029   1.146   5.134   6.231
 3710SOL    HW212030   1.253   5.017   6.269
 3711SOL     OW12031   6.463   4.868   1.945
 3711SOL    HW112032   6.436   4.820   1.861
 3711SOL    HW212033   6.389   4.929   1.973
 3712SOL     OW12034   1.404   0.349   5.447
 3712SOL    HW112035   1.387   0.446   5.463
 3712SOL    HW212036   1.319   0.297   5.459
 3713SOL     OW12037   3.101   4.578   5.972
 3713SOL    HW112038   3.032   4.647   5.953
 3713SOL    HW212039   3.129   4.583   6.067
 3714SOL     OW12040   4.714   2.470   4.789
 3714SOL    HW112041   4.657   2.502   4.864
 3714SOL    HW212042   4.797   2.526   4.783
 3715SOL     OW12043   4.257   4.662   4.301
 3715SOL    HW112044   4.307   4.669   4.387
 3715SOL    HW212045   4.174   4.717   4.306
 3716SOL     OW12046   1.460   1.163   4.930
 3716SOL    HW112047   1.547   1.180   4.884
 3716SOL    HW212048   1.404   1.246   4.927
 3717SOL     OW12049   5.829   0.537   6.616
 3717SOL    HW112050   5.790   0.628   6.600
 3717SOL    HW212051   5.754   0.471   6.626
 3718SOL     OW12052   1.098   6.991   6.288
 3718SOL    HW112053   1.053   0.051   6.290
 3718SOL    HW212054   1.061   6.933   6.361
 3719SOL     OW12055   3.295   4.280   0.282
 3719SOL    HW112056   3.296   4.377   0.257
 3719SOL    HW212057   3.206   4.257   0.321
 3720SOL     OW12058   6.573   1.219   6.120
 3720SOL    HW112059   6.527   1.151   6.177
 3720SOL    HW212060   6.668   1.230   6.150
 3721SOL     OW12061   5.524   2.360   0.695
 3721SOL    HW112062   5.620   2.334   0.705
 3721SOL    HW212063   5.478   2.295   0.635
 3722SOL     OW12064   4.139   5.704   1.164
 3722SOL    HW112065   4.150   5.605   1.176
 3722SOL    HW212066   4.229   5.745   1.153
 3723SOL     OW12067   3.311   1.633   0.556
 3723SOL    HW112068   3.353   1.689   0.484
 3723SOL    HW212069   3.370   1.633   0.636
 3724SOL     OW12070   1.447   3.625   6.655
 3724SOL    HW112071   1.482   3.677   6.577
 3724SOL    HW212072   1.427   3.531   6.626
 3725SOL     OW12073   5.050   6.186   2.416
 3725SOL    HW112074   5.055   6.131   2.332
 3725SOL    HW212075   4.956   6.189   2.448
 3726SOL     OW12076   6.189   3.515   2.287
 3726SOL    HW112077   6.270   3.572   2.301
 3726SOL    HW212078   6.144   3.542   2.202
 3727SOL     OW12079   2.289   2.230   5.448
 3727SOL    HW112080   2.214   2.295   5.440
 3727SOL    HW212081   2.271   2.167   5.523
 3728SOL     OW12082   0.889   3.609   6.972
 3728SOL    HW112083   0.882   3.689   6.913
 3728SOL    HW212084   0.985   3.595   6.997
 3729SOL     OW12085   1.579   3.294   3.503
 3729SOL    HW112086   1.675   3.316   3.487
 3729SOL    HW212087   1.539   3.363   3.564
 3730SOL     OW12088   2.011   0.176   1.355
 3730SOL    HW112089   2.004   0.275   1.365
 3730SOL    HW212090   2.074   0.155   1.280
 3731SOL     OW12091   2.483   6.091   0.169
 3731SOL    HW112092   2.476   6.191   0.161
 3731SOL    HW212093   2.455   6.064   0.261
 3732SOL     OW12094   1.842   4.196   4.276
 3732SOL    HW112095   1.910   4.126   4.296
 3732SOL    HW212096   1.838   4.212   4.178
 3733SOL     OW12097   3.448   3.552   1.731
 3733SOL    HW112098   3.437   3.633   1.674
 3733SOL    HW212099   3.445   3.470   1.672
 3734SOL     OW12100   4.204   1.434   3.582
 3734SOL    HW112101   4.170   1.432   3.488
 3734SOL    HW212102   4.158   1.507   3.633
 3735SOL     OW12103   3.468   2.272   1.661
 3735SOL    HW112104   3.482   2.335   1.585
 3735SOL    HW212105   3.542   2.285   1.728
 3736SOL     OW12106   5.136   0.670   6.190
 3736SOL    HW112107   5.183   0.584   6.211
 3736SOL    HW212108   5.037   0.655   6.190
 3737SOL     OW12109   2.816   6.884   3.271
 3737SOL    HW112110   2.889   6.888   3.339
 3737SOL    HW212111   2.784   6.790   3.262
 3738SOL     OW12112   0.412   0.477   4.509
 3738SOL    HW112113   0.488   0.540   4.525
 3738SOL    HW212114   0.449   0.387   4.483
 3739SOL     OW12115   6.743   3.412   0.569
 3739SOL    HW112116   6.706   3.382   0.481
 3739SOL    HW212117   6.703   3.356   0.642
 3740SOL     OW12118   5.882   6.447   0.189
 3740SOL    HW112119   5.859   6.495   0.104
 3740SOL    HW212120   5.919   6.512   0.255
 3741SOL     OW12121   4.500   0.588   6.473
 3741SOL    HW112122   4.440   0.544   6.407
 3741SOL    HW212123   4.578   0.527   6.492
 3742SOL     OW12124   3.601   3.512   6.320
 3742SOL    HW112125   3.556   3.492   6.407
 3742SOL    HW212126   3.678   3.449   6.307
 3743SOL     OW12127   1.566   5.977   5.448
 3743SOL    HW112128   1.515   6.005   5.530
 3743SOL    HW212129   1.635   5.910   5.474
 3744SOL     OW12130   5.965   4.959   3.782
 3744SOL    HW112131   5.920   4.993   3.864
 3744SOL    HW212132   5.896   4.926   3.718
 3745SOL     OW12133   5.297   4.590   1.452
 3745SOL    HW112134   5.297   4.689   1.466
 3745SOL    HW212135   5.311   4.570   1.355
 3746SOL     OW12136   4.388   1.279   0.985
 3746SOL    HW112137   4.415   1.374   0.966
 3746SOL    HW212138   4.417   1.221   0.908
 3747SOL     OW12139   3.421   6.675   1.257
 3747SOL    HW112140   3.358   6.741   1.216
 3747SOL    HW212141   3.448   6.608   1.188
 3748SOL     OW12142   5.369   0.430   1.791
 3748SOL    HW112143   5.420   0.486   1.856
 3748SOL    HW212144   5.274   0.462   1.786
 3749SOL     OW12145   0.919   0.855   3.774
 3749SOL    HW112146   0.984   0.905   3.716
 3749SOL    HW212147   0.886   0.774   3.725
 3750SOL     OW12148   0.545   3.893   0.334
 3750SOL    HW112149   0.514   3.817   0.277
 3750SOL    HW212150   0.486   3.899   0.415
 3751SOL     OW12151   2.165   5.179   1.698
 3751SOL    HW112152   2.223   5.122   1.755
 3751SOL    HW212153   2.220   5.249   1.652
 3752SOL     OW12154   5.601   5.407   6.804
 3752SOL    HW112155   5.686   5.439   6.846
 3752SOL    HW212156   5.622   5.366   6.715
 3753SOL     OW12157   0.215   1.490   3.471
 3753SOL    HW112158   0.258   1.571   3.510
 3753SOL    HW212159   0.246   1.409   3.522
 3754SOL     OW12160   3.731   1.313   1.524
 3754SOL    HW112161   3.682   1.314   1.611
 3754SOL    HW212162   3.693   1.382   1.463
 3755SOL     OW12163   2.806   6.501   4.649
 3755SOL    HW112164   2.815   6.438   4.726
 3755SOL    HW212165   2.711   6.501   4.618
 3756SOL     OW12166   0.941   6.323   0.537
 3756SOL    HW112167   0.929   6.345   0.440
 3756SOL    HW212168   0.852   6.327   0.583
 3757SOL     OW12169   1.328   5.410   0.134
 3757SOL    HW112170   1.310   5.392   0.037
 3757SOL    HW212171   1.419   5.376   0.158
 3758SOL     OW12172   6.976   5.434   3.971
 3758SOL    HW112173   6.896   5.386   4.009
 3758SOL    HW212174   6.974   5.530   4.001
 3759SOL     OW12175   5.038   0.583   3.401
 3759SOL    HW112176   4.980   0.520   3.350
 3759SOL    HW212177   5.124   0.538   3.426
 3760SOL     OW12178   0.567   1.107   3.663
 3760SOL    HW112179   0.575   1.036   3.733
 3760SOL    HW212180   0.500   1.079   3.594
 3761SOL     OW12181   4.032   0.887   4.419
 3761SOL    HW112182   4.119   0.909   4.464
 3761SOL    HW212183   4.032   0.925   4.327
 3762SOL     OW12184   6.442   2.118   3.573
 3762SOL    HW112185   6.357   2.167   3.594
 3762SOL    HW212186   6.518   2.159   3.623
 3763SOL     OW12187   0.548   0.043   6.579
 3763SOL    HW112188   0.475   0.016   6.642
 3763SOL    HW212189   0.599   6.990   6.551
 3764SOL     OW12190   4.774   2.159   2.747
 3764SOL    HW112191   4.787   2.240   2.690
 3764SOL    HW212192   4.863   2.126   2.780
 3765SOL     OW12193   5.519   3.601   1.905
 3765SOL    HW112194   5.590   3.627   1.840
 3765SOL    HW212195   5.440   3.660   1.894
 3766SOL     OW12196   2.254   2.421   2.563
 3766SOL    HW112197   2.173   2.479   2.555
 3766SOL    HW212198   2.301   2.418   2.474
 3767SOL     OW12199   1.577   5.459   5.204
 3767SOL    HW112200   1.671   5.455   5.238
 3767SOL    HW212201   1.518   5.501   5.273
 3768SOL     OW12202   1.248   6.680   4.149
 3768SOL    HW112203   1.257   6.717   4.241
 3768SOL    HW212204   1.328   6.705   4.095
 3769SOL     OW12205   4.632   5.346   6.096
 3769SOL    HW112206   4.573   5.308   6.024
 3769SOL    HW212207   4.583   5.419   6.144
 3770SOL     OW12208   2.467   0.534   0.122
 3770SOL    HW112209   2.437   0.456   0.065
 3770SOL    HW212210   2.427   0.526   0.213
 3771SOL     OW12211   6.703   5.890   6.104
 3771SOL    HW112212   6.623   5.838   6.133
 3771SOL    HW212213   6.777   5.827   6.081
 3772SOL     OW12214   2.783   5.275   1.519
 3772SOL    HW112215   2.751   5.344   1.584
 3772SOL    HW212216   2.709   5.253   1.455
 3773SOL     OW12217   4.940   4.041   6.848
 3773SOL    HW112218   4.935   3.953   6.801
 3773SOL    HW212219   4.848   4.077   6.861
 3774SOL     OW12220   0.259   4.368   1.554
 3774SOL    HW112221   0.200   4.376   1.473
 3774SOL    HW212222   0.328   4.298   1.537
 3775SOL     OW12223   6.210   6.273   4.690
 3775SOL    HW112224   6.180   6.368   4.699
 3775SOL    HW212225   6.247   6.258   4.599
 3776SOL     OW12226   4.206   2.753   6.509
 3776SOL    HW112227   4.107   2.764   6.501
 3776SOL    HW212228   4.228   2.715   6.599
 3777SOL     OW12229   3.229   5.233   3.321
 3777SOL    HW112230   3.257   5.328   3.305
 3777SOL    HW212231   3.213   5.187   3.234
 3778SOL     OW12232   2.838   5.514   6.549
 3778SOL    HW112233   2.912   5.544   6.488
 3778SOL    HW212234   2.806   5.592   6.603
 3779SOL     OW12235   6.482   5.228   6.515
 3779SOL    HW112236   6.438   5.144   6.482
 3779SOL    HW212237   6.458   5.243   6.610
 3780SOL     OW12238   5.898   1.894   1.223
 3780SOL    HW112239   5.874   1.987   1.195
 3780SOL    HW212240   5.856   1.828   1.161
 3781SOL     OW12241   1.111   0.855   6.720
 3781SOL    HW112242   1.062   0.770   6.740
 3781SOL    HW212243   1.138   0.898   6.806
 3782SOL     OW12244   2.898   5.533   6.867
 3782SOL    HW112245   2.878   5.614   6.812
 3782SOL    HW212246   2.984   5.493   6.837
 3783SOL     OW12247   4.512   5.233   5.486
 3783SOL    HW112248   4.480   5.150   5.532
 3783SOL    HW212249   4.533   5.302   5.555
 3784SOL     OW12250   5.220   4.195   5.207
 3784SOL    HW112251   5.213   4.142   5.292
 3784SOL    HW212252   5.314   4.191   5.173
 3785SOL     OW12253   0.921   3.441   2.140
 3785SOL    HW112254   0.942   3.528   2.185
 3785SOL    HW212255   0.875   3.459   2.053
 3786SOL     OW12256   3.392   2.884   6.178
 3786SOL    HW112257   3.435   2.796   6.159
 3786SOL    HW212258   3.295   2.870   6.200
 3787SOL     OW12259   5.507   5.733   5.826
 3787SOL    HW112260   5.432   5.667   5.834
 3787SOL    HW212261   5.587   5.688   5.785
 3788SOL     OW12262   5.417   2.739   5.710
 3788SOL    HW112263   5.443   2.646   5.684
 3788SOL    HW212264   5.380   2.740   5.802
 3789SOL     OW12265   1.826   4.940   2.009
 3789SOL    HW112266   1.803   4.843   2.005
 3789SOL    HW212267   1.803   4.983   1.922
 3790SOL     OW12268   3.123   0.259   1.868
 3790SOL    HW112269   3.056   0.239   1.796
 3790SOL    HW212270   3.194   0.319   1.832
 3791SOL     OW12271   4.933   0.829   4.021
 3791SOL    HW112272   4.933   0.790   3.929
 3791SOL    HW212273   4.884   0.917   4.020
 3792SOL     OW12274   5.773   0.514   3.129
 3792SOL    HW112275   5.821   0.451   3.068
 3792SOL    HW212276   5.805   0.607   3.112
 3793SOL     OW12277   4.795   3.571   0.433
 3793SOL    HW112278   4.753   3.635   0.368
 3793SOL    HW212279   4.849   3.503   0.383
 3794SOL     OW12280   1.751   4.971   5.651
 3794SOL    HW112281   1.809   4.908   5.703
 3794SOL    HW212282   1.785   4.976   5.557
 3795SOL     OW12283   3.709   6.038   0.262
 3795SOL    HW112284   3.724   5.979   0.183
 3795SOL    HW212285   3.611   6.051   0.276
 3796SOL     OW12286   5.318   0.997   0.175
 3796SOL    HW112287   5.324   1.094   0.197
 3796SOL    HW212288   5.390   0.947   0.224
 3797SOL     OW12289   0.038   1.619   0.762
 3797SOL    HW112290   0.041   1.526   0.725
 3797SOL    HW212291   6.982   1.663   0.732
 3798SOL     OW12292   0.044   3.873   4.096
 3798SOL    HW112293   0.121   3.921   4.139
 3798SOL    HW212294   6.991   3.883   4.152
 3799SOL     OW12295   6.452   2.164   1.964
 3799SOL    HW112296   6.428   2.069   1.982
 3799SOL    HW212297   6.547   2.180   1.990
 3800SOL     OW12298   5.844   3.165   1.474
 3800SOL    HW112299   5.813   3.251   1.432
 3800SOL    HW212300   5.939   3.174   1.502
 3801SOL     OW12301   5.324   1.276   0.325
 3801SOL    HW112302   5.246   1.339   0.322
 3801SOL    HW212303   5.345   1.253   0.420
 3802SOL     OW12304   6.041   3.697   3.621
 3802SOL    HW112305   6.042   3.796   3.610
 3802SOL    HW212306   6.123   3.657   3.579
 3803SOL     OW12307   3.747   4.451   6.681
 3803SOL    HW112308   3.716   4.519   6.615
 3803SOL    HW212309   3.821   4.489   6.736
 3804SOL     OW12310   3.980   6.012   3.575
 3804SOL    HW112311   4.008   5.948   3.647
 3804SOL    HW212312   4.021   6.101   3.593
 3805SOL     OW12313   2.627   1.639   0.159
 3805SOL    HW112314   2.567   1.659   0.081
 3805SOL    HW212315   2.588   1.678   0.242
 3806SOL     OW12316   2.142   4.488   2.162
 3806SOL    HW112317   2.176   4.446   2.246
 3806SOL    HW212318   2.048   4.457   2.145
 3807SOL     OW12319   6.931   4.168   4.419
 3807SOL    HW112320   6.923   4.190   4.322
 3807SOL    HW212321   7.022   4.132   4.438
 3808SOL     OW12322   2.556   6.762   6.158
 3808SOL    HW112323   2.523   6.746   6.065
 3808SOL    HW212324   2.569   6.675   6.205
 3809SOL     OW12325   5.056   2.005   1.328
 3809SOL    HW112326   4.962   2.034   1.350
 3809SOL    HW212327   5.120   2.072   1.364
 3810SOL     OW12328   4.874   2.183   4.418
 3810SOL    HW112329   4.793   2.218   4.466
 3810SOL    HW212330   4.872   2.214   4.323
 3811SOL     OW12331   0.540   6.285   5.615
 3811SOL    HW112332   0.471   6.327   5.555
 3811SOL    HW212333   0.626   6.336   5.606
 3812SOL     OW12334   4.698   5.446   0.348
 3812SOL    HW112335   4.718   5.428   0.444
 3812SOL    HW212336   4.755   5.522   0.316
 3813SOL     OW12337   0.034   3.840   6.583
 3813SOL    HW112338   0.041   3.899   6.503
 3813SOL    HW212339   0.050   3.745   6.556
 3814SOL     OW12340   0.185   0.531   5.095
 3814SOL    HW112341   0.275   0.509   5.056
 3814SOL    HW212342   0.131   0.580   5.027
 3815SOL     OW12343   4.692   1.870   5.803
 3815SOL    HW112344   4.684   1.771   5.813
 3815SOL    HW212345   4.660   1.898   5.713
 3816SOL     OW12346   6.559   6.681   2.000
 3816SOL    HW112347   6.490   6.744   2.034
 3816SOL    HW212348   6.575   6.698   1.902
 3817SOL     OW12349   3.953   3.400   2.770
 3817SOL    HW112350   3.862   3.387   2.732
 3817SOL    HW212351   3.965   3.340   2.849
 3818SOL     OW12352   4.479   5.792   2.432
 3818SOL    HW112353   4.380   5.790   2.436
 3818SOL    HW212354   4.509   5.833   2.346
 3819SOL     OW12355   6.390   2.590   3.242
 3819SOL    HW112356   6.408   2.545   3.154
 3819SOL    HW212357   6.318   2.658   3.231
 3820SOL     OW12358   3.830   6.733   5.938
 3820SOL    HW112359   3.791   6.796   5.871
 3820SOL    HW212360   3.897   6.782   5.995
 3821SOL     OW12361   1.091   6.323   1.308
 3821SOL    HW112362   1.055   6.373   1.387
 3821SOL    HW212363   1.144   6.386   1.251
 3822SOL     OW12364   6.453   6.173   1.213
 3822SOL    HW112365   6.540   6.134   1.243
 3822SOL    HW212366   6.448   6.173   1.113
 3823SOL     OW12367   6.133   5.232   4.329
 3823SOL    HW112368   6.192   5.311   4.345
 3823SOL    HW212369   6.040   5.252   4.361
 3824SOL     OW12370   1.636   2.607   0.888
 3824SOL    HW112371   1.708   2.675   0.873
 3824SOL    HW212372   1.580   2.600   0.806
 3825SOL     OW12373   0.515   4.686   5.623
 3825SOL    HW112374   0.517   4.586   5.631
 3825SOL    HW212375   0.568   4.714   5.543
 3826SOL     OW12376   4.393   4.708   3.815
 3826SOL    HW112377   4.435   4.634   3.868
 3826SOL    HW212378   4.365   4.673   3.726
 3827SOL     OW12379   0.700   1.232   0.090
 3827SOL    HW112380   0.674   1.142   0.055
 3827SOL    HW212381   0.743   1.221   0.180
 3828SOL     OW12382   2.553   3.581   5.847
 3828SOL    HW112383   2.498   3.501   5.820
 3828SOL    HW212384   2.582   3.629   5.765
 3829SOL     OW12385   6.881   2.185   1.247
 3829SOL    HW112386   6.856   2.282   1.239
 3829SOL    HW212387   6.946   2.161   1.175
 3830SOL     OW12388   5.508   6.282   3.780
 3830SOL    HW112389   5.494   6.196   3.828
 3830SOL    HW212390   5.523   6.355   3.846
 3831SOL     OW12391   5.380   2.250   4.375
 3831SOL    HW112392   5.343   2.180   4.314
 3831SOL    HW212393   5.430   2.318   4.321
 3832SOL     OW12394   6.264   1.352   4.049
 3832SOL    HW112395   6.182   1.307   4.083
 3832SOL    HW212396   6.340   1.335   4.112
 3833SOL     OW12397   2.107   3.425   5.520
 3833SOL    HW112398   2.139   3.486   5.447
 3833SOL    HW212399   2.092   3.334   5.482
 3834SOL     OW12400   4.372   5.169   0.578
 3834SOL    HW112401   4.280   5.203   0.598
 3834SOL    HW212402   4.366   5.091   0.515
 3835SOL     OW12403   4.650   5.190   4.541
 3835SOL    HW112404   4.642   5.265   4.474
 3835SOL    HW212405   4.565   5.182   4.593
 3836SOL     OW12406   0.823   0.145   5.755
 3836SOL    HW112407   0.843   0.056   5.713
 3836SOL    HW212408   0.834   0.217   5.688
 3837SOL     OW12409   4.885   4.453   5.739
 3837SOL    HW112410   4.854   4.359   5.726
 3837SOL    HW212411   4.984   4.459   5.724
 3838SOL     OW12412   0.503   1.959   3.269
 3838SOL    HW112413   0.462   2.026   3.207
 3838SOL    HW212414   0.559   2.007   3.337
 3839SOL     OW12415   4.635   1.495   3.813
 3839SOL    HW112416   4.712   1.460   3.865
 3839SOL    HW212417   4.591   1.420   3.764
 3840SOL     OW12418   4.177   2.176   6.055
 3840SOL    HW112419   4.202   2.272   6.052
 3840SOL    HW212420   4.077   2.167   6.053
 3841SOL     OW12421   5.782   4.215   2.847
 3841SOL    HW112422   5.714   4.146   2.821
 3841SOL    HW212423   5.873   4.173   2.845
 3842SOL     OW12424   1.887   3.926   5.267
 3842SOL    HW112425   1.886   3.830   5.240
 3842SOL    HW212426   1.897   3.983   5.186
 3843SOL     OW12427   5.532   2.496   6.738
 3843SOL    HW112428   5.588   2.554   6.797
 3843SOL    HW212429   5.563   2.401   6.745
 3844SOL     OW12430   5.742   5.974   0.230
 3844SOL    HW112431   5.691   5.952   0.313
 3844SOL    HW212432   5.824   6.026   0.255
 3845SOL     OW12433   2.166   5.659   0.616
 3845SOL    HW112434   2.245   5.650   0.677
 3845SOL    HW212435   2.116   5.572   0.614
 3846SOL     OW12436   6.647   3.109   3.010
 3846SOL    HW112437   6.744   3.124   2.993
 3846SOL    HW212438   6.636   3.043   3.084
 3847SOL     OW12439   0.002   1.053   6.679
 3847SOL    HW112440   6.975   1.135   6.689
 3847SOL    HW212441   0.059   1.062   6.597
 3848SOL     OW12442   5.681   5.455   2.573
 3848SOL    HW112443   5.754   5.396   2.608
 3848SOL    HW212444   5.598   5.401   2.561
 3849SOL     OW12445   0.283   3.236   5.629
 3849SOL    HW112446   0.192   3.275   5.617
 3849SOL    HW212447   0.336   3.249   5.545
 3850SOL     OW12448   3.372   2.906   1.290
 3850SOL    HW112449   3.386   2.878   1.385
 3850SOL    HW212450   3.327   2.995   1.288
 3851SOL     OW12451   0.122   5.297   2.346
 3851SOL    HW112452   0.109   5.355   2.426
 3851SOL    HW212453   0.182   5.221   2.369
 3852SOL     OW12454   3.528   0.594   5.236
 3852SOL    HW112455   3.512   0.686   5.273
 3852SOL    HW212456   3.598   0.549   5.290
 3853SOL     OW12457   1.865   1.014   3.216
 3853SOL    HW112458   1.879   1.079   3.291
 3853SOL    HW212459   1.953   0.980   3.184
 3854SOL     OW12460   6.798   1.396   2.188
 3854SOL    HW112461   6.875   1.378   2.127
 3854SOL    HW212462   6.712   1.388   2.138
 3855SOL     OW12463   2.622   5.948   6.697
 3855SOL    HW112464   2.527   5.918   6.690
 3855SOL    HW212465   2.646   5.960   6.794
 3856SOL     OW12466   0.110   2.866   6.438
 3856SOL    HW112467   0.071   2.817   6.516
 3856SOL    HW212468   0.161   2.945   6.470
 3857SOL     OW12469   1.211   0.201   5.823
 3857SOL    HW112470   1.242   0.285   5.868
 3857SOL    HW212471   1.114   0.207   5.802
 3858SOL     OW12472   3.117   0.893   4.891
 3858SOL    HW112473   3.128   0.845   4.804
 3858SOL    HW212474   3.066   0.978   4.875
 3859SOL     OW12475   5.764   6.521   3.453
 3859SOL    HW112476   5.774   6.577   3.371
 3859SOL    HW212477   5.690   6.456   3.440
 3860SOL     OW12478   1.712   6.627   4.962
 3860SOL    HW112479   1.693   6.535   4.929
 3860SOL    HW212480   1.781   6.624   5.034
 3861SOL     OW12481   2.062   6.502   2.738
 3861SOL    HW112482   2.089   6.409   2.714
 3861SOL    HW212483   2.120   6.568   2.690
 3862SOL     OW12484   2.079   0.328   4.088
 3862SOL    HW112485   1.986   0.294   4.075
 3862SOL    HW212486   2.136   0.298   4.012
 3863SOL     OW12487   4.072   6.666   1.174
 3863SOL    HW112488   4.156   6.709   1.142
 3863SOL    HW212489   4.029   6.724   1.243
 3864SOL     OW12490   0.809   1.046   5.137
 3864SOL    HW112491   0.811   1.129   5.192
 3864SOL    HW212492   0.901   1.025   5.104
 3865SOL     OW12493   4.871   1.176   0.304
 3865SOL    HW112494   4.949   1.121   0.332
 3865SOL    HW212495   4.839   1.147   0.214
 3866SOL     OW12496   3.860   1.015   6.692
 3866SOL    HW112497   3.841   0.921   6.664
 3866SOL    HW212498   3.816   1.034   6.780
 3867SOL     OW12499   6.678   3.461   2.401
 3867SOL    HW112500   6.739   3.526   2.356
 3867SOL    HW212501   6.657   3.386   2.338
 3868SOL     OW12502   4.349   0.894   6.929
 3868SOL    HW112503   4.352   0.915   7.027
 3868SOL    HW212504   4.266   0.933   6.889
 3869SOL     OW12505   2.817   1.043   3.555
 3869SOL    HW112506   2.832   1.142   3.543
 3869SOL    HW212507   2.752   1.028   3.629
 3870SOL     OW12508   6.631   1.958   6.047
 3870SOL    HW112509   6.578   1.915   6.121
 3870SOL    HW212510   6.568   1.998   5.980
 3871SOL     OW12511   2.857   5.131   4.177
 3871SOL    HW112512   2.849   5.075   4.260
 3871SOL    HW212513   2.804   5.088   4.103
 3872SOL     OW12514   3.069   3.904   5.495
 3872SOL    HW112515   3.012   3.946   5.424
 3872SOL    HW212516   3.152   3.959   5.507
 3873SOL     OW12517   5.809   2.976   6.661
 3873SOL    HW112518   5.875   2.938   6.725
 3873SOL    HW212519   5.717   2.971   6.701
 3874SOL     OW12520   1.728   0.815   1.822
 3874SOL    HW112521   1.705   0.781   1.913
 3874SOL    HW212522   1.827   0.808   1.808
 3875SOL     OW12523   0.157   0.834   6.553
 3875SOL    HW112524   0.097   0.825   6.473
 3875SOL    HW212525   0.102   0.832   6.637
 3876SOL     OW12526   3.152   5.228   1.851
 3876SOL    HW112527   3.241   5.253   1.888
 3876SOL    HW212528   3.164   5.174   1.768
 3877SOL     OW12529   0.896   1.777   5.808
 3877SOL    HW112530   0.817   1.778   5.747
 3877SOL    HW212531   0.892   1.696   5.866
 3878SOL     OW12532   4.160   1.523   4.987
 3878SOL    HW112533   4.077   1.528   4.932
 3878SOL    HW212534   4.151   1.448   5.053
 3879SOL     OW12535   5.425   5.193   6.826
 3879SOL    HW112536   5.490   5.265   6.848
 3879SOL    HW212537   5.373   5.219   6.745
 3880SOL     OW12538   4.985   5.680   3.569
 3880SOL    HW112539   5.008   5.595   3.616
 3880SOL    HW212540   4.922   5.661   3.494
 3881SOL     OW12541   1.963   2.893   0.029
 3881SOL    HW112542   1.864   2.889   0.032
 3881SOL    HW212543   1.997   2.830   6.988
 3882SOL     OW12544   0.189   2.751   5.984
 3882SOL    HW112545   0.245   2.833   5.988
 3882SOL    HW212546   0.173   2.716   6.076
 3883SOL     OW12547   3.820   5.811   4.443
 3883SOL    HW112548   3.791   5.794   4.538
 3883SOL    HW212549   3.911   5.854   4.443
 3884SOL     OW12550   6.655   2.892   1.720
 3884SOL    HW112551   6.596   2.852   1.650
 3884SOL    HW212552   6.747   2.903   1.684
 3885SOL     OW12553   3.791   5.511   2.279
 3885SOL    HW112554   3.767   5.570   2.201
 3885SOL    HW212555   3.851   5.562   2.341
 3886SOL     OW12556   2.965   5.216   6.657
 3886SOL    HW112557   2.958   5.231   6.755
 3886SOL    HW212558   2.876   5.235   6.614
 3887SOL     OW12559   1.924   6.113   2.148
 3887SOL    HW112560   1.849   6.047   2.138
 3887SOL    HW212561   1.982   6.109   2.066
 3888SOL     OW12562   5.189   5.118   3.187
 3888SOL    HW112563   5.250   5.158   3.119
 3888SOL    HW212564   5.162   5.189   3.253
 3889SOL     OW12565   5.190   2.722   0.635
 3889SOL    HW112566   5.236   2.640   0.602
 3889SOL    HW212567   5.257   2.792   0.660
 3890SOL     OW12568   4.502   4.489   3.942
 3890SOL    HW112569   4.474   4.493   4.038
 3890SOL    HW212570   4.566   4.413   3.929
 3891SOL     OW12571   4.699   4.835   3.600
 3891SOL    HW112572   4.601   4.836   3.577
 3891SOL    HW212573   4.711   4.816   3.697
 3892SOL     OW12574   0.283   1.650   1.313
 3892SOL    HW112575   0.378   1.641   1.284
 3892SOL    HW212576   0.226   1.589   1.257
 3893SOL     OW12577   3.092   3.100   3.013
 3893SOL    HW112578   3.084   3.199   3.029
 3893SOL    HW212579   3.081   3.051   3.099
 3894SOL     OW12580   4.223   0.431   6.060
 3894SOL    HW112581   4.145   0.453   6.001
 3894SOL    HW212582   4.302   0.485   6.033
 3895SOL     OW12583   1.028   0.132   4.400
 3895SOL    HW112584   1.016   0.198   4.327
 3895SOL    HW212585   0.954   0.064   4.396
 3896SOL     OW12586   2.265   1.833   6.439
 3896SOL    HW112587   2.286   1.748   6.488
 3896SOL    HW212588   2.216   1.895   6.500
 3897SOL     OW12589   3.384   5.846   0.968
 3897SOL    HW112590   3.477   5.810   0.970
 3897SOL    HW212591   3.319   5.771   0.975
 3898SOL     OW12592   4.296   3.394   0.982
 3898SOL    HW112593   4.269   3.420   0.890
 3898SOL    HW212594   4.253   3.306   1.005
 3899SOL     OW12595   3.246   6.945   4.999
 3899SOL    HW112596   3.180   6.934   5.074
 3899SOL    HW212597   3.320   6.879   5.010
 3900SOL     OW12598   4.179   4.708   2.462
 3900SOL    HW112599   4.238   4.740   2.388
 3900SOL    HW212600   4.163   4.610   2.452
 3901SOL     OW12601   3.377   1.369   6.611
 3901SOL    HW112602   3.435   1.324   6.678
 3901SOL    HW212603   3.335   1.301   6.551
 3902SOL     OW12604   4.775   2.804   2.566
 3902SOL    HW112605   4.773   2.892   2.519
 3902SOL    HW212606   4.790   2.818   2.664
 3903SOL     OW12607   3.656   5.187   6.657
 3903SOL    HW112608   3.683   5.282   6.640
 3903SOL    HW212609   3.735   5.135   6.688
 3904SOL     OW12610   1.578   6.578   1.079
 3904SOL    HW112611   1.551   6.670   1.051
 3904SOL    HW212612   1.636   6.583   1.159
 3905SOL     OW12613   0.481   6.287   5.094
 3905SOL    HW112614   0.425   6.366   5.072
 3905SOL    HW212615   0.555   6.315   5.156
 3906SOL     OW12616   0.934   6.306   5.231
 3906SOL    HW112617   0.988   6.282   5.150
 3906SOL    HW212618   0.878   6.228   5.258
 3907SOL     OW12619   5.497   2.259   3.986
 3907SOL    HW112620   5.400   2.282   3.989
 3907SOL    HW212621   5.551   2.343   3.997
 3908SOL     OW12622   2.680   3.885   6.113
 3908SOL    HW112623   2.608   3.817   6.102
 3908SOL    HW212624   2.700   3.898   6.210
 3909SOL     OW12625   4.517   6.174   3.852
 3909SOL    HW112626   4.591   6.133   3.905
 3909SOL    HW212627   4.496   6.264   3.888
 3910SOL     OW12628   3.437   3.643   2.683
 3910SOL    HW112629   3.527   3.671   2.650
 3910SOL    HW212630   3.369   3.713   2.659
 3911SOL     OW12631   5.468   2.155   5.579
 3911SOL    HW112632   5.565   2.133   5.585
 3911SOL    HW212633   5.442   2.165   5.482
 3912SOL     OW12634   5.623   3.134   6.522
 3912SOL    HW112635   5.703   3.090   6.563
 3912SOL    HW212636   5.650   3.222   6.484
 3913SOL     OW12637   1.069   6.959   1.251
 3913SOL    HW112638   1.008   6.880   1.250
 3913SOL    HW212639   1.141   6.947   1.183
 3914SOL     OW12640   3.115   5.892   6.106
 3914SOL    HW112641   3.133   5.795   6.088
 3914SOL    HW212642   3.201   5.942   6.106
 3915SOL     OW12643   5.321   5.454   2.057
 3915SOL    HW112644   5.293   5.358   2.060
 3915SOL    HW212645   5.240   5.513   2.058
 3916SOL     OW12646   6.909   0.234   3.427
 3916SOL    HW112647   6.827   0.206   3.479
 3916SOL    HW212648   6.965   0.294   3.484
 3917SOL     OW12649   2.985   0.154   6.665
 3917SOL    HW112650   2.957   0.078   6.605
 3917SOL    HW212651   3.076   0.185   6.639
 3918SOL     OW12652   6.236   3.271   0.391
 3918SOL    HW112653   6.290   3.303   0.469
 3918SOL    HW212654   6.147   3.239   0.423
 3919SOL     OW12655   3.283   6.304   0.729
 3919SOL    HW112656   3.209   6.323   0.793
 3919SOL    HW212657   3.324   6.215   0.750
 3920SOL     OW12658   2.236   1.091   6.131
 3920SOL    HW112659   2.260   1.186   6.107
 3920SOL    HW212660   2.319   1.036   6.132
 3921SOL     OW12661   0.372   3.218   0.903
 3921SOL    HW112662   0.357   3.224   1.002
 3921SOL    HW212663   0.363   3.123   0.874
 3922SOL     OW12664   0.040   5.090   1.172
 3922SOL    HW112665   7.024   5.041   1.247
 3922SOL    HW212666   0.026   5.188   1.184
 3923SOL     OW12667   0.232   5.491   0.235
 3923SOL    HW112668   0.214   5.581   0.275
 3923SOL    HW212669   0.146   5.451   0.203
 3924SOL     OW12670   6.517   4.936   4.133
 3924SOL    HW112671   6.556   4.911   4.044
 3924SOL    HW212672   6.491   5.032   4.133
 3925SOL     OW12673   0.429   5.001   1.343
 3925SOL    HW112674   0.391   5.065   1.410
 3925SOL    HW212675   0.506   4.951   1.383
 3926SOL     OW12676   2.632   5.961   3.216
 3926SOL    HW112677   2.648   5.864   3.234
 3926SOL    HW212678   2.643   5.979   3.118
 3927SOL     OW12679   2.616   3.680   6.346
 3927SOL    HW112680   2.580   3.755   6.401
 3927SOL    HW212681   2.565   3.675   6.260
 3928SOL     OW12682   0.325   6.782   6.294
 3928SOL    HW112683   0.336   6.846   6.218
 3928SOL    HW212684   0.244   6.806   6.347
 3929SOL     OW12685   1.128   1.425   4.701
 3929SOL    HW112686   1.124   1.455   4.606
 3929SOL    HW212687   1.133   1.325   4.704
 3930SOL     OW12688   3.008   1.830   4.033
 3930SOL    HW112689   2.978   1.740   4.001
 3930SOL    HW212690   3.107   1.840   4.017
 3931SOL     OW12691   3.594   6.270   2.341
 3931SOL    HW112692   3.623   6.177   2.364
 3931SOL    HW212693   3.647   6.336   2.395
 3932SOL     OW12694   2.128   3.844   3.368
 3932SOL    HW112695   2.118   3.834   3.269
 3932SOL    HW212696   2.161   3.758   3.407
 3933SOL     OW12697   2.036   0.589   5.870
 3933SOL    HW112698   2.036   0.509   5.809
 3933SOL    HW212699   2.026   0.672   5.816
 3934SOL     OW12700   4.935   5.724   0.466
 3934SOL    HW112701   4.885   5.691   0.546
 3934SOL    HW212702   5.023   5.676   0.459
 3935SOL     OW12703   4.496   6.944   2.151
 3935SOL    HW112704   4.477   6.973   2.244
 3935SOL    HW212705   4.423   6.975   2.090
 3936SOL     OW12706   0.924   4.032   2.692
 3936SOL    HW112707   0.845   3.979   2.661
 3936SOL    HW212708   0.927   4.119   2.643
 3937SOL     OW12709   0.267   1.759   2.840
 3937SOL    HW112710   0.341   1.693   2.854
 3937SOL    HW212711   0.232   1.789   2.928
 3938SOL     OW12712   6.072   3.135   2.650
 3938SOL    HW112713   6.122   3.066   2.703
 3938SOL    HW212714   6.128   3.166   2.574
 3939SOL     OW12715   1.465   2.639   1.947
 3939SOL    HW112716   1.375   2.680   1.941
 3939SOL    HW212717   1.483   2.584   1.866
 3940SOL     OW12718   4.382   4.364   1.230
 3940SOL    HW112719   4.366   4.435   1.298
 3940SOL    HW212720   4.420   4.283   1.274
 3941SOL     OW12721   5.541   3.130   0.299
 3941SOL    HW112722   5.456   3.077   0.289
 3941SOL    HW212723   5.619   3.069   0.295
 3942SOL     OW12724   6.339   6.650   0.905
 3942SOL    HW112725   6.335   6.609   0.814
 3942SOL    HW212726   6.255   6.702   0.922
 3943SOL     OW12727   0.091   3.155   4.528
 3943SOL    HW112728   0.188   3.172   4.545
 3943SOL    HW212729   0.076   3.139   4.431
 3944SOL     OW12730   5.635   2.523   5.176
 3944SOL    HW112731   5.728   2.504   5.145
 3944SOL    HW212732   5.605   2.611   5.139
 3945SOL     OW12733   0.325   7.009   1.061
 3945SOL    HW112734   0.380   0.034   0.997
 3945SOL    HW212735   0.385   6.965   1.127
 3946SOL     OW12736   3.597   4.932   3.827
 3946SOL    HW112737   3.687   4.957   3.792
 3946SOL    HW212738   3.607   4.891   3.918
 3947SOL     OW12739   0.211   4.370   5.845
 3947SOL    HW112740   0.207   4.280   5.801
 3947SOL    HW212741   0.242   4.359   5.940
 3948SOL     OW12742   6.447   3.324   1.750
 3948SOL    HW112743   6.497   3.332   1.836
 3948SOL    HW212744   6.468   3.403   1.692
 3949SOL     OW12745   5.544   6.356   2.661
 3949SOL    HW112746   5.594   6.333   2.577
 3949SOL    HW212747   5.552   6.282   2.727
 3950SOL     OW12748   1.830   6.112   0.235
 3950SOL    HW112749   1.741   6.075   0.263
 3950SOL    HW212750   1.886   6.128   0.315
 3951SOL     OW12751   5.475   5.517   2.267
 3951SOL    HW112752   5.430   5.495   2.180
 3951SOL    HW212753   5.532   5.439   2.295
 3952SOL     OW12754   6.252   0.887   0.273
 3952SOL    HW112755   6.179   0.896   0.340
 3952SOL    HW212756   6.228   0.937   0.190
 3953SOL     OW12757   3.030   3.804   2.742
 3953SOL    HW112758   3.098   3.877   2.749
 3953SOL    HW212759   2.980   3.813   2.656
 3954SOL     OW12760   4.235   4.018   5.745
 3954SOL    HW112761   4.217   4.117   5.744
 3954SOL    HW212762   4.221   3.983   5.838
 3955SOL     OW12763   4.130   1.356   4.700
 3955SOL    HW112764   4.051   1.327   4.754
 3955SOL    HW212765   4.127   1.455   4.686
 3956SOL     OW12766   2.680   1.158   0.642
 3956SOL    HW112767   2.736   1.232   0.603
 3956SOL    HW212768   2.714   1.136   0.733
 3957SOL     OW12769   4.462   2.203   3.852
 3957SOL    HW112770   4.511   2.269   3.910
 3957SOL    HW212771   4.414   2.137   3.910
 3958SOL     OW12772   5.290   6.509   5.847
 3958SOL    HW112773   5.368   6.468   5.800
 3958SOL    HW212774   5.208   6.498   5.790
 3959SOL     OW12775   5.746   6.129   6.636
 3959SOL    HW112776   5.686   6.209   6.635
 3959SOL    HW212777   5.721   6.068   6.560
 3960SOL     OW12778   6.486   2.670   4.226
 3960SOL    HW112779   6.524   2.762   4.227
 3960SOL    HW212780   6.528   2.616   4.153
 3961SOL     OW12781   5.101   6.927   4.250
 3961SOL    HW112782   5.166   6.944   4.176
 3961SOL    HW212783   5.146   6.877   4.324
 3962SOL     OW12784   6.527   5.254   4.246
 3962SOL    HW112785   6.466   5.324   4.208
 3962SOL    HW212786   6.485   5.215   4.328
 3963SOL     OW12787   3.377   6.023   1.783
 3963SOL    HW112788   3.324   5.939   1.769
 3963SOL    HW212789   3.315   6.099   1.801
 3964SOL     OW12790   6.314   2.288   4.104
 3964SOL    HW112791   6.249   2.228   4.151
 3964SOL    HW212792   6.287   2.383   4.119
 3965SOL     OW12793   4.993   4.424   4.388
 3965SOL    HW112794   5.000   4.365   4.308
 3965SOL    HW212795   4.902   4.414   4.429
 3966SOL     OW12796   3.229   6.471   6.627
 3966SOL    HW112797   3.271   6.402   6.686
 3966SOL    HW212798   3.299   6.536   6.598
 3967SOL     OW12799   2.033   3.895   3.892
 3967SOL    HW112800   2.076   3.920   3.979
 3967SOL    HW212801   2.052   3.967   3.825
 3968SOL     OW12802   4.537   6.467   0.562
 3968SOL    HW112803   4.580   6.541   0.614
 3968SOL    HW212804   4.474   6.506   0.495
 3969SOL     OW12805   0.136   4.400   3.175
 3969SOL    HW112806   0.234   4.381   3.180
 3969SOL    HW212807   0.084   4.321   3.207
 3970SOL     OW12808   4.424   6.521   1.210
 3970SOL    HW112809   4.349   6.505   1.274
 3970SOL    HW212810   4.486   6.443   1.211
 3971SOL     OW12811   0.963   6.282   3.644
 3971SOL    HW112812   0.925   6.246   3.729
 3971SOL    HW212813   1.040   6.342   3.665
 3972SOL     OW12814   1.414   3.544   0.096
 3972SOL    HW112815   1.398   3.555   0.194
 3972SOL    HW212816   1.364   3.463   0.064
 3973SOL     OW12817   2.074   4.483   1.089
 3973SOL    HW112818   2.058   4.387   1.110
 3973SOL    HW212819   2.096   4.533   1.173
 3974SOL     OW12820   2.924   0.236   6.044
 3974SOL    HW112821   2.918   0.276   5.953
 3974SOL    HW212822   2.972   0.149   6.039
 3975SOL     OW12823   0.042   2.790   0.032
 3975SOL    HW112824   0.074   2.721   0.096
 3975SOL    HW212825   0.033   2.749   6.970
 3976SOL     OW12826   0.975   4.252   2.518
 3976SOL    HW112827   1.074   4.240   2.514
 3976SOL    HW212828   0.946   4.312   2.443
 3977SOL     OW12829   0.257   2.933   6.958
 3977SOL    HW112830   0.176   2.906   7.011
 3977SOL    HW212831   0.230   2.946   6.862
 3978SOL     OW12832   5.445   4.059   3.723
 3978SOL    HW112833   5.543   4.075   3.715
 3978SOL    HW212834   5.416   3.997   3.650
 3979SOL     OW12835   3.782   6.135   6.114
 3979SOL    HW112836   3.720   6.160   6.040
 3979SOL    HW212837   3.757   6.186   6.197
 3980SOL     OW12838   5.306   4.736   5.732
 3980SOL    HW112839   5.311   4.763   5.636
 3980SOL    HW212840   5.258   4.807   5.784
 3981SOL     OW12841   4.719   5.506   6.812
 3981SOL    HW112842   4.628   5.491   6.850
 3981SOL    HW212843   4.787   5.466   6.874
 3982SOL     OW12844   2.710   5.981   2.972
 3982SOL    HW112845   2.799   5.986   2.927
 3982SOL    HW212846   2.639   5.960   2.904
 3983SOL     OW12847   3.568   5.891   4.349
 3983SOL    HW112848   3.653   5.840   4.355
 3983SOL    HW212849   3.557   5.948   4.431
 3984SOL     OW12850   6.228   3.176   3.238
 3984SOL    HW112851   6.279   3.237   3.177
 3984SOL    HW212852   6.291   3.139   3.307
 3985SOL     OW12853   4.537   5.408   6.396
 3985SOL    HW112854   4.504   5.476   6.331
 3985SOL    HW212855   4.501   5.318   6.371
 3986SOL     OW12856   5.323   0.808   2.665
 3986SOL    HW112857   5.309   0.710   2.649
 3986SOL    HW212858   5.313   0.857   2.578
 3987SOL     OW12859   3.590   5.275   5.619
 3987SOL    HW112860   3.549   5.186   5.600
 3987SOL    HW212861   3.658   5.265   5.692
 3988SOL     OW12862   4.592   5.699   0.842
 3988SOL    HW112863   4.565   5.605   0.823
 3988SOL    HW212864   4.523   5.762   0.807
 3989SOL     OW12865   6.790   2.433   1.256
 3989SOL    HW112866   6.696   2.449   1.223
 3989SOL    HW212867   6.843   2.517   1.245
 3990SOL     OW12868   6.965   1.691   1.111
 3990SOL    HW112869   0.011   1.686   1.046
 3990SOL    HW212870   6.933   1.599   1.133
 3991SOL     OW12871   4.642   1.416   3.289
 3991SOL    HW112872   4.738   1.423   3.315
 3991SOL    HW212873   4.606   1.506   3.266
 3992SOL     OW12874   4.155   1.773   1.721
 3992SOL    HW112875   4.098   1.786   1.802
 3992SOL    HW212876   4.231   1.712   1.744
 3993SOL     OW12877   1.255   3.319   1.596
 3993SOL    HW112878   1.268   3.326   1.695
 3993SOL    HW212879   1.341   3.291   1.553
 3994SOL     OW12880   2.705   5.599   4.504
 3994SOL    HW112881   2.678   5.681   4.453
 3994SOL    HW212882   2.741   5.531   4.440
 3995SOL     OW12883   1.221   1.857   3.862
 3995SOL    HW112884   1.176   1.871   3.773
 3995SOL    HW212885   1.177   1.914   3.931
 3996SOL     OW12886   6.718   5.690   4.434
 3996SOL    HW112887   6.750   5.620   4.497
 3996SOL    HW212888   6.767   5.682   4.347
 3997SOL     OW12889   2.924   0.300   3.034
 3997SOL    HW112890   2.932   0.400   3.040
 3997SOL    HW212891   2.936   0.272   2.938
 3998SOL     OW12892   4.307   2.052   3.188
 3998SOL    HW112893   4.304   1.954   3.203
 3998SOL    HW212894   4.346   2.071   3.098
 3999SOL     OW12895   4.304   1.180   4.274
 3999SOL    HW112896   4.209   1.209   4.263
 3999SOL    HW212897   4.339   1.214   4.362
 4000SOL     OW12898   4.880   5.302   4.642
 4000SOL    HW112899   4.867   5.388   4.691
 4000SOL    HW212900   4.790   5.263   4.618
 4001SOL     OW12901   0.761   1.548   4.992
 4001SOL    HW112902   0.859   1.547   4.970
 4001SOL    HW212903   0.722   1.459   4.972
 4002SOL     OW12904   2.048   5.107   2.043
 4002SOL    HW112905   2.117   5.080   2.110
 4002SOL    HW212906   1.974   5.040   2.041
 4003SOL     OW12907   3.712   1.835   4.472
 4003SOL    HW112908   3.648   1.908   4.447
 4003SOL    HW212909   3.767   1.811   4.392
 4004SOL     OW12910   6.957   1.828   6.354
 4004SOL    HW112911   0.005   1.875   6.311
 4004SOL    HW212912   6.887   1.895   6.379
 4005SOL     OW12913   6.804   4.921   4.712
 4005SOL    HW112914   6.867   4.859   4.759
 4005SOL    HW212915   6.710   4.898   4.737
 4006SOL     OW12916   3.364   6.169   3.139
 4006SOL    HW112917   3.458   6.143   3.160
 4006SOL    HW212918   3.365   6.250   3.080
 4007SOL     OW12919   0.418   1.747   5.587
 4007SOL    HW112920   0.390   1.747   5.683
 4007SOL    HW212921   0.349   1.701   5.532
 4008SOL     OW12922   3.466   1.442   5.027
 4008SOL    HW112923   3.383   1.495   5.047
 4008SOL    HW212924   3.450   1.346   5.052
 4009SOL     OW12925   3.924   3.959   2.977
 4009SOL    HW112926   4.009   3.947   3.030
 4009SOL    HW212927   3.872   4.035   3.016
 4010SOL     OW12928   1.115   3.254   0.972
 4010SOL    HW112929   1.054   3.261   1.050
 4010SOL    HW212930   1.071   3.294   0.891
 4011SOL     OW12931   0.563   1.432   0.628
 4011SOL    HW112932   0.631   1.427   0.701
 4011SOL    HW212933   0.604   1.473   0.547
 4012SOL     OW12934   5.217   3.338   3.400
 4012SOL    HW112935   5.311   3.371   3.403
 4012SOL    HW212936   5.202   3.285   3.317
 4013SOL     OW12937   5.255   3.006   2.877
 4013SOL    HW112938   5.317   2.975   2.949
 4013SOL    HW212939   5.178   2.943   2.869
 4014SOL     OW12940   5.428   4.772   2.845
 4014SOL    HW112941   5.419   4.672   2.848
 4014SOL    HW212942   5.525   4.797   2.849
 4015SOL     OW12943   5.032   3.678   0.064
 4015SOL    HW112944   5.039   3.703   0.160
 4015SOL    HW212945   5.112   3.711   0.014
 4016SOL     OW12946   3.040   6.584   4.482
 4016SOL    HW112947   3.006   6.523   4.411
 4016SOL    HW212948   2.971   6.652   4.505
 4017SOL     OW12949   5.071   6.484   6.198
 4017SOL    HW112950   5.056   6.437   6.285
 4017SOL    HW212951   4.991   6.471   6.139
 4018SOL     OW12952   1.930   0.146   6.849
 4018SOL    HW112953   1.874   0.180   6.773
 4018SOL    HW212954   1.890   0.062   6.885
 4019SOL     OW12955   5.350   6.624   4.008
 4019SOL    HW112956   5.434   6.583   4.043
 4019SOL    HW212957   5.352   6.723   4.021
 4020SOL     OW12958   5.603   1.949   4.695
 4020SOL    HW112959   5.633   1.854   4.702
 4020SOL    HW212960   5.662   2.006   4.752
 4021SOL     OW12961   4.781   3.185   6.848
 4021SOL    HW112962   4.760   3.276   6.813
 4021SOL    HW212963   4.876   3.162   6.828
 4022SOL     OW12964   5.082   0.954   0.864
 4022SOL    HW112965   5.069   1.047   0.830
 4022SOL    HW212966   5.141   0.904   0.801
 4023SOL     OW12967   6.861   5.877   5.464
 4023SOL    HW112968   6.918   5.802   5.432
 4023SOL    HW212969   6.821   5.853   5.552
 4024SOL     OW12970   4.166   4.277   5.773
 4024SOL    HW112971   4.159   4.347   5.844
 4024SOL    HW212972   4.080   4.273   5.722
 4025SOL     OW12973   0.266   4.007   4.176
 4025SOL    HW112974   0.355   4.052   4.177
 4025SOL    HW212975   0.278   3.911   4.151
 4026SOL     OW12976   5.855   1.352   5.409
 4026SOL    HW112977   5.831   1.324   5.317
 4026SOL    HW212978   5.954   1.358   5.418
 4027SOL     OW12979   2.856   5.116   2.593
 4027SOL    HW112980   2.863   5.199   2.538
 4027SOL    HW212981   2.761   5.087   2.596
 4028SOL     OW12982   1.196   5.528   2.824
 4028SOL    HW112983   1.171   5.450   2.882
 4028SOL    HW212984   1.257   5.496   2.751
 4029SOL     OW12985   1.800   4.221   3.354
 4029SOL    HW112986   1.820   4.241   3.450
 4029SOL    HW212987   1.815   4.123   3.338
 4030SOL     OW12988   2.682   1.102   6.189
 4030SOL    HW112989   2.729   1.032   6.136
 4030SOL    HW212990   2.598   1.063   6.228
 4031SOL     OW12991   6.937   6.209   4.346
 4031SOL    HW112992   6.948   6.130   4.407
 4031SOL    HW212993   6.898   6.179   4.259
 4032SOL     OW12994   3.622   0.258   4.844
 4032SOL    HW112995   3.584   0.348   4.865
 4032SOL    HW212996   3.613   0.240   4.746
 4033SOL     OW12997   3.605   3.988   6.519
 4033SOL    HW112998   3.656   3.943   6.592
 4033SOL    HW212999   3.648   4.076   6.499
 4034SOL     OW13000   6.119   3.356   5.089
 4034SOL    HW113001   6.077   3.446   5.080
 4034SOL    HW213002   6.052   3.291   5.125
 4035SOL     OW13003   0.164   6.437   2.320
 4035SOL    HW113004   0.123   6.437   2.412
 4035SOL    HW213005   0.251   6.485   2.322
 4036SOL     OW13006   6.093   6.180   1.231
 4036SOL    HW113007   6.159   6.162   1.304
 4036SOL    HW213008   6.002   6.154   1.261
 4037SOL     OW13009   0.920   4.139   6.508
 4037SOL    HW113010   0.988   4.208   6.485
 4037SOL    HW213011   0.947   4.051   6.469
 4038SOL     OW13012   6.515   5.437   3.272
 4038SOL    HW113013   6.499   5.418   3.369
 4038SOL    HW213014   6.579   5.370   3.235
 4039SOL     OW13015   2.585   5.178   1.350
 4039SOL    HW113016   2.530   5.125   1.415
 4039SOL    HW213017   2.526   5.212   1.277
 4040SOL     OW13018   2.850   0.343   0.075
 4040SOL    HW113019   2.899   0.285   0.140
 4040SOL    HW213020   2.761   0.368   0.113
 4041SOL     OW13021   0.257   6.007   3.274
 4041SOL    HW113022   0.333   6.055   3.232
 4041SOL    HW213023   0.204   5.959   3.203
 4042SOL     OW13024   5.430   5.261   1.418
 4042SOL    HW113025   5.516   5.215   1.443
 4042SOL    HW213026   5.355   5.223   1.472
 4043SOL     OW13027   0.049   3.403   0.815
 4043SOL    HW113028   0.114   3.462   0.864
 4043SOL    HW213029   0.016   3.331   0.876
 4044SOL     OW13030   5.328   4.851   2.583
 4044SOL    HW113031   5.259   4.779   2.583
 4044SOL    HW213032   5.369   4.858   2.674
 4045SOL     OW13033   2.991   5.376   5.607
 4045SOL    HW113034   2.966   5.290   5.563
 4045SOL    HW213035   2.910   5.420   5.644
 4046SOL     OW13036   0.958   4.012   0.809
 4046SOL    HW113037   1.037   4.037   0.865
 4046SOL    HW213038   0.955   4.071   0.728
 4047SOL     OW13039   3.444   4.083   3.409
 4047SOL    HW113040   3.355   4.075   3.452
 4047SOL    HW213041   3.437   4.058   3.312
 4048SOL     OW13042   5.085   2.361   0.806
 4048SOL    HW113043   5.113   2.306   0.727
 4048SOL    HW213044   5.001   2.410   0.783
 4049SOL     OW13045   6.485   6.186   0.261
 4049SOL    HW113046   6.558   6.250   0.241
 4049SOL    HW213047   6.491   6.157   0.357
 4050SOL     OW13048   2.231   1.225   2.030
 4050SOL    HW113049   2.213   1.127   2.034
 4050SOL    HW213050   2.283   1.253   2.111
 4051SOL     OW13051   3.097   4.119   0.990
 4051SOL    HW113052   3.105   4.029   1.032
 4051SOL    HW213053   3.046   4.111   0.904
 4052SOL     OW13054   1.168   0.258   0.879
 4052SOL    HW113055   1.097   0.192   0.905
 4052SOL    HW213056   1.245   0.208   0.838
 4053SOL     OW13057   2.625   5.863   2.129
 4053SOL    HW113058   2.559   5.931   2.159
 4053SOL    HW213059   2.717   5.891   2.157
 4054SOL     OW13060   5.273   1.791   6.414
 4054SOL    HW113061   5.225   1.858   6.471
 4054SOL    HW213062   5.208   1.722   6.382
 4055SOL     OW13063   4.631   3.707   6.206
 4055SOL    HW113064   4.669   3.696   6.298
 4055SOL    HW213065   4.690   3.768   6.153
 4056SOL     OW13066   4.286   3.426   0.076
 4056SOL    HW113067   4.334   3.366   0.012
 4056SOL    HW213068   4.293   3.521   0.045
 4057SOL     OW13069   6.681   2.308   0.560
 4057SOL    HW113070   6.664   2.341   0.653
 4057SOL    HW213071   6.779   2.306   0.543
 4058SOL     OW13072   1.417   3.834   3.982
 4058SOL    HW113073   1.385   3.899   3.913
 4058SOL    HW213074   1.505   3.795   3.952
 4059SOL     OW13075   0.082   2.117   5.218
 4059SOL    HW113076   0.104   2.020   5.204
 4059SOL    HW213077   7.020   2.124   5.259
 4060SOL     OW13078   2.152   6.951   6.080
 4060SOL    HW113079   2.149   6.852   6.092
 4060SOL    HW213080   2.096   6.977   6.000
 4061SOL     OW13081   1.848   2.722   2.092
 4061SOL    HW113082   1.789   2.645   2.114
 4061SOL    HW213083   1.824   2.800   2.150
 4062SOL     OW13084   2.666   0.918   2.961
 4062SOL    HW113085   2.590   0.982   2.969
 4062SOL    HW213086   2.750   0.960   2.995
 4063SOL     OW13087   3.996   6.538   5.828
 4063SOL    HW113088   3.977   6.449   5.869
 4063SOL    HW213089   3.950   6.610   5.881
 4064SOL     OW13090   6.263   6.924   4.433
 4064SOL    HW113091   6.217   6.974   4.360
 4064SOL    HW213092   6.216   6.939   4.519
 4065SOL     OW13093   0.723   4.546   5.806
 4065SOL    HW113094   0.762   4.636   5.788
 4065SOL    HW213095   0.668   4.550   5.890
 4066SOL     OW13096   4.886   3.779   2.305
 4066SOL    HW113097   4.917   3.847   2.239
 4066SOL    HW213098   4.918   3.803   2.397
 4067SOL     OW13099   5.086   0.256   1.599
 4067SOL    HW113100   5.024   0.259   1.520
 4067SOL    HW213101   5.178   0.281   1.569
 4068SOL     OW13102   5.432   0.153   4.529
 4068SOL    HW113103   5.335   0.135   4.513
 4068SOL    HW213104   5.464   0.098   4.606
 4069SOL     OW13105   6.199   6.036   0.919
 4069SOL    HW113106   6.204   5.998   0.827
 4069SOL    HW213107   6.104   6.060   0.940
 4070SOL     OW13108   0.423   3.672   2.722
 4070SOL    HW113109   0.348   3.662   2.656
 4070SOL    HW213110   0.506   3.629   2.685
 4071SOL     OW13111   2.767   6.877   4.653
 4071SOL    HW113112   2.750   6.972   4.680
 4071SOL    HW213113   2.767   6.870   4.554
 4072SOL     OW13114   0.093   0.591   4.809
 4072SOL    HW113115   0.001   0.629   4.811
 4072SOL    HW213116   0.088   0.491   4.804
 4073SOL     OW13117   2.646   4.377   1.706
 4073SOL    HW113118   2.630   4.440   1.631
 4073SOL    HW213119   2.712   4.418   1.770
 4074SOL     OW13120   0.059   2.627   1.721
 4074SOL    HW113121   0.123   2.562   1.761
 4074SOL    HW213122   0.007   2.671   1.794
 4075SOL     OW13123   6.644   0.539   3.783
 4075SOL    HW113124   6.679   0.547   3.876
 4075SOL    HW213125   6.659   0.625   3.734
 4076SOL     OW13126   1.506   3.584   3.279
 4076SOL    HW113127   1.590   3.625   3.315
 4076SOL    HW213128   1.531   3.508   3.218
 4077SOL     OW13129   3.702   0.556   1.537
 4077SOL    HW113130   3.697   0.472   1.592
 4077SOL    HW213131   3.743   0.629   1.591
 4078SOL     OW13132   4.982   4.007   2.571
 4078SOL    HW113133   4.895   4.028   2.525
 4078SOL    HW213134   5.051   4.075   2.545
 4079SOL     OW13135   4.734   1.039   2.973
 4079SOL    HW113136   4.819   1.078   2.938
 4079SOL    HW213137   4.667   1.112   2.988
 4080SOL     OW13138   4.142   3.499   4.307
 4080SOL    HW113139   4.060   3.556   4.313
 4080SOL    HW213140   4.223   3.558   4.301
 4081SOL     OW13141   2.688   6.858   0.402
 4081SOL    HW113142   2.667   6.845   0.305
 4081SOL    HW213143   2.654   6.780   0.454
 4082SOL     OW13144   1.381   1.521   6.283
 4082SOL    HW113145   1.313   1.505   6.354
 4082SOL    HW213146   1.430   1.605   6.303
 4083SOL     OW13147   5.862   3.778   2.298
 4083SOL    HW113148   5.865   3.727   2.384
 4083SOL    HW213149   5.892   3.872   2.314
 4084SOL     OW13150   4.153   5.941   3.041
 4084SOL    HW113151   4.070   5.994   3.060
 4084SOL    HW213152   4.156   5.916   2.945
 4085SOL     OW13153   1.373   4.409   2.706
 4085SOL    HW113154   1.394   4.474   2.633
 4085SOL    HW213155   1.456   4.392   2.759
 4086SOL     OW13156   6.179   5.142   5.442
 4086SOL    HW113157   6.217   5.054   5.412
 4086SOL    HW213158   6.099   5.165   5.386
 4087SOL     OW13159   1.058   1.544   1.174
 4087SOL    HW113160   1.112   1.627   1.161
 4087SOL    HW213161   0.964   1.568   1.198
 4088SOL     OW13162   0.460   2.053   4.924
 4088SOL    HW113163   0.530   2.087   4.862
 4088SOL    HW213164   0.470   2.097   5.013
 4089SOL     OW13165   6.800   6.606   2.684
 4089SOL    HW113166   6.833   6.512   2.680
 4089SOL    HW213167   6.832   6.656   2.603
 4090SOL     OW13168   3.408   2.381   5.509
 4090SOL    HW113169   3.415   2.301   5.449
 4090SOL    HW213170   3.477   2.449   5.483
 4091SOL     OW13171   4.126   0.005   3.260
 4091SOL    HW113172   4.143   0.103   3.274
 4091SOL    HW213173   4.198   6.981   3.305
 4092SOL     OW13174   4.151   1.833   6.830
 4092SOL    HW113175   4.130   1.795   6.740
 4092SOL    HW213176   4.233   1.890   6.824
 4093SOL     OW13177   5.688   4.542   1.097
 4093SOL    HW113178   5.688   4.443   1.088
 4093SOL    HW213179   5.596   4.578   1.080
 4094SOL     OW13180   6.212   5.898   0.681
 4094SOL    HW113181   6.311   5.896   0.671
 4094SOL    HW213182   6.171   5.826   0.625
 4095SOL     OW13183   1.389   5.006   0.297
 4095SOL    HW113184   1.368   4.982   0.392
 4095SOL    HW213185   1.331   4.952   0.236
 4096SOL     OW13186   0.844   6.450   5.675
 4096SOL    HW113187   0.781   6.438   5.751
 4096SOL    HW213188   0.805   6.516   5.610
 4097SOL     OW13189   1.677   4.019   5.848
 4097SOL    HW113190   1.770   4.048   5.827
 4097SOL    HW213191   1.622   4.019   5.764
 4098SOL     OW13192   1.384   5.774   2.204
 4098SOL    HW113193   1.329   5.725   2.136
 4098SOL    HW213194   1.330   5.849   2.241
 4099SOL     OW13195   0.189   2.564   5.764
 4099SOL    HW113196   0.209   2.625   5.840
 4099SOL    HW213197   0.257   2.491   5.761
 4100SOL     OW13198   1.696   1.128   2.999
 4100SOL    HW113199   1.596   1.117   2.998
 4100SOL    HW213200   1.734   1.080   3.078
 4101SOL     OW13201   5.774   5.746   5.955
 4101SOL    HW113202   5.726   5.738   6.042
 4101SOL    HW213203   5.839   5.823   5.961
 4102SOL     OW13204   2.918   5.345   0.696
 4102SOL    HW113205   2.837   5.316   0.746
 4102SOL    HW213206   3.000   5.325   0.750
 4103SOL     OW13207   2.386   5.241   2.535
 4103SOL    HW113208   2.335   5.247   2.621
 4103SOL    HW213209   2.327   5.202   2.464
 4104SOL     OW13210   2.483   5.663   5.125
 4104SOL    HW113211   2.388   5.681   5.098
 4104SOL    HW213212   2.517   5.582   5.076
 4105SOL     OW13213   4.065   0.466   1.562
 4105SOL    HW113214   4.067   0.563   1.538
 4105SOL    HW213215   4.024   0.455   1.652
 4106SOL     OW13216   1.754   6.936   3.014
 4106SOL    HW113217   1.746   0.003   3.040
 4106SOL    HW213218   1.834   6.923   2.956
 4107SOL     OW13219   2.781   2.207   1.310
 4107SOL    HW113220   2.865   2.255   1.336
 4107SOL    HW213221   2.796   2.160   1.223
 4108SOL     OW13222   0.734   5.569   5.901
 4108SOL    HW113223   0.650   5.554   5.848
 4108SOL    HW213224   0.804   5.609   5.842
 4109SOL     OW13225   5.781   0.393   4.602
 4109SOL    HW113226   5.789   0.294   4.613
 4109SOL    HW213227   5.756   0.414   4.507
 4110SOL     OW13228   4.978   2.795   0.454
 4110SOL    HW113229   4.879   2.801   0.468
 4110SOL    HW213230   5.021   2.755   0.535
 4111SOL     OW13231   6.191   4.591   4.317
 4111SOL    HW113232   6.097   4.581   4.285
 4111SOL    HW213233   6.201   4.545   4.406
 4112SOL     OW13234   3.578   4.515   5.376
 4112SOL    HW113235   3.600   4.600   5.329
 4112SOL    HW213236   3.598   4.524   5.473
 4113SOL     OW13237   5.344   6.011   5.667
 4113SOL    HW113238   5.392   6.017   5.754
 4113SOL    HW213239   5.401   5.962   5.601
 4114SOL     OW13240   5.697   1.824   3.544
 4114SOL    HW113241   5.674   1.897   3.480
 4114SOL    HW213242   5.782   1.780   3.515
 4115SOL     OW13243   4.758   0.733   4.825
 4115SOL    HW113244   4.817   0.740   4.745
 4115SOL    HW213245   4.815   0.730   4.908
 4116SOL     OW13246   5.704   3.765   3.055
 4116SOL    HW113247   5.775   3.698   3.077
 4116SOL    HW213248   5.635   3.723   2.996
 4117SOL     OW13249   0.606   2.494   2.703
 4117SOL    HW113250   0.620   2.570   2.766
 4117SOL    HW213251   0.614   2.528   2.609
 4118SOL     OW13252   1.135   1.094   1.638
 4118SOL    HW113253   1.223   1.136   1.662
 4118SOL    HW213254   1.133   1.075   1.540
 4119SOL     OW13255   6.167   0.995   4.380
 4119SOL    HW113256   6.088   1.043   4.418
 4119SOL    HW213257   6.136   0.912   4.332
 4120SOL     OW13258   1.781   0.123   0.149
 4120SOL    HW113259   1.702   0.118   0.088
 4120SOL    HW213260   1.835   0.204   0.126
 4121SOL     OW13261   6.851   7.002   1.401
 4121SOL    HW113262   6.898   0.054   1.437
 4121SOL    HW213263   6.853   7.005   1.301
 4122SOL     OW13264   1.131   4.533   3.326
 4122SOL    HW113265   1.126   4.574   3.235
 4122SOL    HW213266   1.094   4.440   3.323
 4123SOL     OW13267   5.822   4.667   2.042
 4123SOL    HW113268   5.807   4.578   2.085
 4123SOL    HW213269   5.798   4.663   1.946
 4124SOL     OW13270   5.566   5.923   0.423
 4124SOL    HW113271   5.475   5.959   0.401
 4124SOL    HW213272   5.568   5.896   0.519
 4125SOL     OW13273   1.427   3.186   0.342
 4125SOL    HW113274   1.379   3.152   0.262
 4125SOL    HW213275   1.505   3.242   0.313
 4126SOL     OW13276   2.031   4.427   3.042
 4126SOL    HW113277   2.082   4.461   2.962
 4126SOL    HW213278   1.935   4.412   3.017
 4127SOL     OW13279   4.614   2.615   4.570
 4127SOL    HW113280   4.655   2.569   4.649
 4127SOL    HW213281   4.543   2.557   4.530
 4128SOL     OW13282   6.516   2.975   6.847
 4128SOL    HW113283   6.606   3.004   6.814
 4128SOL    HW213284   6.488   2.891   6.800
 4129SOL     OW13285   2.840   6.650   2.097
 4129SOL    HW113286   2.810   6.648   2.193
 4129SOL    HW213287   2.765   6.685   2.041
 4130SOL     OW13288   4.594   1.392   0.002
 4130SOL    HW113289   4.505   1.436   7.015
 4130SOL    HW213290   4.617   1.333   6.954
 4131SOL     OW13291   5.635   5.887   4.593
 4131SOL    HW113292   5.620   5.955   4.521
 4131SOL    HW213293   5.551   5.836   4.609
 4132SOL     OW13294   0.288   3.234   2.453
 4132SOL    HW113295   0.377   3.238   2.498
 4132SOL    HW213296   0.234   3.159   2.492
 4133SOL     OW13297   5.195   6.456   3.863
 4133SOL    HW113298   5.184   6.478   3.765
 4133SOL    HW213299   5.227   6.538   3.911
 4134SOL     OW13300   2.046   3.080   1.470
 4134SOL    HW113301   2.074   3.041   1.382
 4134SOL    HW213302   1.993   3.012   1.521
 4135SOL     OW13303   6.109   0.354   0.882
 4135SOL    HW113304   6.190   0.394   0.839
 4135SOL    HW213305   6.085   0.407   0.964
 4136SOL     OW13306   0.724   5.116   0.218
 4136SOL    HW113307   0.631   5.129   0.183
 4136SOL    HW213308   0.722   5.059   0.300
 4137SOL     OW13309   0.494   2.250   5.127
 4137SOL    HW113310   0.566   2.235   5.196
 4137SOL    HW213311   0.404   2.245   5.171
 4138SOL     OW13312   5.666   6.577   6.524
 4138SOL    HW113313   5.631   6.660   6.567
 4138SOL    HW213314   5.711   6.600   6.437
 4139SOL     OW13315   1.223   4.189   2.070
 4139SOL    HW113316   1.308   4.160   2.113
 4139SOL    HW213317   1.228   4.174   1.971
 4140SOL     OW13318   2.305   6.632   0.834
 4140SOL    HW113319   2.347   6.638   0.924
 4140SOL    HW213320   2.212   6.668   0.838
 4141SOL     OW13321   5.213   6.972   5.656
 4141SOL    HW113322   5.141   7.022   5.609
 4141SOL    HW213323   5.213   6.877   5.627
 4142SOL     OW13324   0.399   6.844   2.177
 4142SOL    HW113325   0.312   6.842   2.127
 4142SOL    HW213326   0.462   6.908   2.132
 4143SOL     OW13327   6.074   3.754   6.906
 4143SOL    HW113328   6.064   3.654   6.902
 4143SOL    HW213329   5.991   3.794   6.946
 4144SOL     OW13330   5.142   0.785   1.584
 4144SOL    HW113331   5.055   0.820   1.550
 4144SOL    HW213332   5.130   0.750   1.677
 4145SOL     OW13333   4.417   0.725   1.064
 4145SOL    HW113334   4.496   0.666   1.079
 4145SOL    HW213335   4.341   0.693   1.121
 4146SOL     OW13336   3.009   1.396   1.707
 4146SOL    HW113337   2.985   1.373   1.802
 4146SOL    HW213338   2.925   1.405   1.653
 4147SOL     OW13339   5.526   4.059   0.079
 4147SOL    HW113340   5.559   3.994   0.009
 4147SOL    HW213341   5.428   4.076   0.065
 4148SOL     OW13342   3.273   0.381   6.418
 4148SOL    HW113343   3.218   0.357   6.339
 4148SOL    HW213344   3.263   0.311   6.489
 4149SOL     OW13345   1.718   2.448   6.144
 4149SOL    HW113346   1.627   2.418   6.114
 4149SOL    HW213347   1.770   2.369   6.176
 4150SOL     OW13348   6.468   1.206   1.028
 4150SOL    HW113349   6.434   1.150   0.952
 4150SOL    HW213350   6.438   1.165   1.115
 4151SOL     OW13351   3.171   5.867   4.437
 4151SOL    HW113352   3.245   5.827   4.383
 4151SOL    HW213353   3.137   5.799   4.502
 4152SOL     OW13354   2.653   3.644   1.342
 4152SOL    HW113355   2.706   3.567   1.377
 4152SOL    HW213356   2.561   3.643   1.383
 4153SOL     OW13357   5.925   6.617   6.904
 4153SOL    HW113358   5.911   6.672   6.821
 4153SOL    HW213359   5.840   6.569   6.927
 4154SOL     OW13360   0.835   6.816   3.469
 4154SOL    HW113361   0.906   6.746   3.473
 4154SOL    HW213362   0.875   6.905   3.493
 4155SOL     OW13363   5.498   1.415   2.527
 4155SOL    HW113364   5.404   1.421   2.560
 4155SOL    HW213365   5.499   1.410   2.427
 4156SOL     OW13366   0.337   5.666   6.145
 4156SOL    HW113367   0.379   5.721   6.072
 4156SOL    HW213368   0.369   5.572   6.139
 4157SOL     OW13369   4.153   6.192   0.718
 4157SOL    HW113370   4.145   6.256   0.642
 4157SOL    HW213371   4.065   6.144   0.731
 4158SOL     OW13372   6.552   0.818   6.444
 4158SOL    HW113373   6.623   0.790   6.508
 4158SOL    HW213374   6.585   0.807   6.351
 4159SOL     OW13375   3.583   0.960   4.078
 4159SOL    HW113376   3.568   1.056   4.100
 4159SOL    HW213377   3.573   0.905   4.161
 4160SOL     OW13378   1.038   0.681   5.935
 4160SOL    HW113379   0.986   0.758   5.897
 4160SOL    HW213380   1.092   0.712   6.012
 4161SOL     OW13381   3.004   3.387   5.044
 4161SOL    HW113382   3.004   3.387   5.144
 4161SOL    HW213383   2.985   3.295   5.010
 4162SOL     OW13384   4.694   6.943   0.857
 4162SOL    HW113385   4.772   6.929   0.917
 4162SOL    HW213386   4.691   6.870   0.788
 4163SOL     OW13387   4.138   6.447   1.425
 4163SOL    HW113388   4.047   6.442   1.383
 4163SOL    HW213389   4.178   6.355   1.430
 4164SOL     OW13390   5.683   1.584   0.034
 4164SOL    HW113391   5.685   1.486   0.054
 4164SOL    HW213392   5.609   1.627   0.085
 4165SOL     OW13393   3.463   1.045   4.847
 4165SOL    HW113394   3.444   1.060   4.750
 4165SOL    HW213395   3.426   0.956   4.874
 4166SOL     OW13396   5.635   2.350   2.564
 4166SOL    HW113397   5.702   2.324   2.634
 4166SOL    HW213398   5.583   2.430   2.595
 4167SOL     OW13399   3.803   6.210   4.732
 4167SOL    HW113400   3.870   6.238   4.664
 4167SOL    HW213401   3.713   6.248   4.709
 4168SOL     OW13402   5.852   3.278   6.807
 4168SOL    HW113403   5.939   3.246   6.769
 4168SOL    HW213404   5.871   3.342   6.882
 4169SOL     OW13405   5.286   4.360   0.114
 4169SOL    HW113406   5.357   4.342   0.183
 4169SOL    HW213407   5.321   4.335   0.024
 4170SOL     OW13408   0.740   3.022   5.252
 4170SOL    HW113409   0.706   2.992   5.341
 4170SOL    HW213410   0.768   3.118   5.257
 4171SOL     OW13411   6.954   6.765   5.759
 4171SOL    HW113412   6.936   6.763   5.661
 4171SOL    HW213413   6.935   6.857   5.794
 4172SOL     OW13414   3.385   3.503   0.133
 4172SOL    HW113415   3.310   3.442   0.158
 4172SOL    HW213416   3.349   3.594   0.111
 4173SOL     OW13417   5.602   1.539   5.952
 4173SOL    HW113418   5.561   1.614   5.899
 4173SOL    HW213419   5.696   1.563   5.975
 4174SOL     OW13420   2.430   6.954   3.840
 4174SOL    HW113421   2.517   6.977   3.796
 4174SOL    HW213422   2.447   6.909   3.927
 4175SOL     OW13423   1.833   3.194   6.470
 4175SOL    HW113424   1.888   3.112   6.457
 4175SOL    HW213425   1.778   3.210   6.388
 4176SOL     OW13426   4.665   7.025   5.063
 4176SOL    HW113427   4.590   7.021   4.996
 4176SOL    HW213428   4.683   0.091   5.088
 4177SOL     OW13429   5.310   6.201   4.004
 4177SOL    HW113430   5.242   6.269   3.975
 4177SOL    HW213431   5.280   6.110   3.975
 4178SOL     OW13432   2.750   6.396   0.996
 4178SOL    HW113433   2.771   6.301   0.974
 4178SOL    HW213434   2.765   6.413   1.093
 4179SOL     OW13435   3.867   1.669   0.167
 4179SOL    HW113436   3.782   1.617   0.155
 4179SOL    HW213437   3.848   1.751   0.221
 4180SOL     OW13438   3.865   4.447   0.097
 4180SOL    HW113439   3.826   4.370   0.146
 4180SOL    HW213440   3.813   4.530   0.119
 4181SOL     OW13441   5.311   6.447   6.119
 4181SOL    HW113442   5.218   6.436   6.156
 4181SOL    HW213443   5.305   6.484   6.026
 4182SOL     OW13444   5.958   5.275   5.736
 4182SOL    HW113445   6.040   5.315   5.776
 4182SOL    HW213446   5.969   5.177   5.727
 4183SOL     OW13447   5.041   2.824   6.692
 4183SOL    HW113448   5.009   2.731   6.674
 4183SOL    HW213449   5.118   2.822   6.756
 4184SOL     OW13450   3.531   5.585   3.938
 4184SOL    HW113451   3.616   5.577   3.886
 4184SOL    HW213452   3.551   5.579   4.036
 4185SOL     OW13453   4.417   4.720   3.226
 4185SOL    HW113454   4.453   4.654   3.160
 4185SOL    HW213455   4.480   4.798   3.234
 4186SOL     OW13456   2.106   4.800   1.120
 4186SOL    HW113457   2.099   4.898   1.101
 4186SOL    HW213458   2.157   4.787   1.206
 4187SOL     OW13459   1.291   3.479   5.870
 4187SOL    HW113460   1.388   3.461   5.854
 4187SOL    HW213461   1.278   3.508   5.964
 4188SOL     OW13462   5.239   0.413   6.202
 4188SOL    HW113463   5.267   0.389   6.295
 4188SOL    HW213464   5.320   0.438   6.148
 4189SOL     OW13465   3.825   5.129   3.956
 4189SOL    HW113466   3.887   5.123   3.878
 4189SOL    HW213467   3.877   5.152   4.039
 4190SOL     OW13468   6.855   5.748   1.898
 4190SOL    HW113469   6.928   5.773   1.834
 4190SOL    HW213470   6.780   5.706   1.847
 4191SOL     OW13471   4.974   3.045   6.211
 4191SOL    HW113472   4.944   3.003   6.297
 4191SOL    HW213473   5.040   2.985   6.165
 4192SOL     OW13474   1.844   3.562   6.584
 4192SOL    HW113475   1.840   3.658   6.559
 4192SOL    HW213476   1.765   3.538   6.639
 4193SOL     OW13477   4.907   6.541   1.508
 4193SOL    HW113478   4.989   6.553   1.452
 4193SOL    HW213479   4.847   6.473   1.465
 4194SOL     OW13480   5.715   0.186   6.845
 4194SOL    HW113481   5.662   0.101   6.847
 4194SOL    HW213482   5.762   0.199   6.932
 4195SOL     OW13483   2.041   6.153   0.414
 4195SOL    HW113484   2.065   6.236   0.463
 4195SOL    HW213485   2.108   6.081   0.434
 4196SOL     OW13486   6.154   3.109   2.925
 4196SOL    HW113487   6.083   3.179   2.931
 4196SOL    HW213488   6.243   3.149   2.949
 4197SOL     OW13489   4.093   0.687   6.765
 4197SOL    HW113490   4.021   0.730   6.820
 4197SOL    HW213491   4.174   0.672   6.822
 4198SOL     OW13492   6.259   1.889   1.820
 4198SOL    HW113493   6.267   1.829   1.740
 4198SOL    HW213494   6.165   1.925   1.825
 4199SOL     OW13495   1.086   3.353   0.282
 4199SOL    HW113496   1.151   3.351   0.358
 4199SOL    HW213497   1.093   3.441   0.235
 4200SOL     OW13498   5.402   2.171   2.671
 4200SOL    HW113499   5.343   2.118   2.732
 4200SOL    HW213500   5.346   2.231   2.615
 4201SOL     OW13501   4.727   0.321   5.651
 4201SOL    HW113502   4.790   0.341   5.576
 4201SOL    HW213503   4.767   0.354   5.737
 4202SOL     OW13504   4.612   3.942   1.284
 4202SOL    HW113505   4.619   3.849   1.247
 4202SOL    HW213506   4.703   3.981   1.294
 4203SOL     OW13507   6.342   3.974   4.601
 4203SOL    HW113508   6.344   4.059   4.549
 4203SOL    HW213509   6.402   3.907   4.557
 4204SOL     OW13510   2.637   4.191   6.092
 4204SOL    HW113511   2.699   4.254   6.045
 4204SOL    HW213512   2.686   4.106   6.112
 4205SOL     OW13513   5.648   5.195   6.287
 4205SOL    HW113514   5.728   5.225   6.236
 4205SOL    HW213515   5.565   5.214   6.235
 4206SOL     OW13516   2.539   2.602   5.015
 4206SOL    HW113517   2.535   2.640   4.923
 4206SOL    HW213518   2.495   2.512   5.016
 4207SOL     OW13519   2.997   2.382   1.356
 4207SOL    HW113520   2.979   2.480   1.365
 4207SOL    HW213521   3.082   2.360   1.403
 4208SOL     OW13522   1.448   2.270   3.183
 4208SOL    HW113523   1.385   2.198   3.153
 4208SOL    HW213524   1.513   2.233   3.249
 4209SOL     OW13525   6.713   5.170   2.837
 4209SOL    HW113526   6.758   5.092   2.880
 4209SOL    HW213527   6.621   5.143   2.808
 4210SOL     OW13528   3.461   5.497   5.576
 4210SOL    HW113529   3.381   5.494   5.636
 4210SOL    HW213530   3.512   5.411   5.585
 4211SOL     OW13531   4.748   3.272   6.403
 4211SOL    HW113532   4.743   3.254   6.304
 4211SOL    HW213533   4.776   3.189   6.451
 4212SOL     OW13534   0.151   2.986   2.577
 4212SOL    HW113535   0.076   3.020   2.520
 4212SOL    HW213536   0.116   2.963   2.668
 4213SOL     OW13537   2.907   1.204   3.828
 4213SOL    HW113538   2.892   1.256   3.744
 4213SOL    HW213539   2.829   1.144   3.844
 4214SOL     OW13540   6.469   5.854   4.162
 4214SOL    HW113541   6.491   5.952   4.166
 4214SOL    HW213542   6.470   5.816   4.254
 4215SOL     OW13543   6.138   6.929   4.719
 4215SOL    HW113544   6.143   6.944   4.818
 4215SOL    HW213545   6.045   6.947   4.687
 4216SOL     OW13546   1.573   5.493   2.636
 4216SOL    HW113547   1.558   5.503   2.735
 4216SOL    HW213548   1.551   5.399   2.609
 4217SOL     OW13549   0.632   0.538   2.922
 4217SOL    HW113550   0.551   0.520   2.866
 4217SOL    HW213551   0.609   0.605   2.992
 4218SOL     OW13552   2.870   0.453   1.926
 4218SOL    HW113553   2.796   0.386   1.935
 4218SOL    HW213554   2.879   0.481   1.831
 4219SOL     OW13555   2.702   5.126   1.896
 4219SOL    HW113556   2.724   5.213   1.940
 4219SOL    HW213557   2.785   5.070   1.890
 4220SOL     OW13558   5.329   1.753   0.878
 4220SOL    HW113559   5.292   1.823   0.815
 4220SOL    HW213560   5.367   1.798   0.958
 4221SOL     OW13561   0.643   6.648   0.939
 4221SOL    HW113562   0.546   6.670   0.941
 4221SOL    HW213563   0.655   6.548   0.940
 4222SOL     OW13564   5.476   3.974   4.399
 4222SOL    HW113565   5.554   4.001   4.456
 4222SOL    HW213566   5.500   3.891   4.347
 4223SOL     OW13567   3.458   4.120   2.486
 4223SOL    HW113568   3.513   4.053   2.435
 4223SOL    HW213569   3.379   4.146   2.431
 4224SOL     OW13570   4.617   4.073   5.207
 4224SOL    HW113571   4.681   4.072   5.283
 4224SOL    HW213572   4.525   4.052   5.241
 4225SOL     OW13573   0.567   1.494   6.091
 4225SOL    HW113574   0.573   1.439   6.174
 4225SOL    HW213575   0.473   1.495   6.058
 4226SOL     OW13576   5.036   5.368   3.952
 4226SOL    HW113577   4.998   5.306   4.020
 4226SOL    HW213578   5.136   5.363   3.954
 4227SOL     OW13579   6.255   5.901   1.234
 4227SOL    HW113580   6.284   5.843   1.159
 4227SOL    HW213581   6.211   5.983   1.197
 4228SOL     OW13582   1.766   5.308   3.650
 4228SOL    HW113583   1.827   5.275   3.722
 4228SOL    HW213584   1.794   5.271   3.562
 4229SOL     OW13585   6.278   6.268   6.041
 4229SOL    HW113586   6.331   6.330   6.100
 4229SOL    HW213587   6.255   6.186   6.092
 4230SOL     OW13588   0.137   2.148   2.345
 4230SOL    HW113589   0.091   2.148   2.257
 4230SOL    HW213590   0.119   2.235   2.392
 4231SOL     OW13591   0.106   0.214   5.968
 4231SOL    HW113592   0.152   0.157   6.035
 4231SOL    HW213593   0.137   0.309   5.978
 4232SOL     OW13594   2.218   4.388   2.401
 4232SOL    HW113595   2.216   4.303   2.453
 4232SOL    HW213596   2.312   4.413   2.380
 4233SOL     OW13597   5.045   5.359   2.531
 4233SOL    HW113598   5.131   5.367   2.581
 4233SOL    HW213599   5.064   5.336   2.436
 4234SOL     OW13600   2.853   5.237   6.373
 4234SOL    HW113601   2.924   5.249   6.303
 4234SOL    HW213602   2.849   5.318   6.431
 4235SOL     OW13603   6.558   6.143   0.516
 4235SOL    HW113604   6.562   6.061   0.573
 4235SOL    HW213605   6.591   6.222   0.569
 4236SOL     OW13606   0.428   5.398   4.156
 4236SOL    HW113607   0.351   5.433   4.103
 4236SOL    HW213608   0.448   5.461   4.231
 4237SOL     OW13609   6.870   5.111   4.962
 4237SOL    HW113610   6.897   5.207   4.955
 4237SOL    HW213611   6.946   5.053   4.933
 4238SOL     OW13612   1.832   5.995   3.392
 4238SOL    HW113613   1.929   5.979   3.407
 4238SOL    HW213614   1.808   5.968   3.299
 4239SOL     OW13615   4.105   1.147   3.566
 4239SOL    HW113616   4.141   1.238   3.548
 4239SOL    HW213617   4.017   1.135   3.520
 4240SOL     OW13618   4.291   0.395   1.424
 4240SOL    HW113619   4.217   0.432   1.480
 4240SOL    HW213620   4.323   0.309   1.462
 4241SOL     OW13621   0.806   4.398   6.224
 4241SOL    HW113622   0.888   4.375   6.172
 4241SOL    HW213623   0.832   4.447   6.308
 4242SOL     OW13624   3.679   1.909   2.552
 4242SOL    HW113625   3.602   1.913   2.615
 4242SOL    HW213626   3.743   1.982   2.573
 4243SOL     OW13627   2.187   2.196   2.948
 4243SOL    HW113628   2.186   2.131   2.872
 4243SOL    HW213629   2.279   2.202   2.986
 4244SOL     OW13630   2.701   2.776   5.427
 4244SOL    HW113631   2.748   2.862   5.408
 4244SOL    HW213632   2.611   2.777   5.382
 4245SOL     OW13633   6.300   0.640   5.483
 4245SOL    HW113634   6.367   0.606   5.417
 4245SOL    HW213635   6.329   0.729   5.518
 4246SOL     OW13636   0.852   5.285   5.878
 4246SOL    HW113637   0.856   5.360   5.944
 4246SOL    HW213638   0.916   5.303   5.803
 4247SOL     OW13639   0.352   4.644   5.244
 4247SOL    HW113640   0.409   4.579   5.293
 4247SOL    HW213641   0.297   4.696   5.309
 4248SOL     OW13642   1.801   3.384   6.986
 4248SOL    HW113643   1.850   3.461   7.026
 4248SOL    HW213644   1.746   3.416   6.909
 4249SOL     OW13645   4.901   3.513   6.177
 4249SOL    HW113646   4.810   3.518   6.137
 4249SOL    HW213647   4.965   3.564   6.121
 4250SOL     OW13648   0.046   4.196   3.903
 4250SOL    HW113649   0.066   4.286   3.863
 4250SOL    HW213650   0.128   4.139   3.901
 4251SOL     OW13651   5.751   4.789   6.099
 4251SOL    HW113652   5.804   4.866   6.063
 4251SOL    HW213653   5.807   4.707   6.099
 4252SOL     OW13654   6.685   4.641   5.827
 4252SOL    HW113655   6.614   4.634   5.898
 4252SOL    HW213656   6.775   4.649   5.871
 4253SOL     OW13657   3.025   0.191   3.732
 4253SOL    HW113658   3.005   0.149   3.644
 4253SOL    HW213659   2.960   0.266   3.749
 4254SOL     OW13660   3.776   3.586   3.648
 4254SOL    HW113661   3.790   3.549   3.556
 4254SOL    HW213662   3.806   3.682   3.650
 4255SOL     OW13663   0.718   1.850   4.547
 4255SOL    HW113664   0.638   1.810   4.593
 4255SOL    HW213665   0.697   1.866   4.451
 4256SOL     OW13666   1.175   0.904   1.218
 4256SOL    HW113667   1.203   0.986   1.268
 4256SOL    HW213668   1.248   0.836   1.220
 4257SOL     OW13669   4.307   2.307   4.803
 4257SOL    HW113670   4.225   2.261   4.770
 4257SOL    HW213671   4.288   2.349   4.892
 4258SOL     OW13672   5.660   6.276   2.100
 4258SOL    HW113673   5.714   6.208   2.051
 4258SOL    HW213674   5.567   6.243   2.113
 4259SOL     OW13675   2.954   3.043   1.832
 4259SOL    HW113676   2.964   2.947   1.807
 4259SOL    HW213677   2.966   3.053   1.931
 4260SOL     OW13678   4.228   5.547   4.886
 4260SOL    HW113679   4.138   5.572   4.923
 4260SOL    HW213680   4.281   5.500   4.956
 4261SOL     OW13681   0.988   1.379   2.386
 4261SOL    HW113682   0.929   1.305   2.420
 4261SOL    HW213683   1.079   1.371   2.428
 4262SOL     OW13684   1.241   6.868   4.898
 4262SOL    HW113685   1.326   6.832   4.935
 4262SOL    HW213686   1.259   6.949   4.842
 4263SOL     OW13687   4.543   5.808   7.026
 4263SOL    HW113688   4.532   5.806   0.097
 4263SOL    HW213689   4.453   5.804   6.983
 4264SOL     OW13690   1.968   1.050   1.293
 4264SOL    HW113691   1.961   1.150   1.293
 4264SOL    HW213692   2.056   1.023   1.334
 4265SOL     OW13693   2.227   1.664   1.252
 4265SOL    HW113694   2.279   1.749   1.264
 4265SOL    HW213695   2.236   1.632   1.158
 4266SOL     OW13696   2.354   5.018   0.185
 4266SOL    HW113697   2.437   5.033   0.131
 4266SOL    HW213698   2.298   5.101   0.185
 4267SOL     OW13699   1.700   3.202   5.088
 4267SOL    HW113700   1.698   3.280   5.026
 4267SOL    HW213701   1.771   3.216   5.157
 4268SOL     OW13702   0.540   1.857   0.830
 4268SOL    HW113703   0.488   1.788   0.882
 4268SOL    HW213704   0.510   1.855   0.735
 4269SOL     OW13705   3.108   3.742   1.393
 4269SOL    HW113706   3.073   3.774   1.481
 4269SOL    HW213707   3.035   3.747   1.324
 4270SOL     OW13708   3.773   3.026   0.066
 4270SOL    HW113709   3.702   2.989   0.005
 4270SOL    HW213710   3.748   3.120   0.092
 4271SOL     OW13711   1.947   0.433   0.741
 4271SOL    HW113712   1.898   0.516   0.766
 4271SOL    HW213713   2.018   0.415   0.808
 4272SOL     OW13714   1.418   4.662   3.565
 4272SOL    HW113715   1.441   4.586   3.626
 4272SOL    HW213716   1.319   4.666   3.553
 4273SOL     OW13717   0.095   6.314   3.595
 4273SOL    HW113718   0.013   6.274   3.553
 4273SOL    HW213719   0.170   6.247   3.593
 4274SOL     OW13720   1.348   0.367   3.554
 4274SOL    HW113721   1.365   0.378   3.456
 4274SOL    HW213722   1.377   0.449   3.602
 4275SOL     OW13723   0.260   0.683   5.934
 4275SOL    HW113724   0.307   0.769   5.915
 4275SOL    HW213725   0.241   0.676   6.032
 4276SOL     OW13726   2.168   3.380   3.250
 4276SOL    HW113727   2.096   3.450   3.255
 4276SOL    HW213728   2.167   3.326   3.335
 4277SOL     OW13729   0.662   6.330   5.910
 4277SOL    HW113730   0.571   6.373   5.913
 4277SOL    HW213731   0.684   6.293   5.999
 4278SOL     OW13732   1.401   6.452   6.355
 4278SOL    HW113733   1.377   6.490   6.266
 4278SOL    HW213734   1.501   6.447   6.363
 4279SOL     OW13735   4.092   5.849   3.778
 4279SOL    HW113736   4.172   5.907   3.790
 4279SOL    HW213737   4.092   5.778   3.849
 4280SOL     OW13738   4.919   3.371   4.386
 4280SOL    HW113739   5.013   3.340   4.372
 4280SOL    HW213740   4.859   3.293   4.400
 4281SOL     OW13741   2.145   4.108   4.581
 4281SOL    HW113742   2.138   4.067   4.672
 4281SOL    HW213743   2.213   4.182   4.584
 4282SOL     OW13744   1.251   0.964   7.010
 4282SOL    HW113745   1.310   1.013   6.945
 4282SOL    HW213746   1.219   1.026   0.052
 4283SOL     OW13747   2.604   1.663   4.003
 4283SOL    HW113748   2.611   1.718   4.087
 4283SOL    HW213749   2.654   1.708   3.929
 4284SOL     OW13750   6.833   2.851   2.922
 4284SOL    HW113751   6.805   2.843   2.826
 4284SOL    HW213752   6.914   2.910   2.928
 4285SOL     OW13753   1.034   6.378   3.963
 4285SOL    HW113754   1.065   6.466   3.928
 4285SOL    HW213755   1.108   6.311   3.955
 4286SOL     OW13756   5.216   5.408   0.719
 4286SOL    HW113757   5.309   5.385   0.747
 4286SOL    HW213758   5.185   5.344   0.650
 4287SOL     OW13759   3.851   5.835   5.937
 4287SOL    HW113760   3.808   5.921   5.910
 4287SOL    HW213761   3.783   5.775   5.979
 4288SOL     OW13762   0.616   6.483   4.529
 4288SOL    HW113763   0.715   6.501   4.530
 4288SOL    HW213764   0.569   6.559   4.483
 4289SOL     OW13765   1.060   4.510   6.648
 4289SOL    HW113766   1.087   4.455   6.728
 4289SOL    HW213767   1.040   4.603   6.677
 4290SOL     OW13768   1.443   1.620   2.503
 4290SOL    HW113769   1.426   1.625   2.405
 4290SOL    HW213770   1.539   1.639   2.521
 4291SOL     OW13771   6.785   3.204   1.766
 4291SOL    HW113772   6.771   3.279   1.830
 4291SOL    HW213773   6.698   3.160   1.747
 4292SOL     OW13774   5.628   5.956   5.286
 4292SOL    HW113775   5.659   6.046   5.258
 4292SOL    HW213776   5.579   5.963   5.373
 4293SOL     OW13777   0.633   1.956   0.544
 4293SOL    HW113778   0.677   2.026   0.600
 4293SOL    HW213779   0.675   1.955   0.453
 4294SOL     OW13780   4.820   2.229   5.294
 4294SOL    HW113781   4.821   2.140   5.248
 4294SOL    HW213782   4.747   2.230   5.363
 4295SOL     OW13783   3.145   4.710   5.575
 4295SOL    HW113784   3.049   4.697   5.601
 4295SOL    HW213785   3.176   4.632   5.520
 4296SOL     OW13786   2.066   1.756   2.470
 4296SOL    HW113787   2.076   1.657   2.468
 4296SOL    HW213788   2.049   1.790   2.377
 4297SOL     OW13789   5.835   0.262   0.043
 4297SOL    HW113790   5.932   0.261   0.018
 4297SOL    HW213791   5.795   0.350   0.018
 4298SOL     OW13792   1.370   4.672   1.657
 4298SOL    HW113793   1.373   4.622   1.744
 4298SOL    HW213794   1.282   4.655   1.612
 4299SOL     OW13795   1.164   5.543   4.726
 4299SOL    HW113796   1.101   5.466   4.736
 4299SOL    HW213797   1.244   5.513   4.674
 4300SOL     OW13798   6.252   0.119   5.797
 4300SOL    HW113799   6.159   0.154   5.812
 4300SOL    HW213800   6.264   0.035   5.850
 4301SOL     OW13801   2.631   0.544   0.528
 4301SOL    HW113802   2.617   0.527   0.625
 4301SOL    HW213803   2.584   0.629   0.502
 4302SOL     OW13804   0.550   0.611   0.255
 4302SOL    HW113805   0.648   0.622   0.239
 4302SOL    HW213806   0.499   0.679   0.201
 4303SOL     OW13807   0.413   4.322   2.280
 4303SOL    HW113808   0.498   4.297   2.233
 4303SOL    HW213809   0.400   4.421   2.276
 4304SOL     OW13810   2.152   3.397   6.245
 4304SOL    HW113811   2.102   3.390   6.331
 4304SOL    HW213812   2.164   3.493   6.220
 4305SOL     OW13813   0.588   1.300   5.033
 4305SOL    HW113814   0.497   1.260   5.041
 4305SOL    HW213815   0.639   1.285   5.117
 4306SOL     OW13816   5.730   5.188   5.845
 4306SOL    HW113817   5.757   5.244   5.924
 4306SOL    HW213818   5.778   5.221   5.763
 4307SOL     OW13819   6.281   3.733   1.158
 4307SOL    HW113820   6.183   3.721   1.172
 4307SOL    HW213821   6.299   3.824   1.121
 4308SOL     OW13822   3.548   0.166   5.390
 4308SOL    HW113823   3.492   0.249   5.389
 4308SOL    HW213824   3.497   0.090   5.351
 4309SOL     OW13825   0.984   0.713   1.318
 4309SOL    HW113826   0.977   0.635   1.255
 4309SOL    HW213827   1.012   0.794   1.267
 4310SOL     OW13828   1.497   0.058   2.733
 4310SOL    HW113829   1.449   0.075   2.820
 4310SOL    HW213830   1.433   0.018   2.667
 4311SOL     OW13831   0.752   5.036   5.055
 4311SOL    HW113832   0.785   4.966   4.992
 4311SOL    HW213833   0.757   5.126   5.011
 4312SOL     OW13834   1.814   5.592   2.289
 4312SOL    HW113835   1.738   5.531   2.312
 4312SOL    HW213836   1.895   5.566   2.342
 4313SOL     OW13837   4.961   1.331   1.049
 4313SOL    HW113838   4.963   1.260   1.120
 4313SOL    HW213839   5.041   1.390   1.059
 4314SOL     OW13840   6.906   2.705   1.210
 4314SOL    HW113841   6.821   2.748   1.243
 4314SOL    HW213842   6.976   2.711   1.281
 4315SOL     OW13843   1.101   0.925   1.838
 4315SOL    HW113844   1.013   0.878   1.827
 4315SOL    HW213845   1.115   0.988   1.762
 4316SOL     OW13846   6.610   1.566   2.523
 4316SOL    HW113847   6.548   1.644   2.515
 4316SOL    HW213848   6.694   1.585   2.471
 4317SOL     OW13849   3.987   1.024   3.160
 4317SOL    HW113850   4.072   1.011   3.109
 4317SOL    HW213851   3.968   0.941   3.212
 4318SOL     OW13852   0.153   2.299   5.017
 4318SOL    HW113853   0.130   2.226   5.082
 4318SOL    HW213854   0.091   2.376   5.029
 4319SOL     OW13855   4.353   3.063   6.233
 4319SOL    HW113856   4.443   3.030   6.260
 4319SOL    HW213857   4.338   3.155   6.270
 4320SOL     OW13858   0.484   6.807   3.533
 4320SOL    HW113859   0.523   6.809   3.442
 4320SOL    HW213860   0.558   6.803   3.601
 4321SOL     OW13861   0.283   0.042   4.161
 4321SOL    HW113862   0.227   7.025   4.092
 4321SOL    HW213863   0.224   0.097   4.221
 4322SOL     OW13864   6.760   0.884   0.021
 4322SOL    HW113865   6.679   0.827   0.026
 4322SOL    HW213866   6.840   0.831   0.049
 4323SOL     OW13867   0.028   2.637   4.198
 4323SOL    HW113868   0.067   2.718   4.242
 4323SOL    HW213869   7.000   2.665   4.120
 4324SOL     OW13870   5.816   2.617   5.720
 4324SOL    HW113871   5.818   2.707   5.764
 4324SOL    HW213872   5.728   2.574   5.737
 4325SOL     OW13873   2.615   2.288   6.615
 4325SOL    HW113874   2.706   2.316   6.585
 4325SOL    HW213875   2.620   2.195   6.653
 4326SOL     OW13876   0.273   2.306   5.281
 4326SOL    HW113877   0.224   2.225   5.310
 4326SOL    HW213878   0.208   2.379   5.261
 4327SOL     OW13879   4.834   0.437   3.260
 4327SOL    HW113880   4.773   0.510   3.289
 4327SOL    HW213881   4.795   0.349   3.286
 4328SOL     OW13882   6.280   5.156   0.944
 4328SOL    HW113883   6.354   5.103   0.905
 4328SOL    HW213884   6.315   5.209   1.022
 4329SOL     OW13885   5.224   1.491   6.051
 4329SOL    HW113886   5.267   1.405   6.079
 4329SOL    HW213887   5.180   1.533   6.130
 4330SOL     OW13888   0.885   0.262   6.519
 4330SOL    HW113889   0.853   0.198   6.589
 4330SOL    HW213890   0.824   0.341   6.515
 4331SOL     OW13891   5.563   2.960   6.304
 4331SOL    HW113892   5.476   2.917   6.330
 4331SOL    HW213893   5.585   3.033   6.369
 4332SOL     OW13894   6.081   4.738   2.019
 4332SOL    HW113895   5.981   4.730   2.017
 4332SOL    HW213896   6.116   4.736   1.926
 4333SOL     OW13897   6.538   1.966   4.868
 4333SOL    HW113898   6.621   1.916   4.841
 4333SOL    HW213899   6.458   1.918   4.832
 4334SOL     OW13900   4.140   6.854   1.778
 4334SOL    HW113901   4.203   6.796   1.725
 4334SOL    HW213902   4.188   6.888   1.860
 4335SOL     OW13903   4.163   4.374   6.339
 4335SOL    HW113904   4.200   4.459   6.300
 4335SOL    HW213905   4.213   4.296   6.300
 4336SOL     OW13906   0.876   0.383   5.594
 4336SOL    HW113907   0.969   0.380   5.630
 4336SOL    HW213908   0.822   0.450   5.646
 4337SOL     OW13909   1.101   5.856   6.279
 4337SOL    HW113910   1.032   5.904   6.225
 4337SOL    HW213911   1.055   5.800   6.348
 4338SOL     OW13912   5.400   6.301   3.019
 4338SOL    HW113913   5.417   6.272   3.113
 4338SOL    HW213914   5.336   6.377   3.018
 4339SOL     OW13915   6.848   0.991   0.358
 4339SOL    HW113916   6.838   1.057   0.283
 4339SOL    HW213917   6.802   0.906   0.335
 4340SOL     OW13918   5.124   3.469   1.498
 4340SOL    HW113919   5.158   3.514   1.415
 4340SOL    HW213920   5.198   3.461   1.564
 4341SOL     OW13921   1.560   3.567   0.718
 4341SOL    HW113922   1.582   3.656   0.677
 4341SOL    HW213923   1.509   3.581   0.803
 4342SOL     OW13924   6.917   2.625   3.035
 4342SOL    HW113925   6.937   2.552   2.970
 4342SOL    HW213926   6.880   2.704   2.986
 4343SOL     OW13927   3.453   3.765   1.563
 4343SOL    HW113928   3.394   3.751   1.483
 4343SOL    HW213929   3.447   3.860   1.593
 4344SOL     OW13930   2.551   3.385   1.710
 4344SOL    HW113931   2.557   3.285   1.708
 4344SOL    HW213932   2.478   3.412   1.774
 4345SOL     OW13933   2.934   0.361   5.747
 4345SOL    HW113934   2.929   0.454   5.782
 4345SOL    HW213935   2.843   0.332   5.717
 4346SOL     OW13936   6.999   3.555   1.741
 4346SOL    HW113937   6.993   3.469   1.791
 4346SOL    HW213938   0.058   3.560   1.693
 4347SOL     OW13939   5.161   6.182   2.683
 4347SOL    HW113940   5.135   6.183   2.586
 4347SOL    HW213941   5.206   6.096   2.705
 4348SOL     OW13942   1.045   2.955   0.430
 4348SOL    HW113943   1.001   3.001   0.353
 4348SOL    HW213944   1.130   2.912   0.399
 4349SOL     OW13945   5.866   0.952   0.640
 4349SOL    HW113946   5.877   0.857   0.611
 4349SOL    HW213947   5.925   0.969   0.719
 4350SOL     OW13948   3.359   0.567   3.721
 4350SOL    HW113949   3.346   0.655   3.675
 4350SOL    HW213950   3.442   0.571   3.777
 4351SOL     OW13951   3.654   0.108   0.106
 4351SOL    HW113952   3.693   0.059   0.029
 4351SOL    HW213953   3.554   0.103   0.102
 4352SOL     OW13954   6.100   1.809   1.390
 4352SOL    HW113955   6.039   1.835   1.315
 4352SOL    HW213956   6.088   1.712   1.410
 4353SOL     OW13957   3.105   5.806   0.810
 4353SOL    HW113958   3.029   5.868   0.831
 4353SOL    HW213959   3.132   5.757   0.893
 4354SOL     OW13960   2.780   1.703   1.394
 4354SOL    HW113961   2.837   1.773   1.437
 4354SOL    HW213962   2.695   1.745   1.362
 4355SOL     OW13963   4.547   0.184   6.519
 4355SOL    HW113964   4.500   0.256   6.469
 4355SOL    HW213965   4.501   0.169   6.607
 4356SOL     OW13966   3.785   3.652   1.132
 4356SOL    HW113967   3.839   3.608   1.204
 4356SOL    HW213968   3.688   3.629   1.145
 4357SOL     OW13969   5.190   0.865   0.438
 4357SOL    HW113970   5.275   0.871   0.386
 4357SOL    HW213971   5.135   0.947   0.423
 4358SOL     OW13972   6.295   0.424   0.695
 4358SOL    HW113973   6.365   0.448   0.762
 4358SOL    HW213974   6.322   0.339   0.648
 4359SOL     OW13975   0.143   4.056   4.432
 4359SOL    HW113976   0.142   3.958   4.453
 4359SOL    HW213977   0.204   4.073   4.354
 4360SOL     OW13978   2.946   3.197   1.602
 4360SOL    HW113979   2.965   3.100   1.590
 4360SOL    HW213980   2.972   3.225   1.694
 4361SOL     OW13981   5.231   1.976   3.153
 4361SOL    HW113982   5.174   2.056   3.133
 4361SOL    HW213983   5.231   1.914   3.074
 4362SOL     OW13984   5.045   3.941   2.869
 4362SOL    HW113985   5.079   3.906   2.781
 4362SOL    HW213986   5.123   3.956   2.930
 4363SOL     OW13987   5.146   7.019   6.629
 4363SOL    HW113988   5.204   6.988   6.553
 4363SOL    HW213989   5.051   7.028   6.597
 4364SOL     OW13990   4.370   3.980   5.325
 4364SOL    HW113991   4.286   3.925   5.318
 4364SOL    HW213992   4.348   4.072   5.357
 4365SOL     OW13993   4.715   2.972   0.271
 4365SOL    HW113994   4.794   2.946   0.216
 4365SOL    HW213995   4.672   3.053   0.232
 4366SOL     OW13996   4.748   4.752   0.611
 4366SOL    HW113997   4.681   4.679   0.597
 4366SOL    HW213998   4.752   4.776   0.708
 4367SOL     OW13999   5.776   6.591   1.271
 4367SOL    HW114000   5.729   6.672   1.238
 4367SOL    HW214001   5.737   6.510   1.227
 4368SOL     OW14002   4.122   5.959   2.232
 4368SOL    HW114003   4.155   5.919   2.146
 4368SOL    HW214004   4.024   5.939   2.242
 4369SOL     OW14005   2.951   5.505   1.386
 4369SOL    HW114006   2.873   5.449   1.356
 4369SOL    HW214007   3.033   5.448   1.391
 4370SOL     OW14008   5.160   3.755   1.382
 4370SOL    HW114009   5.205   3.839   1.354
 4370SOL    HW214010   5.062   3.762   1.362
 4371SOL     OW14011   1.448   1.737   1.976
 4371SOL    HW114012   1.403   1.667   1.920
 4371SOL    HW214013   1.469   1.817   1.920
 4372SOL     OW14014   4.437   0.093   3.797
 4372SOL    HW114015   4.452   0.083   3.895
 4372SOL    HW214016   4.434   0.190   3.773
 4373SOL     OW14017   0.905   1.753   5.405
 4373SOL    HW114018   0.944   1.835   5.447
 4373SOL    HW214019   0.831   1.778   5.344
 4374SOL     OW14020   3.971   1.282   7.025
 4374SOL    HW114021   3.948   1.324   6.937
 4374SOL    HW214022   4.062   1.312   0.026
 4375SOL     OW14023   3.662   5.368   4.565
 4375SOL    HW114024   3.618   5.283   4.536
 4375SOL    HW214025   3.603   5.415   4.631
 4376SOL     OW14026   0.236   2.477   2.970
 4376SOL    HW114027   0.196   2.538   3.038
 4376SOL    HW214028   0.243   2.524   2.882
 4377SOL     OW14029   0.346   4.821   5.759
 4377SOL    HW114030   0.360   4.915   5.729
 4377SOL    HW214031   0.410   4.760   5.712
 4378SOL     OW14032   3.237   1.511   4.026
 4378SOL    HW114033   3.190   1.425   4.043
 4378SOL    HW214034   3.284   1.540   4.110
 4379SOL     OW14035   3.586   1.511   5.932
 4379SOL    HW114036   3.647   1.436   5.906
 4379SOL    HW214037   3.586   1.522   6.031
 4380SOL     OW14038   6.522   2.022   3.331
 4380SOL    HW114039   6.458   2.039   3.257
 4380SOL    HW214040   6.491   2.069   3.414
 4381SOL     OW14041   1.362   4.711   6.557
 4381SOL    HW114042   1.398   4.683   6.646
 4381SOL    HW214043   1.336   4.807   6.560
 4382SOL     OW14044   1.345   4.902   5.178
 4382SOL    HW114045   1.290   4.942   5.105
 4382SOL    HW214046   1.351   4.803   5.166
 4383SOL     OW14047   0.528   4.293   0.213
 4383SOL    HW114048   0.585   4.253   0.286
 4383SOL    HW214049   0.472   4.366   0.251
 4384SOL     OW14050   4.504   6.977   4.535
 4384SOL    HW114051   4.498   0.003   4.452
 4384SOL    HW214052   4.423   6.919   4.543
 4385SOL     OW14053   5.091   0.250   6.021
 4385SOL    HW114054   5.152   0.263   6.099
 4385SOL    HW214055   5.000   0.288   6.043
 4386SOL     OW14056   1.782   3.044   3.724
 4386SOL    HW114057   1.739   2.963   3.684
 4386SOL    HW214058   1.867   3.018   3.769
 4387SOL     OW14059   4.393   2.333   0.994
 4387SOL    HW114060   4.409   2.421   1.039
 4387SOL    HW214061   4.318   2.342   0.928
 4388SOL     OW14062   6.184   2.852   0.336
 4388SOL    HW114063   6.239   2.791   0.392
 4388SOL    HW214064   6.185   2.944   0.376
 4389SOL     OW14065   2.539   1.405   6.382
 4389SOL    HW114066   2.513   1.340   6.454
 4389SOL    HW214067   2.609   1.365   6.324
 4390SOL     OW14068   0.284   1.042   1.648
 4390SOL    HW114069   0.288   0.975   1.574
 4390SOL    HW214070   0.196   1.034   1.696
 4391SOL     OW14071   6.879   6.664   2.420
 4391SOL    HW114072   6.953   6.597   2.424
 4391SOL    HW214073   6.833   6.657   2.331
 4392SOL     OW14074   2.253   2.610   6.329
 4392SOL    HW114075   2.161   2.640   6.302
 4392SOL    HW214076   2.247   2.518   6.368
 4393SOL     OW14077   6.240   0.151   1.876
 4393SOL    HW114078   6.142   0.132   1.864
 4393SOL    HW214079   6.292   0.067   1.867
 4394SOL     OW14080   6.579   1.551   3.058
 4394SOL    HW114081   6.537   1.633   3.096
 4394SOL    HW214082   6.679   1.556   3.069
 4395SOL     OW14083   2.263   3.232   0.943
 4395SOL    HW114084   2.227   3.243   0.851
 4395SOL    HW214085   2.311   3.315   0.970
 4396SOL     OW14086   2.306   1.436   2.474
 4396SOL    HW114087   2.232   1.443   2.541
 4396SOL    HW214088   2.281   1.485   2.391
 4397SOL     OW14089   3.706   1.117   4.724
 4397SOL    HW114090   3.646   1.058   4.779
 4397SOL    HW214091   3.785   1.064   4.693
 4398SOL     OW14092   2.554   2.913   5.958
 4398SOL    HW114093   2.471   2.871   5.920
 4398SOL    HW214094   2.590   2.855   6.031
 4399SOL     OW14095   3.005   5.979   1.880
 4399SOL    HW114096   2.981   5.895   1.929
 4399SOL    HW214097   3.023   5.957   1.784
 4400SOL     OW14098   1.411   6.134   5.242
 4400SOL    HW114099   1.460   6.152   5.157
 4400SOL    HW214100   1.473   6.096   5.310
 4401SOL     OW14101   3.203   0.349   5.668
 4401SOL    HW114102   3.109   0.362   5.699
 4401SOL    HW214103   3.228   0.422   5.605
 4402SOL     OW14104   0.266   1.143   2.018
 4402SOL    HW114105   0.359   1.130   2.052
 4402SOL    HW214106   0.213   1.198   2.082
 4403SOL     OW14107   6.516   6.516   2.668
 4403SOL    HW114108   6.611   6.548   2.677
 4403SOL    HW214109   6.494   6.453   2.742
 4404SOL     OW14110   0.758   5.959   4.990
 4404SOL    HW114111   0.786   5.863   4.995
 4404SOL    HW214112   0.762   5.989   4.895
 4405SOL     OW14113   0.970   5.355   3.216
 4405SOL    HW114114   0.919   5.441   3.222
 4405SOL    HW214115   1.035   5.360   3.140
 4406SOL     OW14116   5.808   4.292   2.567
 4406SOL    HW114117   5.899   4.333   2.568
 4406SOL    HW214118   5.782   4.267   2.660
 4407SOL     OW14119   5.003   0.563   1.280
 4407SOL    HW114120   4.998   0.546   1.181
 4407SOL    HW214121   4.998   0.661   1.298
 4408SOL     OW14122   4.774   0.452   0.206
 4408SOL    HW114123   4.828   0.529   0.240
 4408SOL    HW214124   4.705   0.485   0.142
 4409SOL     OW14125   4.012   0.715   3.779
 4409SOL    HW114126   3.936   0.750   3.834
 4409SOL    HW214127   4.004   0.616   3.771
 4410SOL     OW14128   1.501   0.372   0.732
 4410SOL    HW114129   1.581   0.320   0.764
 4410SOL    HW214130   1.507   0.384   0.633
 4411SOL     OW14131   4.654   4.313   4.729
 4411SOL    HW114132   4.664   4.223   4.687
 4411SOL    HW214133   4.744   4.352   4.748
 4412SOL     OW14134   4.822   6.533   0.752
 4412SOL    HW114135   4.911   6.550   0.794
 4412SOL    HW214136   4.832   6.467   0.678
 4413SOL     OW14137   5.245   6.532   4.613
 4413SOL    HW114138   5.229   6.605   4.679
 4413SOL    HW214139   5.157   6.503   4.574
 4414SOL     OW14140   5.986   3.807   1.160
 4414SOL    HW114141   5.907   3.815   1.221
 4414SOL    HW214142   6.018   3.898   1.134
 4415SOL     OW14143   0.875   4.115   1.481
 4415SOL    HW114144   0.964   4.117   1.434
 4415SOL    HW214145   0.804   4.148   1.419
 4416SOL     OW14146   4.910   3.661   4.253
 4416SOL    HW114147   4.878   3.588   4.313
 4416SOL    HW214148   4.919   3.626   4.160
 4417SOL     OW14149   0.184   3.962   1.831
 4417SOL    HW114150   0.256   3.968   1.901
 4417SOL    HW214151   0.150   4.054   1.811
 4418SOL     OW14152   6.558   2.464   5.067
 4418SOL    HW114153   6.460   2.447   5.076
 4418SOL    HW214154   6.573   2.558   5.037
 4419SOL     OW14155   6.274   6.029   6.471
 4419SOL    HW114156   6.283   6.045   6.372
 4419SOL    HW214157   6.226   6.105   6.513
 4420SOL     OW14158   3.687   0.450   0.424
 4420SOL    HW114159   3.703   0.472   0.520
 4420SOL    HW214160   3.753   0.382   0.394
 4421SOL     OW14161   2.649   2.160   0.326
 4421SOL    HW114162   2.745   2.174   0.350
 4421SOL    HW214163   2.592   2.175   0.406
 4422SOL     OW14164   0.584   2.708   6.639
 4422SOL    HW114165   0.508   2.643   6.645
 4422SOL    HW214166   0.656   2.680   6.703
 4423SOL     OW14167   6.165   4.320   4.112
 4423SOL    HW114168   6.106   4.392   4.074
 4423SOL    HW214169   6.259   4.354   4.117
 4424SOL     OW14170   3.716   5.139   2.451
 4424SOL    HW114171   3.787   5.162   2.385
 4424SOL    HW214172   3.651   5.076   2.409
 4425SOL     OW14173   0.565   5.899   0.537
 4425SOL    HW114174   0.656   5.923   0.502
 4425SOL    HW214175   0.501   5.972   0.514
 4426SOL     OW14176   0.977   0.808   4.292
 4426SOL    HW114177   1.047   0.844   4.354
 4426SOL    HW214178   1.021   0.762   4.215
 4427SOL     OW14179   3.571   6.108   0.002
 4427SOL    HW114180   3.621   6.029   6.996
 4427SOL    HW214181   3.634   6.168   0.051
 4428SOL     OW14182   6.310   5.833   2.751
 4428SOL    HW114183   6.251   5.761   2.713
 4428SOL    HW214184   6.347   5.802   2.838
 4429SOL     OW14185   2.251   5.383   2.765
 4429SOL    HW114186   2.266   5.415   2.859
 4429SOL    HW214187   2.157   5.402   2.737
 4430SOL     OW14188   5.534   3.998   4.041
 4430SOL    HW114189   5.449   3.972   3.996
 4430SOL    HW214190   5.563   3.924   4.102
 4431SOL     OW14191   5.029   0.369   4.579
 4431SOL    HW114192   5.019   0.370   4.679
 4431SOL    HW214193   4.946   0.405   4.537
 4432SOL     OW14194   2.020   3.395   6.473
 4432SOL    HW114195   1.967   3.476   6.498
 4432SOL    HW214196   1.958   3.318   6.457
 4433SOL     OW14197   0.407   0.421   5.024
 4433SOL    HW114198   0.486   0.456   5.075
 4433SOL    HW214199   0.382   0.331   5.060
 4434SOL     OW14200   6.704   0.461   2.482
 4434SOL    HW114201   6.710   0.512   2.396
 4434SOL    HW214202   6.633   0.391   2.474
 4435SOL     OW14203   2.008   4.234   1.784
 4435SOL    HW114204   1.945   4.288   1.728
 4435SOL    HW214205   2.073   4.295   1.831
 4436SOL     OW14206   5.122   2.001   1.754
 4436SOL    HW114207   5.215   2.012   1.718
 4436SOL    HW214208   5.127   1.962   1.846
 4437SOL     OW14209   0.352   5.593   0.017
 4437SOL    HW114210   0.304   5.534   0.082
 4437SOL    HW214211   0.296   5.605   6.964
 4438SOL     OW14212   3.502   1.751   4.672
 4438SOL    HW114213   3.577   1.779   4.612
 4438SOL    HW214214   3.475   1.829   4.729
 4439SOL     OW14215   3.047   5.225   2.108
 4439SOL    HW114216   3.072   5.212   2.012
 4439SOL    HW214217   3.070   5.142   2.159
 4440SOL     OW14218   2.024   5.423   6.063
 4440SOL    HW114219   1.965   5.360   6.013
 4440SOL    HW214220   2.020   5.513   6.020
 4441SOL     OW14221   6.404   1.066   0.805
 4441SOL    HW114222   6.341   0.988   0.795
 4441SOL    HW214223   6.436   1.095   0.716
 4442SOL     OW14224   1.974   4.417   0.828
 4442SOL    HW114225   2.061   4.415   0.778
 4442SOL    HW214226   1.992   4.435   0.924
 4443SOL     OW14227   0.969   5.971   5.445
 4443SOL    HW114228   1.022   6.004   5.367
 4443SOL    HW214229   0.871   5.981   5.426
 4444SOL     OW14230   4.292   6.517   0.400
 4444SOL    HW114231   4.316   6.498   0.305
 4444SOL    HW214232   4.296   6.616   0.417
 4445SOL     OW14233   1.936   3.343   0.863
 4445SOL    HW114234   1.875   3.422   0.872
 4445SOL    HW214235   1.893   3.263   0.905
 4446SOL     OW14236   5.943   2.284   1.465
 4446SOL    HW114237   5.887   2.363   1.439
 4446SOL    HW214238   6.030   2.316   1.503
 4447SOL     OW14239   4.898   5.347   5.976
 4447SOL    HW114240   4.802   5.338   6.001
 4447SOL    HW214241   4.955   5.310   6.049
 4448SOL     OW14242   2.238   6.699   2.638
 4448SOL    HW114243   2.222   6.768   2.709
 4448SOL    HW214244   2.336   6.680   2.632
 4449SOL     OW14245   3.734   2.002   5.187
 4449SOL    HW114246   3.818   1.965   5.226
 4449SOL    HW214247   3.757   2.058   5.107
 4450SOL     OW14248   2.670   5.301   0.765
 4450SOL    HW114249   2.622   5.216   0.783
 4450SOL    HW214250   2.616   5.358   0.703
 4451SOL     OW14251   4.983   6.338   2.826
 4451SOL    HW114252   5.033   6.275   2.767
 4451SOL    HW214253   4.945   6.287   2.903
 4452SOL     OW14254   5.173   4.801   3.664
 4452SOL    HW114255   5.199   4.890   3.628
 4452SOL    HW214256   5.242   4.770   3.730
 4453SOL     OW14257   0.165   5.711   1.344
 4453SOL    HW114258   0.144   5.685   1.250
 4453SOL    HW214259   0.088   5.689   1.403
 4454SOL     OW14260   7.008   0.727   0.006
 4454SOL    HW114261   6.960   0.639   0.009
 4454SOL    HW214262   0.068   0.717   0.052
 4455SOL     OW14263   1.019   0.571   4.085
 4455SOL    HW114264   0.921   0.554   4.079
 4455SOL    HW214265   1.067   0.519   4.014
 4456SOL     OW14266   1.576   5.760   4.235
 4456SOL    HW114267   1.578   5.840   4.293
 4456SOL    HW214268   1.666   5.745   4.195
 4457SOL     OW14269   1.469   2.155   4.587
 4457SOL    HW114270   1.525   2.072   4.574
 4457SOL    HW214271   1.394   2.155   4.520
 4458SOL     OW14272   2.025   2.311   5.513
 4458SOL    HW114273   1.960   2.290   5.587
 4458SOL    HW214274   1.979   2.365   5.443
 4459SOL     OW14275   1.801   4.822   3.405
 4459SOL    HW114276   1.825   4.790   3.496
 4459SOL    HW214277   1.838   4.913   3.390
 4460SOL     OW14278   6.856   3.385   5.374
 4460SOL    HW114279   6.784   3.449   5.348
 4460SOL    HW214280   6.924   3.432   5.430
 4461SOL     OW14281   2.644   0.203   0.692
 4461SOL    HW114282   2.630   0.114   0.736
 4461SOL    HW214283   2.649   0.191   0.593
 4462SOL     OW14284   0.372   4.370   2.575
 4462SOL    HW114285   0.433   4.298   2.607
 4462SOL    HW214286   0.424   4.437   2.521
 4463SOL     OW14287   5.727   2.149   6.869
 4463SOL    HW114288   5.772   2.237   6.885
 4463SOL    HW214289   5.732   2.093   6.951
 4464SOL     OW14290   0.966   3.262   1.193
 4464SOL    HW114291   0.894   3.331   1.189
 4464SOL    HW214292   0.987   3.242   1.289
 4465SOL     OW14293   4.695   4.584   1.111
 4465SOL    HW114294   4.760   4.651   1.074
 4465SOL    HW214295   4.618   4.633   1.152
 4466SOL     OW14296   0.718   3.059   2.225
 4466SOL    HW114297   0.816   3.071   2.240
 4466SOL    HW214298   0.676   3.021   2.307
 4467SOL     OW14299   5.172   4.448   1.659
 4467SOL    HW114300   5.215   4.491   1.580
 4467SOL    HW214301   5.106   4.512   1.700
 4468SOL     OW14302   1.841   3.630   0.419
 4468SOL    HW114303   1.779   3.566   0.464
 4468SOL    HW214304   1.800   3.721   0.417
 4469SOL     OW14305   1.179   6.461   2.286
 4469SOL    HW114306   1.277   6.476   2.276
 4469SOL    HW214307   1.146   6.404   2.211
 4470SOL     OW14308   0.603   0.102   3.201
 4470SOL    HW114309   0.597   0.066   3.107
 4470SOL    HW214310   0.611   0.026   3.265
 4471SOL     OW14311   1.612   0.767   6.429
 4471SOL    HW114312   1.601   0.704   6.353
 4471SOL    HW214313   1.549   0.743   6.502
 4472SOL     OW14314   2.612   3.196   1.160
 4472SOL    HW114315   2.699   3.230   1.123
 4472SOL    HW214316   2.570   3.268   1.216
 4473SOL     OW14317   0.783   3.066   5.600
 4473SOL    HW114318   0.843   3.143   5.621
 4473SOL    HW214319   0.838   2.991   5.561
 4474SOL     OW14320   1.500   6.303   1.571
 4474SOL    HW114321   1.574   6.286   1.506
 4474SOL    HW214322   1.471   6.399   1.565
 4475SOL     OW14323   1.376   3.352   1.058
 4475SOL    HW114324   1.283   3.334   1.025
 4475SOL    HW214325   1.380   3.338   1.157
 4476SOL     OW14326   4.628   0.787   3.590
 4476SOL    HW114327   4.687   0.706   3.594
 4476SOL    HW214328   4.551   0.776   3.654
 4477SOL     OW14329   6.408   1.265   4.848
 4477SOL    HW114330   6.414   1.172   4.811
 4477SOL    HW214331   6.472   1.325   4.801
 4478SOL     OW14332   0.904   0.363   2.285
 4478SOL    HW114333   1.002   0.385   2.293
 4478SOL    HW214334   0.866   0.411   2.205
 4479SOL     OW14335   2.850   3.409   0.238
 4479SOL    HW114336   2.914   3.352   0.290
 4479SOL    HW214337   2.779   3.350   0.199
 4480SOL     OW14338   7.011   1.146   3.486
 4480SOL    HW114339   6.940   1.153   3.416
 4480SOL    HW214340   7.011   1.228   3.542
 4481SOL     OW14341   2.039   4.380   6.307
 4481SOL    HW114342   1.979   4.305   6.336
 4481SOL    HW214343   2.104   4.401   6.380
 4482SOL     OW14344   2.802   6.934   1.251
 4482SOL    HW114345   2.864   7.011   1.236
 4482SOL    HW214346   2.743   6.954   1.329
 4483SOL     OW14347   1.542   2.463   1.758
 4483SOL    HW114348   1.609   2.391   1.741
 4483SOL    HW214349   1.539   2.525   1.679
 4484SOL     OW14350   4.379   0.223   0.536
 4484SOL    HW114351   4.448   0.216   0.464
 4484SOL    HW214352   4.422   0.249   0.622
 4485SOL     OW14353   0.404   2.091   5.615
 4485SOL    HW114354   0.336   2.052   5.553
 4485SOL    HW214355   0.417   2.188   5.593
 4486SOL     OW14356   5.315   5.154   3.683
 4486SOL    HW114357   5.263   5.171   3.767
 4486SOL    HW214358   5.411   5.176   3.698
 4487SOL     OW14359   0.276   3.745   7.016
 4487SOL    HW114360   0.294   3.700   6.929
 4487SOL    HW214361   0.240   3.837   7.000
 4488SOL     OW14362   5.521   4.816   3.485
 4488SOL    HW114363   5.440   4.870   3.462
 4488SOL    HW214364   5.494   4.721   3.502
 4489SOL     OW14365   3.390   6.107   5.788
 4489SOL    HW114366   3.324   6.115   5.863
 4489SOL    HW214367   3.437   6.194   5.776
 4490SOL     OW14368   4.711   1.681   1.828
 4490SOL    HW114369   4.744   1.759   1.880
 4490SOL    HW214370   4.788   1.625   1.798
 4491SOL     OW14371   0.253   4.796   3.073
 4491SOL    HW114372   0.159   4.768   3.094
 4491SOL    HW214373   0.297   4.726   3.017
 4492SOL     OW14374   6.601   0.806   1.906
 4492SOL    HW114375   6.511   0.763   1.896
 4492SOL    HW214376   6.593   0.904   1.886
 4493SOL     OW14377   5.519   0.951   5.931
 4493SOL    HW114378   5.474   0.870   5.894
 4493SOL    HW214379   5.615   0.952   5.903
 4494SOL     OW14380   0.437   1.589   2.363
 4494SOL    HW114381   0.489   1.606   2.447
 4494SOL    HW214382   0.442   1.669   2.304
 4495SOL     OW14383   4.057   5.997   1.671
 4495SOL    HW114384   3.984   6.034   1.614
 4495SOL    HW214385   4.022   5.983   1.764
 4496SOL     OW14386   2.300   5.111   5.483
 4496SOL    HW114387   2.263   5.076   5.569
 4496SOL    HW214388   2.337   5.035   5.429
 4497SOL     OW14389   5.348   6.320   4.806
 4497SOL    HW114390   5.316   6.410   4.777
 4497SOL    HW214391   5.323   6.252   4.736
 4498SOL     OW14392   1.941   5.606   3.368
 4498SOL    HW114393   1.868   5.625   3.433
 4498SOL    HW214394   1.986   5.691   3.342
 4499SOL     OW14395   4.980   2.120   2.460
 4499SOL    HW114396   4.909   2.055   2.432
 4499SOL    HW214397   5.068   2.091   2.421
 4500SOL     OW14398   3.463   6.111   0.366
 4500SOL    HW114399   3.476   6.204   0.401
 4500SOL    HW214400   3.388   6.067   0.416
 4501SOL     OW14401   5.315   1.004   3.120
 4501SOL    HW114402   5.302   0.938   3.047
 4501SOL    HW214403   5.352   1.089   3.082
 4502SOL     OW14404   0.750   3.450   0.389
 4502SOL    HW114405   0.747   3.473   0.292
 4502SOL    HW214406   0.761   3.534   0.443
 4503SOL     OW14407   3.071   1.279   3.206
 4503SOL    HW114408   3.053   1.377   3.206
 4503SOL    HW214409   2.987   1.229   3.226
 4504SOL     OW14410   0.736   3.477   3.813
 4504SOL    HW114411   0.799   3.476   3.890
 4504SOL    HW214412   0.773   3.423   3.738
 4505SOL     OW14413   6.493   3.549   4.001
 4505SOL    HW114414   6.467   3.569   3.906
 4505SOL    HW214415   6.474   3.452   4.021
 4506SOL     OW14416   4.112   4.175   6.892
 4506SOL    HW114417   4.015   4.153   6.898
 4506SOL    HW214418   4.127   4.244   6.822
 4507SOL     OW14419   5.577   2.294   3.088
 4507SOL    HW114420   5.524   2.378   3.089
 4507SOL    HW214421   5.525   2.220   3.131
 4508SOL     OW14422   6.954   4.201   0.894
 4508SOL    HW114423   7.014   4.146   0.836
 4508SOL    HW214424   6.993   4.208   0.986
 4509SOL     OW14425   4.712   1.310   2.546
 4509SOL    HW114426   4.641   1.270   2.487
 4509SOL    HW214427   4.767   1.374   2.493
 4510SOL     OW14428   5.044   1.815   3.654
 4510SOL    HW114429   4.999   1.835   3.567
 4510SOL    HW214430   5.107   1.889   3.677
 4511SOL     OW14431   0.869   3.853   0.330
 4511SOL    HW114432   0.927   3.933   0.319
 4511SOL    HW214433   0.782   3.868   0.284
 4512SOL     OW14434   2.826   3.960   6.384
 4512SOL    HW114435   2.879   3.875   6.381
 4512SOL    HW214436   2.736   3.942   6.424
 4513SOL     OW14437   0.375   2.153   0.638
 4513SOL    HW114438   0.384   2.140   0.539
 4513SOL    HW214439   0.279   2.172   0.660
 4514SOL     OW14440   4.102   5.578   0.075
 4514SOL    HW114441   4.168   5.601   0.004
 4514SOL    HW214442   4.098   5.478   0.086
 4515SOL     OW14443   4.701   6.784   5.869
 4515SOL    HW114444   4.784   6.793   5.814
 4515SOL    HW214445   4.622   6.812   5.814
 4516SOL     OW14446   3.633   1.560   4.833
 4516SOL    HW114447   3.569   1.528   4.903
 4516SOL    HW214448   3.583   1.605   4.760
 4517SOL     OW14449   3.844   0.213   4.101
 4517SOL    HW114450   3.922   0.273   4.123
 4517SOL    HW214451   3.815   0.231   4.007
 4518SOL     OW14452   6.854   6.222   0.700
 4518SOL    HW114453   6.797   6.299   0.728
 4518SOL    HW214454   6.885   6.173   0.781
 4519SOL     OW14455   5.569   6.389   6.252
 4519SOL    HW114456   5.486   6.409   6.200
 4519SOL    HW214457   5.620   6.474   6.266
 4520SOL     OW14458   5.153   5.080   5.136
 4520SOL    HW114459   5.202   5.004   5.179
 4520SOL    HW214460   5.055   5.071   5.154
 4521SOL     OW14461   5.407   2.680   4.032
 4521SOL    HW114462   5.389   2.628   4.116
 4521SOL    HW214463   5.418   2.777   4.055
 4522SOL     OW14464   5.739   4.186   3.972
 4522SOL    HW114465   5.655   4.138   3.996
 4522SOL    HW214466   5.817   4.139   4.015
 4523SOL     OW14467   1.105   2.432   0.582
 4523SOL    HW114468   1.184   2.439   0.642
 4523SOL    HW214469   1.134   2.445   0.487
 4524SOL     OW14470   1.927   3.745   1.645
 4524SOL    HW114471   1.860   3.806   1.686
 4524SOL    HW214472   2.007   3.797   1.616
 4525SOL     OW14473   3.388   1.934   5.980
 4525SOL    HW114474   3.454   1.998   6.020
 4525SOL    HW214475   3.299   1.978   5.973
 4526SOL     OW14476   1.085   6.948   5.129
 4526SOL    HW114477   1.151   6.939   5.054
 4526SOL    HW214478   1.012   7.010   5.102
 4527SOL     OW14479   1.424   2.728   2.901
 4527SOL    HW114480   1.422   2.825   2.924
 4527SOL    HW214481   1.414   2.674   2.985
 4528SOL     OW14482   5.279   2.047   4.236
 4528SOL    HW114483   5.357   1.986   4.217
 4528SOL    HW214484   5.235   2.072   4.150
 4529SOL     OW14485   1.326   2.734   3.235
 4529SOL    HW114486   1.298   2.810   3.294
 4529SOL    HW214487   1.247   2.676   3.215
 4530SOL     OW14488   4.497   4.471   6.460
 4530SOL    HW114489   4.443   4.544   6.501
 4530SOL    HW214490   4.438   4.392   6.442
 4531SOL     OW14491   1.302   6.335   5.400
 4531SOL    HW114492   1.303   6.246   5.353
 4531SOL    HW214493   1.319   6.408   5.334
 4532SOL     OW14494   5.921   0.458   2.090
 4532SOL    HW114495   5.920   0.460   1.990
 4532SOL    HW214496   5.834   0.422   2.123
 4533SOL     OW14497   2.803   6.160   0.908
 4533SOL    HW114498   2.786   6.130   0.814
 4533SOL    HW214499   2.845   6.085   0.959
 4534SOL     OW14500   6.209   1.610   5.050
 4534SOL    HW114501   6.256   1.522   5.054
 4534SOL    HW214502   6.111   1.596   5.066
 4535SOL     OW14503   1.809   6.774   0.758
 4535SOL    HW114504   1.819   6.874   0.755
 4535SOL    HW214505   1.778   6.741   0.669
 4536SOL     OW14506   4.007   0.499   5.585
 4536SOL    HW114507   3.916   0.474   5.620
 4536SOL    HW214508   3.997   0.536   5.492
 4537SOL     OW14509   3.592   3.583   3.274
 4537SOL    HW114510   3.537   3.658   3.312
 4537SOL    HW214511   3.593   3.590   3.174
 4538SOL     OW14512   1.753   2.824   0.460
 4538SOL    HW114513   1.767   2.728   0.485
 4538SOL    HW214514   1.667   2.857   0.498
 4539SOL     OW14515   0.625   4.498   4.854
 4539SOL    HW114516   0.629   4.400   4.833
 4539SOL    HW214517   0.539   4.518   4.902
 4540SOL     OW14518   1.482   1.339   6.884
 4540SOL    HW114519   1.407   1.400   6.861
 4540SOL    HW214520   1.479   1.259   6.824
 4541SOL     OW14521   3.932   2.766   0.503
 4541SOL    HW114522   3.945   2.809   0.413
 4541SOL    HW214523   3.858   2.698   0.497
 4542SOL     OW14524   6.708   2.450   7.026
 4542SOL    HW114525   6.793   2.399   7.018
 4542SOL    HW214526   6.706   2.523   6.957
 4543SOL     OW14527   4.407   1.308   0.279
 4543SOL    HW114528   4.468   1.243   0.324
 4543SOL    HW214529   4.439   1.401   0.295
 4544SOL     OW14530   4.708   6.169   6.773
 4544SOL    HW114531   4.674   6.117   6.851
 4544SOL    HW214532   4.651   6.250   6.759
 4545SOL     OW14533   2.916   3.097   6.224
 4545SOL    HW114534   2.845   3.029   6.241
 4545SOL    HW214535   2.974   3.066   6.147
 4546SOL     OW14536   4.964   6.378   5.098
 4546SOL    HW114537   4.871   6.410   5.085
 4546SOL    HW214538   5.016   6.446   5.150
 4547SOL     OW14539   0.029   6.769   1.127
 4547SOL    HW114540   7.014   6.855   1.102
 4547SOL    HW214541   6.994   6.712   1.179
 4548SOL     OW14542   4.044   0.743   1.552
 4548SOL    HW114543   4.019   0.792   1.469
 4548SOL    HW214544   4.120   0.789   1.597
 4549SOL     OW14545   6.942   5.484   3.685
 4549SOL    HW114546   7.025   5.504   3.633
 4549SOL    HW214547   6.956   5.402   3.740
 4550SOL     OW14548   2.528   5.751   7.001
 4550SOL    HW114549   2.491   5.733   0.063
 4550SOL    HW214550   2.487   5.688   6.935
 4551SOL     OW14551   3.542   3.181   6.393
 4551SOL    HW114552   3.463   3.229   6.431
 4551SOL    HW214553   3.523   3.156   6.298
 4552SOL     OW14554   5.663   0.608   6.269
 4552SOL    HW114555   5.686   0.705   6.272
 4552SOL    HW214556   5.740   0.557   6.231
 4553SOL     OW14557   0.381   6.889   0.797
 4553SOL    HW114558   0.374   6.849   0.888
 4553SOL    HW214559   0.289   6.907   0.761
 4554SOL     OW14560   5.578   6.097   2.757
 4554SOL    HW114561   5.509   6.060   2.694
 4554SOL    HW214562   5.552   6.075   2.851
 4555SOL     OW14563   0.686   0.754   3.473
 4555SOL    HW114564   0.731   0.720   3.555
 4555SOL    HW214565   0.738   0.726   3.392
 4556SOL     OW14566   5.306   5.061   4.503
 4556SOL    HW114567   5.405   5.047   4.512
 4556SOL    HW214568   5.272   5.109   4.583
 4557SOL     OW14569   0.672   6.387   5.281
 4557SOL    HW114570   0.637   6.441   5.357
 4557SOL    HW214571   0.769   6.406   5.269
 4558SOL     OW14572   0.573   4.085   3.741
 4558SOL    HW114573   0.582   4.014   3.671
 4558SOL    HW214574   0.640   4.157   3.724
 4559SOL     OW14575   0.511   3.424   3.978
 4559SOL    HW114576   0.600   3.451   3.940
 4559SOL    HW214577   0.455   3.384   3.906
 4560SOL     OW14578   6.410   3.035   4.491
 4560SOL    HW114579   6.468   3.031   4.572
 4560SOL    HW214580   6.457   3.084   4.418
 4561SOL     OW14581   5.220   3.933   5.059
 4561SOL    HW114582   5.190   4.016   5.013
 4561SOL    HW214583   5.221   3.856   4.995
 4562SOL     OW14584   4.990   0.708   0.493
 4562SOL    HW114585   5.077   0.749   0.463
 4562SOL    HW214586   5.009   0.631   0.553
 4563SOL     OW14587   1.173   3.364   2.748
 4563SOL    HW114588   1.255   3.328   2.703
 4563SOL    HW214589   1.191   3.456   2.782
 4564SOL     OW14590   2.156   3.821   2.517
 4564SOL    HW114591   2.108   3.740   2.485
 4564SOL    HW214592   2.109   3.860   2.596
 4565SOL     OW14593   2.339   6.455   4.817
 4565SOL    HW114594   2.314   6.524   4.750
 4565SOL    HW214595   2.257   6.420   4.862
 4566SOL     OW14596   6.608   5.062   2.571
 4566SOL    HW114597   6.536   5.115   2.615
 4566SOL    HW214598   6.595   5.064   2.472
 4567SOL     OW14599   1.323   0.918   0.408
 4567SOL    HW114600   1.327   0.963   0.497
 4567SOL    HW214601   1.339   0.986   0.336
 4568SOL     OW14602   0.043   4.453   4.484
 4568SOL    HW114603   0.072   4.527   4.423
 4568SOL    HW214604   0.109   4.378   4.477
 4569SOL     OW14605   6.698   2.668   3.678
 4569SOL    HW114606   6.707   2.655   3.777
 4569SOL    HW214607   6.615   2.720   3.658
 4570SOL     OW14608   4.890   5.708   1.883
 4570SOL    HW114609   4.970   5.751   1.842
 4570SOL    HW214610   4.845   5.650   1.815
 4571SOL     OW14611   2.110   2.334   4.818
 4571SOL    HW114612   2.013   2.326   4.795
 4571SOL    HW214613   2.131   2.276   4.896
 4572SOL     OW14614   5.293   3.475   1.104
 4572SOL    HW114615   5.219   3.409   1.101
 4572SOL    HW214616   5.344   3.472   1.018
 4573SOL     OW14617   3.012   4.737   1.257
 4573SOL    HW114618   3.064   4.807   1.208
 4573SOL    HW214619   2.914   4.759   1.251
 4574SOL     OW14620   4.920   0.128   2.035
 4574SOL    HW114621   4.821   0.114   2.028
 4574SOL    HW214622   4.948   0.198   1.968
 4575SOL     OW14623   6.972   1.506   5.464
 4575SOL    HW114624   7.000   1.465   5.551
 4575SOL    HW214625   6.951   1.434   5.398
 4576SOL     OW14626   3.161   3.938   6.682
 4576SOL    HW114627   3.205   3.888   6.757
 4576SOL    HW214628   3.227   4.002   6.641
 4577SOL     OW14629   6.877   1.556   2.399
 4577SOL    HW114630   6.824   1.491   2.344
 4577SOL    HW214631   6.974   1.549   2.375
 4578SOL     OW14632   2.110   0.671   2.317
 4578SOL    HW114633   2.132   0.708   2.407
 4578SOL    HW214634   2.018   0.699   2.290
 4579SOL     OW14635   3.545   0.664   2.302
 4579SOL    HW114636   3.602   0.670   2.220
 4579SOL    HW214637   3.481   0.588   2.293
 4580SOL     OW14638   0.626   6.987   1.662
 4580SOL    HW114639   0.632   0.013   1.579
 4580SOL    HW214640   0.671   6.899   1.647
 4581SOL     OW14641   3.489   0.116   1.053
 4581SOL    HW114642   3.496   0.070   1.142
 4581SOL    HW214643   3.522   0.055   0.981
 4582SOL     OW14644   5.919   1.142   4.567
 4582SOL    HW114645   5.831   1.134   4.520
 4582SOL    HW214646   5.972   1.217   4.526
 4583SOL     OW14647   1.545   6.217   6.589
 4583SOL    HW114648   1.606   6.236   6.666
 4583SOL    HW214649   1.554   6.289   6.521
 4584SOL     OW14650   6.151   0.650   3.980
 4584SOL    HW114651   6.179   0.576   4.042
 4584SOL    HW214652   6.233   0.692   3.940
 4585SOL     OW14653   1.504   3.436   2.160
 4585SOL    HW114654   1.458   3.347   2.159
 4585SOL    HW214655   1.520   3.466   2.066
 4586SOL     OW14656   0.337   4.570   6.298
 4586SOL    HW114657   0.324   4.521   6.384
 4586SOL    HW214658   0.428   4.611   6.297
 4587SOL     OW14659   3.741   3.373   6.008
 4587SOL    HW114660   3.781   3.460   5.979
 4587SOL    HW214661   3.771   3.352   6.102
 4588SOL     OW14662   1.991   5.088   6.668
 4588SOL    HW114663   1.966   5.182   6.645
 4588SOL    HW214664   1.974   5.073   6.766
 4589SOL     OW14665   4.569   6.188   2.300
 4589SOL    HW114666   4.564   6.102   2.250
 4589SOL    HW214667   4.659   6.197   2.343
 4590SOL     OW14668   1.747   5.027   1.724
 4590SOL    HW114669   1.682   4.971   1.672
 4590SOL    HW214670   1.831   5.039   1.670
 4591SOL     OW14671   2.182   1.924   5.650
 4591SOL    HW114672   2.168   1.834   5.692
 4591SOL    HW214673   2.249   1.975   5.703
 4592SOL     OW14674   2.498   2.518   2.675
 4592SOL    HW114675   2.508   2.446   2.744
 4592SOL    HW214676   2.402   2.524   2.647
 4593SOL     OW14677   1.938   5.347   5.506
 4593SOL    HW114678   1.996   5.323   5.584
 4593SOL    HW214679   1.858   5.286   5.505
 4594SOL     OW14680   0.822   6.733   2.953
 4594SOL    HW114681   0.857   6.662   3.014
 4594SOL    HW214682   0.878   6.815   2.961
 4595SOL     OW14683   5.435   1.786   6.884
 4595SOL    HW114684   5.526   1.766   6.845
 4595SOL    HW214685   5.443   1.862   6.948
 4596SOL     OW14686   0.019   2.004   1.982
 4596SOL    HW114687   0.033   1.909   2.008
 4596SOL    HW214688   7.014   2.008   1.888
 4597SOL     OW14689   2.302   5.127   0.959
 4597SOL    HW114690   2.212   5.145   0.919
 4597SOL    HW214691   2.290   5.074   1.043
 4598SOL     OW14692   0.099   2.825   0.709
 4598SOL    HW114693   0.127   2.898   0.647
 4598SOL    HW214694   0.011   2.848   0.751
 4599SOL     OW14695   2.859   6.052   3.306
 4599SOL    HW114696   2.784   6.006   3.259
 4599SOL    HW214697   2.840   6.057   3.403
 4600SOL     OW14698   0.227   6.660   5.828
 4600SOL    HW114699   0.190   6.616   5.910
 4600SOL    HW214700   0.219   6.759   5.837
 4601SOL     OW14701   1.914   1.296   5.202
 4601SOL    HW114702   1.902   1.247   5.289
 4601SOL    HW214703   1.913   1.231   5.126
 4602SOL     OW14704   4.523   0.005   5.671
 4602SOL    HW114705   4.533   7.020   5.572
 4602SOL    HW214706   4.562   0.093   5.696
 4603SOL     OW14707   4.458   6.977   0.010
 4603SOL    HW114708   4.436   6.938   0.099
 4603SOL    HW214709   4.475   0.046   0.019
 4604SOL     OW14710   0.121   0.157   3.796
 4604SOL    HW114711   0.070   0.104   3.728
 4604SOL    HW214712   0.216   0.164   3.767
 4605SOL     OW14713   3.993   1.434   2.366
 4605SOL    HW114714   3.974   1.349   2.317
 4605SOL    HW214715   4.078   1.425   2.418
 4606SOL     OW14716   6.626   0.149   4.206
 4606SOL    HW114717   6.541   0.149   4.152
 4606SOL    HW214718   6.656   0.054   4.220
 4607SOL     OW14719   2.390   1.833   1.521
 4607SOL    HW114720   2.471   1.814   1.466
 4607SOL    HW214721   2.395   1.926   1.558
 4608SOL     OW14722   0.175   3.022   5.724
 4608SOL    HW114723   0.212   3.093   5.664
 4608SOL    HW214724   0.103   3.062   5.781
 4609SOL     OW14725   5.671   4.399   6.506
 4609SOL    HW114726   5.699   4.303   6.503
 4609SOL    HW214727   5.699   4.439   6.593
 4610SOL     OW14728   4.704   4.090   6.363
 4610SOL    HW114729   4.719   4.007   6.416
 4610SOL    HW214730   4.764   4.090   6.283
 4611SOL     OW14731   0.413   0.488   6.585
 4611SOL    HW114732   0.438   0.502   6.489
 4611SOL    HW214733   0.435   0.571   6.637
 4612SOL     OW14734   1.156   0.970   2.397
 4612SOL    HW114735   1.106   1.051   2.364
 4612SOL    HW214736   1.106   0.887   2.371
 4613SOL     OW14737   1.307   5.216   3.827
 4613SOL    HW114738   1.216   5.194   3.791
 4613SOL    HW214739   1.375   5.155   3.786
 4614SOL     OW14740   6.602   5.090   2.273
 4614SOL    HW114741   6.578   4.997   2.245
 4614SOL    HW214742   6.627   5.143   2.192
 4615SOL     OW14743   0.671   4.661   6.661
 4615SOL    HW114744   0.716   4.728   6.720
 4615SOL    HW214745   0.576   4.650   6.689
 4616SOL     OW14746   1.494   4.962   5.751
 4616SOL    HW114747   1.482   4.867   5.782
 4616SOL    HW214748   1.585   4.972   5.710
 4617SOL     OW14749   0.960   4.208   4.699
 4617SOL    HW114750   0.983   4.253   4.785
 4617SOL    HW214751   1.040   4.161   4.663
 4618SOL     OW14752   2.166   4.234   5.149
 4618SOL    HW114753   2.205   4.225   5.241
 4618SOL    HW214754   2.238   4.224   5.081
 4619SOL     OW14755   5.131   5.786   6.454
 4619SOL    HW114756   5.135   5.705   6.512
 4619SOL    HW214757   5.221   5.829   6.450
 4620SOL     OW14758   0.446   5.008   2.648
 4620SOL    HW114759   0.491   5.043   2.730
 4620SOL    HW214760   0.426   4.911   2.660
 4621SOL     OW14761   2.934   0.031   2.019
 4621SOL    HW114762   2.963   0.102   1.955
 4621SOL    HW214763   2.943   0.066   2.113
 4622SOL     OW14764   6.246   6.667   0.458
 4622SOL    HW114765   6.240   6.728   0.537
 4622SOL    HW214766   6.266   6.574   0.489
 4623SOL     OW14767   3.142   4.829   2.094
 4623SOL    HW114768   3.163   4.916   2.139
 4623SOL    HW214769   3.204   4.815   2.017
 4624SOL     OW14770   5.421   1.622   0.119
 4624SOL    HW114771   5.335   1.614   0.169
 4624SOL    HW214772   5.402   1.633   0.021
 4625SOL     OW14773   0.841   0.107   2.009
 4625SOL    HW114774   0.900   0.053   2.069
 4625SOL    HW214775   0.853   0.079   1.914
 4626SOL     OW14776   4.050   3.767   2.006
 4626SOL    HW114777   4.016   3.687   1.957
 4626SOL    HW214778   4.040   3.848   1.948
 4627SOL     OW14779   5.860   6.226   5.009
 4627SOL    HW114780   5.817   6.147   4.965
 4627SOL    HW214781   5.951   6.240   4.970
 4628SOL     OW14782   6.416   3.014   1.907
 4628SOL    HW114783   6.465   3.020   1.819
 4628SOL    HW214784   6.384   2.920   1.920
 4629SOL     OW14785   1.004   5.266   0.718
 4629SOL    HW114786   1.056   5.349   0.738
 4629SOL    HW214787   0.912   5.290   0.687
 4630SOL     OW14788   1.795   3.260   1.530
 4630SOL    HW114789   1.847   3.253   1.445
 4630SOL    HW214790   1.841   3.207   1.601
 4631SOL     OW14791   5.627   1.495   0.981
 4631SOL    HW114792   5.701   1.432   1.004
 4631SOL    HW214793   5.656   1.589   0.997
 4632SOL     OW14794   2.051   5.433   3.783
 4632SOL    HW114795   2.114   5.486   3.839
 4632SOL    HW214796   2.078   5.439   3.687
 4633SOL     OW14797   5.078   3.884   4.283
 4633SOL    HW114798   5.122   3.863   4.196
 4633SOL    HW214799   5.027   3.804   4.314
 4634SOL     OW14800   3.528   2.869   4.692
 4634SOL    HW114801   3.556   2.956   4.652
 4634SOL    HW214802   3.450   2.833   4.641
 4635SOL     OW14803   3.669   0.290   2.106
 4635SOL    HW114804   3.596   0.358   2.099
 4635SOL    HW214805   3.683   0.247   2.017
 4636SOL     OW14806   1.578   5.996   6.447
 4636SOL    HW114807   1.572   6.075   6.508
 4636SOL    HW214808   1.496   5.991   6.391
 4637SOL     OW14809   1.720   2.800   3.620
 4637SOL    HW114810   1.668   2.774   3.538
 4637SOL    HW214811   1.683   2.750   3.698
 4638SOL     OW14812   3.945   4.513   6.869
 4638SOL    HW114813   4.020   4.448   6.852
 4638SOL    HW214814   3.904   4.493   6.958
 4639SOL     OW14815   4.078   2.548   1.314
 4639SOL    HW114816   4.032   2.562   1.402
 4639SOL    HW214817   4.169   2.590   1.318
 4640SOL     OW14818   0.593   2.218   0.398
 4640SOL    HW114819   0.569   2.315   0.408
 4640SOL    HW214820   0.676   2.199   0.451
 4641SOL     OW14821   1.348   6.263   4.805
 4641SOL    HW114822   1.346   6.361   4.828
 4641SOL    HW214823   1.424   6.245   4.744
 4642SOL     OW14824   5.784   1.154   6.052
 4642SOL    HW114825   5.838   1.204   6.120
 4642SOL    HW214826   5.833   1.150   5.965
 4643SOL     OW14827   1.144   2.077   6.901
 4643SOL    HW114828   1.163   2.030   6.814
 4643SOL    HW214829   1.083   2.021   6.957
 4644SOL     OW14830   1.327   1.715   1.088
 4644SOL    HW114831   1.418   1.751   1.069
 4644SOL    HW214832   1.263   1.791   1.100
 4645SOL     OW14833   5.466   2.875   5.437
 4645SOL    HW114834   5.460   2.807   5.510
 4645SOL    HW214835   5.409   2.954   5.461
 4646SOL     OW14836   1.289   3.944   2.394
 4646SOL    HW114837   1.199   3.981   2.370
 4646SOL    HW214838   1.359   4.009   2.367
 4647SOL     OW14839   1.498   6.397   2.033
 4647SOL    HW114840   1.516   6.313   2.085
 4647SOL    HW214841   1.469   6.470   2.096
 4648SOL     OW14842   2.697   1.576   4.270
 4648SOL    HW114843   2.744   1.624   4.344
 4648SOL    HW214844   2.600   1.565   4.295
 4649SOL     OW14845   5.054   4.036   1.140
 4649SOL    HW114846   5.043   4.024   1.238
 4649SOL    HW214847   5.003   4.117   1.110
 4650SOL     OW14848   3.699   4.353   0.703
 4650SOL    HW114849   3.610   4.359   0.659
 4650SOL    HW214850   3.743   4.267   0.677
 4651SOL     OW14851   1.636   3.350   0.249
 4651SOL    HW114852   1.615   3.414   0.175
 4651SOL    HW214853   1.670   3.400   0.328
 4652SOL     OW14854   6.222   6.934   5.989
 4652SOL    HW114855   6.266   6.848   6.014
 4652SOL    HW214856   6.123   6.926   6.003
 4653SOL     OW14857   1.001   6.574   0.950
 4653SOL    HW114858   0.969   6.628   0.873
 4653SOL    HW214859   1.006   6.477   0.923
 4654SOL     OW14860   0.447   0.921   5.459
 4654SOL    HW114861   0.544   0.908   5.438
 4654SOL    HW214862   0.394   0.850   5.414
 4655SOL     OW14863   5.468   5.481   3.639
 4655SOL    HW114864   5.478   5.560   3.578
 4655SOL    HW214865   5.456   5.398   3.584
 4656SOL     OW14866   6.414   0.581   1.379
 4656SOL    HW114867   6.477   0.594   1.302
 4656SOL    HW214868   6.388   0.485   1.385
 4657SOL     OW14869   3.734   1.939   2.281
 4657SOL    HW114870   3.799   2.011   2.258
 4657SOL    HW214871   3.726   1.932   2.381
 4658SOL     OW14872   1.844   1.060   6.854
 4658SOL    HW114873   1.783   1.022   6.784
 4658SOL    HW214874   1.897   1.135   6.815
 4659SOL     OW14875   2.451   5.322   1.160
 4659SOL    HW114876   2.389   5.260   1.112
 4659SOL    HW214877   2.520   5.356   1.096
 4660SOL     OW14878   0.354   4.805   5.010
 4660SOL    HW114879   0.321   4.785   4.918
 4660SOL    HW214880   0.351   4.721   5.065
 4661SOL     OW14881   0.349   0.859   4.903
 4661SOL    HW114882   0.278   0.870   4.833
 4661SOL    HW214883   0.315   0.799   4.976
 4662SOL     OW14884   2.647   0.415   6.650
 4662SOL    HW114885   2.590   0.341   6.686
 4662SOL    HW214886   2.722   0.433   6.714
 4663SOL     OW14887   0.518   6.933   1.280
 4663SOL    HW114888   0.590   6.875   1.242
 4663SOL    HW214889   0.437   6.879   1.299
 4664SOL     OW14890   6.692   6.105   5.477
 4664SOL    HW114891   6.745   6.029   5.513
 4664SOL    HW214892   6.752   6.184   5.461
 4665SOL     OW14893   6.931   1.902   2.508
 4665SOL    HW114894   7.021   1.935   2.481
 4665SOL    HW214895   6.937   1.806   2.534
 4666SOL     OW14896   2.135   2.753   5.594
 4666SOL    HW114897   2.112   2.704   5.678
 4666SOL    HW214898   2.229   2.731   5.569
 4667SOL     OW14899   6.132   2.143   0.817
 4667SOL    HW114900   6.039   2.180   0.813
 4667SOL    HW214901   6.127   2.045   0.839
 4668SOL     OW14902   4.800   2.022   5.118
 4668SOL    HW114903   4.787   2.081   5.038
 4668SOL    HW214904   4.717   1.969   5.135
 4669SOL     OW14905   5.917   6.332   6.205
 4669SOL    HW114906   5.849   6.261   6.222
 4669SOL    HW214907   5.891   6.385   6.125
 4670SOL     OW14908   0.929   3.139   0.235
 4670SOL    HW114909   0.983   3.223   0.248
 4670SOL    HW214910   0.839   3.151   0.277
 4671SOL     OW14911   6.561   2.025   1.608
 4671SOL    HW114912   6.634   1.964   1.579
 4671SOL    HW214913   6.487   2.024   1.541
 4672SOL     OW14914   4.149   3.145   0.673
 4672SOL    HW114915   4.174   3.051   0.694
 4672SOL    HW214916   4.066   3.169   0.723
 4673SOL     OW14917   4.838   1.720   0.382
 4673SOL    HW114918   4.821   1.813   0.415
 4673SOL    HW214919   4.799   1.709   0.290
 4674SOL     OW14920   0.755   2.759   0.466
 4674SOL    HW114921   0.810   2.829   0.510
 4674SOL    HW214922   0.705   2.707   0.535
 4675SOL     OW14923   1.707   6.754   0.500
 4675SOL    HW114924   1.660   6.672   0.534
 4675SOL    HW214925   1.796   6.727   0.463
 4676SOL     OW14926   0.047   5.682   4.399
 4676SOL    HW114927   6.991   5.631   4.408
 4676SOL    HW214928   0.077   5.682   4.304
 4677SOL     OW14929   5.243   6.696   6.911
 4677SOL    HW114930   5.319   6.632   6.906
 4677SOL    HW214931   5.159   6.646   6.936
 4678SOL     OW14932   2.411   5.083   0.443
 4678SOL    HW114933   2.321   5.077   0.487
 4678SOL    HW214934   2.404   5.052   0.348
 4679SOL     OW14935   2.155   6.451   5.754
 4679SOL    HW114936   2.180   6.543   5.723
 4679SOL    HW214937   2.118   6.399   5.677
 4680SOL     OW14938   1.246   5.343   5.749
 4680SOL    HW114939   1.167   5.348   5.687
 4680SOL    HW214940   1.238   5.412   5.820
 4681SOL     OW14941   6.984   5.975   5.979
 4681SOL    HW114942   6.945   6.065   5.998
 4681SOL    HW214943   0.034   5.984   5.919
 4682SOL     OW14944   2.958   6.678   0.787
 4682SOL    HW114945   2.945   6.579   0.786
 4682SOL    HW214946   3.030   6.703   0.722
 4683SOL     OW14947   0.649   5.372   4.001
 4683SOL    HW114948   0.630   5.332   3.911
 4683SOL    HW214949   0.565   5.373   4.056
 4684SOL     OW14950   2.055   0.843   4.375
 4684SOL    HW114951   2.035   0.847   4.473
 4684SOL    HW214952   2.142   0.796   4.361
 4685SOL     OW14953   5.275   4.944   4.086
 4685SOL    HW114954   5.239   4.977   3.999
 4685SOL    HW214955   5.322   5.019   4.133
 4686SOL     OW14956   4.445   5.295   5.920
 4686SOL    HW114957   4.437   5.358   5.842
 4686SOL    HW214958   4.357   5.290   5.967
 4687SOL     OW14959   4.446   1.097   4.686
 4687SOL    HW114960   4.526   1.139   4.644
 4687SOL    HW214961   4.421   1.147   4.769
 4688SOL     OW14962   0.411   0.307   1.066
 4688SOL    HW114963   0.446   0.225   1.020
 4688SOL    HW214964   0.378   0.372   0.998
 4689SOL     OW14965   1.959   6.143   4.625
 4689SOL    HW114966   1.942   6.138   4.526
 4689SOL    HW214967   1.932   6.232   4.659
 4690SOL     OW14968   3.104   2.169   6.962
 4690SOL    HW114969   3.116   2.091   7.023
 4690SOL    HW214970   3.188   2.181   6.907
 4691SOL     OW14971   2.899   4.642   0.186
 4691SOL    HW114972   2.838   4.610   0.114
 4691SOL    HW214973   2.990   4.602   0.172
 4692SOL     OW14974   1.128   4.965   3.448
 4692SOL    HW114975   1.176   5.053   3.451
 4692SOL    HW214976   1.044   4.975   3.395
 4693SOL     OW14977   0.542   1.964   2.597
 4693SOL    HW114978   0.576   2.045   2.644
 4693SOL    HW214979   0.474   1.991   2.528
 4694SOL     OW14980   1.753   0.792   4.951
 4694SOL    HW114981   1.694   0.856   5.000
 4694SOL    HW214982   1.700   0.711   4.924
 4695SOL     OW14983   3.533   3.498   3.000
 4695SOL    HW114984   3.551   3.412   2.952
 4695SOL    HW214985   3.578   3.573   2.953
 4696SOL     OW14986   0.672   2.163   6.490
 4696SOL    HW114987   0.636   2.070   6.493
 4696SOL    HW214988   0.750   2.171   6.553
 4697SOL     OW14989   0.923   5.018   6.654
 4697SOL    HW114990   0.929   5.108   6.697
 4697SOL    HW214991   0.913   5.029   6.555
 4698SOL     OW14992   5.863   3.195   1.899
 4698SOL    HW114993   5.848   3.104   1.937
 4698SOL    HW214994   5.791   3.215   1.833
 4699SOL     OW14995   6.704   0.705   2.952
 4699SOL    HW114996   6.761   0.762   3.011
 4699SOL    HW214997   6.635   0.762   2.907
 4700SOL     OW14998   5.100   7.012   4.740
 4700SOL    HW114999   5.128   0.045   4.665
 4700SOL    HW215000   5.002   6.996   4.735
 4701SOL     OW15001   2.633   1.292   5.990
 4701SOL    HW115002   2.648   1.229   6.066
 4701SOL    HW215003   2.678   1.257   5.908
 4702SOL     OW15004   3.509   3.290   0.765
 4702SOL    HW115005   3.508   3.387   0.789
 4702SOL    HW215006   3.416   3.255   0.761
 4703SOL     OW15007   0.938   6.443   1.872
 4703SOL    HW115008   0.986   6.367   1.916
 4703SOL    HW215009   0.940   6.523   1.933
 4704SOL     OW15010   4.569   6.914   6.185
 4704SOL    HW115011   4.664   6.929   6.158
 4704SOL    HW215012   4.556   6.944   6.280
 4705SOL     OW15013   3.383   2.966   4.961
 4705SOL    HW115014   3.411   2.915   4.880
 4705SOL    HW215015   3.324   2.909   5.018
 4706SOL     OW15016   5.735   2.952   0.233
 4706SOL    HW115017   5.806   2.885   0.256
 4706SOL    HW215018   5.769   3.015   0.164
 4707SOL     OW15019   2.861   3.805   1.270
 4707SOL    HW115020   2.845   3.896   1.232
 4707SOL    HW215021   2.774   3.760   1.289
 4708SOL     OW15022   2.283   2.785   2.396
 4708SOL    HW115023   2.263   2.733   2.313
 4708SOL    HW215024   2.304   2.880   2.371
 4709SOL     OW15025   2.911   3.756   0.534
 4709SOL    HW115026   2.843   3.829   0.524
 4709SOL    HW215027   2.864   3.671   0.557
 4710SOL     OW15028   4.397   2.309   1.366
 4710SOL    HW115029   4.301   2.280   1.363
 4710SOL    HW215030   4.423   2.329   1.460
 4711SOL     OW15031   2.552   0.535   3.505
 4711SOL    HW115032   2.466   0.507   3.548
 4711SOL    HW215033   2.598   0.454   3.467
 4712SOL     OW15034   1.316   3.335   6.980
 4712SOL    HW115035   1.385   3.289   6.924
 4712SOL    HW215036   1.237   3.356   6.924
 4713SOL     OW15037   0.589   6.130   0.838
 4713SOL    HW115038   0.525   6.052   0.841
 4713SOL    HW215039   0.681   6.098   0.859
 4714SOL     OW15040   4.181   1.927   0.982
 4714SOL    HW115041   4.103   1.951   0.924
 4714SOL    HW215042   4.189   1.994   1.056
 4715SOL     OW15043   5.059   4.136   4.947
 4715SOL    HW115044   4.965   4.112   4.970
 4715SOL    HW215045   5.108   4.166   5.029
 4716SOL     OW15046   1.906   5.341   6.731
 4716SOL    HW115047   1.842   5.326   6.807
 4716SOL    HW215048   1.959   5.425   6.748
 4717SOL     OW15049   1.825   4.819   4.884
 4717SOL    HW115050   1.738   4.856   4.918
 4717SOL    HW215051   1.856   4.746   4.944
 4718SOL     OW15052   4.943   6.855   0.060
 4718SOL    HW115053   5.007   6.790   0.102
 4718SOL    HW215054   4.887   6.809   7.020
 4719SOL     OW15055   4.618   3.044   1.422
 4719SOL    HW115056   4.568   2.958   1.416
 4719SOL    HW215057   4.558   3.119   1.393
 4720SOL     OW15058   2.186   1.679   3.650
 4720SOL    HW115059   2.102   1.634   3.679
 4720SOL    HW215060   2.246   1.612   3.606
 4721SOL     OW15061   1.777   1.714   2.033
 4721SOL    HW115062   1.755   1.691   1.938
 4721SOL    HW215063   1.832   1.798   2.035
 4722SOL     OW15064   2.153   1.044   2.308
 4722SOL    HW115065   2.170   0.974   2.377
 4722SOL    HW215066   2.194   1.016   2.221
 4723SOL     OW15067   3.464   0.623   5.626
 4723SOL    HW115068   3.381   0.587   5.584
 4723SOL    HW215069   3.502   0.554   5.688
 4724SOL     OW15070   4.121   5.444   1.246
 4724SOL    HW115071   4.102   5.432   1.343
 4724SOL    HW215072   4.091   5.363   1.196
 4725SOL     OW15073   5.951   5.034   2.830
 4725SOL    HW115074   5.856   5.039   2.799
 4725SOL    HW215075   6.010   5.012   2.752
 4726SOL     OW15076   6.328   6.869   3.934
 4726SOL    HW115077   6.385   6.899   3.857
 4726SOL    HW215078   6.387   6.843   4.011
 4727SOL     OW15079   4.905   6.503   1.784
 4727SOL    HW115080   4.807   6.505   1.804
 4727SOL    HW215081   4.920   6.531   1.689
 4728SOL     OW15082   6.712   6.118   6.608
 4728SOL    HW115083   6.750   6.035   6.647
 4728SOL    HW215084   6.706   6.109   6.508
 4729SOL     OW15085   3.506   0.383   1.118
 4729SOL    HW115086   3.411   0.403   1.097
 4729SOL    HW215087   3.521   0.284   1.115
 4730SOL     OW15088   1.237   0.608   6.510
 4730SOL    HW115089   1.279   0.689   6.470
 4730SOL    HW215090   1.141   0.602   6.481
 4731SOL     OW15091   5.107   1.414   5.794
 4731SOL    HW115092   5.143   1.419   5.888
 4731SOL    HW215093   5.091   1.318   5.771
 4732SOL     OW15094   0.940   6.865   6.477
 4732SOL    HW115095   0.992   6.782   6.497
 4732SOL    HW215096   0.864   6.873   6.542
 4733SOL     OW15097   5.513   4.170   2.998
 4733SOL    HW115098   5.552   4.257   3.027
 4733SOL    HW215099   5.500   4.111   3.077
 4734SOL     OW15100   6.398   3.727   5.933
 4734SOL    HW115101   6.420   3.820   5.962
 4734SOL    HW215102   6.301   3.722   5.909
 4735SOL     OW15103   0.666   3.914   3.517
 4735SOL    HW115104   0.728   3.913   3.438
 4735SOL    HW215105   0.694   3.845   3.583
 4736SOL     OW15106   1.219   0.318   2.204
 4736SOL    HW115107   1.313   0.293   2.227
 4736SOL    HW215108   1.181   0.375   2.277
 4737SOL     OW15109   3.108   5.388   2.483
 4737SOL    HW115110   3.190   5.347   2.441
 4737SOL    HW215111   3.115   5.382   2.582
 4738SOL     OW15112   1.147   0.647   3.518
 4738SOL    HW115113   1.220   0.660   3.586
 4738SOL    HW215114   1.178   0.584   3.448
 4739SOL     OW15115   3.641   6.878   1.563
 4739SOL    HW115116   3.558   6.826   1.542
 4739SOL    HW215117   3.720   6.817   1.561
 4740SOL     OW15118   0.973   2.066   5.242
 4740SOL    HW115119   1.010   2.019   5.162
 4740SOL    HW215120   1.005   2.021   5.325
 4741SOL     OW15121   4.152   3.402   4.566
 4741SOL    HW115122   4.090   3.325   4.551
 4741SOL    HW215123   4.205   3.419   4.483
 4742SOL     OW15124   4.367   0.803   3.439
 4742SOL    HW115125   4.445   0.764   3.488
 4742SOL    HW215126   4.308   0.853   3.503
 4743SOL     OW15127   0.231   5.147   0.825
 4743SOL    HW115128   0.312   5.131   0.882
 4743SOL    HW215129   0.247   5.226   0.767
 4744SOL     OW15130   1.031   4.885   2.062
 4744SOL    HW115131   0.934   4.896   2.083
 4744SOL    HW215132   1.043   4.880   1.963
 4745SOL     OW15133   1.856   3.171   0.205
 4745SOL    HW115134   1.774   3.227   0.196
 4745SOL    HW215135   1.933   3.229   0.231
 4746SOL     OW15136   6.070   5.953   4.379
 4746SOL    HW115137   6.096   5.885   4.311
 4746SOL    HW215138   6.001   5.914   4.441
 4747SOL     OW15139   4.087   0.758   0.645
 4747SOL    HW115140   4.092   0.836   0.708
 4747SOL    HW215141   4.063   0.675   0.695
 4748SOL     OW15142   2.214   0.114   3.612
 4748SOL    HW115143   2.276   0.055   3.663
 4748SOL    HW215144   2.145   0.152   3.673
 4749SOL     OW15145   2.696   1.336   1.280
 4749SOL    HW115146   2.611   1.366   1.238
 4749SOL    HW215147   2.699   1.236   1.284
 4750SOL     OW15148   5.719   3.102   6.060
 4750SOL    HW115149   5.798   3.046   6.036
 4750SOL    HW215150   5.661   3.052   6.124
 4751SOL     OW15151   3.530   1.694   2.455
 4751SOL    HW115152   3.437   1.720   2.482
 4751SOL    HW215153   3.592   1.770   2.474
 4752SOL     OW15154   6.081   6.375   6.805
 4752SOL    HW115155   6.071   6.472   6.830
 4752SOL    HW215156   6.173   6.344   6.830
 4753SOL     OW15157   3.321   5.772   5.069
 4753SOL    HW115158   3.342   5.860   5.111
 4753SOL    HW215159   3.294   5.707   5.140
 4754SOL     OW15160   5.896   4.701   0.553
 4754SOL    HW115161   5.830   4.626   0.551
 4754SOL    HW215162   5.849   4.786   0.574
 4755SOL     OW15163   6.731   1.140   2.257
 4755SOL    HW115164   6.799   1.071   2.230
 4755SOL    HW215165   6.778   1.226   2.277
 4756SOL     OW15166   0.057   3.917   4.744
 4756SOL    HW115167   0.156   3.916   4.761
 4756SOL    HW215168   0.037   3.869   4.659
 4757SOL     OW15169   2.347   3.568   1.366
 4757SOL    HW115170   2.335   3.471   1.389
 4757SOL    HW215171   2.350   3.622   1.450
 4758SOL     OW15172   1.993   5.300   1.861
 4758SOL    HW115173   2.041   5.280   1.775
 4758SOL    HW215174   2.015   5.230   1.928
 4759SOL     OW15175   0.545   6.595   3.259
 4759SOL    HW115176   0.626   6.543   3.287
 4759SOL    HW215177   0.465   6.535   3.260
 4760SOL     OW15178   0.689   0.613   2.322
 4760SOL    HW115179   0.774   0.621   2.269
 4760SOL    HW215180   0.612   0.597   2.260
 4761SOL     OW15181   4.220   5.900   2.488
 4761SOL    HW115182   4.263   5.990   2.482
 4761SOL    HW215183   4.138   5.897   2.430
 4762SOL     OW15184   0.673   0.874   2.752
 4762SOL    HW115185   0.711   0.956   2.709
 4762SOL    HW215186   0.664   0.802   2.684
 4763SOL     OW15187   5.074   3.921   1.639
 4763SOL    HW115188   5.046   3.996   1.579
 4763SOL    HW215189   5.174   3.925   1.652
 4764SOL     OW15190   4.440   3.091   6.732
 4764SOL    HW115191   4.437   3.071   6.830
 4764SOL    HW215192   4.463   3.008   6.681
 4765SOL     OW15193   3.644   1.439   5.529
 4765SOL    HW115194   3.575   1.463   5.461
 4765SOL    HW215195   3.672   1.522   5.578
 4766SOL     OW15196   1.156   0.947   3.141
 4766SOL    HW115197   1.137   1.029   3.195
 4766SOL    HW215198   1.106   0.869   3.179
 4767SOL     OW15199   2.452   4.821   2.595
 4767SOL    HW115200   2.456   4.803   2.497
 4767SOL    HW215201   2.475   4.917   2.612
 4768SOL     OW15202   4.628   2.685   6.248
 4768SOL    HW115203   4.635   2.683   6.148
 4768SOL    HW215204   4.553   2.625   6.277
 4769SOL     OW15205   3.143   2.887   0.352
 4769SOL    HW115206   3.149   2.941   0.436
 4769SOL    HW215207   3.134   2.790   0.376
 4770SOL     OW15208   6.958   1.721   3.881
 4770SOL    HW115209   7.026   1.648   3.871
 4770SOL    HW215210   6.997   1.795   3.936
 4771SOL     OW15211   2.892   1.451   4.150
 4771SOL    HW115212   2.878   1.358   4.114
 4771SOL    HW215213   2.804   1.488   4.180
 4772SOL     OW15214   2.839   5.344   2.460
 4772SOL    HW115215   2.936   5.364   2.451
 4772SOL    HW215216   2.785   5.425   2.436
 4773SOL     OW15217   3.225   5.625   3.967
 4773SOL    HW115218   3.318   5.624   3.931
 4773SOL    HW215219   3.206   5.713   4.008
 4774SOL     OW15220   0.251   4.186   0.515
 4774SOL    HW115221   0.330   4.242   0.541
 4774SOL    HW215222   0.184   4.243   0.468
 4775SOL     OW15223   5.125   5.117   4.277
 4775SOL    HW115224   5.197   5.129   4.208
 4775SOL    HW215225   5.159   5.062   4.353
 4776SOL     OW15226   6.903   1.761   5.516
 4776SOL    HW115227   6.927   1.678   5.465
 4776SOL    HW215228   6.812   1.751   5.556
 4777SOL     OW15229   1.002   6.477   3.414
 4777SOL    HW115230   1.065   6.414   3.459
 4777SOL    HW215231   0.922   6.491   3.472
 4778SOL     OW15232   1.360   0.708   1.261
 4778SOL    HW115233   1.338   0.725   1.357
 4778SOL    HW215234   1.400   0.617   1.252
 4779SOL     OW15235   4.674   1.810   4.421
 4779SOL    HW115236   4.590   1.755   4.422
 4779SOL    HW215237   4.664   1.887   4.484
 4780SOL     OW15238   4.913   2.909   4.468
 4780SOL    HW115239   5.005   2.890   4.501
 4780SOL    HW215240   4.848   2.906   4.545
 4781SOL     OW15241   3.206   5.003   1.434
 4781SOL    HW115242   3.189   4.904   1.431
 4781SOL    HW215243   3.119   5.052   1.422
 4782SOL     OW15244   1.115   0.114   2.864
 4782SOL    HW115245   1.154   0.172   2.793
 4782SOL    HW215246   1.131   0.155   2.954
 4783SOL     OW15247   1.196   4.372   6.857
 4783SOL    HW115248   1.122   4.412   6.911
 4783SOL    HW215249   1.161   4.293   6.806
 4784SOL     OW15250   6.309   2.552   6.712
 4784SOL    HW115251   6.339   2.536   6.806
 4784SOL    HW215252   6.322   2.648   6.689
 4785SOL     OW15253   0.498   1.514   4.499
 4785SOL    HW115254   0.438   1.450   4.548
 4785SOL    HW215255   0.583   1.525   4.550
 4786SOL     OW15256   1.598   6.530   0.584
 4786SOL    HW115257   1.555   6.524   0.674
 4786SOL    HW215258   1.552   6.467   0.521
 4787SOL     OW15259   4.317   1.623   5.432
 4787SOL    HW115260   4.367   1.647   5.515
 4787SOL    HW215261   4.219   1.615   5.453
 4788SOL     OW15262   6.695   5.925   0.940
 4788SOL    HW115263   6.680   5.927   0.842
 4788SOL    HW215264   6.629   5.864   0.983
 4789SOL     OW15265   5.594   0.926   1.237
 4789SOL    HW115266   5.652   0.996   1.280
 4789SOL    HW215267   5.500   0.958   1.234
 4790SOL     OW15268   0.413   2.489   6.449
 4790SOL    HW115269   0.388   2.458   6.541
 4790SOL    HW215270   0.372   2.429   6.381
 4791SOL     OW15271   0.907   0.624   6.788
 4791SOL    HW115272   0.943   0.530   6.785
 4791SOL    HW215273   0.934   0.667   6.875
 4792SOL     OW15274   0.857   4.125   1.746
 4792SOL    HW115275   0.904   4.037   1.761
 4792SOL    HW215276   0.841   4.137   1.648
 4793SOL     OW15277   1.357   2.960   5.042
 4793SOL    HW115278   1.316   2.882   5.089
 4793SOL    HW215279   1.393   3.024   5.109
 4794SOL     OW15280   5.629   1.464   6.496
 4794SOL    HW115281   5.595   1.419   6.413
 4794SOL    HW215282   5.729   1.464   6.495
 4795SOL     OW15283   6.990   6.640   0.141
 4795SOL    HW115284   7.007   6.738   0.149
 4795SOL    HW215285   0.049   6.591   0.142
 4796SOL     OW15286   5.664   1.907   5.811
 4796SOL    HW115287   5.595   1.835   5.813
 4796SOL    HW215288   5.700   1.921   5.903
 4797SOL     OW15289   2.891   5.389   5.204
 4797SOL    HW115290   2.920   5.456   5.272
 4797SOL    HW215291   2.799   5.356   5.226
 4798SOL     OW15292   3.770   6.091   6.628
 4798SOL    HW115293   3.767   6.035   6.546
 4798SOL    HW215294   3.680   6.133   6.643
 4799SOL     OW15295   4.383   3.712   1.333
 4799SOL    HW115296   4.351   3.620   1.310
 4799SOL    HW215297   4.382   3.769   1.251
 4800SOL     OW15298   1.015   4.522   0.006
 4800SOL    HW115299   1.044   4.610   6.997
 4800SOL    HW215300   1.052   4.512   0.098
 4801SOL     OW15301   4.968   3.423   3.354
 4801SOL    HW115302   4.940   3.514   3.383
 4801SOL    HW215303   5.062   3.406   3.382
 4802SOL     OW15304   6.764   0.694   4.528
 4802SOL    HW115305   6.839   0.743   4.484
 4802SOL    HW215306   6.678   0.718   4.483
 4803SOL     OW15307   5.233   3.562   5.895
 4803SOL    HW115308   5.213   3.466   5.919
 4803SOL    HW215309   5.299   3.564   5.820
 4804SOL     OW15310   6.046   2.660   0.644
 4804SOL    HW115311   5.975   2.699   0.585
 4804SOL    HW215312   6.049   2.710   0.731
 4805SOL     OW15313   6.044   0.445   5.348
 4805SOL    HW115314   5.974   0.473   5.414
 4805SOL    HW215315   6.012   0.467   5.256
 4806SOL     OW15316   1.556   2.881   3.239
 4806SOL    HW115317   1.474   2.827   3.220
 4806SOL    HW215318   1.609   2.836   3.311
 4807SOL     OW15319   0.952   3.521   0.851
 4807SOL    HW115320   0.917   3.604   0.807
 4807SOL    HW215321   0.924   3.441   0.798
 4808SOL     OW15322   2.516   6.380   3.436
 4808SOL    HW115323   2.494   6.284   3.419
 4808SOL    HW215324   2.587   6.387   3.505
 4809SOL     OW15325   2.798   3.708   0.869
 4809SOL    HW115326   2.880   3.679   0.920
 4809SOL    HW215327   2.791   3.655   0.785
 4810SOL     OW15328   1.798   5.568   4.565
 4810SOL    HW115329   1.748   5.525   4.490
 4810SOL    HW215330   1.748   5.648   4.597
 4811SOL     OW15331   3.082   3.102   4.775
 4811SOL    HW115332   3.064   3.082   4.871
 4811SOL    HW215333   3.131   3.025   4.734
 4812SOL     OW15334   1.875   6.147   1.071
 4812SOL    HW115335   1.942   6.111   1.136
 4812SOL    HW215336   1.786   6.106   1.089
 4813SOL     OW15337   1.064   2.435   5.042
 4813SOL    HW115338   0.975   2.398   5.016
 4813SOL    HW215339   1.054   2.499   5.117
 4814SOL     OW15340   4.744   1.380   0.434
 4814SOL    HW115341   4.678   1.427   0.376
 4814SOL    HW215342   4.794   1.313   0.378
 4815SOL     OW15343   6.720   4.069   2.936
 4815SOL    HW115344   6.815   4.040   2.946
 4815SOL    HW215345   6.716   4.154   2.884
 4816SOL     OW15346   2.747   0.594   2.657
 4816SOL    HW115347   2.847   0.604   2.651
 4816SOL    HW215348   2.705   0.685   2.658
 4817SOL     OW15349   4.445   3.342   6.879
 4817SOL    HW115350   4.467   3.369   6.785
 4817SOL    HW215351   4.518   3.284   6.916
 4818SOL     OW15352   4.756   6.344   5.654
 4818SOL    HW115353   4.757   6.284   5.574
 4818SOL    HW215354   4.695   6.421   5.638
 4819SOL     OW15355   3.691   0.046   0.578
 4819SOL    HW115356   3.713   6.995   0.522
 4819SOL    HW215357   3.619   0.099   0.533
 4820SOL     OW15358   0.624   5.435   1.388
 4820SOL    HW115359   0.599   5.526   1.354
 4820SOL    HW215360   0.722   5.433   1.406
 4821SOL     OW15361   6.674   6.048   1.251
 4821SOL    HW115362   6.674   5.961   1.200
 4821SOL    HW215363   6.670   6.029   1.349
 4822SOL     OW15364   0.448   3.558   2.048
 4822SOL    HW115365   0.419   3.463   2.038
 4822SOL    HW215366   0.523   3.577   1.984
 4823SOL     OW15367   6.699   2.016   2.590
 4823SOL    HW115368   6.780   1.969   2.556
 4823SOL    HW215369   6.621   1.994   2.531
 4824SOL     OW15370   5.091   1.265   3.032
 4824SOL    HW115371   5.035   1.203   2.977
 4824SOL    HW215372   5.188   1.244   3.017
 4825SOL     OW15373   2.281   4.362   4.596
 4825SOL    HW115374   2.359   4.420   4.575
 4825SOL    HW215375   2.205   4.386   4.535
 4826SOL     OW15376   0.742   5.828   6.739
 4826SOL    HW115377   0.773   5.883   6.816
 4826SOL    HW215378   0.734   5.732   6.767
 4827SOL     OW15379   5.251   0.895   6.531
 4827SOL    HW115380   5.336   0.851   6.500
 4827SOL    HW215381   5.224   0.856   6.619
 4828SOL     OW15382   6.749   2.625   6.800
 4828SOL    HW115383   6.846   2.646   6.783
 4828SOL    HW215384   6.709   2.586   6.717
 4829SOL     OW15385   2.220   1.428   5.573
 4829SOL    HW115386   2.229   1.335   5.537
 4829SOL    HW215387   2.248   1.494   5.504
 4830SOL     OW15388   6.286   4.502   4.609
 4830SOL    HW115389   6.295   4.600   4.592
 4830SOL    HW215390   6.253   4.487   4.702
 4831SOL     OW15391   0.036   1.638   6.504
 4831SOL    HW115392   0.019   1.711   6.438
 4831SOL    HW215393   0.127   1.600   6.490
 4832SOL     OW15394   1.678   2.545   6.433
 4832SOL    HW115395   1.683   2.496   6.346
 4832SOL    HW215396   1.760   2.602   6.444
 4833SOL     OW15397   6.496   2.577   1.689
 4833SOL    HW115398   6.504   2.479   1.673
 4833SOL    HW215399   6.491   2.625   1.601
 4834SOL     OW15400   5.755   0.787   3.446
 4834SOL    HW115401   5.732   0.692   3.467
 4834SOL    HW215402   5.847   0.792   3.408
 4835SOL     OW15403   2.424   2.486   5.859
 4835SOL    HW115404   2.353   2.450   5.798
 4835SOL    HW215405   2.496   2.528   5.805
 4836SOL     OW15406   5.764   4.841   3.594
 4836SOL    HW115407   5.794   4.745   3.597
 4836SOL    HW215408   5.673   4.846   3.554
 4837SOL     OW15409   0.110   5.180   1.887
 4837SOL    HW115410   0.155   5.145   1.970
 4837SOL    HW215411   0.044   5.251   1.912
 4838SOL     OW15412   3.051   6.596   2.981
 4838SOL    HW115413   2.968   6.623   2.931
 4838SOL    HW215414   3.126   6.585   2.917
 4839SOL     OW15415   0.573   0.099   5.907
 4839SOL    HW115416   0.569   0.077   6.004
 4839SOL    HW215417   0.668   0.118   5.881
 4840SOL     OW15418   6.203   5.380   5.856
 4840SOL    HW115419   6.231   5.288   5.885
 4840SOL    HW215420   6.271   5.417   5.793
 4841SOL     OW15421   1.036   5.273   2.259
 4841SOL    HW115422   0.956   5.218   2.237
 4841SOL    HW215423   1.011   5.370   2.256
 4842SOL     OW15424   3.505   6.777   0.463
 4842SOL    HW115425   3.423   6.826   0.433
 4842SOL    HW215426   3.579   6.793   0.399
 4843SOL     OW15427   2.448   3.983   0.606
 4843SOL    HW115428   2.444   3.955   0.510
 4843SOL    HW215429   2.415   3.909   0.664
 4844SOL     OW15430   0.238   1.097   5.512
 4844SOL    HW115431   0.281   1.009   5.488
 4844SOL    HW215432   0.237   1.156   5.432
 4845SOL     OW15433   5.859   6.689   3.795
 4845SOL    HW115434   5.812   6.759   3.849
 4845SOL    HW215435   5.955   6.715   3.784
 4846SOL     OW15436   0.169   4.171   4.980
 4846SOL    HW115437   0.195   4.096   5.041
 4846SOL    HW215438   0.115   4.238   5.031
 4847SOL     OW15439   5.329   3.714   4.378
 4847SOL    HW115440   5.302   3.736   4.284
 4847SOL    HW215441   5.304   3.789   4.438
 4848SOL     OW15442   3.016   3.483   1.202
 4848SOL    HW115443   2.949   3.444   1.266
 4848SOL    HW215444   3.108   3.474   1.240
 4849SOL     OW15445   2.761   6.506   6.804
 4849SOL    HW115446   2.678   6.519   6.858
 4849SOL    HW215447   2.811   6.426   6.839
 4850SOL     OW15448   3.403   6.624   3.150
 4850SOL    HW115449   3.469   6.609   3.224
 4850SOL    HW215450   3.343   6.700   3.174
 4851SOL     OW15451   5.288   1.819   5.476
 4851SOL    HW115452   5.203   1.872   5.474
 4851SOL    HW215453   5.279   1.745   5.543
 4852SOL     OW15454   1.156   1.995   1.629
 4852SOL    HW115455   1.248   1.982   1.665
 4852SOL    HW215456   1.090   1.995   1.704
 4853SOL     OW15457   3.220   0.602   0.857
 4853SOL    HW115458   3.315   0.598   0.826
 4853SOL    HW215459   3.206   0.534   0.930
 4854SOL     OW15460   4.454   6.947   5.408
 4854SOL    HW115461   4.364   6.971   5.445
 4854SOL    HW215462   4.455   6.850   5.384
 4855SOL     OW15463   0.055   2.647   2.175
 4855SOL    HW115464   6.997   2.656   2.222
 4855SOL    HW215465   0.122   2.710   2.215
 4856SOL     OW15466   6.829   4.946   2.957
 4856SOL    HW115467   6.888   4.975   3.032
 4856SOL    HW215468   6.757   4.886   2.992
 4857SOL     OW15469   6.655   1.351   5.836
 4857SOL    HW115470   6.728   1.414   5.808
 4857SOL    HW215471   6.650   1.349   5.936
 4858SOL     OW15472   1.332   6.832   2.905
 4858SOL    HW115473   1.332   6.926   2.871
 4858SOL    HW215474   1.417   6.787   2.878
 4859SOL     OW15475   3.607   6.884   5.773
 4859SOL    HW115476   3.639   6.944   5.700
 4859SOL    HW215477   3.529   6.927   5.820
 4860SOL     OW15478   2.516   5.341   0.052
 4860SOL    HW115479   2.611   5.311   0.060
 4860SOL    HW215480   2.507   5.433   0.090
 4861SOL     OW15481   4.147   4.028   6.036
 4861SOL    HW115482   4.190   3.939   6.029
 4861SOL    HW215483   4.079   4.027   6.109
 4862SOL     OW15484   1.902   0.669   0.222
 4862SOL    HW115485   1.925   0.743   0.286
 4862SOL    HW215486   1.835   0.608   0.264
 4863SOL     OW15487   4.893   3.769   5.602
 4863SOL    HW115488   4.948   3.777   5.519
 4863SOL    HW215489   4.852   3.678   5.607
 4864SOL     OW15490   3.370   1.564   3.776
 4864SOL    HW115491   3.318   1.535   3.855
 4864SOL    HW215492   3.434   1.492   3.749
 4865SOL     OW15493   1.289   5.617   4.947
 4865SOL    HW115494   1.281   5.557   5.027
 4865SOL    HW215495   1.233   5.581   4.872
 4866SOL     OW15496   0.399   4.239   5.448
 4866SOL    HW115497   0.438   4.152   5.477
 4866SOL    HW215498   0.305   4.224   5.416
 4867SOL     OW15499   3.892   1.107   3.419
 4867SOL    HW115500   3.815   1.166   3.443
 4867SOL    HW215501   3.885   1.081   3.323
 4868SOL     OW15502   0.001   6.072   1.264
 4868SOL    HW115503   6.986   6.158   1.288
 4868SOL    HW215504   0.096   6.072   1.296
 4869SOL     OW15505   0.094   0.705   0.619
 4869SOL    HW115506   0.126   0.800   0.620
 4869SOL    HW215507   0.101   0.668   0.527
 4870SOL     OW15508   1.678   0.640   0.588
 4870SOL    HW115509   1.672   0.583   0.506
 4870SOL    HW215510   1.758   0.614   0.642
 4871SOL     OW15511   0.870   1.786   3.997
 4871SOL    HW115512   0.810   1.743   4.065
 4871SOL    HW215513   0.830   1.873   3.968
 4872SOL     OW15514   5.521   0.506   3.027
 4872SOL    HW115515   5.467   0.587   3.049
 4872SOL    HW215516   5.607   0.508   3.078
 4873SOL     OW15517   6.464   0.028   3.606
 4873SOL    HW115518   6.371   0.060   3.586
 4873SOL    HW215519   6.464   6.958   3.617
 4874SOL     OW15520   5.741   4.504   2.915
 4874SOL    HW115521   5.735   4.414   2.870
 4874SOL    HW215522   5.837   4.525   2.936
 4875SOL     OW15523   6.769   6.956   4.487
 4875SOL    HW115524   6.780   0.019   4.526
 4875SOL    HW215525   6.758   6.890   4.561
 4876SOL     OW15526   5.940   1.819   2.119
 4876SOL    HW115527   5.952   1.905   2.071
 4876SOL    HW215528   5.970   1.743   2.061
 4877SOL     OW15529   0.675   1.505   0.394
 4877SOL    HW115530   0.735   1.583   0.377
 4877SOL    HW215531   0.597   1.508   0.333
 4878SOL     OW15532   6.333   4.156   4.382
 4878SOL    HW115533   6.369   4.150   4.289
 4878SOL    HW215534   6.234   4.165   4.380
 4879SOL     OW15535   5.621   1.172   3.087
 4879SOL    HW115536   5.649   1.267   3.099
 4879SOL    HW215537   5.537   1.168   3.032
 4880SOL     OW15538   0.503   3.555   6.651
 4880SOL    HW115539   0.515   3.654   6.662
 4880SOL    HW215540   0.553   3.507   6.724
 4881SOL     OW15541   6.773   3.774   1.980
 4881SOL    HW115542   6.685   3.797   1.938
 4881SOL    HW215543   6.768   3.683   2.021
 4882SOL     OW15544   5.236   2.331   4.005
 4882SOL    HW115545   5.155   2.302   3.955
 4882SOL    HW215546   5.211   2.405   4.068
 4883SOL     OW15547   6.999   4.420   6.205
 4883SOL    HW115548   0.011   4.369   6.280
 4883SOL    HW215549   0.023   4.503   6.188
 4884SOL     OW15550   1.886   2.485   1.702
 4884SOL    HW115551   1.890   2.515   1.607
 4884SOL    HW215552   1.914   2.559   1.763
 4885SOL     OW15553   1.154   6.161   6.531
 4885SOL    HW115554   1.211   6.169   6.613
 4885SOL    HW215555   1.172   6.240   6.471
 4886SOL     OW15556   3.401   0.897   2.165
 4886SOL    HW115557   3.418   0.809   2.209
 4886SOL    HW215558   3.305   0.922   2.175
 4887SOL     OW15559   5.158   5.637   0.594
 4887SOL    HW115560   5.175   5.555   0.649
 4887SOL    HW215561   5.150   5.716   0.654
 4888SOL     OW15562   3.844   6.638   2.952
 4888SOL    HW115563   3.938   6.664   2.974
 4888SOL    HW215564   3.786   6.719   2.950
 4889SOL     OW15565   5.090   3.211   3.607
 4889SOL    HW115566   5.115   3.263   3.525
 4889SOL    HW215567   5.168   3.208   3.669
 4890SOL     OW15568   6.863   2.293   4.761
 4890SOL    HW115569   6.881   2.258   4.669
 4890SOL    HW215570   6.821   2.384   4.754
 4891SOL     OW15571   3.388   5.734   0.241
 4891SOL    HW115572   3.294   5.765   0.249
 4891SOL    HW215573   3.443   5.804   0.195
 4892SOL     OW15574   5.054   4.803   1.673
 4892SOL    HW115575   5.009   4.835   1.756
 4892SOL    HW215576   5.153   4.804   1.686
 4893SOL     OW15577   2.725   2.634   0.884
 4893SOL    HW115578   2.634   2.604   0.857
 4893SOL    HW215579   2.793   2.593   0.824
 4894SOL     OW15580   4.775   5.860   0.297
 4894SOL    HW115581   4.845   5.808   0.345
 4894SOL    HW215582   4.805   5.876   0.203
 4895SOL     OW15583   6.427   3.487   5.178
 4895SOL    HW115584   6.476   3.472   5.264
 4895SOL    HW215585   6.339   3.440   5.181
 4896SOL     OW15586   2.483   4.852   4.968
 4896SOL    HW115587   2.533   4.824   4.886
 4896SOL    HW215588   2.461   4.771   5.023
 4897SOL     OW15589   2.909   1.894   5.892
 4897SOL    HW115590   2.812   1.877   5.909
 4897SOL    HW215591   2.964   1.845   5.959
 4898SOL     OW15592   4.918   2.479   3.112
 4898SOL    HW115593   4.830   2.527   3.106
 4898SOL    HW215594   4.991   2.545   3.121
 4899SOL     OW15595   6.222   5.563   1.317
 4899SOL    HW115596   6.254   5.554   1.412
 4899SOL    HW215597   6.226   5.660   1.290
 4900SOL     OW15598   3.236   5.498   5.727
 4900SOL    HW115599   3.147   5.487   5.682
 4900SOL    HW215600   3.241   5.436   5.806
 4901SOL     OW15601   2.345   0.680   6.281
 4901SOL    HW115602   2.259   0.642   6.249
 4901SOL    HW215603   2.369   0.640   6.370
 4902SOL     OW15604   2.236   7.022   5.535
 4902SOL    HW115605   2.247   0.089   5.561
 4902SOL    HW215606   2.324   6.985   5.505
 4903SOL     OW15607   5.275   3.561   3.115
 4903SOL    HW115608   5.199   3.597   3.061
 4903SOL    HW215609   5.317   3.484   3.068
 4904SOL     OW15610   2.552   0.254   1.908
 4904SOL    HW115611   2.474   0.245   1.970
 4904SOL    HW215612   2.612   0.175   1.917
 4905SOL     OW15613   2.368   1.448   1.363
 4905SOL    HW115614   2.437   1.457   1.435
 4905SOL    HW215615   2.318   1.534   1.354
 4906SOL     OW15616   5.369   3.656   5.099
 4906SOL    HW115617   5.378   3.700   5.189
 4906SOL    HW215618   5.413   3.566   5.102
 4907SOL     OW15619   4.641   2.115   0.635
 4907SOL    HW115620   4.609   2.145   0.546
 4907SOL    HW215621   4.570   2.059   0.679
 4908SOL     OW15622   2.470   6.591   6.960
 4908SOL    HW115623   2.500   6.637   6.877
 4908SOL    HW215624   2.373   6.613   6.976
 4909SOL     OW15625   5.140   6.798   5.039
 4909SOL    HW115626   5.141   6.885   5.088
 4909SOL    HW215627   5.138   6.723   5.104
 4910SOL     OW15628   4.356   2.032   6.490
 4910SOL    HW115629   4.341   2.094   6.567
 4910SOL    HW215630   4.270   1.985   6.468
 4911SOL     OW15631   6.342   4.831   3.728
 4911SOL    HW115632   6.390   4.762   3.674
 4911SOL    HW215633   6.323   4.911   3.671
 4912SOL     OW15634   6.036   3.586   4.474
 4912SOL    HW115635   6.004   3.531   4.552
 4912SOL    HW215636   6.093   3.661   4.506
 4913SOL     OW15637   1.275   4.144   5.855
 4913SOL    HW115638   1.326   4.215   5.806
 4913SOL    HW215639   1.326   4.059   5.855
 4914SOL     OW15640   2.773   6.937   4.398
 4914SOL    HW115641   2.681   6.978   4.396
 4914SOL    HW215642   2.786   6.881   4.317
 4915SOL     OW15643   4.817   7.013   4.639
 4915SOL    HW115644   4.779   6.931   4.681
 4915SOL    HW215645   4.743   0.042   4.604
 4916SOL     OW15646   6.004   2.946   3.831
 4916SOL    HW115647   5.932   2.992   3.777
 4916SOL    HW215648   6.043   3.011   3.896
 4917SOL     OW15649   5.187   6.089   6.704
 4917SOL    HW115650   5.210   6.042   6.789
 4917SOL    HW215651   5.102   6.052   6.667
 4918SOL     OW15652   4.477   6.375   4.295
 4918SOL    HW115653   4.380   6.401   4.290
 4918SOL    HW215654   4.534   6.453   4.269
 4919SOL     OW15655   4.844   3.953   1.809
 4919SOL    HW115656   4.921   3.952   1.746
 4919SOL    HW215657   4.759   3.967   1.758
 4920SOL     OW15658   6.218   1.081   5.993
 4920SOL    HW115659   6.300   1.109   5.943
 4920SOL    HW215660   6.137   1.123   5.952
 4921SOL     OW15661   6.314   0.713   2.189
 4921SOL    HW115662   6.300   0.746   2.096
 4921SOL    HW215663   6.412   0.716   2.210
 4922SOL     OW15664   4.061   7.025   5.763
 4922SOL    HW115665   4.088   6.954   5.828
 4922SOL    HW215666   4.112   7.014   5.678
 4923SOL     OW15667   4.069   1.182   2.236
 4923SOL    HW115668   4.133   1.139   2.301
 4923SOL    HW215669   4.117   1.203   2.151
 4924SOL     OW15670   2.923   1.962   4.564
 4924SOL    HW115671   2.958   2.026   4.632
 4924SOL    HW215672   2.956   1.987   4.473
 4925SOL     OW15673   5.093   0.046   3.956
 4925SOL    HW115674   5.125   6.984   3.927
 4925SOL    HW215675   5.131   0.115   3.895
 4926SOL     OW15676   4.608   2.575   2.167
 4926SOL    HW115677   4.549   2.494   2.159
 4926SOL    HW215678   4.611   2.605   2.262
 4927SOL     OW15679   2.148   1.935   0.809
 4927SOL    HW115680   2.105   1.902   0.893
 4927SOL    HW215681   2.247   1.941   0.822
 4928SOL     OW15682   0.830   1.853   1.774
 4928SOL    HW115683   0.794   1.764   1.801
 4928SOL    HW215684   0.759   1.904   1.725
 4929SOL     OW15685   6.406   0.101   5.215
 4929SOL    HW115686   6.341   0.144   5.277
 4929SOL    HW215687   6.393   0.136   5.123
 4930SOL     OW15688   4.684   5.887   2.619
 4930SOL    HW115689   4.618   5.824   2.578
 4930SOL    HW215690   4.773   5.875   2.575
 4931SOL     OW15691   4.342   0.293   1.174
 4931SOL    HW115692   4.440   0.294   1.152
 4931SOL    HW215693   4.327   0.334   1.264
 4932SOL     OW15694   3.884   4.005   4.164
 4932SOL    HW115695   3.951   4.068   4.126
 4932SOL    HW215696   3.869   4.026   4.260
 4933SOL     OW15697   1.994   0.877   5.026
 4933SOL    HW115698   1.905   0.834   5.010
 4933SOL    HW215699   2.039   0.835   5.105
 4934SOL     OW15700   1.802   0.360   2.907
 4934SOL    HW115701   1.869   0.388   2.839
 4934SOL    HW215702   1.716   0.335   2.861
 4935SOL     OW15703   6.526   0.396   4.312
 4935SOL    HW115704   6.576   0.310   4.302
 4935SOL    HW215705   6.428   0.380   4.305
 4936SOL     OW15706   4.719   2.696   0.329
 4936SOL    HW115707   4.760   2.646   0.253
 4936SOL    HW215708   4.702   2.791   0.302
 4937SOL     OW15709   3.677   2.861   4.905
 4937SOL    HW115710   3.777   2.854   4.901
 4937SOL    HW215711   3.639   2.832   4.817
 4938SOL     OW15712   2.621   5.077   6.466
 4938SOL    HW115713   2.593   5.166   6.502
 4938SOL    HW215714   2.695   5.089   6.400
 4939SOL     OW15715   5.097   2.973   6.479
 4939SOL    HW115716   5.110   3.068   6.509
 4939SOL    HW215717   5.079   2.915   6.558
 4940SOL     OW15718   0.686   5.904   3.119
 4940SOL    HW115719   0.611   5.908   3.053
 4940SOL    HW215720   0.649   5.904   3.212
 4941SOL     OW15721   6.875   0.464   0.003
 4941SOL    HW115722   6.839   0.431   6.945
 4941SOL    HW215723   6.799   0.499   0.058
 4942SOL     OW15724   5.143   2.800   6.274
 4942SOL    HW115725   5.236   2.768   6.254
 4942SOL    HW215726   5.145   2.866   6.348
 4943SOL     OW15727   6.784   3.329   1.183
 4943SOL    HW115728   6.812   3.314   1.278
 4943SOL    HW215729   6.735   3.416   1.176
 4944SOL     OW15730   2.075   3.528   2.501
 4944SOL    HW115731   2.113   3.437   2.513
 4944SOL    HW215732   1.987   3.522   2.454
 4945SOL     OW15733   6.736   5.794   4.013
 4945SOL    HW115734   6.638   5.812   4.010
 4945SOL    HW215735   6.770   5.781   3.920
 4946SOL     OW15736   6.621   4.614   2.516
 4946SOL    HW115737   6.586   4.694   2.467
 4946SOL    HW215738   6.648   4.544   2.451
 4947SOL     OW15739   5.786   6.926   0.300
 4947SOL    HW115740   5.739   7.012   0.282
 4947SOL    HW215741   5.723   6.850   0.286
 4948SOL     OW15742   2.550   0.987   2.013
 4948SOL    HW115743   2.593   0.901   1.986
 4948SOL    HW215744   2.557   1.052   1.937
 4949SOL     OW15745   5.453   2.272   5.849
 4949SOL    HW115746   5.426   2.224   5.933
 4949SOL    HW215747   5.422   2.220   5.770
 4950SOL     OW15748   3.749   5.432   3.881
 4950SOL    HW115749   3.766   5.390   3.792
 4950SOL    HW215750   3.704   5.367   3.941
 4951SOL     OW15751   4.506   2.560   3.964
 4951SOL    HW115752   4.476   2.494   4.033
 4951SOL    HW215753   4.443   2.559   3.887
 4952SOL     OW15754   5.903   5.292   4.461
 4952SOL    HW115755   5.822   5.236   4.442
 4952SOL    HW215756   5.950   5.256   4.542
 4953SOL     OW15757   1.051   5.190   1.749
 4953SOL    HW115758   1.102   5.178   1.834
 4953SOL    HW215759   1.066   5.112   1.689
 4954SOL     OW15760   0.440   6.834   5.539
 4954SOL    HW115761   0.487   6.920   5.560
 4954SOL    HW215762   0.459   6.767   5.610
 4955SOL     OW15763   1.512   0.325   1.929
 4955SOL    HW115764   1.489   0.231   1.958
 4955SOL    HW215765   1.515   0.329   1.830
 4956SOL     OW15766   6.082   5.672   2.654
 4956SOL    HW115767   6.026   5.661   2.736
 4956SOL    HW215768   6.039   5.736   2.592
 4957SOL     OW15769   1.349   5.458   4.527
 4957SOL    HW115770   1.430   5.441   4.582
 4957SOL    HW215771   1.373   5.455   4.430
 4958SOL     OW15772   6.727   6.289   0.164
 4958SOL    HW115773   6.769   6.280   0.254
 4958SOL    HW215774   6.700   6.199   0.130
 4959SOL     OW15775   0.875   2.283   0.212
 4959SOL    HW115776   0.866   2.356   0.279
 4959SOL    HW215777   0.795   2.283   0.152
 4960SOL     OW15778   4.241   6.392   5.318
 4960SOL    HW115779   4.203   6.300   5.333
 4960SOL    HW215780   4.341   6.387   5.319
 4961SOL     OW15781   5.922   6.716   4.872
 4961SOL    HW115782   5.903   6.782   4.800
 4961SOL    HW215783   5.866   6.737   4.952
 4962SOL     OW15784   5.946   2.464   2.307
 4962SOL    HW115785   6.025   2.514   2.342
 4962SOL    HW215786   5.943   2.471   2.207
 4963SOL     OW15787   0.770   4.879   2.156
 4963SOL    HW115788   0.719   4.959   2.125
 4963SOL    HW215789   0.706   4.810   2.190
 4964SOL     OW15790   4.053   1.146   3.924
 4964SOL    HW115791   4.000   1.097   3.855
 4964SOL    HW215792   4.149   1.118   3.919
 4965SOL     OW15793   0.177   5.322   5.068
 4965SOL    HW115794   0.177   5.402   5.128
 4965SOL    HW215795   0.242   5.254   5.103
 4966SOL     OW15796   4.981   5.658   5.917
 4966SOL    HW115797   5.026   5.587   5.862
 4966SOL    HW215798   4.993   5.637   6.014
 4967SOL     OW15799   5.606   0.737   6.905
 4967SOL    HW115800   5.572   0.781   6.988
 4967SOL    HW215801   5.684   0.788   6.869
 4968SOL     OW15802   5.593   3.220   6.899
 4968SOL    HW115803   5.537   3.302   6.909
 4968SOL    HW215804   5.683   3.244   6.863
 4969SOL     OW15805   0.815   0.355   1.528
 4969SOL    HW115806   0.811   0.450   1.497
 4969SOL    HW215807   0.730   0.332   1.577
 4970SOL     OW15808   2.184   2.152   6.169
 4970SOL    HW115809   2.154   2.183   6.079
 4970SOL    HW215810   2.253   2.080   6.159
 4971SOL     OW15811   6.686   5.817   3.285
 4971SOL    HW115812   6.657   5.910   3.261
 4971SOL    HW215813   6.613   5.753   3.264
 4972SOL     OW15814   2.117   2.307   4.399
 4972SOL    HW115815   2.174   2.349   4.329
 4972SOL    HW215816   2.035   2.267   4.357
 4973SOL     OW15817   4.346   6.121   2.968
 4973SOL    HW115818   4.442   6.128   2.997
 4973SOL    HW215819   4.298   6.058   3.027
 4974SOL     OW15820   3.894   0.006   6.195
 4974SOL    HW115821   3.987   0.026   6.164
 4974SOL    HW215822   3.828   0.047   6.133
 4975SOL     OW15823   4.018   6.021   0.001
 4975SOL    HW115824   4.074   6.093   6.989
 4975SOL    HW215825   4.018   6.031   0.100
 4976SOL     OW15826   2.857   1.003   5.094
 4976SOL    HW115827   2.881   1.045   5.006
 4976SOL    HW215828   2.890   1.061   5.168
 4977SOL     OW15829   3.756   3.026   1.725
 4977SOL    HW115830   3.693   3.094   1.764
 4977SOL    HW215831   3.850   3.058   1.735
 4978SOL     OW15832   6.005   3.925   6.392
 4978SOL    HW115833   5.915   3.890   6.365
 4978SOL    HW215834   6.060   3.943   6.311
 4979SOL     OW15835   1.347   1.622   3.879
 4979SOL    HW115836   1.295   1.541   3.854
 4979SOL    HW215837   1.289   1.703   3.869
 4980SOL     OW15838   2.474   5.035   2.353
 4980SOL    HW115839   2.513   5.115   2.308
 4980SOL    HW215840   2.377   5.028   2.331
 4981SOL     OW15841   5.475   5.987   5.905
 4981SOL    HW115842   5.460   5.980   6.003
 4981SOL    HW215843   5.504   5.898   5.869
 4982SOL     OW15844   2.958   1.669   6.513
 4982SOL    HW115845   2.925   1.636   6.425
 4982SOL    HW215846   2.905   1.627   6.587
 4983SOL     OW15847   6.881   1.742   4.399
 4983SOL    HW115848   6.790   1.701   4.388
 4983SOL    HW215849   6.886   1.786   4.489
 4984SOL     OW15850   5.486   5.451   4.220
 4984SOL    HW115851   5.389   5.462   4.201
 4984SOL    HW215852   5.539   5.469   4.138
 4985SOL     OW15853   6.030   3.506   1.281
 4985SOL    HW115854   5.943   3.457   1.288
 4985SOL    HW215855   6.012   3.599   1.248
 4986SOL     OW15856   3.329   5.312   3.728
 4986SOL    HW115857   3.291   5.378   3.662
 4986SOL    HW215858   3.282   5.321   3.815
 4987SOL     OW15859   1.677   2.959   0.217
 4987SOL    HW115860   1.743   3.034   0.211
 4987SOL    HW215861   1.688   2.913   0.305
 4988SOL     OW15862   2.059   1.883   5.027
 4988SOL    HW115863   1.999   1.818   5.074
 4988SOL    HW215864   2.145   1.838   5.003
 4989SOL     OW15865   6.917   0.766   1.019
 4989SOL    HW115866   6.841   0.813   1.063
 4989SOL    HW215867   6.989   0.747   1.086
 4990SOL     OW15868   2.114   2.004   6.578
 4990SOL    HW115869   2.048   2.045   6.515
 4990SOL    HW215870   2.175   2.074   6.613
 4991SOL     OW15871   2.903   1.960   5.628
 4991SOL    HW115872   2.843   1.904   5.572
 4991SOL    HW215873   2.895   1.933   5.724
 4992SOL     OW15874   4.546   0.221   4.707
 4992SOL    HW115875   4.579   0.219   4.613
 4992SOL    HW215876   4.574   0.307   4.750
 4993SOL     OW15877   1.164   6.431   4.289
 4993SOL    HW115878   1.192   6.517   4.247
 4993SOL    HW215879   1.090   6.391   4.236
 4994SOL     OW15880   6.963   6.513   2.948
 4994SOL    HW115881   6.972   6.580   2.875
 4994SOL    HW215882   6.875   6.526   2.995
 4995SOL     OW15883   6.264   2.887   4.973
 4995SOL    HW115884   6.267   2.860   4.877
 4995SOL    HW215885   6.226   2.979   4.981
 4996SOL     OW15886   0.646   1.209   4.027
 4996SOL    HW115887   0.658   1.300   3.988
 4996SOL    HW215888   0.565   1.166   3.988
 4997SOL     OW15889   6.739   2.225   3.338
 4997SOL    HW115890   6.665   2.290   3.358
 4997SOL    HW215891   6.785   2.254   3.254
 4998SOL     OW15892   1.097   5.673   5.366
 4998SOL    HW115893   1.149   5.749   5.405
 4998SOL    HW215894   1.155   5.624   5.300
 4999SOL     OW15895   6.691   4.630   1.065
 4999SOL    HW115896   6.672   4.591   1.156
 4999SOL    HW215897   6.692   4.557   0.997
 5000SOL     OW15898   6.120   5.630   3.666
 5000SOL    HW115899   6.217   5.614   3.688
 5000SOL    HW215900   6.104   5.605   3.571
 5001SOL     OW15901   5.019   3.881   5.382
 5001SOL    HW115902   4.999   3.801   5.326
 5001SOL    HW215903   4.961   3.957   5.355
 5002SOL     OW15904   1.421   2.585   1.535
 5002SOL    HW115905   1.339   2.530   1.550
 5002SOL    HW215906   1.396   2.682   1.528
 5003SOL     OW15907   5.701   6.041   4.857
 5003SOL    HW115908   5.659   6.017   4.769
 5003SOL    HW215909   5.787   5.991   4.868
 5004SOL     OW15910   2.230   5.087   6.183
 5004SOL    HW115911   2.154   5.134   6.228
 5004SOL    HW215912   2.280   5.032   6.249
 5005SOL     OW15913   5.015   2.140   6.645
 5005SOL    HW115914   5.026   2.129   6.744
 5005SOL    HW215915   5.101   2.117   6.600
 5006SOL     OW15916   4.340   5.445   1.832
 5006SOL    HW115917   4.365   5.522   1.891
 5006SOL    HW215918   4.256   5.403   1.866
 5007SOL     OW15919   3.495   0.853   4.481
 5007SOL    HW115920   3.444   0.940   4.482
 5007SOL    HW215921   3.477   0.805   4.395
 5008SOL     OW15922   6.143   2.113   4.229
 5008SOL    HW115923   6.057   2.143   4.272
 5008SOL    HW215924   6.166   2.022   4.262
 5009SOL     OW15925   3.530   6.911   2.249
 5009SOL    HW115926   3.460   6.976   2.217
 5009SOL    HW215927   3.498   6.817   2.233
 5010SOL     OW15928   3.229   4.035   6.357
 5010SOL    HW115929   3.174   4.010   6.277
 5010SOL    HW215930   3.216   4.132   6.377
 5011SOL     OW15931   0.814   2.319   5.049
 5011SOL    HW115932   0.816   2.278   5.140
 5011SOL    HW215933   0.724   2.358   5.031
 5012SOL     OW15934   6.165   1.882   6.936
 5012SOL    HW115935   6.105   1.856   6.861
 5012SOL    HW215936   6.245   1.822   6.937
 5013SOL     OW15937   4.898   1.740   5.088
 5013SOL    HW115938   4.894   1.837   5.062
 5013SOL    HW215939   4.914   1.684   5.007
 5014SOL     OW15940   1.265   4.596   6.328
 5014SOL    HW115941   1.305   4.638   6.410
 5014SOL    HW215942   1.169   4.623   6.321
 5015SOL     OW15943   4.826   2.546   4.104
 5015SOL    HW115944   4.737   2.590   4.095
 5015SOL    HW215945   4.886   2.604   4.158
 5016SOL     OW15946   1.805   5.749   1.166
 5016SOL    HW115947   1.746   5.669   1.175
 5016SOL    HW215948   1.871   5.750   1.242
 5017SOL     OW15949   6.799   1.191   1.558
 5017SOL    HW115950   6.893   1.204   1.527
 5017SOL    HW215951   6.768   1.099   1.532
 5018SOL     OW15952   5.979   5.529   4.344
 5018SOL    HW115953   5.969   5.444   4.396
 5018SOL    HW215954   6.023   5.598   4.402
 5019SOL     OW15955   3.067   5.764   4.681
 5019SOL    HW115956   3.066   5.701   4.759
 5019SOL    HW215957   2.973   5.784   4.653
 5020SOL     OW15958   5.090   5.306   0.477
 5020SOL    HW115959   5.174   5.361   0.483
 5020SOL    HW215960   5.102   5.235   0.408
 5021SOL     OW15961   2.607   5.021   5.162
 5021SOL    HW115962   2.543   4.986   5.093
 5021SOL    HW215963   2.699   4.990   5.141
 5022SOL     OW15964   1.501   2.717   6.473
 5022SOL    HW115965   1.577   2.656   6.449
 5022SOL    HW215966   1.515   2.806   6.429
 5023SOL     OW15967   6.400   3.633   3.688
 5023SOL    HW115968   6.363   3.610   3.598
 5023SOL    HW215969   6.493   3.668   3.678
 5024SOL     OW15970   4.962   4.141   5.613
 5024SOL    HW115971   5.028   4.091   5.668
 5024SOL    HW215972   4.870   4.103   5.627
 5025SOL     OW15973   6.072   6.563   5.055
 5025SOL    HW115974   6.151   6.617   5.084
 5025SOL    HW215975   6.022   6.612   4.983
 5026SOL     OW15976   1.011   5.648   2.666
 5026SOL    HW115977   1.087   5.654   2.730
 5026SOL    HW215978   0.926   5.673   2.712
 5027SOL     OW15979   1.159   5.712   3.042
 5027SOL    HW115980   1.060   5.722   3.032
 5027SOL    HW215981   1.195   5.652   2.971
 5028SOL     OW15982   0.468   6.821   2.754
 5028SOL    HW115983   0.481   6.747   2.820
 5028SOL    HW215984   0.371   6.834   2.737
 5029SOL     OW15985   5.850   0.977   4.040
 5029SOL    HW115986   5.763   0.932   4.022
 5029SOL    HW215987   5.891   0.938   4.123
 5030SOL     OW15988   1.359   6.031   0.578
 5030SOL    HW115989   1.348   6.088   0.660
 5030SOL    HW215990   1.452   5.997   0.573
 5031SOL     OW15991   5.038   0.414   6.989
 5031SOL    HW115992   5.034   0.331   0.016
 5031SOL    HW215993   5.078   0.488   0.013
 5032SOL     OW15994   1.755   5.609   3.045
 5032SOL    HW115995   1.823   5.550   3.089
 5032SOL    HW215996   1.798   5.693   3.014
 5033SOL     OW15997   1.373   4.538   4.845
 5033SOL    HW115998   1.339   4.465   4.787
 5033SOL    HW215999   1.470   4.554   4.825
 5034SOL     OW16000   1.233   2.697   5.836
 5034SOL    HW116001   1.190   2.642   5.908
 5034SOL    HW216002   1.287   2.637   5.777
 5035SOL     OW16003   6.958   4.479   0.825
 5035SOL    HW116004   6.918   4.388   0.830
 5035SOL    HW216005   7.018   4.494   0.904
 5036SOL     OW16006   0.879   1.572   2.184
 5036SOL    HW116007   0.929   1.512   2.246
 5036SOL    HW216008   0.795   1.527   2.155
 5037SOL     OW16009   5.512   3.791   0.958
 5037SOL    HW116010   5.428   3.742   0.984
 5037SOL    HW216011   5.569   3.804   1.038
 5038SOL     OW16012   3.142   5.660   5.934
 5038SOL    HW116013   3.175   5.621   5.849
 5038SOL    HW216014   3.054   5.705   5.919
 5039SOL     OW16015   0.542   1.841   4.078
 5039SOL    HW116016   0.484   1.767   4.045
 5039SOL    HW216017   0.484   1.919   4.102
 5040SOL     OW16018   2.001   2.602   6.243
 5040SOL    HW116019   2.049   2.547   6.175
 5040SOL    HW216020   1.926   2.651   6.199
 5041SOL     OW16021   0.606   5.388   0.008
 5041SOL    HW116022   0.562   5.364   0.094
 5041SOL    HW216023   0.596   5.486   7.021
 5042SOL     OW16024   5.865   0.845   6.066
 5042SOL    HW116025   5.848   0.917   5.999
 5042SOL    HW216026   5.818   0.761   6.038
 5043SOL     OW16027   5.600   5.907   4.135
 5043SOL    HW116028   5.603   5.834   4.066
 5043SOL    HW216029   5.667   5.978   4.111
 5044SOL     OW16030   0.384   4.081   2.445
 5044SOL    HW116031   0.382   4.162   2.387
 5044SOL    HW216032   0.306   4.082   2.507
 5045SOL     OW16033   5.276   3.394   5.475
 5045SOL    HW116034   5.200   3.410   5.413
 5045SOL    HW216035   5.338   3.472   5.474
 5046SOL     OW16036   3.705   3.168   5.824
 5046SOL    HW116037   3.800   3.134   5.826
 5046SOL    HW216038   3.689   3.224   5.905
 5047SOL     OW16039   6.619   1.572   1.568
 5047SOL    HW116040   6.622   1.582   1.668
 5047SOL    HW216041   6.548   1.632   1.532
 5048SOL     OW16042   5.574   4.452   6.883
 5048SOL    HW116043   5.651   4.473   6.822
 5048SOL    HW216044   5.589   4.496   6.972
 5049SOL     OW16045   0.801   0.587   0.186
 5049SOL    HW116046   0.863   0.639   0.245
 5049SOL    HW216047   0.815   0.489   0.202
 5050SOL     OW16048   1.360   3.999   1.186
 5050SOL    HW116049   1.453   3.966   1.168
 5050SOL    HW216050   1.305   3.992   1.102
 5051SOL     OW16051   2.301   4.020   5.641
 5051SOL    HW116052   2.257   3.996   5.728
 5051SOL    HW216053   2.369   4.091   5.657
 5052SOL     OW16054   6.497   2.496   1.205
 5052SOL    HW116055   6.453   2.408   1.221
 5052SOL    HW216056   6.431   2.559   1.165
 5053SOL     OW16057   0.690   3.994   1.231
 5053SOL    HW116058   0.733   4.078   1.197
 5053SOL    HW216059   0.628   4.015   1.307
 5054SOL     OW16060   4.510   5.405   4.762
 5054SOL    HW116061   4.430   5.408   4.702
 5054SOL    HW216062   4.503   5.477   4.831
 5055SOL     OW16063   0.792   7.004   4.149
 5055SOL    HW116064   0.757   7.027   4.240
 5055SOL    HW216065   0.862   6.933   4.157
 5056SOL     OW16066   3.025   1.127   6.801
 5056SOL    HW116067   3.097   1.194   6.819
 5056SOL    HW216068   2.947   1.145   6.860
 5057SOL     OW16069   0.527   3.810   3.207
 5057SOL    HW116070   0.487   3.738   3.149
 5057SOL    HW216071   0.602   3.772   3.260
 5058SOL     OW16072   3.841   1.925   6.794
 5058SOL    HW116073   3.795   1.887   6.714
 5058SOL    HW216074   3.871   1.850   6.853
 5059SOL     OW16075   5.207   2.567   2.925
 5059SOL    HW116076   5.151   2.499   2.878
 5059SOL    HW216077   5.179   2.659   2.897
 5060SOL     OW16078   0.486   3.283   5.813
 5060SOL    HW116079   0.396   3.285   5.770
 5060SOL    HW216080   0.557   3.300   5.744
 5061SOL     OW16081   4.267   2.703   6.246
 5061SOL    HW116082   4.252   2.711   6.344
 5061SOL    HW216083   4.306   2.788   6.211
 5062SOL     OW16084   5.490   1.467   2.935
 5062SOL    HW116085   5.551   1.479   3.013
 5062SOL    HW216086   5.543   1.468   2.850
 5063SOL     OW16087   0.453   0.609   0.575
 5063SOL    HW116088   0.446   0.554   0.491
 5063SOL    HW216089   0.362   0.641   0.601
 5064SOL     OW16090   6.816   5.095   0.483
 5064SOL    HW116091   6.869   5.011   0.476
 5064SOL    HW216092   6.850   5.150   0.559
 5065SOL     OW16093   0.802   1.947   2.520
 5065SOL    HW116094   0.809   2.011   2.597
 5065SOL    HW216095   0.707   1.939   2.491
 5066SOL     OW16096   0.856   5.384   3.754
 5066SOL    HW116097   0.879   5.349   3.845
 5066SOL    HW216098   0.843   5.483   3.759
 5067SOL     OW16099   4.162   2.794   0.645
 5067SOL    HW116100   4.068   2.778   0.618
 5067SOL    HW216101   4.187   2.732   0.720
 5068SOL     OW16102   1.415   6.146   0.967
 5068SOL    HW116103   1.452   6.189   1.049
 5068SOL    HW216104   1.400   6.215   0.896
 5069SOL     OW16105   4.166   4.722   6.549
 5069SOL    HW116106   4.167   4.643   6.611
 5069SOL    HW216107   4.073   4.738   6.518
 5070SOL     OW16108   1.028   3.600   6.537
 5070SOL    HW116109   0.930   3.608   6.554
 5070SOL    HW216110   1.048   3.623   6.441
 5071SOL     OW16111   1.432   6.554   2.998
 5071SOL    HW116112   1.432   6.513   3.089
 5071SOL    HW216113   1.379   6.497   2.935
 5072SOL     OW16114   0.836   2.411   2.980
 5072SOL    HW116115   0.761   2.361   2.936
 5072SOL    HW216116   0.923   2.366   2.958
 5073SOL     OW16117   1.935   1.524   4.454
 5073SOL    HW116118   2.016   1.502   4.399
 5073SOL    HW216119   1.951   1.610   4.502
 5074SOL     OW16120   3.509   2.061   1.474
 5074SOL    HW116121   3.520   2.109   1.560
 5074SOL    HW216122   3.447   1.983   1.487
 5075SOL     OW16123   6.127   2.099   6.729
 5075SOL    HW116124   6.175   2.047   6.799
 5075SOL    HW216125   6.186   2.111   6.650
 5076SOL     OW16126   0.002   1.660   5.991
 5076SOL    HW116127   7.025   1.616   6.080
 5076SOL    HW216128   0.098   1.678   5.968
 5077SOL     OW16129   1.136   5.304   4.517
 5077SOL    HW116130   1.121   5.294   4.419
 5077SOL    HW216131   1.221   5.356   4.532
 5078SOL     OW16132   5.692   1.731   2.852
 5078SOL    HW116133   5.728   1.683   2.932
 5078SOL    HW216134   5.743   1.816   2.839
 5079SOL     OW16135   1.620   3.594   6.078
 5079SOL    HW116136   1.710   3.624   6.110
 5079SOL    HW216137   1.631   3.520   6.011
 5080SOL     OW16138   6.786   5.849   6.715
 5080SOL    HW116139   6.736   5.834   6.630
 5080SOL    HW216140   6.727   5.826   6.793
 5081SOL     OW16141   3.954   4.325   6.067
 5081SOL    HW116142   3.964   4.322   6.167
 5081SOL    HW216143   3.920   4.237   6.034
 5082SOL     OW16144   5.593   0.100   2.821
 5082SOL    HW116145   5.614   0.018   2.769
 5082SOL    HW216146   5.622   0.088   2.916
 5083SOL     OW16147   0.166   0.796   3.344
 5083SOL    HW116148   0.225   0.745   3.282
 5083SOL    HW216149   0.098   0.735   3.384
 5084SOL     OW16150   3.818   5.230   5.769
 5084SOL    HW116151   3.861   5.142   5.791
 5084SOL    HW216152   3.875   5.304   5.804
 5085SOL     OW16153   1.126   3.321   6.563
 5085SOL    HW116154   1.099   3.417   6.569
 5085SOL    HW216155   1.123   3.280   6.655
 5086SOL     OW16156   0.673   4.620   2.151
 5086SOL    HW116157   0.652   4.576   2.239
 5086SOL    HW216158   0.748   4.571   2.106
 5087SOL     OW16159   6.551   5.341   1.938
 5087SOL    HW116160   6.478   5.298   1.885
 5087SOL    HW216161   6.626   5.276   1.951
 5088SOL     OW16162   4.712   4.708   2.319
 5088SOL    HW116163   4.790   4.653   2.347
 5088SOL    HW216164   4.690   4.773   2.392
 5089SOL     OW16165   4.291   5.878   6.045
 5089SOL    HW116166   4.385   5.911   6.040
 5089SOL    HW216167   4.228   5.955   6.042
 5090SOL     OW16168   2.190   6.352   4.499
 5090SOL    HW116169   2.225   6.445   4.512
 5090SOL    HW216170   2.094   6.348   4.528
 5091SOL     OW16171   6.085   5.728   4.759
 5091SOL    HW116172   6.170   5.691   4.798
 5091SOL    HW216173   6.028   5.652   4.726
 5092SOL     OW16174   3.265   2.951   4.605
 5092SOL    HW116175   3.291   2.893   4.528
 5092SOL    HW216176   3.238   3.042   4.571
 5093SOL     OW16177   3.299   2.114   3.146
 5093SOL    HW116178   3.399   2.127   3.150
 5093SOL    HW216179   3.259   2.138   3.234
 5094SOL     OW16180   2.354   4.711   4.726
 5094SOL    HW116181   2.410   4.645   4.777
 5094SOL    HW216182   2.265   4.720   4.770
 5095SOL     OW16183   6.015   2.627   3.154
 5095SOL    HW116184   5.974   2.545   3.114
 5095SOL    HW216185   6.020   2.618   3.253
 5096SOL     OW16186   6.415   3.168   4.991
 5096SOL    HW116187   6.455   3.253   4.956
 5096SOL    HW216188   6.315   3.174   4.985
 5097SOL     OW16189   0.857   0.231   6.054
 5097SOL    HW116190   0.868   0.208   5.957
 5097SOL    HW216191   0.945   0.221   6.100
 5098SOL     OW16192   2.782   1.847   0.753
 5098SOL    HW116193   2.701   1.851   0.694
 5098SOL    HW216194   2.827   1.758   0.744
 5099SOL     OW16195   1.564   5.518   1.696
 5099SOL    HW116196   1.482   5.534   1.751
 5099SOL    HW216197   1.629   5.464   1.750
 5100SOL     OW16198   0.273   3.489   1.471
 5100SOL    HW116199   0.261   3.560   1.541
 5100SOL    HW216200   0.327   3.414   1.509
 5101SOL     OW16201   4.767   1.972   6.070
 5101SOL    HW116202   4.751   1.970   5.971
 5101SOL    HW216203   4.684   2.002   6.117
 5102SOL     OW16204   5.815   4.810   5.096
 5102SOL    HW116205   5.829   4.831   5.193
 5102SOL    HW216206   5.894   4.843   5.043
 5103SOL     OW16207   0.361   0.169   5.119
 5103SOL    HW116208   0.343   0.146   5.023
 5103SOL    HW216209   0.430   0.107   5.156
 5104SOL     OW16210   3.557   3.025   3.877
 5104SOL    HW116211   3.607   2.981   3.803
 5104SOL    HW216212   3.470   2.978   3.891
 5105SOL     OW16213   4.435   2.255   6.301
 5105SOL    HW116214   4.425   2.180   6.367
 5105SOL    HW216215   4.376   2.331   6.328
 5106SOL     OW16216   4.220   0.505   1.065
 5106SOL    HW116217   4.214   0.518   0.966
 5106SOL    HW216218   4.249   0.412   1.086
 5107SOL     OW16219   6.511   4.100   0.360
 5107SOL    HW116220   6.579   4.028   0.345
 5107SOL    HW216221   6.526   4.141   0.450
 5108SOL     OW16222   4.358   4.171   0.406
 5108SOL    HW116223   4.293   4.241   0.375
 5108SOL    HW216224   4.451   4.198   0.382
 5109SOL     OW16225   1.042   2.552   2.307
 5109SOL    HW116226   0.971   2.483   2.322
 5109SOL    HW216227   1.130   2.516   2.339
 5110SOL     OW16228   3.649   0.020   4.972
 5110SOL    HW116229   3.714   6.985   4.932
 5110SOL    HW216230   3.648   0.105   4.920
 5111SOL     OW16231   2.470   6.484   6.619
 5111SOL    HW116232   2.384   6.473   6.670
 5111SOL    HW216233   2.510   6.573   6.641
 5112SOL     OW16234   0.738   3.785   2.565
 5112SOL    HW116235   0.686   3.704   2.592
 5112SOL    HW216236   0.836   3.765   2.570
 5113SOL     OW16237   3.182   4.732   1.451
 5113SOL    HW116238   3.122   4.724   1.531
 5113SOL    HW216239   3.133   4.704   1.369
 5114SOL     OW16240   4.760   3.877   0.924
 5114SOL    HW116241   4.692   3.899   0.855
 5114SOL    HW216242   4.807   3.960   0.953
 5115SOL     OW16243   1.448   3.869   0.481
 5115SOL    HW116244   1.445   3.969   0.483
 5115SOL    HW216245   1.543   3.839   0.493
 5116SOL     OW16246   0.833   6.037   5.772
 5116SOL    HW116247   0.811   6.051   5.868
 5116SOL    HW216248   0.872   6.121   5.734
 5117SOL     OW16249   0.543   3.835   4.337
 5117SOL    HW116250   0.614   3.874   4.277
 5117SOL    HW216251   0.468   3.801   4.281
 5118SOL     OW16252   5.015   5.250   0.848
 5118SOL    HW116253   5.093   5.312   0.836
 5118SOL    HW216254   4.973   5.265   0.937
 5119SOL     OW16255   5.217   1.446   6.855
 5119SOL    HW116256   5.135   1.401   6.822
 5119SOL    HW216257   5.297   1.389   6.836
 5120SOL     OW16258   5.343   6.012   0.308
 5120SOL    HW116259   5.381   6.028   0.216
 5120SOL    HW216260   5.288   5.929   0.307
 5121SOL     OW16261   2.321   3.689   7.012
 5121SOL    HW116262   2.270   3.637   0.052
 5121SOL    HW216263   2.314   3.787   0.003
 5122SOL     OW16264   5.217   5.651   3.421
 5122SOL    HW116265   5.222   5.652   3.321
 5122SOL    HW216266   5.122   5.665   3.450
 5123SOL     OW16267   4.474   2.337   1.632
 5123SOL    HW116268   4.565   2.307   1.660
 5123SOL    HW216269   4.412   2.259   1.630
 5124SOL     OW16270   0.452   6.284   4.276
 5124SOL    HW116271   0.516   6.235   4.334
 5124SOL    HW216272   0.358   6.259   4.300
 5125SOL     OW16273   5.007   3.126   4.059
 5125SOL    HW116274   4.974   3.194   3.994
 5125SOL    HW216275   4.936   3.057   4.076
 5126SOL     OW16276   3.040   0.867   2.722
 5126SOL    HW116277   3.106   0.848   2.649
 5126SOL    HW216278   3.077   0.834   2.809
 5127SOL     OW16279   2.152   6.104   0.932
 5127SOL    HW116280   2.219   6.114   0.858
 5127SOL    HW216281   2.060   6.097   0.893
 5128SOL     OW16282   3.923   0.398   2.215
 5128SOL    HW116283   3.942   0.343   2.297
 5128SOL    HW216284   3.836   0.368   2.175
 5129SOL     OW16285   6.157   5.545   0.177
 5129SOL    HW116286   6.059   5.565   0.169
 5129SOL    HW216287   6.176   5.455   0.138
 5130SOL     OW16288   5.871   5.014   2.426
 5130SOL    HW116289   5.827   4.990   2.339
 5130SOL    HW216290   5.963   4.975   2.429
 5131SOL     OW16291   2.220   2.125   1.980
 5131SOL    HW116292   2.284   2.102   1.907
 5131SOL    HW216293   2.157   2.196   1.947
 5132SOL     OW16294   2.581   6.514   6.235
 5132SOL    HW116295   2.670   6.503   6.192
 5132SOL    HW216296   2.516   6.449   6.196
 5133SOL     OW16297   3.965   5.307   5.007
 5133SOL    HW116298   3.947   5.283   4.911
 5133SOL    HW216299   3.889   5.278   5.064
 5134SOL     OW16300   0.660   3.003   0.020
 5134SOL    HW116301   0.616   3.091   0.038
 5134SOL    HW216302   0.599   2.945   6.996
 5135SOL     OW16303   6.110   1.677   2.652
 5135SOL    HW116304   6.119   1.670   2.552
 5135SOL    HW216305   6.108   1.585   2.691
 5136SOL     OW16306   3.521   1.715   6.925
 5136SOL    HW116307   3.477   1.667   6.850
 5136SOL    HW216308   3.532   1.811   6.901
 5137SOL     OW16309   4.103   3.685   7.026
 5137SOL    HW116310   4.144   3.654   6.940
 5137SOL    HW216311   4.136   3.777   0.019
 5138SOL     OW16312   2.602   2.430   6.158
 5138SOL    HW116313   2.550   2.385   6.230
 5138SOL    HW216314   2.592   2.529   6.167
 5139SOL     OW16315   0.508   6.833   4.086
 5139SOL    HW116316   0.478   6.867   4.175
 5139SOL    HW216317   0.566   6.901   4.042
 5140SOL     OW16318   3.235   3.507   2.852
 5140SOL    HW116319   3.253   3.518   2.950
 5140SOL    HW216320   3.290   3.573   2.801
 5141SOL     OW16321   1.478   3.102   5.243
 5141SOL    HW116322   1.544   3.152   5.188
 5141SOL    HW216323   1.525   3.038   5.304
 5142SOL     OW16324   5.086   3.277   1.095
 5142SOL    HW116325   5.028   3.247   1.019
 5142SOL    HW216326   5.057   3.229   1.179
 5143SOL     OW16327   7.010   5.086   6.495
 5143SOL    HW116328   0.009   5.119   6.585
 5143SOL    HW216329   6.912   5.102   6.483
 5144SOL     OW16330   2.330   1.302   5.126
 5144SOL    HW116331   2.380   1.334   5.207
 5144SOL    HW216332   2.331   1.202   5.124
 5145SOL     OW16333   3.418   5.018   6.659
 5145SOL    HW116334   3.502   5.073   6.663
 5145SOL    HW216335   3.426   4.942   6.723
 5146SOL     OW16336   3.722   5.471   1.158
 5146SOL    HW116337   3.774   5.555   1.169
 5146SOL    HW216338   3.704   5.431   1.248
 5147SOL     OW16339   0.436   5.809   5.939
 5147SOL    HW116340   0.413   5.784   5.845
 5147SOL    HW216341   0.442   5.908   5.948
 5148SOL     OW16342   6.980   0.821   1.525
 5148SOL    HW116343   0.034   0.873   1.547
 5148SOL    HW216344   6.904   0.884   1.510
 5149SOL     OW16345   6.341   0.478   4.762
 5149SOL    HW116346   6.377   0.394   4.720
 5149SOL    HW216347   6.280   0.453   4.837
 5150SOL     OW16348   2.692   5.076   5.851
 5150SOL    HW116349   2.724   5.167   5.825
 5150SOL    HW216350   2.604   5.084   5.898
 5151SOL     OW16351   5.290   6.752   5.992
 5151SOL    HW116352   5.323   6.676   5.936
 5151SOL    HW216353   5.193   6.766   5.975
 5152SOL     OW16354   0.060   4.847   6.378
 5152SOL    HW116355   0.009   4.926   6.409
 5152SOL    HW216356   0.145   4.877   6.334
 5153SOL     OW16357   2.971   3.054   1.166
 5153SOL    HW116358   3.038   2.987   1.134
 5153SOL    HW216359   2.884   3.008   1.184
 5154SOL     OW16360   1.445   3.734   5.275
 5154SOL    HW116361   1.362   3.784   5.253
 5154SOL    HW216362   1.470   3.751   5.371
 5155SOL     OW16363   4.177   0.833   2.468
 5155SOL    HW116364   4.088   0.787   2.466
 5155SOL    HW216365   4.230   0.800   2.546
 5156SOL     OW16366   5.542   3.645   5.695
 5156SOL    HW116367   5.541   3.610   5.788
 5156SOL    HW216368   5.635   3.672   5.670
 5157SOL     OW16369   7.016   2.793   3.802
 5157SOL    HW116370   0.042   2.840   3.733
 5157SOL    HW216371   7.002   2.853   3.880
 5158SOL     OW16372   4.168   0.783   1.819
 5158SOL    HW116373   4.206   0.714   1.880
 5158SOL    HW216374   4.239   0.814   1.755
 5159SOL     OW16375   1.781   3.818   4.883
 5159SOL    HW116376   1.744   3.770   4.962
 5159SOL    HW216377   1.872   3.782   4.862
 5160SOL     OW16378   2.449   2.208   3.064
 5160SOL    HW116379   2.469   2.165   3.153
 5160SOL    HW216380   2.461   2.141   2.991
 5161SOL     OW16381   1.461   2.316   6.902
 5161SOL    HW116382   1.390   2.370   6.948
 5161SOL    HW216383   1.493   2.364   6.821
 5162SOL     OW16384   6.280   5.839   5.151
 5162SOL    HW116385   6.257   5.771   5.220
 5162SOL    HW216386   6.220   5.919   5.160
 5163SOL     OW16387   6.300   3.457   1.104
 5163SOL    HW116388   6.320   3.555   1.107
 5163SOL    HW216389   6.230   3.435   1.172
 5164SOL     OW16390   6.524   6.484   5.160
 5164SOL    HW116391   6.611   6.496   5.113
 5164SOL    HW216392   6.528   6.403   5.218
 5165SOL     OW16393   5.759   4.528   5.061
 5165SOL    HW116394   5.662   4.511   5.077
 5165SOL    HW216395   5.776   4.626   5.059
 5166SOL     OW16396   0.045   0.605   2.924
 5166SOL    HW116397   0.089   0.694   2.918
 5166SOL    HW216398   6.993   0.603   2.865
 5167SOL     OW16399   2.244   0.232   4.685
 5167SOL    HW116400   2.165   0.204   4.739
 5167SOL    HW216401   2.213   0.266   4.596
 5168SOL     OW16402   3.354   1.448   2.181
 5168SOL    HW116403   3.307   1.383   2.120
 5168SOL    HW216404   3.381   1.529   2.129
 5169SOL     OW16405   3.437   5.778   6.588
 5169SOL    HW116406   3.534   5.764   6.606
 5169SOL    HW216407   3.397   5.835   6.659
 5170SOL     OW16408   3.948   5.093   4.595
 5170SOL    HW116409   3.942   5.179   4.646
 5170SOL    HW216410   3.892   5.023   4.641
 5171SOL     OW16411   2.480   4.369   5.850
 5171SOL    HW116412   2.562   4.358   5.906
 5171SOL    HW216413   2.488   4.312   5.768
 5172SOL     OW16414   1.743   3.137   6.202
 5172SOL    HW116415   1.807   3.155   6.128
 5172SOL    HW216416   1.650   3.158   6.173
 5173SOL     OW16417   0.886   2.123   4.878
 5173SOL    HW116418   0.967   2.153   4.829
 5173SOL    HW216419   0.859   2.192   4.945
 5174SOL     OW16420   2.910   4.948   6.888
 5174SOL    HW116421   2.959   4.946   6.801
 5174SOL    HW216422   2.848   5.026   6.891
 5175SOL     OW16423   1.129   5.556   0.222
 5175SOL    HW116424   1.197   5.490   0.189
 5175SOL    HW216425   1.087   5.520   0.306
 5176SOL     OW16426   5.960   3.504   6.681
 5176SOL    HW116427   5.943   3.499   6.582
 5176SOL    HW216428   5.902   3.439   6.729
 5177SOL     OW16429   4.885   5.240   0.229
 5177SOL    HW116430   4.898   5.153   0.276
 5177SOL    HW216431   4.854   5.309   0.295
 5178SOL     OW16432   3.295   4.548   0.592
 5178SOL    HW116433   3.304   4.597   0.506
 5178SOL    HW216434   3.199   4.538   0.615
 5179SOL     OW16435   2.729   5.892   5.597
 5179SOL    HW116436   2.680   5.863   5.679
 5179SOL    HW216437   2.728   5.992   5.590
 5180SOL     OW16438   4.922   1.623   5.861
 5180SOL    HW116439   4.991   1.553   5.841
 5180SOL    HW216440   4.947   1.671   5.945
 5181SOL     OW16441   2.710   6.249   3.090
 5181SOL    HW116442   2.628   6.269   3.143
 5181SOL    HW216443   2.716   6.151   3.073
 5182SOL     OW16444   4.569   3.976   0.716
 5182SOL    HW116445   4.550   4.061   0.766
 5182SOL    HW216446   4.485   3.945   0.671
 5183SOL     OW16447   2.805   1.235   3.293
 5183SOL    HW116448   2.722   1.185   3.319
 5183SOL    HW216449   2.781   1.328   3.267
 5184SOL     OW16450   0.768   2.087   3.425
 5184SOL    HW116451   0.734   2.163   3.370
 5184SOL    HW216452   0.834   2.034   3.373
 5185SOL     OW16453   4.904   0.790   2.071
 5185SOL    HW116454   4.841   0.779   1.994
 5185SOL    HW216455   4.935   0.700   2.102
 5186SOL     OW16456   5.439   3.436   6.863
 5186SOL    HW116457   5.384   3.463   6.942
 5186SOL    HW216458   5.473   3.519   6.817
 5187SOL     OW16459   4.549   4.430   4.458
 5187SOL    HW116460   4.493   4.424   4.540
 5187SOL    HW216461   4.621   4.361   4.461
 5188SOL     OW16462   0.846   0.832   3.203
 5188SOL    HW116463   0.753   0.865   3.216
 5188SOL    HW216464   0.901   0.855   3.283
 5189SOL     OW16465   4.852   5.252   5.700
 5189SOL    HW116466   4.790   5.330   5.713
 5189SOL    HW216467   4.869   5.208   5.788
 5190SOL     OW16468   1.726   1.669   2.549
 5190SOL    HW116469   1.735   1.644   2.453
 5190SOL    HW216470   1.788   1.614   2.605
 5191SOL     OW16471   5.038   1.447   2.392
 5191SOL    HW116472   5.121   1.501   2.382
 5191SOL    HW216473   5.050   1.359   2.345
 5192SOL     OW16474   6.472   3.954   2.314
 5192SOL    HW116475   6.415   4.034   2.334
 5192SOL    HW216476   6.568   3.977   2.330
 5193SOL     OW16477   3.847   4.922   3.206
 5193SOL    HW116478   3.892   4.902   3.293
 5193SOL    HW216479   3.906   4.895   3.131
 5194SOL     OW16480   5.609   0.498   0.286
 5194SOL    HW116481   5.654   0.409   0.282
 5194SOL    HW216482   5.527   0.491   0.344
 5195SOL     OW16483   0.336   5.002   5.459
 5195SOL    HW116484   0.289   4.922   5.495
 5195SOL    HW216485   0.424   4.975   5.420
 5196SOL     OW16486   1.671   3.361   3.103
 5196SOL    HW116487   1.613   3.306   3.164
 5196SOL    HW216488   1.763   3.323   3.102
 5197SOL     OW16489   3.242   6.325   5.584
 5197SOL    HW116490   3.313   6.351   5.519
 5197SOL    HW216491   3.254   6.375   5.670
 5198SOL     OW16492   4.261   1.471   6.409
 5198SOL    HW116493   4.221   1.385   6.379
 5198SOL    HW216494   4.303   1.517   6.331
 5199SOL     OW16495   0.764   6.441   3.579
 5199SOL    HW116496   0.829   6.372   3.608
 5199SOL    HW216497   0.717   6.479   3.659
 5200SOL     OW16498   5.872   6.553   6.043
 5200SOL    HW116499   5.967   6.559   6.012
 5200SOL    HW216500   5.813   6.533   5.966
 5201SOL     OW16501   6.777   3.672   5.404
 5201SOL    HW116502   6.875   3.687   5.414
 5201SOL    HW216503   6.734   3.672   5.494
 5202SOL     OW16504   3.470   3.023   5.802
 5202SOL    HW116505   3.506   2.933   5.827
 5202SOL    HW216506   3.545   3.089   5.798
 5203SOL     OW16507   0.234   6.932   5.133
 5203SOL    HW116508   0.289   7.011   5.160
 5203SOL    HW216509   0.139   6.961   5.118
 5204SOL     OW16510   1.879   0.412   2.128
 5204SOL    HW116511   1.783   0.438   2.114
 5204SOL    HW216512   1.902   0.336   2.068
 5205SOL     OW16513   5.851   6.870   1.614
 5205SOL    HW116514   5.818   6.877   1.708
 5205SOL    HW216515   5.950   6.886   1.613
 5206SOL     OW16516   1.092   4.760   4.921
 5206SOL    HW116517   1.112   4.847   4.966
 5206SOL    HW216518   1.011   4.718   4.963
 5207SOL     OW16519   4.865   1.921   4.746
 5207SOL    HW116520   4.791   1.924   4.680
 5207SOL    HW216521   4.903   2.012   4.760
 5208SOL     OW16522   6.955   1.402   0.604
 5208SOL    HW116523   6.924   1.432   0.514
 5208SOL    HW216524   6.886   1.427   0.673
 5209SOL     OW16525   4.385   5.746   3.061
 5209SOL    HW116526   4.287   5.728   3.058
 5209SOL    HW216527   4.408   5.818   2.995
 5210SOL     OW16528   6.397   3.924   2.026
 5210SOL    HW116529   6.411   3.930   2.124
 5210SOL    HW216530   6.304   3.952   2.002
 5211SOL     OW16531   4.820   3.125   4.818
 5211SOL    HW116532   4.770   3.046   4.784
 5211SOL    HW216533   4.783   3.151   4.908
 5212SOL     OW16534   6.741   3.934   0.300
 5212SOL    HW116535   6.718   3.844   0.263
 5212SOL    HW216536   6.812   3.976   0.244
 5213SOL     OW16537   3.207   3.187   4.474
 5213SOL    HW116538   3.114   3.217   4.493
 5213SOL    HW216539   3.267   3.267   4.469
 5214SOL     OW16540   5.949   3.178   5.233
 5214SOL    HW116541   6.019   3.119   5.273
 5214SOL    HW216542   5.899   3.127   5.163
 5215SOL     OW16543   0.354   4.481   5.000
 5215SOL    HW116544   0.344   4.530   5.087
 5215SOL    HW216545   0.381   4.386   5.019
 5216SOL     OW16546   0.446   4.086   0.088
 5216SOL    HW116547   0.385   4.030   0.144
 5216SOL    HW216548   0.469   4.169   0.138
 5217SOL     OW16549   3.150   0.730   1.815
 5217SOL    HW116550   3.246   0.740   1.787
 5217SOL    HW216551   3.146   0.700   1.910
 5218SOL     OW16552   6.575   6.629   0.341
 5218SOL    HW116553   6.570   6.722   0.304
 5218SOL    HW216554   6.501   6.615   0.407
 5219SOL     OW16555   4.130   1.922   4.295
 5219SOL    HW116556   4.084   2.004   4.329
 5219SOL    HW216557   4.229   1.938   4.290
 5220SOL     OW16558   2.507   4.601   4.519
 5220SOL    HW116559   2.488   4.675   4.583
 5220SOL    HW216560   2.603   4.573   4.527
 5221SOL     OW16561   4.156   0.073   0.586
 5221SOL    HW116562   4.180   0.071   0.683
 5221SOL    HW216563   4.230   0.117   0.534
 5222SOL     OW16564   5.638   2.113   2.060
 5222SOL    HW116565   5.541   2.138   2.054
 5222SOL    HW216566   5.647   2.014   2.065
 5223SOL     OW16567   0.144   1.230   0.586
 5223SOL    HW116568   0.061   1.285   0.596
 5223SOL    HW216569   0.123   1.134   0.605
 5224SOL     OW16570   2.289   1.534   4.566
 5224SOL    HW116571   2.353   1.585   4.624
 5224SOL    HW216572   2.198   1.575   4.574
 5225SOL     OW16573   6.697   3.784   6.254
 5225SOL    HW116574   6.695   3.760   6.157
 5225SOL    HW216575   6.744   3.872   6.265
 5226SOL     OW16576   0.509   0.422   4.247
 5226SOL    HW116577   0.599   0.437   4.206
 5226SOL    HW216578   0.472   0.508   4.280
 5227SOL     OW16579   3.111   2.672   6.567
 5227SOL    HW116580   3.169   2.737   6.616
 5227SOL    HW216581   3.015   2.695   6.582
 5228SOL     OW16582   0.189   2.399   6.059
 5228SOL    HW116583   0.119   2.329   6.071
 5228SOL    HW216584   0.179   2.439   5.967
 5229SOL     OW16585   3.791   1.834   1.386
 5229SOL    HW116586   3.795   1.927   1.420
 5229SOL    HW216587   3.884   1.797   1.379
 5230SOL     OW16588   5.944   0.736   2.151
 5230SOL    HW116589   5.948   0.641   2.121
 5230SOL    HW216590   5.958   0.797   2.073
 5231SOL     OW16591   6.735   4.007   2.333
 5231SOL    HW116592   6.723   4.082   2.268
 5231SOL    HW216593   6.803   3.943   2.298
 5232SOL     OW16594   2.366   1.358   6.045
 5232SOL    HW116595   2.337   1.387   5.954
 5232SOL    HW216596   2.463   1.336   6.044
 5233SOL     OW16597   2.221   6.936   4.007
 5233SOL    HW116598   2.262   6.983   3.928
 5233SOL    HW216599   2.292   6.911   4.072
 5234SOL     OW16600   3.769   2.631   6.172
 5234SOL    HW116601   3.671   2.615   6.175
 5234SOL    HW216602   3.811   2.597   6.257
 5235SOL     OW16603   2.450   2.748   1.809
 5235SOL    HW116604   2.440   2.727   1.711
 5235SOL    HW216605   2.536   2.711   1.842
 5236SOL     OW16606   2.795   5.321   2.081
 5236SOL    HW116607   2.801   5.397   2.016
 5236SOL    HW216608   2.884   5.278   2.091
 5237SOL     OW16609   0.935   1.356   1.492
 5237SOL    HW116610   0.859   1.402   1.447
 5237SOL    HW216611   0.925   1.364   1.591
 5238SOL     OW16612   5.954   1.216   3.146
 5238SOL    HW116613   5.894   1.239   3.222
 5238SOL    HW216614   6.022   1.288   3.133
 5239SOL     OW16615   2.469   3.260   0.020
 5239SOL    HW116616   2.418   3.187   7.004
 5239SOL    HW216617   2.414   3.298   0.095
 5240SOL     OW16618   1.707   3.451   4.936
 5240SOL    HW116619   1.653   3.432   4.854
 5240SOL    HW216620   1.702   3.549   4.957
 5241SOL     OW16621   2.291   4.881   2.824
 5241SOL    HW116622   2.324   4.841   2.739
 5241SOL    HW216623   2.334   4.970   2.839
 5242SOL     OW16624   4.637   6.110   5.808
 5242SOL    HW116625   4.680   6.199   5.792
 5242SOL    HW216626   4.681   6.041   5.750
 5243SOL     OW16627   2.417   5.403   4.205
 5243SOL    HW116628   2.473   5.347   4.144
 5243SOL    HW216629   2.321   5.395   4.179
 5244SOL     OW16630   5.955   6.744   6.652
 5244SOL    HW116631   5.889   6.780   6.587
 5244SOL    HW216632   5.979   6.650   6.628
 5245SOL     OW16633   3.105   3.933   1.896
 5245SOL    HW116634   3.202   3.932   1.921
 5245SOL    HW216635   3.092   3.991   1.816
 5246SOL     OW16636   6.556   2.816   5.249
 5246SOL    HW116637   6.540   2.872   5.168
 5246SOL    HW216638   6.470   2.805   5.299
 5247SOL     OW16639   4.794   1.459   4.748
 5247SOL    HW116640   4.839   1.543   4.779
 5247SOL    HW216641   4.863   1.391   4.725
 5248SOL     OW16642   4.539   1.195   2.338
 5248SOL    HW116643   4.584   1.109   2.311
 5248SOL    HW216644   4.441   1.188   2.320
 5249SOL     OW16645   0.601   5.314   2.210
 5249SOL    HW116646   0.649   5.378   2.269
 5249SOL    HW216647   0.572   5.360   2.126
 5250SOL     OW16648   1.633   4.871   0.004
 5250SOL    HW116649   1.536   4.871   7.009
 5250SOL    HW216650   1.663   4.966   0.016
 5251SOL     OW16651   2.364   4.092   6.440
 5251SOL    HW116652   2.318   4.040   6.513
 5251SOL    HW216653   2.430   4.155   6.481
 5252SOL     OW16654   4.041   5.678   3.985
 5252SOL    HW116655   4.128   5.695   4.032
 5252SOL    HW216656   4.020   5.581   3.988
 5253SOL     OW16657   0.523   6.540   3.742
 5253SOL    HW116658   0.490   6.506   3.830
 5253SOL    HW216659   0.559   6.633   3.753
 5254SOL     OW16660   4.488   6.406   2.047
 5254SOL    HW116661   4.499   6.417   2.145
 5254SOL    HW216662   4.420   6.471   2.013
 5255SOL     OW16663   0.678   1.590   6.432
 5255SOL    HW116664   0.662   1.499   6.393
 5255SOL    HW216665   0.689   1.582   6.531
 5256SOL     OW16666   3.838   1.514   2.607
 5256SOL    HW116667   3.745   1.494   2.576
 5256SOL    HW216668   3.901   1.507   2.530
 5257SOL     OW16669   5.833   0.886   6.819
 5257SOL    HW116670   5.921   0.860   6.778
 5257SOL    HW216671   5.832   0.985   6.835
 5258SOL     OW16672   6.045   2.154   5.180
 5258SOL    HW116673   6.041   2.194   5.272
 5258SOL    HW216674   6.024   2.056   5.185
 5259SOL     OW16675   4.657   6.471   4.590
 5259SOL    HW116676   4.702   6.524   4.662
 5259SOL    HW216677   4.713   6.474   4.507
 5260SOL     OW16678   1.732   0.130   2.343
 5260SOL    HW116679   1.708   0.077   2.425
 5260SOL    HW216680   1.832   0.132   2.333
 5261SOL     OW16681   6.965   5.036   7.028
 5261SOL    HW116682   7.001   5.053   6.937
 5261SOL    HW216683   7.027   4.975   0.049
 5262SOL     OW16684   1.662   1.974   1.895
 5262SOL    HW116685   1.638   1.948   1.988
 5262SOL    HW216686   1.731   2.046   1.897
 5263SOL     OW16687   0.063   6.093   1.934
 5263SOL    HW116688   0.093   6.151   2.010
 5263SOL    HW216689   0.006   6.146   1.872
 5264SOL     OW16690   5.726   2.520   2.791
 5264SOL    HW116691   5.808   2.533   2.734
 5264SOL    HW216692   5.749   2.465   2.871
 5265SOL     OW16693   1.266   5.878   6.050
 5265SOL    HW116694   1.206   5.868   6.130
 5265SOL    HW216695   1.361   5.862   6.078
 5266SOL     OW16696   0.822   0.128   6.757
 5266SOL    HW116697   0.733   0.084   6.743
 5266SOL    HW216698   0.869   0.085   6.834
 5267SOL     OW16699   6.523   1.486   4.711
 5267SOL    HW116700   6.603   1.545   4.715
 5267SOL    HW216701   6.465   1.513   4.634
 5268SOL     OW16702   5.663   0.455   5.009
 5268SOL    HW116703   5.698   0.515   5.081
 5268SOL    HW216704   5.566   0.439   5.024
 5269SOL     OW16705   1.617   0.442   4.284
 5269SOL    HW116706   1.703   0.487   4.259
 5269SOL    HW216707   1.548   0.510   4.306
 5270SOL     OW16708   1.735   1.621   6.321
 5270SOL    HW116709   1.772   1.599   6.231
 5270SOL    HW216710   1.807   1.659   6.379
 5271SOL     OW16711   1.481   6.786   5.961
 5271SOL    HW116712   1.495   6.756   5.866
 5271SOL    HW216713   1.383   6.792   5.979
 5272SOL     OW16714   4.295   6.935   6.132
 5272SOL    HW116715   4.390   6.964   6.142
 5272SOL    HW216716   4.278   6.910   6.036
 5273SOL     OW16717   1.898   1.462   3.397
 5273SOL    HW116718   1.814   1.509   3.425
 5273SOL    HW216719   1.961   1.527   3.355
 5274SOL     OW16720   6.433   4.474   1.480
 5274SOL    HW116721   6.470   4.411   1.411
 5274SOL    HW216722   6.370   4.538   1.436
 5275SOL     OW16723   5.752   7.011   6.419
 5275SOL    HW116724   5.655   0.004   6.415
 5275SOL    HW216725   5.801   0.056   6.466
 5276SOL     OW16726   2.603   6.404   1.307
 5276SOL    HW116727   2.687   6.395   1.360
 5276SOL    HW216728   2.545   6.324   1.321
 5277SOL     OW16729   1.562   2.892   1.478
 5277SOL    HW116730   1.568   2.806   1.427
 5277SOL    HW216731   1.471   2.901   1.517
 5278SOL     OW16732   3.997   3.341   4.965
 5278SOL    HW116733   4.040   3.417   4.916
 5278SOL    HW216734   4.066   3.292   5.017
 5279SOL     OW16735   1.448   0.130   2.995
 5279SOL    HW116736   1.488   0.070   3.063
 5279SOL    HW216737   1.466   0.225   3.020
 5280SOL     OW16738   3.775   0.719   3.566
 5280SOL    HW116739   3.787   0.678   3.476
 5280SOL    HW216740   3.844   0.682   3.629
 5281SOL     OW16741   6.804   2.965   3.700
 5281SOL    HW116742   6.779   2.874   3.664
 5281SOL    HW216743   6.902   2.980   3.688
 5282SOL     OW16744   4.834   1.967   1.678
 5282SOL    HW116745   4.932   1.980   1.697
 5282SOL    HW216746   4.822   1.939   1.583
 5283SOL     OW16747   5.944   5.033   5.273
 5283SOL    HW116748   5.929   4.957   5.336
 5283SOL    HW216749   5.856   5.066   5.238
 5284SOL     OW16750   5.610   2.769   3.827
 5284SOL    HW116751   5.673   2.723   3.765
 5284SOL    HW216752   5.659   2.800   3.908
 5285SOL     OW16753   4.576   5.142   2.485
 5285SOL    HW116754   4.535   5.106   2.401
 5285SOL    HW216755   4.652   5.203   2.461
 5286SOL     OW16756   1.581   4.830   2.004
 5286SOL    HW116757   1.526   4.913   1.998
 5286SOL    HW216758   1.535   4.756   1.953
 5287SOL     OW16759   6.862   0.923   3.076
 5287SOL    HW116760   6.791   0.993   3.086
 5287SOL    HW216761   6.941   0.948   3.132
 5288SOL     OW16762   3.967   0.608   0.382
 5288SOL    HW116763   3.883   0.553   0.382
 5288SOL    HW216764   3.969   0.665   0.463
 5289SOL     OW16765   1.683   0.288   1.671
 5289SOL    HW116766   1.705   0.245   1.583
 5289SOL    HW216767   1.725   0.378   1.676
 5290SOL     OW16768   5.522   6.796   6.624
 5290SOL    HW116769   5.537   6.887   6.663
 5290SOL    HW216770   5.475   6.804   6.537
 5291SOL     OW16771   0.986   5.019   0.879
 5291SOL    HW116772   0.980   5.113   0.846
 5291SOL    HW216773   1.080   4.999   0.905
 5292SOL     OW16774   5.671   1.170   1.031
 5292SOL    HW116775   5.577   1.140   1.048
 5292SOL    HW216776   5.686   1.177   0.932
 5293SOL     OW16777   1.866   1.053   3.715
 5293SOL    HW116778   1.804   1.104   3.775
 5293SOL    HW216779   1.863   0.956   3.739
 5294SOL     OW16780   3.357   2.106   6.795
 5294SOL    HW116781   3.423   2.089   6.867
 5294SOL    HW216782   3.397   2.167   6.726
 5295SOL     OW16783   6.700   2.231   3.735
 5295SOL    HW116784   6.786   2.279   3.750
 5295SOL    HW216785   6.686   2.165   3.810
 5296SOL     OW16786   0.410   4.253   6.342
 5296SOL    HW116787   0.504   4.220   6.352
 5296SOL    HW216788   0.393   4.323   6.412
 5297SOL     OW16789   1.156   2.230   2.057
 5297SOL    HW116790   1.067   2.276   2.059
 5297SOL    HW216791   1.189   2.217   2.150
 5298SOL     OW16792   1.094   3.253   2.080
 5298SOL    HW116793   1.042   3.197   2.145
 5298SOL    HW216794   1.049   3.341   2.068
 5299SOL     OW16795   3.549   0.248   6.849
 5299SOL    HW116796   3.540   0.311   6.772
 5299SOL    HW216797   3.597   0.166   6.818
 5300SOL     OW16798   0.024   5.053   4.583
 5300SOL    HW116799   0.092   4.981   4.565
 5300SOL    HW216800   6.966   5.012   4.609
 5301SOL     OW16801   5.684   6.810   5.925
 5301SOL    HW116802   5.619   6.788   5.997
 5301SOL    HW216803   5.687   6.736   5.859
 5302SOL     OW16804   0.067   3.842   2.830
 5302SOL    HW116805   0.015   3.851   2.746
 5302SOL    HW216806   0.079   3.745   2.852
 5303SOL     OW16807   2.474   5.056   2.035
 5303SOL    HW116808   2.507   5.003   2.113
 5303SOL    HW216809   2.551   5.101   1.990
 5304SOL     OW16810   5.777   2.154   6.060
 5304SOL    HW116811   5.706   2.084   6.046
 5304SOL    HW216812   5.861   2.110   6.091
 5305SOL     OW16813   3.921   1.695   5.155
 5305SOL    HW116814   3.933   1.659   5.062
 5305SOL    HW216815   3.823   1.703   5.174
 5306SOL     OW16816   2.248   6.747   3.738
 5306SOL    HW116817   2.192   6.730   3.819
 5306SOL    HW216818   2.309   6.824   3.756
 5307SOL     OW16819   4.950   6.705   6.351
 5307SOL    HW116820   4.888   6.634   6.316
 5307SOL    HW216821   5.041   6.691   6.312
 5308SOL     OW16822   6.218   1.445   0.516
 5308SOL    HW116823   6.220   1.346   0.530
 5308SOL    HW216824   6.298   1.486   0.559
 5309SOL     OW16825   3.378   4.483   6.658
 5309SOL    HW116826   3.425   4.451   6.575
 5309SOL    HW216827   3.421   4.567   6.690
 5310SOL     OW16828   5.160   2.652   0.314
 5310SOL    HW116829   5.088   2.716   0.342
 5310SOL    HW216830   5.224   2.638   0.390
 5311SOL     OW16831   6.776   5.455   6.896
 5311SOL    HW116832   6.680   5.467   6.920
 5311SOL    HW216833   6.833   5.510   6.957
 5312SOL     OW16834   0.660   4.260   2.169
 5312SOL    HW116835   0.654   4.235   2.072
 5312SOL    HW216836   0.756   4.266   2.196
 5313SOL     OW16837   0.962   6.389   6.252
 5313SOL    HW116838   0.953   6.427   6.160
 5313SOL    HW216839   1.056   6.357   6.265
 5314SOL     OW16840   4.803   4.173   1.111
 5314SOL    HW116841   4.793   4.218   1.199
 5314SOL    HW216842   4.750   4.222   1.042
 5315SOL     OW16843   5.294   0.334   3.126
 5315SOL    HW116844   5.316   0.252   3.073
 5315SOL    HW216845   5.348   0.410   3.093
 5316SOL     OW16846   5.566   5.327   5.010
 5316SOL    HW116847   5.531   5.286   4.926
 5316SOL    HW216848   5.621   5.407   4.987
 5317SOL     OW16849   0.130   4.768   1.554
 5317SOL    HW116850   0.132   4.843   1.621
 5317SOL    HW216851   0.102   4.804   1.465
 5318SOL     OW16852   0.138   2.653   3.140
 5318SOL    HW116853   0.192   2.727   3.100
 5318SOL    HW216854   0.041   2.668   3.119
 5319SOL     OW16855   2.774   6.209   2.507
 5319SOL    HW116856   2.755   6.137   2.440
 5319SOL    HW216857   2.859   6.187   2.556
 5320SOL     OW16858   6.819   1.769   0.769
 5320SOL    HW116859   6.719   1.762   0.763
 5320SOL    HW216860   6.844   1.820   0.852
 5321SOL     OW16861   2.269   5.279   0.161
 5321SOL    HW116862   2.214   5.287   0.077
 5321SOL    HW216863   2.364   5.304   0.141
 5322SOL     OW16864   2.801   6.188   6.651
 5322SOL    HW116865   2.838   6.187   6.744
 5322SOL    HW216866   2.762   6.098   6.630
 5323SOL     OW16867   6.668   3.659   0.236
 5323SOL    HW116868   6.575   3.625   0.234
 5323SOL    HW216869   6.725   3.606   0.174
 5324SOL     OW16870   4.048   3.195   2.290
 5324SOL    HW116871   4.065   3.211   2.387
 5324SOL    HW216872   4.135   3.198   2.240
 5325SOL     OW16873   3.388   7.008   5.266
 5325SOL    HW116874   3.464   6.944   5.268
 5325SOL    HW216875   3.305   6.961   5.296
 5326SOL     OW16876   5.678   0.462   3.746
 5326SOL    HW116877   5.659   0.391   3.679
 5326SOL    HW216878   5.649   0.431   3.837
 5327SOL     OW16879   6.453   6.437   3.770
 5327SOL    HW116880   6.520   6.405   3.703
 5327SOL    HW216881   6.380   6.487   3.723
 5328SOL     OW16882   2.429   4.841   5.653
 5328SOL    HW116883   2.464   4.901   5.581
 5328SOL    HW216884   2.333   4.862   5.670
 5329SOL     OW16885   0.612   7.010   5.660
 5329SOL    HW116886   0.678   6.940   5.688
 5329SOL    HW216887   0.581   0.032   5.740
 5330SOL     OW16888   4.403   3.671   0.226
 5330SOL    HW116889   4.337   3.616   0.277
 5330SOL    HW216890   4.391   3.768   0.249
 5331SOL     OW16891   5.928   0.572   0.119
 5331SOL    HW116892   5.945   0.524   0.033
 5331SOL    HW216893   5.981   0.657   0.120
 5332SOL     OW16894   0.859   3.387   6.854
 5332SOL    HW116895   0.762   3.383   6.878
 5332SOL    HW216896   0.894   3.479   6.873
 5333SOL     OW16897   0.215   6.847   4.321
 5333SOL    HW116898   0.224   6.933   4.271
 5333SOL    HW216899   0.127   6.805   4.298
 5334SOL     OW16900   3.358   6.054   0.748
 5334SOL    HW116901   3.381   5.998   0.828
 5334SOL    HW216902   3.363   5.997   0.665
 5335SOL     OW16903   6.766   4.919   1.930
 5335SOL    HW116904   6.841   4.871   1.977
 5335SOL    HW216905   6.696   4.853   1.903
 5336SOL     OW16906   1.976   2.927   5.877
 5336SOL    HW116907   1.910   2.931   5.802
 5336SOL    HW216908   1.950   2.991   5.948
 5337SOL     OW16909   6.651   2.190   0.938
 5337SOL    HW116910   6.692   2.103   0.909
 5337SOL    HW216911   6.553   2.188   0.919
 5338SOL     OW16912   6.733   2.444   1.531
 5338SOL    HW116913   6.748   2.451   1.432
 5338SOL    HW216914   6.651   2.496   1.556
 5339SOL     OW16915   4.968   3.498   2.281
 5339SOL    HW116916   4.909   3.573   2.312
 5339SOL    HW216917   5.002   3.519   2.189
 5340SOL     OW16918   5.504   3.415   0.923
 5340SOL    HW116919   5.500   3.326   0.969
 5340SOL    HW216920   5.599   3.440   0.907
 5341SOL     OW16921   4.595   5.151   3.405
 5341SOL    HW116922   4.519   5.216   3.404
 5341SOL    HW216923   4.655   5.172   3.482
 5342SOL     OW16924   6.045   4.840   4.647
 5342SOL    HW116925   6.024   4.867   4.741
 5342SOL    HW216926   6.145   4.832   4.637
 5343SOL     OW16927   4.348   3.791   1.067
 5343SOL    HW116928   4.425   3.730   1.049
 5343SOL    HW216929   4.303   3.814   0.980
 5344SOL     OW16930   6.653   1.789   6.690
 5344SOL    HW116931   6.717   1.860   6.719
 5344SOL    HW216932   6.672   1.705   6.741
 5345SOL     OW16933   3.898   0.450   0.069
 5345SOL    HW116934   3.806   0.472   0.037
 5345SOL    HW216935   3.945   0.535   0.095
 5346SOL     OW16936   2.347   5.845   3.149
 5346SOL    HW116937   2.333   5.944   3.147
 5346SOL    HW216938   2.335   5.812   3.243
 5347SOL     OW16939   6.030   2.850   5.561
 5347SOL    HW116940   5.946   2.875   5.608
 5347SOL    HW216941   6.069   2.931   5.516
 5348SOL     OW16942   5.596   2.767   5.095
 5348SOL    HW116943   5.650   2.839   5.140
 5348SOL    HW216944   5.512   2.808   5.057
 5349SOL     OW16945   1.171   4.226   0.718
 5349SOL    HW116946   1.084   4.217   0.670
 5349SOL    HW216947   1.245   4.191   0.661
 5350SOL     OW16948   1.289   0.135   6.766
 5350SOL    HW116949   1.367   0.132   6.828
 5350SOL    HW216950   1.208   0.100   6.813
 5351SOL     OW16951   0.663   6.338   3.297
 5351SOL    HW116952   0.619   6.339   3.387
 5351SOL    HW216953   0.706   6.248   3.282
 5352SOL     OW16954   0.195   3.283   6.071
 5352SOL    HW116955   0.294   3.297   6.083
 5352SOL    HW216956   0.151   3.279   6.160
 5353SOL     OW16957   2.625   6.662   3.018
 5353SOL    HW116958   2.650   6.601   3.093
 5353SOL    HW216959   2.527   6.656   3.001
 5354SOL     OW16960   2.016   6.659   1.667
 5354SOL    HW116961   1.967   6.742   1.694
 5354SOL    HW216962   1.953   6.581   1.670
 5355SOL     OW16963   4.663   4.253   5.594
 5355SOL    HW116964   4.617   4.280   5.679
 5355SOL    HW216965   4.684   4.155   5.597
 5356SOL     OW16966   6.364   6.962   1.300
 5356SOL    HW116967   6.382   7.018   1.380
 5356SOL    HW216968   6.450   6.943   1.252
 5357SOL     OW16969   6.301   2.967   2.319
 5357SOL    HW116970   6.367   2.897   2.348
 5357SOL    HW216971   6.209   2.937   2.343
 5358SOL     OW16972   5.370   6.467   5.073
 5358SOL    HW116973   5.466   6.448   5.093
 5358SOL    HW216974   5.330   6.390   5.025
 5359SOL     OW16975   3.262   1.751   6.193
 5359SOL    HW116976   3.316   1.825   6.152
 5359SOL    HW216977   3.236   1.777   6.286
 5360SOL     OW16978   5.134   5.821   2.393
 5360SOL    HW116979   5.162   5.831   2.298
 5360SOL    HW216980   5.035   5.828   2.400
 5361SOL     OW16981   1.136   3.792   2.771
 5361SOL    HW116982   1.056   3.809   2.713
 5361SOL    HW216983   1.116   3.716   2.833
 5362SOL     OW16984   6.037   1.860   4.271
 5362SOL    HW116985   6.020   1.922   4.348
 5362SOL    HW216986   5.958   1.861   4.210
 5363SOL     OW16987   6.247   4.113   6.572
 5363SOL    HW116988   6.185   4.159   6.510
 5363SOL    HW216989   6.264   4.019   6.540
 5364SOL     OW16990   4.675   1.986   1.882
 5364SOL    HW116991   4.723   1.989   1.795
 5364SOL    HW216992   4.741   1.986   1.957
 5365SOL     OW16993   3.281   2.647   6.354
 5365SOL    HW116994   3.217   2.690   6.418
 5365SOL    HW216995   3.237   2.570   6.308
 5366SOL     OW16996   0.124   4.398   3.639
 5366SOL    HW116997   0.126   4.461   3.562
 5366SOL    HW216998   0.091   4.309   3.608
 5367SOL     OW16999   6.296   5.262   1.446
 5367SOL    HW117000   6.258   5.312   1.524
 5367SOL    HW217001   6.362   5.194   1.479
 5368SOL     OW17002   0.031   5.438   4.724
 5368SOL    HW117003   7.017   5.420   4.812
 5368SOL    HW217004   0.131   5.436   4.735
 5369SOL     OW17005   4.151   0.636   2.196
 5369SOL    HW117006   4.055   0.611   2.192
 5369SOL    HW217007   4.192   0.630   2.105
 5370SOL     OW17008   2.087   2.194   0.007
 5370SOL    HW117009   2.105   2.292   0.000
 5370SOL    HW217010   2.022   2.167   6.965
 5371SOL     OW17011   6.355   5.150   3.046
 5371SOL    HW117012   6.421   5.082   3.077
 5371SOL    HW217013   6.268   5.136   3.093
 5372SOL     OW17014   0.976   1.080   4.829
 5372SOL    HW117015   1.048   1.100   4.763
 5372SOL    HW217016   1.015   1.071   4.920
 5373SOL     OW17017   4.397   6.489   0.943
 5373SOL    HW117018   4.407   6.478   1.042
 5373SOL    HW217019   4.477   6.450   0.897
 5374SOL     OW17020   2.046   3.500   1.527
 5374SOL    HW117021   2.028   3.595   1.553
 5374SOL    HW217022   2.039   3.492   1.427
 5375SOL     OW17023   2.844   4.891   5.095
 5375SOL    HW117024   2.893   4.858   5.176
 5375SOL    HW217025   2.822   4.815   5.035
 5376SOL     OW17026   6.376   6.831   2.141
 5376SOL    HW117027   6.293   6.780   2.117
 5376SOL    HW217028   6.383   6.838   2.241
 5377SOL     OW17029   0.754   3.469   1.191
 5377SOL    HW117030   0.687   3.433   1.126
 5377SOL    HW217031   0.793   3.553   1.155
 5378SOL     OW17032   4.951   0.679   5.003
 5378SOL    HW117033   5.002   0.765   5.006
 5378SOL    HW217034   4.951   0.637   5.093
 5379SOL     OW17035   3.322   1.863   4.060
 5379SOL    HW117036   3.353   1.856   3.965
 5379SOL    HW217037   3.372   1.797   4.116
 5380SOL     OW17038   4.474   7.011   1.223
 5380SOL    HW117039   4.535   0.027   1.289
 5380SOL    HW217040   4.486   0.025   1.134
 5381SOL     OW17041   2.770   1.614   2.048
 5381SOL    HW117042   2.722   1.679   2.107
 5381SOL    HW217043   2.868   1.619   2.067
 5382SOL     OW17044   3.661   0.294   2.780
 5382SOL    HW117045   3.641   0.208   2.827
 5382SOL    HW217046   3.758   0.316   2.790
 5383SOL     OW17047   2.330   4.418   5.375
 5383SOL    HW117048   2.330   4.320   5.393
 5383SOL    HW217049   2.309   4.468   5.459
 5384SOL     OW17050   5.076   6.014   5.730
 5384SOL    HW117051   5.098   6.067   5.812
 5384SOL    HW217052   5.158   6.000   5.675
 5385SOL     OW17053   4.069   4.040   1.019
 5385SOL    HW117054   3.984   4.058   0.970
 5385SOL    HW217055   4.141   4.017   0.953
 5386SOL     OW17056   3.934   5.620   3.341
 5386SOL    HW117057   3.866   5.592   3.407
 5386SOL    HW217058   3.891   5.633   3.251
 5387SOL     OW17059   1.302   2.605   5.388
 5387SOL    HW117060   1.231   2.537   5.405
 5387SOL    HW217061   1.260   2.696   5.381
 5388SOL     OW17062   6.768   6.376   3.149
 5388SOL    HW117063   6.699   6.422   3.204
 5388SOL    HW217064   6.746   6.278   3.142
 5389SOL     OW17065   6.958   1.711   4.984
 5389SOL    HW117066   6.998   1.757   4.905
 5389SOL    HW217067   6.973   1.765   5.066
 5390SOL     OW17068   5.768   2.589   3.696
 5390SOL    HW117069   5.796   2.555   3.606
 5390SOL    HW217070   5.850   2.610   3.750
 5391SOL     OW17071   5.072   2.991   1.185
 5391SOL    HW117072   5.167   2.986   1.154
 5391SOL    HW217073   5.067   2.964   1.281
 5392SOL     OW17074   5.237   1.101   3.817
 5392SOL    HW117075   5.156   1.084   3.760
 5392SOL    HW217076   5.280   1.187   3.790
 5393SOL     OW17077   4.990   2.682   2.379
 5393SOL    HW117078   4.913   2.707   2.321
 5393SOL    HW217079   4.962   2.685   2.475
 5394SOL     OW17080   0.499   3.407   3.339
 5394SOL    HW117081   0.405   3.435   3.359
 5394SOL    HW217082   0.504   3.372   3.246
 5395SOL     OW17083   0.534   0.430   1.895
 5395SOL    HW117084   0.526   0.384   1.807
 5395SOL    HW217085   0.536   0.529   1.881
 5396SOL     OW17086   3.523   2.337   6.854
 5396SOL    HW117087   3.534   2.247   6.895
 5396SOL    HW217088   3.426   2.362   6.852
 5397SOL     OW17089   6.971   0.081   3.195
 5397SOL    HW117090   6.976   0.108   3.291
 5397SOL    HW217091   6.996   0.159   3.138
 5398SOL     OW17092   6.107   2.650   3.781
 5398SOL    HW117093   6.156   2.639   3.695
 5398SOL    HW217094   6.114   2.744   3.813
 5399SOL     OW17095   2.975   2.162   0.315
 5399SOL    HW117096   2.922   2.164   0.400
 5399SOL    HW217097   2.955   2.243   0.261
 5400SOL     OW17098   4.213   3.154   1.114
 5400SOL    HW117099   4.194   3.056   1.128
 5400SOL    HW217100   4.276   3.185   1.186
 5401SOL     OW17101   4.601   3.207   1.123
 5401SOL    HW117102   4.571   3.167   1.037
 5401SOL    HW217103   4.521   3.230   1.179
 5402SOL     OW17104   2.298   5.453   0.921
 5402SOL    HW117105   2.323   5.381   0.856
 5402SOL    HW217106   2.339   5.434   1.010
 5403SOL     OW17107   6.917   2.973   5.269
 5403SOL    HW117108   6.867   2.949   5.186
 5403SOL    HW217109   6.993   2.909   5.281
 5404SOL     OW17110   4.331   6.826   6.854
 5404SOL    HW117111   4.358   6.885   6.778
 5404SOL    HW217112   4.368   6.863   6.939
 5405SOL     OW17113   5.649   5.249   6.578
 5405SOL    HW117114   5.646   5.223   6.481
 5405SOL    HW217115   5.603   5.179   6.633
 5406SOL     OW17116   2.116   1.511   4.924
 5406SOL    HW117117   2.028   1.493   4.969
 5406SOL    HW217118   2.153   1.598   4.957
 5407SOL     OW17119   2.018   2.140   2.460
 5407SOL    HW117120   2.024   2.163   2.362
 5407SOL    HW217121   2.109   2.134   2.499
 5408SOL     OW17122   2.481   2.278   3.996
 5408SOL    HW117123   2.573   2.302   3.965
 5408SOL    HW217124   2.414   2.314   3.931
 5409SOL     OW17125   6.757   4.395   3.590
 5409SOL    HW117126   6.827   4.442   3.644
 5409SOL    HW217127   6.792   4.306   3.560
 5410SOL     OW17128   5.998   0.868   0.377
 5410SOL    HW117129   5.972   0.772   0.388
 5410SOL    HW217130   5.978   0.918   0.461
 5411SOL     OW17131   2.600   6.343   2.071
 5411SOL    HW117132   2.641   6.339   2.162
 5411SOL    HW217133   2.520   6.402   2.074
 5412SOL     OW17134   2.933   2.180   5.925
 5412SOL    HW117135   2.907   2.083   5.917
 5412SOL    HW217136   2.850   2.236   5.925
 5413SOL     OW17137   0.014   4.902   5.625
 5413SOL    HW117138   0.099   4.862   5.589
 5413SOL    HW217139   0.021   4.910   5.725
 5414SOL     OW17140   5.957   5.686   5.756
 5414SOL    HW117141   6.047   5.678   5.800
 5414SOL    HW217142   5.886   5.686   5.826
 5415SOL     OW17143   2.625   6.785   0.094
 5415SOL    HW117144   2.577   6.736   0.021
 5415SOL    HW217145   2.642   6.879   0.066
 5416SOL     OW17146   4.273   4.728   5.668
 5416SOL    HW117147   4.183   4.685   5.675
 5416SOL    HW217148   4.339   4.676   5.722
 5417SOL     OW17149   4.892   0.550   1.896
 5417SOL    HW117150   4.825   0.551   1.970
 5417SOL    HW217151   4.883   0.466   1.843
 5418SOL     OW17152   6.935   3.480   6.239
 5418SOL    HW117153   6.868   3.530   6.294
 5418SOL    HW217154   7.015   3.458   6.294
 5419SOL     OW17155   4.071   2.797   5.831
 5419SOL    HW117156   4.123   2.847   5.900
 5419SOL    HW217157   4.037   2.861   5.762
 5420SOL     OW17158   0.880   1.874   0.675
 5420SOL    HW117159   0.949   1.830   0.618
 5420SOL    HW217160   0.790   1.860   0.636
 5421SOL     OW17161   3.825   5.242   0.673
 5421SOL    HW117162   3.775   5.315   0.627
 5421SOL    HW217163   3.804   5.244   0.771
 5422SOL     OW17164   2.520   0.284   3.804
 5422SOL    HW117165   2.432   0.325   3.782
 5422SOL    HW217166   2.530   0.277   3.904
 5423SOL     OW17167   4.224   5.388   3.169
 5423SOL    HW117168   4.198   5.480   3.138
 5423SOL    HW217169   4.323   5.377   3.162
 5424SOL     OW17170   3.974   3.087   5.767
 5424SOL    HW117171   4.073   3.099   5.768
 5424SOL    HW217172   3.945   3.053   5.677
 5425SOL     OW17173   2.246   5.869   4.413
 5425SOL    HW117174   2.288   5.779   4.426
 5425SOL    HW217175   2.227   5.911   4.501
 5426SOL     OW17176   1.254   3.129   0.119
 5426SOL    HW117177   1.162   3.154   0.150
 5426SOL    HW217178   1.295   3.206   0.070
 5427SOL     OW17179   4.625   1.913   0.288
 5427SOL    HW117180   4.591   1.900   0.195
 5427SOL    HW217181   4.577   1.851   0.350
 5428SOL     OW17182   5.071   6.101   2.159
 5428SOL    HW117183   5.027   6.191   2.154
 5428SOL    HW217184   5.012   6.033   2.116
 5429SOL     OW17185   2.961   6.304   3.017
 5429SOL    HW117186   2.969   6.397   2.978
 5429SOL    HW217187   2.866   6.288   3.045
 5430SOL     OW17188   0.447   3.592   5.734
 5430SOL    HW117189   0.393   3.608   5.651
 5430SOL    HW217190   0.431   3.666   5.799
 5431SOL     OW17191   5.334   3.968   1.244
 5431SOL    HW117192   5.302   4.061   1.227
 5431SOL    HW217193   5.304   3.908   1.170
 5432SOL     OW17194   1.369   5.447   5.449
 5432SOL    HW117195   1.359   5.348   5.454
 5432SOL    HW217196   1.420   5.479   5.528
 5433SOL     OW17197   3.426   6.643   2.141
 5433SOL    HW117198   3.497   6.572   2.141
 5433SOL    HW217199   3.421   6.686   2.051
 5434SOL     OW17200   4.647   6.614   4.265
 5434SOL    HW117201   4.674   6.622   4.169
 5434SOL    HW217202   4.675   6.697   4.314
 5435SOL     OW17203   0.919   3.002   0.010
 5435SOL    HW117204   0.821   2.984   7.027
 5435SOL    HW217205   0.933   3.059   0.091
 5436SOL     OW17206   1.749   4.292   0.706
 5436SOL    HW117207   1.814   4.335   0.768
 5436SOL    HW217208   1.677   4.247   0.759
 5437SOL     OW17209   3.410   0.201   5.821
 5437SOL    HW117210   3.455   0.289   5.836
 5437SOL    HW217211   3.330   0.214   5.763
 5438SOL     OW17212   4.158   6.648   3.481
 5438SOL    HW117213   4.101   6.616   3.405
 5438SOL    HW217214   4.177   6.572   3.543
 5439SOL     OW17215   1.599   3.763   2.234
 5439SOL    HW117216   1.671   3.833   2.240
 5439SOL    HW217217   1.606   3.702   2.314
 5440SOL     OW17218   4.875   6.133   2.977
 5440SOL    HW117219   4.917   6.116   3.066
 5440SOL    HW217220   4.885   6.051   2.920
 5441SOL     OW17221   5.873   6.944   4.666
 5441SOL    HW117222   5.817   7.023   4.692
 5441SOL    HW217223   5.834   6.902   4.584
 5442SOL     OW17224   2.742   6.087   0.121
 5442SOL    HW117225   2.646   6.072   0.143
 5442SOL    HW217226   2.798   6.069   0.202
 5443SOL     OW17227   5.298   1.679   2.980
 5443SOL    HW117228   5.299   1.693   3.079
 5443SOL    HW217229   5.342   1.591   2.959
 5444SOL     OW17230   2.491   1.657   6.105
 5444SOL    HW117231   2.448   1.586   6.161
 5444SOL    HW217232   2.542   1.615   6.030
 5445SOL     OW17233   0.372   6.142   5.808
 5445SOL    HW117234   0.297   6.188   5.855
 5445SOL    HW217235   0.414   6.206   5.743
 5446SOL     OW17236   2.591   4.210   0.192
 5446SOL    HW117237   2.539   4.135   0.233
 5446SOL    HW217238   2.535   4.255   0.122
 5447SOL     OW17239   5.288   2.476   1.839
 5447SOL    HW117240   5.200   2.520   1.858
 5447SOL    HW217241   5.363   2.537   1.863
 5448SOL     OW17242   6.009   5.659   1.515
 5448SOL    HW117243   6.010   5.581   1.452
 5448SOL    HW217244   5.941   5.726   1.484
 5449SOL     OW17245   2.370   0.296   2.196
 5449SOL    HW117246   2.314   0.268   2.274
 5449SOL    HW217247   2.357   0.394   2.179
 5450SOL     OW17248   4.524   4.584   2.128
 5450SOL    HW117249   4.603   4.632   2.091
 5450SOL    HW217250   4.513   4.497   2.080
 5451SOL     OW17251   0.330   5.379   3.458
 5451SOL    HW117252   0.368   5.355   3.369
 5451SOL    HW217253   0.345   5.304   3.522
 5452SOL     OW17254   2.232   4.284   3.231
 5452SOL    HW117255   2.146   4.315   3.189
 5452SOL    HW217256   2.288   4.363   3.254
 5453SOL     OW17257   5.660   4.821   4.273
 5453SOL    HW117258   5.569   4.827   4.314
 5453SOL    HW217259   5.723   4.778   4.337
 5454SOL     OW17260   6.842   3.626   2.758
 5454SOL    HW117261   6.769   3.623   2.826
 5454SOL    HW217262   6.806   3.665   2.673
 5455SOL     OW17263   1.947   1.789   2.974
 5455SOL    HW117264   1.934   1.823   2.881
 5455SOL    HW217265   1.861   1.794   3.025
 5456SOL     OW17266   6.201   2.730   6.982
 5456SOL    HW117267   6.144   2.670   0.009
 5456SOL    HW217268   6.295   2.696   6.981
 5457SOL     OW17269   5.748   0.692   0.579
 5457SOL    HW117270   5.746   0.677   0.678
 5457SOL    HW217271   5.654   0.694   0.545
 5458SOL     OW17272   6.168   4.511   6.556
 5458SOL    HW117273   6.153   4.586   6.621
 5458SOL    HW217274   6.256   4.467   6.576
 5459SOL     OW17275   2.166   3.344   4.723
 5459SOL    HW117276   2.196   3.250   4.704
 5459SOL    HW217277   2.077   3.341   4.768
 5460SOL     OW17278   6.497   1.750   0.841
 5460SOL    HW117279   6.441   1.748   0.924
 5460SOL    HW217280   6.463   1.821   0.779
 5461SOL     OW17281   5.817   0.355   5.664
 5461SOL    HW117282   5.834   0.410   5.583
 5461SOL    HW217283   5.751   0.283   5.642
 5462SOL     OW17284   5.803   4.859   0.818
 5462SOL    HW117285   5.813   4.902   0.728
 5462SOL    HW217286   5.891   4.860   0.865
 5463SOL     OW17287   3.118   4.916   0.054
 5463SOL    HW117288   3.047   4.928   7.013
 5463SOL    HW217289   3.087   4.957   0.140
 5464SOL     OW17290   2.784   5.944   4.292
 5464SOL    HW117291   2.855   5.994   4.342
 5464SOL    HW217292   2.817   5.853   4.267
 5465SOL     OW17293   0.176   1.572   5.161
 5465SOL    HW117294   0.101   1.514   5.129
 5465SOL    HW217295   0.260   1.548   5.112
 5466SOL     OW17296   5.787   2.413   4.837
 5466SOL    HW117297   5.852   2.427   4.912
 5466SOL    HW217298   5.714   2.482   4.843
 5467SOL     OW17299   4.543   4.562   2.838
 5467SOL    HW117300   4.444   4.557   2.820
 5467SOL    HW217301   4.561   4.542   2.934
 5468SOL     OW17302   0.334   2.153   1.405
 5468SOL    HW117303   0.408   2.217   1.427
 5468SOL    HW217304   0.248   2.186   1.443
 5469SOL     OW17305   4.278   0.769   2.782
 5469SOL    HW117306   4.367   0.789   2.823
 5469SOL    HW217307   4.284   0.685   2.728
 5470SOL     OW17308   3.010   4.855   2.996
 5470SOL    HW117309   2.912   4.874   2.986
 5470SOL    HW217310   3.043   4.895   3.081
 5471SOL     OW17311   5.487   1.468   3.778
 5471SOL    HW117312   5.481   1.566   3.796
 5471SOL    HW217313   5.404   1.422   3.811
 5472SOL     OW17314   2.763   4.928   0.856
 5472SOL    HW117315   2.699   4.978   0.798
 5472SOL    HW217316   2.847   4.909   0.804
 5473SOL     OW17317   2.941   4.850   1.907
 5473SOL    HW117318   2.883   4.774   1.937
 5473SOL    HW217319   3.004   4.875   1.981
 5474SOL     OW17320   1.371   5.156   1.175
 5474SOL    HW117321   1.386   5.189   1.268
 5474SOL    HW217322   1.395   5.227   1.110
 5475SOL     OW17323   6.936   1.310   5.297
 5475SOL    HW117324   6.988   1.232   5.334
 5475SOL    HW217325   6.974   1.335   5.208
 5476SOL     OW17326   3.116   1.616   4.297
 5476SOL    HW117327   3.097   1.604   4.394
 5476SOL    HW217328   3.049   1.566   4.243
 5477SOL     OW17329   2.295   4.212   2.720
 5477SOL    HW117330   2.201   4.241   2.736
 5477SOL    HW217331   2.348   4.224   2.803
 5478SOL     OW17332   6.444   3.166   5.295
 5478SOL    HW117333   6.447   3.175   5.196
 5478SOL    HW217334   6.534   3.137   5.328
 5479SOL     OW17335   5.636   4.062   4.587
 5479SOL    HW117336   5.570   4.059   4.663
 5479SOL    HW217337   5.726   4.087   4.623
 5480SOL     OW17338   2.844   2.443   6.545
 5480SOL    HW117339   2.855   2.542   6.556
 5480SOL    HW217340   2.912   2.396   6.602
 5481SOL     OW17341   3.204   0.128   1.005
 5481SOL    HW117342   3.300   0.103   1.010
 5481SOL    HW217343   3.169   0.113   0.912
 5482SOL     OW17344   5.580   4.705   2.541
 5482SOL    HW117345   5.637   4.787   2.544
 5482SOL    HW217346   5.507   4.711   2.609
 5483SOL     OW17347   5.904   1.496   0.846
 5483SOL    HW117348   5.858   1.556   0.781
 5483SOL    HW217349   5.874   1.401   0.832
 5484SOL     OW17350   6.090   6.950   5.454
 5484SOL    HW117351   6.162   7.015   5.477
 5484SOL    HW217352   6.036   6.986   5.378
 5485SOL     OW17353   2.261   1.806   3.931
 5485SOL    HW117354   2.215   1.800   3.843
 5485SOL    HW217355   2.260   1.900   3.964
 5486SOL     OW17356   5.888   1.637   3.922
 5486SOL    HW117357   5.983   1.620   3.893
 5486SOL    HW217358   5.836   1.552   3.918
 5487SOL     OW17359   4.545   6.070   1.413
 5487SOL    HW117360   4.518   6.054   1.318
 5487SOL    HW217361   4.560   5.982   1.458
 5488SOL     OW17362   4.872   6.916   6.533
 5488SOL    HW117363   4.919   6.874   6.455
 5488SOL    HW217364   4.883   6.858   6.613
 5489SOL     OW17365   6.904   2.977   2.413
 5489SOL    HW117366   6.860   2.920   2.343
 5489SOL    HW217367   6.847   3.057   2.432
 5490SOL     OW17368   2.916   1.275   6.593
 5490SOL    HW117369   2.949   1.288   6.500
 5490SOL    HW217370   2.978   1.215   6.643
 5491SOL     OW17371   6.037   6.623   1.354
 5491SOL    HW117372   6.083   6.539   1.326
 5491SOL    HW217373   5.941   6.618   1.328
 5492SOL     OW17374   1.285   1.058   6.185
 5492SOL    HW117375   1.289   1.146   6.138
 5492SOL    HW217376   1.379   1.028   6.205
 5493SOL     OW17377   4.111   0.830   6.235
 5493SOL    HW117378   4.145   0.878   6.316
 5493SOL    HW217379   4.107   0.732   6.254
 5494SOL     OW17380   5.676   3.000   2.011
 5494SOL    HW117381   5.636   2.945   1.938
 5494SOL    HW217382   5.605   3.033   2.072
 5495SOL     OW17383   3.388   3.140   5.186
 5495SOL    HW117384   3.299   3.159   5.226
 5495SOL    HW217385   3.376   3.093   5.099
 5496SOL     OW17386   4.654   5.082   1.988
 5496SOL    HW117387   4.737   5.110   2.036
 5496SOL    HW217388   4.610   5.162   1.949
 5497SOL     OW17389   5.557   6.438   0.328
 5497SOL    HW117390   5.554   6.364   0.261
 5497SOL    HW217391   5.555   6.399   0.420
 5498SOL     OW17392   4.243   0.856   3.184
 5498SOL    HW117393   4.292   0.847   3.271
 5498SOL    HW217394   4.277   0.937   3.135
 5499SOL     OW17395   0.573   0.627   4.760
 5499SOL    HW117396   0.481   0.664   4.746
 5499SOL    HW217397   0.597   0.634   4.857
 5500SOL     OW17398   1.470   6.379   0.409
 5500SOL    HW117399   1.400   6.317   0.444
 5500SOL    HW217400   1.464   6.384   0.310
 5501SOL     OW17401   2.209   1.544   2.234
 5501SOL    HW117402   2.272   1.603   2.185
 5501SOL    HW217403   2.126   1.531   2.179
 5502SOL     OW17404   5.606   4.668   0.766
 5502SOL    HW117405   5.670   4.737   0.802
 5502SOL    HW217406   5.644   4.577   0.782
 5503SOL     OW17407   6.605   0.909   3.837
 5503SOL    HW117408   6.675   0.903   3.908
 5503SOL    HW217409   6.545   0.987   3.856
 5504SOL     OW17410   2.354   2.398   4.980
 5504SOL    HW117411   2.287   2.435   4.915
 5504SOL    HW217412   2.319   2.410   5.073
 5505SOL     OW17413   3.509   5.426   0.819
 5505SOL    HW117414   3.510   5.390   0.912
 5505SOL    HW217415   3.561   5.512   0.816
 5506SOL     OW17416   1.380   6.562   5.255
 5506SOL    HW117417   1.443   6.618   5.200
 5506SOL    HW217418   1.308   6.620   5.292
 5507SOL     OW17419   2.190   5.442   5.122
 5507SOL    HW117420   2.210   5.534   5.087
 5507SOL    HW217421   2.225   5.434   5.215
 5508SOL     OW17422   2.686   1.993   5.215
 5508SOL    HW117423   2.748   1.991   5.136
 5508SOL    HW217424   2.671   2.088   5.243
 5509SOL     OW17425   0.139   6.983   5.516
 5509SOL    HW117426   0.140   0.033   5.579
 5509SOL    HW217427   0.223   6.930   5.527
 5510SOL     OW17428   0.145   0.232   5.366
 5510SOL    HW117429   0.226   0.263   5.315
 5510SOL    HW217430   0.131   0.134   5.351
 5511SOL     OW17431   0.375   2.542   0.824
 5511SOL    HW117432   0.334   2.514   0.912
 5511SOL    HW217433   0.445   2.476   0.797
 5512SOL     OW17434   6.825   6.596   6.934
 5512SOL    HW117435   6.764   6.531   6.978
 5512SOL    HW217436   6.901   6.617   6.995
 5513SOL     OW17437   2.371   6.696   5.088
 5513SOL    HW117438   2.389   6.679   5.185
 5513SOL    HW217439   2.427   6.635   5.033
 5514SOL     OW17440   5.881   5.597   3.794
 5514SOL    HW117441   5.971   5.628   3.763
 5514SOL    HW217442   5.884   5.579   3.892
 5515SOL     OW17443   1.776   3.963   3.987
 5515SOL    HW117444   1.792   4.062   3.991
 5515SOL    HW217445   1.848   3.920   3.932
 5516SOL     OW17446   2.124   2.595   0.274
 5516SOL    HW117447   2.135   2.687   0.310
 5516SOL    HW217448   2.204   2.571   0.219
 5517SOL     OW17449   3.329   0.519   2.270
 5517SOL    HW117450   3.284   0.439   2.310
 5517SOL    HW217451   3.294   0.602   2.313
 5518SOL     OW17452   4.704   3.648   6.470
 5518SOL    HW117453   4.758   3.570   6.501
 5518SOL    HW217454   4.693   3.713   6.546
 5519SOL     OW17455   5.415   3.711   2.214
 5519SOL    HW117456   5.499   3.660   2.234
 5519SOL    HW217457   5.354   3.656   2.158
 5520SOL     OW17458   1.403   2.660   1.044
 5520SOL    HW117459   1.479   2.618   0.995
 5520SOL    HW217460   1.423   2.663   1.142
 5521SOL     OW17461   5.498   4.106   6.612
 5521SOL    HW117462   5.412   4.055   6.601
 5521SOL    HW217463   5.479   4.204   6.604
 5522SOL     OW17464   1.901   2.730   1.816
 5522SOL    HW117465   1.867   2.745   1.910
 5522SOL    HW217466   1.853   2.792   1.754
 5523SOL     OW17467   2.243   6.498   1.636
 5523SOL    HW117468   2.149   6.529   1.644
 5523SOL    HW217469   2.289   6.548   1.563
 5524SOL     OW17470   6.645   6.571   5.647
 5524SOL    HW117471   6.740   6.551   5.625
 5524SOL    HW217472   6.587   6.498   5.611
 5525SOL     OW17473   6.748   0.046   2.897
 5525SOL    HW117474   6.829   0.051   2.955
 5525SOL    HW217475   6.735   6.980   2.866
 5526SOL     OW17476   5.289   3.920   4.612
 5526SOL    HW117477   5.334   3.940   4.525
 5526SOL    HW217478   5.241   4.001   4.644
 5527SOL     OW17479   3.342   2.686   0.242
 5527SOL    HW117480   3.393   2.601   0.246
 5527SOL    HW217481   3.362   2.733   0.156
 5528SOL     OW17482   6.019   2.880   2.343
 5528SOL    HW117483   5.959   2.876   2.263
 5528SOL    HW217484   5.971   2.922   2.419
 5529SOL     OW17485   1.190   1.126   4.674
 5529SOL    HW117486   1.239   1.163   4.596
 5529SOL    HW217487   1.246   1.055   4.719
 5530SOL     OW17488   0.312   2.767   6.705
 5530SOL    HW117489   0.318   2.676   6.748
 5530SOL    HW217490   0.396   2.786   6.654
 5531SOL     OW17491   3.049   2.619   0.551
 5531SOL    HW117492   3.117   2.605   0.622
 5531SOL    HW217493   3.090   2.600   0.461
 5532SOL     OW17494   2.094   2.905   2.073
 5532SOL    HW117495   2.040   2.822   2.070
 5532SOL    HW217496   2.151   2.911   1.991
 5533SOL     OW17497   3.057   0.240   0.756
 5533SOL    HW117498   3.045   0.289   0.670
 5533SOL    HW217499   2.979   0.181   0.772
 5534SOL     OW17500   0.308   3.798   5.535
 5534SOL    HW117501   0.253   3.788   5.618
 5534SOL    HW217502   0.365   3.879   5.542
 5535SOL     OW17503   4.971   5.556   3.277
 5535SOL    HW117504   4.904   5.624   3.307
 5535SOL    HW217505   4.983   5.562   3.178
 5536SOL     OW17506   2.151   1.208   4.488
 5536SOL    HW117507   2.191   1.133   4.435
 5536SOL    HW217508   2.134   1.286   4.428
 5537SOL     OW17509   3.725   1.610   3.591
 5537SOL    HW117510   3.756   1.673   3.663
 5537SOL    HW217511   3.735   1.516   3.623
 5538SOL     OW17512   4.516   2.379   3.050
 5538SOL    HW117513   4.450   2.331   2.993
 5538SOL    HW217514   4.578   2.312   3.091
 5539SOL     OW17515   1.022   0.224   6.267
 5539SOL    HW117516   1.064   0.310   6.238
 5539SOL    HW217517   0.978   0.237   6.356
 5540SOL     OW17518   4.565   6.760   5.104
 5540SOL    HW117519   4.607   6.851   5.098
 5540SOL    HW217520   4.522   6.738   5.017
 5541SOL     OW17521   4.586   2.732   4.959
 5541SOL    HW117522   4.661   2.798   4.951
 5541SOL    HW217523   4.542   2.722   4.870
 5542SOL     OW17524   5.065   4.498   6.983
 5542SOL    HW117525   5.042   4.459   6.893
 5542SOL    HW217526   5.119   4.432   0.006
 5543SOL     OW17527   0.412   0.592   5.726
 5543SOL    HW117528   0.386   0.502   5.690
 5543SOL    HW217529   0.358   0.611   5.808
 5544SOL     OW17530   4.010   5.424   6.806
 5544SOL    HW117531   4.061   5.499   6.765
 5544SOL    HW217532   3.912   5.437   6.789
 5545SOL     OW17533   4.911   2.730   3.365
 5545SOL    HW117534   4.815   2.730   3.337
 5545SOL    HW217535   4.970   2.743   3.284
 5546SOL     OW17536   0.866   6.173   3.869
 5546SOL    HW117537   0.769   6.193   3.886
 5546SOL    HW217538   0.922   6.227   3.931
 5547SOL     OW17539   5.082   1.727   4.155
 5547SOL    HW117540   5.050   1.804   4.209
 5547SOL    HW217541   5.181   1.718   4.163
 5548SOL     OW17542   1.303   3.864   4.744
 5548SOL    HW117543   1.284   3.786   4.804
 5548SOL    HW217544   1.287   3.836   4.649
 5549SOL     OW17545   3.928   3.612   0.229
 5549SOL    HW117546   3.976   3.624   0.142
 5549SOL    HW217547   3.833   3.586   0.211
 5550SOL     OW17548   3.038   4.249   1.216
 5550SOL    HW117549   3.049   4.200   1.129
 5550SOL    HW217550   3.105   4.216   1.282
 5551SOL     OW17551   1.070   4.083   2.287
 5551SOL    HW117552   1.116   4.123   2.207
 5551SOL    HW217553   1.029   4.156   2.342
 5552SOL     OW17554   0.321   0.917   0.909
 5552SOL    HW117555   0.272   0.992   0.864
 5552SOL    HW217556   0.403   0.953   0.954
 5553SOL     OW17557   6.103   6.277   1.769
 5553SOL    HW117558   6.051   6.289   1.853
 5553SOL    HW217559   6.071   6.342   1.699
 5554SOL     OW17560   0.294   2.476   1.509
 5554SOL    HW117561   0.215   2.423   1.481
 5554SOL    HW217562   0.265   2.566   1.542
 5555SOL     OW17563   0.670   4.793   2.478
 5555SOL    HW117564   0.609   4.862   2.518
 5555SOL    HW217565   0.765   4.819   2.493
 5556SOL     OW17566   6.731   1.777   5.217
 5556SOL    HW117567   6.749   1.687   5.178
 5556SOL    HW217568   6.666   1.769   5.292
 5557SOL     OW17569   2.984   7.005   2.789
 5557SOL    HW117570   2.951   6.989   2.882
 5557SOL    HW217571   3.041   6.928   2.760
 5558SOL     OW17572   3.930   4.160   6.316
 5558SOL    HW117573   4.019   4.151   6.360
 5558SOL    HW217574   3.921   4.091   6.244
 5559SOL     OW17575   3.458   0.512   3.458
 5559SOL    HW117576   3.436   0.519   3.555
 5559SOL    HW217577   3.375   0.523   3.404
 5560SOL     OW17578   0.269   5.043   3.337
 5560SOL    HW117579   0.200   5.001   3.396
 5560SOL    HW217580   0.226   5.115   3.282
 5561SOL     OW17581   2.736   0.815   3.813
 5561SOL    HW117582   2.711   0.910   3.793
 5561SOL    HW217583   2.805   0.813   3.885
 5562SOL     OW17584   5.043   2.804   0.955
 5562SOL    HW117585   5.001   2.841   0.872
 5562SOL    HW217586   5.036   2.873   1.028
 5563SOL     OW17587   1.249   4.229   2.527
 5563SOL    HW117588   1.303   4.291   2.584
 5563SOL    HW217589   1.289   4.222   2.436
 5564SOL     OW17590   4.458   0.117   6.761
 5564SOL    HW117591   4.379   0.064   6.730
 5564SOL    HW217592   4.434   0.166   6.845
 5565SOL     OW17593   2.927   2.098   6.328
 5565SOL    HW117594   2.891   2.177   6.279
 5565SOL    HW217595   2.854   2.054   6.380
 5566SOL     OW17596   1.271   5.289   4.958
 5566SOL    HW117597   1.179   5.324   4.938
 5566SOL    HW217598   1.273   5.252   5.051
 5567SOL     OW17599   1.519   5.270   6.743
 5567SOL    HW117600   1.511   5.276   6.643
 5567SOL    HW217601   1.576   5.345   6.776
 5568SOL     OW17602   5.103   5.435   2.273
 5568SOL    HW117603   5.072   5.490   2.196
 5568SOL    HW217604   5.132   5.495   2.347
 5569SOL     OW17605   1.614   2.121   3.017
 5569SOL    HW117606   1.575   2.211   3.039
 5569SOL    HW217607   1.695   2.134   2.959
 5570SOL     OW17608   0.229   3.719   0.944
 5570SOL    HW117609   0.242   3.818   0.943
 5570SOL    HW217610   0.177   3.691   0.863
 5571SOL     OW17611   6.761   4.462   6.969
 5571SOL    HW117612   6.764   4.561   6.976
 5571SOL    HW217613   6.760   4.436   6.872
 5572SOL     OW17614   1.119   4.520   5.731
 5572SOL    HW117615   1.059   4.580   5.678
 5572SOL    HW217616   1.069   4.439   5.759
 5573SOL     OW17617   3.147   4.931   3.227
 5573SOL    HW117618   3.147   4.918   3.327
 5573SOL    HW217619   3.232   4.896   3.189
 5574SOL     OW17620   1.263   1.337   6.134
 5574SOL    HW117621   1.173   1.343   6.177
 5574SOL    HW217622   1.319   1.415   6.162
 5575SOL     OW17623   0.610   6.978   2.076
 5575SOL    HW117624   0.585   6.964   1.980
 5575SOL    HW217625   0.694   0.003   2.081
 5576SOL     OW17626   1.930   5.435   3.160
 5576SOL    HW117627   2.001   5.369   3.184
 5576SOL    HW217628   1.916   5.498   3.235
 5577SOL     OW17629   3.551   1.607   6.203
 5577SOL    HW117630   3.609   1.585   6.281
 5577SOL    HW217631   3.459   1.631   6.234
 5578SOL     OW17632   4.099   3.668   3.448
 5578SOL    HW117633   4.068   3.762   3.465
 5578SOL    HW217634   4.130   3.627   3.533
 5579SOL     OW17635   6.169   3.176   2.046
 5579SOL    HW117636   6.095   3.217   1.992
 5579SOL    HW217637   6.199   3.091   2.003
 5580SOL     OW17638   6.021   2.374   5.891
 5580SOL    HW117639   5.929   2.381   5.929
 5580SOL    HW217640   6.043   2.460   5.844
 5581SOL     OW17641   1.089   0.858   5.718
 5581SOL    HW117642   1.137   0.772   5.733
 5581SOL    HW217643   0.994   0.839   5.691
 5582SOL     OW17644   2.660   2.709   6.135
 5582SOL    HW117645   2.728   2.706   6.063
 5582SOL    HW217646   2.679   2.785   6.197
 5583SOL     OW17647   5.349   0.005   1.452
 5583SOL    HW117648   5.437   7.021   1.407
 5583SOL    HW217649   5.342   0.099   1.486
 5584SOL     OW17650   0.424   3.820   5.244
 5584SOL    HW117651   0.490   3.866   5.184
 5584SOL    HW217652   0.353   3.777   5.189
 5585SOL     OW17653   6.021   4.956   1.639
 5585SOL    HW117654   6.021   5.043   1.690
 5585SOL    HW217655   6.043   4.974   1.543
 5586SOL     OW17656   1.300   6.448   1.849
 5586SOL    HW117657   1.268   6.373   1.792
 5586SOL    HW217658   1.357   6.413   1.923
 5587SOL     OW17659   5.775   1.390   4.702
 5587SOL    HW117660   5.781   1.422   4.607
 5587SOL    HW217661   5.806   1.295   4.707
 5588SOL     OW17662   3.175   6.446   0.995
 5588SOL    HW117663   3.235   6.386   1.049
 5588SOL    HW217664   3.227   6.525   0.964
 5589SOL     OW17665   0.494   5.088   5.780
 5589SOL    HW117666   0.532   5.142   5.704
 5589SOL    HW217667   0.398   5.112   5.793
 5590SOL     OW17668   5.370   5.836   3.548
 5590SOL    HW117669   5.326   5.856   3.636
 5590SOL    HW217670   5.310   5.778   3.493
 5591SOL     OW17671   4.818   1.106   2.672
 5591SOL    HW117672   4.789   1.193   2.631
 5591SOL    HW217673   4.738   1.057   2.705
 5592SOL     OW17674   6.807   5.480   4.607
 5592SOL    HW117675   6.887   5.436   4.649
 5592SOL    HW217676   6.744   5.410   4.573
 5593SOL     OW17677   2.302   4.496   1.585
 5593SOL    HW117678   2.220   4.450   1.622
 5593SOL    HW217679   2.379   4.432   1.587
 5594SOL     OW17680   6.304   6.739   5.448
 5594SOL    HW117681   6.219   6.788   5.467
 5594SOL    HW217682   6.380   6.782   5.497
 5595SOL     OW17683   6.872   1.438   1.148
 5595SOL    HW117684   6.799   1.488   1.103
 5595SOL    HW217685   6.838   1.400   1.235
 5596SOL     OW17686   4.338   6.767   3.065
 5596SOL    HW117687   4.375   6.723   2.983
 5596SOL    HW217688   4.240   6.783   3.051
 5597SOL     OW17689   4.998   3.082   2.112
 5597SOL    HW117690   4.911   3.042   2.081
 5597SOL    HW217691   5.073   3.042   2.060
 5598SOL     OW17692   2.948   0.870   4.025
 5598SOL    HW117693   2.883   0.945   4.040
 5598SOL    HW217694   2.918   0.789   4.076
 5599SOL     OW17695   1.126   1.422   3.791
 5599SOL    HW117696   1.088   1.335   3.821
 5599SOL    HW217697   1.060   1.495   3.807
 5600SOL     OW17698   2.789   2.527   5.415
 5600SOL    HW117699   2.761   2.623   5.420
 5600SOL    HW217700   2.858   2.517   5.344
 5601SOL     OW17701   1.423   0.401   0.249
 5601SOL    HW117702   1.455   0.477   0.193
 5601SOL    HW217703   1.434   0.315   0.198
 5602SOL     OW17704   1.845   1.182   0.269
 5602SOL    HW117705   1.875   1.235   0.349
 5602SOL    HW217706   1.752   1.149   0.284
 5603SOL     OW17707   6.617   3.350   4.820
 5603SOL    HW117708   6.669   3.365   4.736
 5603SOL    HW217709   6.629   3.428   4.882
 5604SOL     OW17710   5.182   1.152   6.557
 5604SOL    HW117711   5.237   1.071   6.536
 5604SOL    HW217712   5.232   1.234   6.531
 5605SOL     OW17713   1.201   1.458   6.472
 5605SOL    HW117714   1.258   1.378   6.452
 5605SOL    HW217715   1.180   1.460   6.570
 5606SOL     OW17716   6.098   6.322   3.502
 5606SOL    HW117717   6.042   6.399   3.532
 5606SOL    HW217718   6.145   6.282   3.580
 5607SOL     OW17719   5.369   6.603   0.660
 5607SOL    HW117720   5.389   6.681   0.719
 5607SOL    HW217721   5.449   6.581   0.605
 5608SOL     OW17722   3.886   6.646   5.310
 5608SOL    HW117723   3.836   6.584   5.370
 5608SOL    HW217724   3.983   6.642   5.332
 5609SOL     OW17725   1.654   6.082   4.942
 5609SOL    HW117726   1.576   6.026   4.971
 5609SOL    HW217727   1.732   6.064   5.002
 5610SOL     OW17728   5.292   6.867   6.449
 5610SOL    HW117729   5.353   6.939   6.415
 5610SOL    HW217730   5.269   6.805   6.374
 5611SOL     OW17731   1.798   4.607   3.974
 5611SOL    HW117732   1.835   4.656   3.895
 5611SOL    HW217733   1.712   4.648   4.001
 5612SOL     OW17734   3.964   6.317   4.190
 5612SOL    HW117735   3.904   6.365   4.127
 5612SOL    HW217736   3.937   6.221   4.195
 5613SOL     OW17737   2.576   5.077   2.643
 5613SOL    HW117738   2.526   5.120   2.568
 5613SOL    HW217739   2.542   5.111   2.730
 5614SOL     OW17740   5.245   2.514   4.498
 5614SOL    HW117741   5.193   2.456   4.562
 5614SOL    HW217742   5.342   2.495   4.507
 5615SOL     OW17743   0.976   1.315   1.754
 5615SOL    HW117744   0.891   1.273   1.788
 5615SOL    HW217745   1.037   1.243   1.721
 5616SOL     OW17746   3.059   6.770   4.787
 5616SOL    HW117747   3.124   6.747   4.859
 5616SOL    HW217748   3.064   6.868   4.767
 5617SOL     OW17749   0.275   0.905   6.147
 5617SOL    HW117750   0.259   0.809   6.169
 5617SOL    HW217751   0.227   0.929   6.063
 5618SOL     OW17752   6.587   4.867   3.862
 5618SOL    HW117753   6.499   4.863   3.815
 5618SOL    HW217754   6.656   4.906   3.800
 5619SOL     OW17755   2.209   3.104   3.793
 5619SOL    HW117756   2.304   3.074   3.781
 5619SOL    HW217757   2.192   3.183   3.734
 5620SOL     OW17758   5.391   2.179   6.108
 5620SOL    HW117759   5.448   2.245   6.157
 5620SOL    HW217760   5.403   2.089   6.149
 5621SOL     OW17761   2.540   1.753   5.162
 5621SOL    HW117762   2.556   1.747   5.063
 5621SOL    HW217763   2.571   1.842   5.196
 5622SOL     OW17764   5.895   1.811   4.687
 5622SOL    HW117765   5.840   1.734   4.720
 5622SOL    HW217766   5.864   1.895   4.732
 5623SOL     OW17767   0.373   6.189   6.279
 5623SOL    HW117768   0.332   6.214   6.366
 5623SOL    HW217769   0.306   6.199   6.206
 5624SOL     OW17770   1.364   3.847   2.882
 5624SOL    HW117771   1.412   3.923   2.839
 5624SOL    HW217772   1.283   3.824   2.828
 5625SOL     OW17773   6.244   1.775   6.011
 5625SOL    HW117774   6.326   1.762   6.068
 5625SOL    HW217775   6.269   1.766   5.915
 5626SOL     OW17776   5.903   6.260   5.673
 5626SOL    HW117777   5.916   6.358   5.684
 5626SOL    HW217778   5.932   6.212   5.756
 5627SOL     OW17779   1.306   0.672   1.539
 5627SOL    HW117780   1.308   0.735   1.616
 5627SOL    HW217781   1.323   0.579   1.572
 5628SOL     OW17782   0.937   1.736   4.399
 5628SOL    HW117783   0.939   1.636   4.409
 5628SOL    HW217784   0.848   1.764   4.364
 5629SOL     OW17785   3.361   3.642   3.636
 5629SOL    HW117786   3.415   3.673   3.714
 5629SOL    HW217787   3.385   3.548   3.613
 5630SOL     OW17788   6.344   3.944   0.962
 5630SOL    HW117789   6.438   3.976   0.951
 5630SOL    HW217790   6.298   3.946   0.873
 5631SOL     OW17791   6.277   0.935   6.471
 5631SOL    HW117792   6.199   0.874   6.488
 5631SOL    HW217793   6.362   0.882   6.472
 5632SOL     OW17794   3.284   1.958   1.013
 5632SOL    HW117795   3.280   1.986   1.109
 5632SOL    HW217796   3.191   1.952   0.976
 5633SOL     OW17797   6.956   3.075   5.888
 5633SOL    HW117798   7.011   3.103   5.966
 5633SOL    HW217799   6.863   3.111   5.897
 5634SOL     OW17800   4.759   5.720   5.430
 5634SOL    HW117801   4.774   5.791   5.498
 5634SOL    HW217802   4.728   5.762   5.344
 5635SOL     OW17803   2.776   1.400   0.093
 5635SOL    HW117804   2.859   1.404   0.148
 5635SOL    HW217805   2.729   1.488   0.096
 5636SOL     OW17806   4.588   0.970   4.296
 5636SOL    HW117807   4.489   0.960   4.306
 5636SOL    HW217808   4.608   1.040   4.227
 5637SOL     OW17809   5.978   0.050   2.805
 5637SOL    HW117810   5.984   0.066   2.904
 5637SOL    HW217811   5.950   0.135   2.759
 5638SOL     OW17812   7.018   3.509   0.557
 5638SOL    HW117813   0.021   3.473   0.645
 5638SOL    HW217814   6.925   3.475   0.539
 5639SOL     OW17815   4.290   0.364   6.517
 5639SOL    HW117816   4.328   0.373   6.609
 5639SOL    HW217817   4.191   0.371   6.521
 5640SOL     OW17818   1.174   6.956   3.328
 5640SOL    HW117819   1.105   6.992   3.266
 5640SOL    HW217820   1.138   6.878   3.377
 5641SOL     OW17821   6.517   6.166   4.522
 5641SOL    HW117822   6.547   6.074   4.497
 5641SOL    HW217823   6.440   6.192   4.463
 5642SOL     OW17824   1.369   0.675   0.331
 5642SOL    HW117825   1.367   0.752   0.394
 5642SOL    HW217826   1.386   0.591   0.381
 5643SOL     OW17827   4.972   2.303   0.538
 5643SOL    HW117828   5.021   2.390   0.536
 5643SOL    HW217829   4.899   2.304   0.470
 5644SOL     OW17830   2.666   0.292   5.758
 5644SOL    HW117831   2.576   0.336   5.752
 5644SOL    HW217832   2.679   0.233   5.678
 5645SOL     OW17833   4.937   3.851   3.979
 5645SOL    HW117834   4.979   3.852   3.889
 5645SOL    HW217835   4.944   3.760   4.019
 5646SOL     OW17836   1.434   4.843   2.856
 5646SOL    HW117837   1.437   4.841   2.756
 5646SOL    HW217838   1.348   4.801   2.887
 5647SOL     OW17839   4.129   5.365   2.467
 5647SOL    HW117840   4.163   5.328   2.553
 5647SOL    HW217841   4.196   5.351   2.395
 5648SOL     OW17842   5.639   6.792   3.608
 5648SOL    HW117843   5.555   6.761   3.654
 5648SOL    HW217844   5.705   6.717   3.606
 5649SOL     OW17845   0.649   0.715   4.524
 5649SOL    HW117846   0.619   0.707   4.619
 5649SOL    HW217847   0.694   0.804   4.511
 5650SOL     OW17848   0.961   3.877   6.308
 5650SOL    HW117849   0.902   3.861   6.229
 5650SOL    HW217850   1.055   3.855   6.284
 5651SOL     OW17851   3.126   0.939   1.256
 5651SOL    HW117852   3.044   0.994   1.239
 5651SOL    HW217853   3.173   0.973   1.337
 5652SOL     OW17854   0.341   6.034   2.185
 5652SOL    HW117855   0.356   5.950   2.132
 5652SOL    HW217856   0.261   6.083   2.149
 5653SOL     OW17857   0.261   0.287   2.595
 5653SOL    HW117858   0.185   0.284   2.661
 5653SOL    HW217859   0.271   0.197   2.552
 5654SOL     OW17860   3.286   6.111   6.079
 5654SOL    HW117861   3.379   6.138   6.057
 5654SOL    HW217862   3.254   6.160   6.160
 5655SOL     OW17863   6.406   3.289   4.111
 5655SOL    HW117864   6.424   3.196   4.143
 5655SOL    HW217865   6.398   3.351   4.189
 5656SOL     OW17866   0.399   4.936   1.764
 5656SOL    HW117867   0.475   5.000   1.767
 5656SOL    HW217868   0.401   4.878   1.846
 5657SOL     OW17869   6.142   6.067   5.727
 5657SOL    HW117870   6.135   6.017   5.641
 5657SOL    HW217871   6.235   6.099   5.740
 5658SOL     OW17872   3.059   2.366   5.402
 5658SOL    HW117873   3.131   2.364   5.333
 5658SOL    HW217874   3.033   2.272   5.426
 5659SOL     OW17875   2.421   3.810   5.525
 5659SOL    HW117876   2.401   3.905   5.548
 5659SOL    HW217877   2.514   3.788   5.554
 5660SOL     OW17878   4.225   0.811   4.035
 5660SOL    HW117879   4.181   0.741   3.979
 5660SOL    HW217880   4.242   0.892   3.978
 5661SOL     OW17881   0.655   6.047   5.534
 5661SOL    HW117882   0.718   5.992   5.590
 5661SOL    HW217883   0.623   6.125   5.587
 5662SOL     OW17884   2.655   5.734   0.609
 5662SOL    HW117885   2.582   5.731   0.678
 5662SOL    HW217886   2.615   5.722   0.518
 5663SOL     OW17887   3.604   1.306   6.317
 5663SOL    HW117888   3.580   1.240   6.388
 5663SOL    HW217889   3.627   1.394   6.359
 5664SOL     OW17890   4.769   6.096   5.105
 5664SOL    HW117891   4.786   6.167   5.037
 5664SOL    HW217892   4.856   6.062   5.140
 5665SOL     OW17893   2.399   1.055   0.905
 5665SOL    HW117894   2.469   1.096   0.846
 5665SOL    HW217895   2.381   1.116   0.982
 5666SOL     OW17896   6.117   3.624   4.840
 5666SOL    HW117897   6.048   3.573   4.789
 5666SOL    HW217898   6.080   3.651   4.929
 5667SOL     OW17899   2.629   4.609   4.144
 5667SOL    HW117900   2.534   4.583   4.161
 5667SOL    HW217901   2.642   4.626   4.046
 5668SOL     OW17902   4.475   4.497   4.203
 5668SOL    HW117903   4.382   4.523   4.227
 5668SOL    HW217904   4.529   4.483   4.287
 5669SOL     OW17905   5.503   3.282   6.108
 5669SOL    HW117906   5.575   3.235   6.058
 5669SOL    HW217907   5.414   3.264   6.064
 5670SOL     OW17908   0.889   3.414   4.024
 5670SOL    HW117909   0.826   3.435   4.099
 5670SOL    HW217910   0.926   3.323   4.037
 5671SOL     OW17911   5.911   6.004   2.959
 5671SOL    HW117912   5.851   5.929   2.933
 5671SOL    HW217913   5.879   6.089   2.918
 5672SOL     OW17914   5.937   3.429   4.704
 5672SOL    HW117915   5.883   3.383   4.775
 5672SOL    HW217916   5.996   3.363   4.659
 5673SOL     OW17917   0.874   2.408   0.753
 5673SOL    HW117918   0.962   2.418   0.705
 5673SOL    HW217919   0.890   2.412   0.852
 5674SOL     OW17920   3.015   5.109   5.491
 5674SOL    HW117921   3.045   5.082   5.399
 5674SOL    HW217922   3.065   5.056   5.559
 5675SOL     OW17923   3.794   2.045   0.640
 5675SOL    HW117924   3.700   2.025   0.667
 5675SOL    HW217925   3.857   1.990   0.695
 5676SOL     OW17926   3.652   1.665   1.754
 5676SOL    HW117927   3.680   1.760   1.767
 5676SOL    HW217928   3.732   1.606   1.760
 5677SOL     OW17929   1.022   1.034   6.271
 5677SOL    HW117930   0.983   0.994   6.188
 5677SOL    HW217931   1.117   1.061   6.254
 5678SOL     OW17932   3.879   2.107   2.153
 5678SOL    HW117933   3.974   2.135   2.136
 5678SOL    HW217934   3.819   2.152   2.088
 5679SOL     OW17935   1.349   3.741   5.747
 5679SOL    HW117936   1.391   3.822   5.788
 5679SOL    HW217937   1.313   3.682   5.820
 5680SOL     OW17938   0.984   5.910   3.884
 5680SOL    HW117939   0.918   5.842   3.916
 5680SOL    HW217940   0.938   5.998   3.874
 5681SOL     OW17941   1.647   3.654   3.006
 5681SOL    HW117942   1.619   3.650   2.911
 5681SOL    HW217943   1.668   3.561   3.039
 5682SOL     OW17944   1.907   4.486   0.218
 5682SOL    HW117945   1.958   4.541   0.152
 5682SOL    HW217946   1.923   4.521   0.310
 5683SOL     OW17947   7.016   6.017   6.371
 5683SOL    HW117948   6.935   5.957   6.371
 5683SOL    HW217949   0.067   5.965   6.343
 5684SOL     OW17950   2.140   3.586   4.100
 5684SOL    HW117951   2.193   3.644   4.161
 5684SOL    HW217952   2.134   3.494   4.139
 5685SOL     OW17953   1.979   1.980   1.365
 5685SOL    HW117954   1.882   2.004   1.377
 5685SOL    HW217955   2.036   2.044   1.416
 5686SOL     OW17956   5.618   5.093   5.557
 5686SOL    HW117957   5.553   5.070   5.485
 5686SOL    HW217958   5.701   5.038   5.546
 5687SOL     OW17959   1.204   0.064   7.022
 5687SOL    HW117960   1.229   0.160   7.023
 5687SOL    HW217961   1.285   0.008   0.011
 5688SOL     OW17962   1.368   2.861   2.456
 5688SOL    HW117963   1.448   2.829   2.506
 5688SOL    HW217964   1.285   2.834   2.505
 5689SOL     OW17965   0.125   1.853   0.542
 5689SOL    HW117966   0.060   1.912   0.590
 5689SOL    HW217967   0.202   1.832   0.604
 5690SOL     OW17968   3.401   5.418   6.754
 5690SOL    HW117969   3.321   5.385   6.704
 5690SOL    HW217970   3.429   5.348   6.820
 5691SOL     OW17971   4.892   3.131   3.438
 5691SOL    HW117972   4.849   3.210   3.393
 5691SOL    HW217973   4.976   3.161   3.483
 5692SOL     OW17974   6.405   4.805   2.431
 5692SOL    HW117975   6.428   4.781   2.337
 5692SOL    HW217976   6.355   4.892   2.433
 5693SOL     OW17977   2.967   0.793   2.116
 5693SOL    HW117978   2.883   0.777   2.168
 5693SOL    HW217979   3.020   0.708   2.112
 5694SOL     OW17980   6.934   6.560   0.912
 5694SOL    HW117981   7.022   6.603   0.893
 5694SOL    HW217982   6.874   6.569   0.833
 5695SOL     OW17983   1.844   0.977   2.100
 5695SOL    HW117984   1.759   1.025   2.122
 5695SOL    HW217985   1.902   1.035   2.044
 5696SOL     OW17986   6.739   1.053   3.400
 5696SOL    HW117987   6.734   1.050   3.300
 5696SOL    HW217988   6.669   0.993   3.438
 5697SOL     OW17989   5.998   1.699   0.236
 5697SOL    HW117990   5.955   1.760   0.303
 5697SOL    HW217991   5.984   1.736   0.144
 5698SOL     OW17992   2.981   1.977   3.166
 5698SOL    HW117993   3.017   1.966   3.073
 5698SOL    HW217994   3.057   1.981   3.231
 5699SOL     OW17995   2.405   2.208   2.702
 5699SOL    HW117996   2.351   2.285   2.669
 5699SOL    HW217997   2.360   2.122   2.678
 5700SOL     OW17998   5.663   0.725   2.164
 5700SOL    HW117999   5.762   0.715   2.165
 5700SOL    HW218000   5.626   0.698   2.253
 5701SOL     OW18001   2.123   1.578   0.530
 5701SOL    HW118002   2.077   1.604   0.615
 5701SOL    HW218003   2.220   1.603   0.535
 5702SOL     OW18004   1.711   6.364   4.862
 5702SOL    HW118005   1.710   6.270   4.898
 5702SOL    HW218006   1.740   6.362   4.766
 5703SOL     OW18007   0.837   3.434   5.929
 5703SOL    HW118008   0.836   3.338   5.901
 5703SOL    HW218009   0.859   3.440   6.026
 5704SOL     OW18010   4.655   6.024   4.481
 5704SOL    HW118011   4.717   6.073   4.543
 5704SOL    HW218012   4.581   5.983   4.534
 5705SOL     OW18013   6.158   1.691   4.638
 5705SOL    HW118014   6.062   1.712   4.619
 5705SOL    HW218015   6.169   1.593   4.652
 5706SOL     OW18016   5.531   0.634   1.313
 5706SOL    HW118017   5.555   0.729   1.291
 5706SOL    HW218018   5.477   0.632   1.398
 5707SOL     OW18019   5.822   6.123   1.293
 5707SOL    HW118020   5.843   6.032   1.327
 5707SOL    HW218021   5.812   6.187   1.369
 5708SOL     OW18022   4.637   6.911   1.758
 5708SOL    HW118023   4.617   6.833   1.818
 5708SOL    HW218024   4.576   6.907   1.678
 5709SOL     OW18025   6.485   2.761   2.329
 5709SOL    HW118026   6.506   2.663   2.331
 5709SOL    HW218027   6.535   2.807   2.402
 5710SOL     OW18028   5.003   1.399   0.498
 5710SOL    HW118029   4.905   1.399   0.477
 5710SOL    HW218030   5.020   1.453   0.580
 5711SOL     OW18031   4.383   1.413   2.780
 5711SOL    HW118032   4.471   1.460   2.784
 5711SOL    HW218033   4.333   1.430   2.865
 5712SOL     OW18034   6.611   5.753   6.900
 5712SOL    HW118035   6.526   5.804   6.912
 5712SOL    HW218036   6.629   5.699   6.982
 5713SOL     OW18037   1.450   1.081   6.799
 5713SOL    HW118038   1.369   1.103   6.744
 5713SOL    HW218039   1.484   0.991   6.774
 5714SOL     OW18040   4.809   0.209   1.050
 5714SOL    HW118041   4.844   0.194   0.958
 5714SOL    HW218042   4.866   0.161   1.116
 5715SOL     OW18043   0.468   5.880   0.797
 5715SOL    HW118044   0.496   5.897   0.702
 5715SOL    HW218045   0.369   5.871   0.802
 5716SOL     OW18046   6.749   4.598   5.442
 5716SOL    HW118047   6.659   4.577   5.480
 5716SOL    HW218048   6.774   4.530   5.373
 5717SOL     OW18049   0.098   6.234   2.163
 5717SOL    HW118050   0.023   6.176   2.193
 5717SOL    HW218051   0.117   6.302   2.234
 5718SOL     OW18052   1.857   4.655   6.081
 5718SOL    HW118053   1.948   4.642   6.042
 5718SOL    HW218054   1.813   4.567   6.094
 5719SOL     OW18055   3.728   3.966   1.881
 5719SOL    HW118056   3.696   3.952   1.787
 5719SOL    HW218057   3.695   3.891   1.938
 5720SOL     OW18058   2.228   3.677   6.765
 5720SOL    HW118059   2.201   3.583   6.744
 5720SOL    HW218060   2.257   3.682   6.861
 5721SOL     OW18061   0.916   2.896   0.658
 5721SOL    HW118062   0.964   2.868   0.741
 5721SOL    HW218063   0.982   2.910   0.585
 5722SOL     OW18064   1.501   0.599   5.940
 5722SOL    HW118065   1.479   0.602   6.037
 5722SOL    HW218066   1.578   0.660   5.922
 5723SOL     OW18067   4.397   3.757   6.994
 5723SOL    HW118068   4.322   3.822   6.979
 5723SOL    HW218069   4.393   3.723   0.060
 5724SOL     OW18070   6.694   2.209   6.165
 5724SOL    HW118071   6.721   2.167   6.251
 5724SOL    HW218072   6.675   2.138   6.097
 5725SOL     OW18073   6.666   4.251   4.944
 5725SOL    HW118074   6.618   4.250   4.856
 5725SOL    HW218075   6.763   4.229   4.930
 5726SOL     OW18076   4.254   4.787   1.841
 5726SOL    HW118077   4.275   4.884   1.833
 5726SOL    HW218078   4.336   4.737   1.871
 5727SOL     OW18079   0.929   3.218   6.137
 5727SOL    HW118080   0.847   3.166   6.111
 5727SOL    HW218081   0.953   3.197   6.232
 5728SOL     OW18082   2.105   5.692   4.198
 5728SOL    HW118083   2.192   5.687   4.248
 5728SOL    HW218084   2.032   5.721   4.260
 5729SOL     OW18085   2.409   2.039   4.207
 5729SOL    HW118086   2.405   1.977   4.285
 5729SOL    HW218087   2.449   2.126   4.235
 5730SOL     OW18088   6.417   4.669   4.155
 5730SOL    HW118089   6.340   4.652   4.216
 5730SOL    HW218090   6.394   4.744   4.093
 5731SOL     OW18091   6.629   0.027   2.427
 5731SOL    HW118092   6.626   0.091   2.504
 5731SOL    HW218093   6.722   7.019   2.419
 5732SOL     OW18094   5.119   0.195   3.548
 5732SOL    HW118095   5.026   0.161   3.539
 5732SOL    HW218096   5.145   0.244   3.465
 5733SOL     OW18097   3.104   0.693   5.268
 5733SOL    HW118098   3.029   0.758   5.280
 5733SOL    HW218099   3.185   0.724   5.318
 5734SOL     OW18100   2.616   6.069   3.917
 5734SOL    HW118101   2.595   6.143   3.854
 5734SOL    HW218102   2.568   5.986   3.890
 5735SOL     OW18103   2.623   1.036   1.342
 5735SOL    HW118104   2.526   1.051   1.360
 5735SOL    HW218105   2.638   0.940   1.317
 5736SOL     OW18106   1.819   4.396   1.650
 5736SOL    HW118107   1.739   4.448   1.620
 5736SOL    HW218108   1.824   4.310   1.600
 5737SOL     OW18109   5.730   3.767   0.128
 5737SOL    HW118110   5.755   3.864   0.130
 5737SOL    HW218111   5.812   3.711   0.142
 5738SOL     OW18112   1.025   5.901   4.458
 5738SOL    HW118113   0.980   5.886   4.370
 5738SOL    HW218114   1.082   5.982   4.454
 5739SOL     OW18115   0.559   2.295   1.479
 5739SOL    HW118116   0.655   2.322   1.473
 5739SOL    HW218117   0.507   2.365   1.527
 5740SOL     OW18118   4.460   5.245   0.036
 5740SOL    HW118119   4.532   5.304   0.074
 5740SOL    HW218120   4.500   5.158   0.009
 5741SOL     OW18121   0.089   2.203   1.668
 5741SOL    HW118122   0.021   2.276   1.681
 5741SOL    HW218123   0.042   2.116   1.655
 5742SOL     OW18124   0.024   5.029   3.624
 5742SOL    HW118125   6.991   5.048   3.701
 5742SOL    HW218126   0.119   5.031   3.656
 5743SOL     OW18127   0.507   0.320   4.807
 5743SOL    HW118128   0.478   0.373   4.886
 5743SOL    HW218129   0.463   0.356   4.724
 5744SOL     OW18130   6.133   0.872   2.320
 5744SOL    HW118131   6.209   0.812   2.296
 5744SOL    HW218132   6.050   0.841   2.274
 5745SOL     OW18133   6.786   3.375   2.675
 5745SOL    HW118134   6.699   3.368   2.628
 5745SOL    HW218135   6.807   3.471   2.694
 5746SOL     OW18136   0.765   3.453   6.356
 5746SOL    HW118137   0.675   3.490   6.332
 5746SOL    HW218138   0.762   3.353   6.354
 5747SOL     OW18139   0.006   6.779   3.543
 5747SOL    HW118140   0.031   6.762   3.448
 5747SOL    HW218141   0.049   6.711   3.603
 5748SOL     OW18142   0.936   1.184   3.873
 5748SOL    HW118143   0.917   1.096   3.917
 5748SOL    HW218144   0.918   1.258   3.938
 5749SOL     OW18145   0.505   1.459   3.257
 5749SOL    HW118146   0.426   1.399   3.254
 5749SOL    HW218147   0.561   1.437   3.337
 5750SOL     OW18148   4.231   5.890   2.780
 5750SOL    HW118149   4.222   5.895   2.680
 5750SOL    HW218150   4.325   5.911   2.805
 5751SOL     OW18151   1.250   1.731   6.774
 5751SOL    HW118152   1.302   1.751   6.857
 5751SOL    HW218153   1.256   1.808   6.711
 5752SOL     OW18154   2.309   0.611   6.775
 5752SOL    HW118155   2.355   0.590   6.689
 5752SOL    HW218156   2.376   0.649   6.839
 5753SOL     OW18157   3.889   1.229   6.104
 5753SOL    HW118158   3.883   1.134   6.135
 5753SOL    HW218159   3.808   1.253   6.052
 5754SOL     OW18160   5.954   6.128   0.928
 5754SOL    HW118161   5.949   6.191   0.850
 5754SOL    HW218162   5.894   6.160   1.001
 5755SOL     OW18163   2.993   3.998   2.393
 5755SOL    HW118164   2.960   3.911   2.430
 5755SOL    HW218165   2.981   3.999   2.294
 5756SOL     OW18166   6.350   0.427   3.738
 5756SOL    HW118167   6.448   0.446   3.735
 5756SOL    HW218168   6.299   0.511   3.723
 5757SOL     OW18169   6.961   6.938   1.901
 5757SOL    HW118170   7.021   7.016   1.886
 5757SOL    HW218171   6.905   6.954   1.982
 5758SOL     OW18172   2.792   1.188   5.762
 5758SOL    HW118173   2.802   1.100   5.714
 5758SOL    HW218174   2.880   1.234   5.764
 5759SOL     OW18175   0.336   1.235   5.729
 5759SOL    HW118176   0.270   1.182   5.676
 5759SOL    HW218177   0.372   1.309   5.672
 5760SOL     OW18178   6.682   6.003   1.543
 5760SOL    HW118179   6.674   6.102   1.532
 5760SOL    HW218180   6.620   5.972   1.616
 5761SOL     OW18181   3.555   0.506   4.185
 5761SOL    HW118182   3.531   0.445   4.260
 5761SOL    HW218183   3.655   0.508   4.175
 5762SOL     OW18184   4.613   0.360   1.462
 5762SOL    HW118185   4.614   0.320   1.371
 5762SOL    HW218186   4.620   0.287   1.531
 5763SOL     OW18187   3.748   0.933   0.815
 5763SOL    HW118188   3.681   0.946   0.743
 5763SOL    HW218189   3.753   0.836   0.838
 5764SOL     OW18190   3.318   2.845   6.724
 5764SOL    HW118191   3.387   2.795   6.672
 5764SOL    HW218192   3.324   2.942   6.701
 5765SOL     OW18193   6.945   5.149   6.127
 5765SOL    HW118194   6.957   5.236   6.078
 5765SOL    HW218195   6.993   5.153   6.214
 5766SOL     OW18196   2.322   1.538   3.481
 5766SOL    HW118197   2.406   1.566   3.529
 5766SOL    HW218198   2.344   1.471   3.411
 5767SOL     OW18199   4.456   6.195   0.215
 5767SOL    HW118200   4.490   6.153   0.131
 5767SOL    HW218201   4.395   6.271   0.192
 5768SOL     OW18202   5.220   0.287   2.450
 5768SOL    HW118203   5.134   0.249   2.485
 5768SOL    HW218204   5.227   0.268   2.352
 5769SOL     OW18205   0.055   4.819   3.425
 5769SOL    HW118206   0.042   4.872   3.509
 5769SOL    HW218207   7.007   4.836   3.363
 5770SOL     OW18208   4.740   2.741   0.605
 5770SOL    HW118209   4.732   2.699   0.515
 5770SOL    HW218210   4.656   2.792   0.626
 5771SOL     OW18211   0.569   0.282   1.646
 5771SOL    HW118212   0.528   0.198   1.683
 5771SOL    HW218213   0.541   0.293   1.551
 5772SOL     OW18214   6.161   4.820   5.646
 5772SOL    HW118215   6.165   4.872   5.561
 5772SOL    HW218216   6.069   4.828   5.686
 5773SOL     OW18217   4.928   6.396   5.894
 5773SOL    HW118218   4.884   6.468   5.948
 5773SOL    HW218219   4.874   6.378   5.812
 5774SOL     OW18220   1.582   4.332   1.804
 5774SOL    HW118221   1.619   4.399   1.868
 5774SOL    HW218222   1.581   4.372   1.712
 5775SOL     OW18223   1.451   1.127   0.245
 5775SOL    HW118224   1.507   1.147   0.165
 5775SOL    HW218225   1.354   1.131   0.220
 5776SOL     OW18226   4.952   0.367   5.494
 5776SOL    HW118227   4.994   0.422   5.422
 5776SOL    HW218228   4.978   0.404   5.583
 5777SOL     OW18229   4.714   6.458   5.023
 5777SOL    HW118230   4.637   6.501   5.070
 5777SOL    HW218231   4.679   6.385   4.964
 5778SOL     OW18232   2.571   6.638   3.585
 5778SOL    HW118233   2.473   6.626   3.600
 5778SOL    HW218234   2.587   6.719   3.530
 5779SOL     OW18235   3.024   6.404   2.214
 5779SOL    HW118236   3.096   6.449   2.267
 5779SOL    HW218237   2.984   6.470   2.149
 5780SOL     OW18238   0.183   4.411   0.151
 5780SOL    HW118239   0.237   4.366   0.081
 5780SOL    HW218240   0.243   4.464   0.211
 5781SOL     OW18241   4.872   4.778   5.906
 5781SOL    HW118242   4.791   4.820   5.863
 5781SOL    HW218243   4.886   4.687   5.867
 5782SOL     OW18244   4.453   1.734   2.768
 5782SOL    HW118245   4.518   1.660   2.749
 5782SOL    HW218246   4.485   1.818   2.725
 5783SOL     OW18247   2.726   6.055   3.565
 5783SOL    HW118248   2.738   5.957   3.579
 5783SOL    HW218249   2.636   6.083   3.598
 5784SOL     OW18250   0.104   0.018   2.293
 5784SOL    HW118251   0.092   6.951   2.266
 5784SOL    HW218252   0.077   0.078   2.218
 5785SOL     OW18253   2.653   0.873   5.720
 5785SOL    HW118254   2.572   0.913   5.677
 5785SOL    HW218255   2.715   0.839   5.650
 5786SOL     OW18256   2.150   1.208   5.851
 5786SOL    HW118257   2.169   1.110   5.858
 5786SOL    HW218258   2.228   1.254   5.808
 5787SOL     OW18259   0.661   2.502   6.127
 5787SOL    HW118260   0.746   2.516   6.076
 5787SOL    HW218261   0.615   2.419   6.094
 5788SOL     OW18262   0.491   2.173   1.994
 5788SOL    HW118263   0.392   2.177   1.984
 5788SOL    HW218264   0.518   2.221   2.078
 5789SOL     OW18265   3.311   1.579   6.771
 5789SOL    HW118266   3.328   1.499   6.714
 5789SOL    HW218267   3.238   1.559   6.836
 5790SOL     OW18268   6.302   6.243   2.608
 5790SOL    HW118269   6.293   6.340   2.629
 5790SOL    HW218270   6.243   6.190   2.668
 5791SOL     OW18271   3.798   0.807   1.672
 5791SOL    HW118272   3.886   0.784   1.631
 5791SOL    HW218273   3.812   0.838   1.766
 5792SOL     OW18274   4.796   1.787   2.600
 5792SOL    HW118275   4.873   1.750   2.651
 5792SOL    HW218276   4.722   1.810   2.663
 5793SOL     OW18277   4.303   1.599   0.868
 5793SOL    HW118278   4.258   1.559   0.788
 5793SOL    HW218279   4.236   1.613   0.941
 5794SOL     OW18280   3.742   6.320   0.095
 5794SOL    HW118281   3.743   6.327   7.024
 5794SOL    HW218282   3.739   6.411   0.135
 5795SOL     OW18283   0.767   6.547   2.161
 5795SOL    HW118284   0.810   6.521   2.248
 5795SOL    HW218285   0.695   6.614   2.178
 5796SOL     OW18286   4.943   0.805   5.499
 5796SOL    HW118287   4.884   0.875   5.539
 5796SOL    HW218288   5.008   0.772   5.569
 5797SOL     OW18289   5.957   1.301   6.210
 5797SOL    HW118290   6.021   1.242   6.260
 5797SOL    HW218291   5.995   1.393   6.204
 5798SOL     OW18292   2.092   2.706   4.349
 5798SOL    HW118293   2.069   2.802   4.334
 5798SOL    HW218294   2.191   2.696   4.357
 5799SOL     OW18295   2.667   1.079   3.793
 5799SOL    HW118296   2.605   1.074   3.871
 5799SOL    HW218297   2.634   1.147   3.728
 5800SOL     OW18298   1.613   5.594   1.405
 5800SOL    HW118299   1.605   5.693   1.409
 5800SOL    HW218300   1.564   5.553   1.482
 5801SOL     OW18301   1.856   2.187   3.312
 5801SOL    HW118302   1.761   2.158   3.301
 5801SOL    HW218303   1.896   2.139   3.390
 5802SOL     OW18304   0.076   6.779   2.242
 5802SOL    HW118305   0.103   6.772   2.338
 5802SOL    HW218306   0.014   6.704   2.219
 5803SOL     OW18307   0.018   6.987   4.539
 5803SOL    HW118308   6.977   0.030   4.534
 5803SOL    HW218309   7.003   6.900   4.558
 5804SOL     OW18310   6.500   3.035   3.299
 5804SOL    HW118311   6.564   3.111   3.309
 5804SOL    HW218312   6.528   2.976   3.224
 5805SOL     OW18313   0.604   1.450   1.665
 5805SOL    HW118314   0.518   1.470   1.711
 5805SOL    HW218315   0.588   1.437   1.567
 5806SOL     OW18316   6.856   4.069   1.917
 5806SOL    HW118317   6.866   3.969   1.908
 5806SOL    HW218318   6.761   4.092   1.934
 5807SOL     OW18319   0.835   1.282   2.789
 5807SOL    HW118320   0.773   1.315   2.860
 5807SOL    HW218321   0.852   1.356   2.723
 5808SOL     OW18322   5.912   5.540   6.213
 5808SOL    HW118323   5.982   5.531   6.283
 5808SOL    HW218324   5.850   5.616   6.237
 5809SOL     OW18325   6.425   4.043   5.160
 5809SOL    HW118326   6.360   3.975   5.129
 5809SOL    HW218327   6.491   4.001   5.222
 5810SOL     OW18328   0.907   6.433   4.595
 5810SOL    HW118329   0.961   6.517   4.607
 5810SOL    HW218330   0.918   6.375   4.675
 5811SOL     OW18331   3.044   5.515   0.212
 5811SOL    HW118332   3.084   5.545   0.299
 5811SOL    HW218333   2.966   5.574   0.190
 5812SOL     OW18334   6.136   2.617   5.757
 5812SOL    HW118335   6.219   2.670   5.774
 5812SOL    HW218336   6.091   2.653   5.675
 5813SOL     OW18337   6.757   5.134   1.093
 5813SOL    HW118338   6.727   5.120   0.998
 5813SOL    HW218339   6.846   5.179   1.093
 5814SOL     OW18340   5.178   1.887   2.607
 5814SOL    HW118341   5.161   1.976   2.651
 5814SOL    HW218342   5.270   1.855   2.632
 5815SOL     OW18343   0.721   4.879   4.510
 5815SOL    HW118344   0.782   4.928   4.449
 5815SOL    HW218345   0.775   4.827   4.576
 5816SOL     OW18346   6.581   3.739   1.174
 5816SOL    HW118347   6.483   3.720   1.173
 5816SOL    HW218348   6.632   3.656   1.152
 5817SOL     OW18349   6.840   1.919   3.703
 5817SOL    HW118350   6.779   1.907   3.625
 5817SOL    HW218351   6.817   1.852   3.774
 5818SOL     OW18352   2.626   1.768   3.448
 5818SOL    HW118353   2.563   1.810   3.514
 5818SOL    HW218354   2.644   1.833   3.374
 5819SOL     OW18355   4.258   4.404   1.679
 5819SOL    HW118356   4.310   4.333   1.726
 5819SOL    HW218357   4.203   4.363   1.606
 5820SOL     OW18358   1.033   6.293   2.097
 5820SOL    HW118359   1.086   6.213   2.069
 5820SOL    HW218360   0.944   6.263   2.134
 5821SOL     OW18361   5.191   6.051   1.737
 5821SOL    HW118362   5.205   6.140   1.781
 5821SOL    HW218363   5.190   6.063   1.638
 5822SOL     OW18364   1.031   3.885   3.152
 5822SOL    HW118365   1.123   3.846   3.160
 5822SOL    HW218366   1.029   3.950   3.075
 5823SOL     OW18367   2.131   6.713   4.933
 5823SOL    HW118368   2.227   6.722   4.959
 5823SOL    HW218369   2.076   6.778   4.986
 5824SOL     OW18370   1.395   5.687   2.465
 5824SOL    HW118371   1.396   5.722   2.371
 5824SOL    HW218372   1.457   5.609   2.473
 5825SOL     OW18373   3.051   2.118   4.752
 5825SOL    HW118374   2.975   2.184   4.758
 5825SOL    HW218375   3.099   2.115   4.840
 5826SOL     OW18376   1.258   5.784   5.781
 5826SOL    HW118377   1.257   5.834   5.868
 5826SOL    HW218378   1.165   5.782   5.743
 5827SOL     OW18379   1.094   4.944   3.916
 5827SOL    HW118380   1.088   5.026   3.858
 5827SOL    HW218381   1.164   4.882   3.879
 5828SOL     OW18382   5.305   0.244   4.847
 5828SOL    HW118383   5.358   0.159   4.842
 5828SOL    HW218384   5.316   0.295   4.762
 5829SOL     OW18385   1.747   1.268   2.595
 5829SOL    HW118386   1.761   1.279   2.497
 5829SOL    HW218387   1.788   1.181   2.625
 5830SOL     OW18388   4.792   4.749   3.860
 5830SOL    HW118389   4.890   4.767   3.870
 5830SOL    HW218390   4.750   4.739   3.950
 5831SOL     OW18391   2.051   1.746   4.134
 5831SOL    HW118392   2.121   1.743   4.063
 5831SOL    HW218393   2.080   1.809   4.207
 5832SOL     OW18394   2.951   5.335   3.641
 5832SOL    HW118395   2.992   5.273   3.708
 5832SOL    HW218396   3.023   5.378   3.587
 5833SOL     OW18397   2.674   4.544   1.265
 5833SOL    HW118398   2.707   4.504   1.351
 5833SOL    HW218399   2.661   4.642   1.277
 5834SOL     OW18400   6.678   0.545   6.573
 5834SOL    HW118401   6.718   0.493   6.498
 5834SOL    HW218402   6.587   0.510   6.593
 5835SOL     OW18403   3.293   0.943   3.354
 5835SOL    HW118404   3.207   0.895   3.370
 5835SOL    HW218405   3.351   0.937   3.435
 5836SOL     OW18406   5.912   4.812   1.276
 5836SOL    HW118407   5.998   4.822   1.327
 5836SOL    HW218408   5.931   4.816   1.178
 5837SOL     OW18409   2.321   4.005   7.025
 5837SOL    HW118410   2.389   4.065   6.983
 5837SOL    HW218411   2.260   4.059   0.055
 5838SOL     OW18412   3.259   3.514   0.476
 5838SOL    HW118413   3.215   3.586   0.530
 5838SOL    HW218414   3.256   3.539   0.379
 5839SOL     OW18415   2.438   1.982   0.870
 5839SOL    HW118416   2.452   2.003   0.967
 5839SOL    HW218417   2.451   2.065   0.816
 5840SOL     OW18418   6.444   3.316   2.576
 5840SOL    HW118419   6.481   3.370   2.501
 5840SOL    HW218420   6.364   3.266   2.545
 5841SOL     OW18421   4.745   1.579   0.143
 5841SOL    HW118422   4.843   1.562   0.134
 5841SOL    HW218423   4.694   1.515   0.085
 5842SOL     OW18424   3.170   1.815   2.272
 5842SOL    HW118425   3.215   1.850   2.354
 5842SOL    HW218426   3.142   1.891   2.214
 5843SOL     OW18427   2.745   2.692   1.138
 5843SOL    HW118428   2.744   2.671   1.040
 5843SOL    HW218429   2.729   2.790   1.151
 5844SOL     OW18430   6.287   5.598   4.880
 5844SOL    HW118431   6.346   5.671   4.914
 5844SOL    HW218432   6.247   5.549   4.957
 5845SOL     OW18433   2.050   5.845   3.302
 5845SOL    HW118434   2.098   5.895   3.230
 5845SOL    HW218435   2.114   5.826   3.377
 5846SOL     OW18436   0.523   4.442   5.333
 5846SOL    HW118437   0.490   4.366   5.388
 5846SOL    HW218438   0.608   4.478   5.372
 5847SOL     OW18439   2.005   3.619   5.961
 5847SOL    HW118440   2.033   3.664   5.876
 5847SOL    HW218441   1.960   3.532   5.939
 5848SOL     OW18442   2.757   6.655   2.357
 5848SOL    HW118443   2.791   6.707   2.436
 5848SOL    HW218444   2.684   6.707   2.313
 5849SOL     OW18445   3.185   6.493   6.329
 5849SOL    HW118446   3.123   6.571   6.332
 5849SOL    HW218447   3.158   6.427   6.399
 5850SOL     OW18448   5.896   2.716   0.994
 5850SOL    HW118449   5.816   2.734   0.938
 5850SOL    HW218450   5.912   2.793   1.056
 5851SOL     OW18451   1.024   2.942   6.079
 5851SOL    HW118452   1.019   2.875   6.153
 5851SOL    HW218453   1.001   3.033   6.113
 5852SOL     OW18454   4.129   4.724   3.307
 5852SOL    HW118455   4.224   4.731   3.277
 5852SOL    HW218456   4.088   4.640   3.271
 5853SOL     OW18457   4.645   5.030   0.030
 5853SOL    HW118458   4.672   5.054   0.123
 5853SOL    HW218459   4.644   4.930   0.020
 5854SOL     OW18460   2.549   4.262   5.314
 5854SOL    HW118461   2.524   4.176   5.271
 5854SOL    HW218462   2.482   4.332   5.290
 5855SOL     OW18463   1.076   2.038   4.561
 5855SOL    HW118464   1.057   2.126   4.604
 5855SOL    HW218465   1.128   1.980   4.623
 5856SOL     OW18466   0.156   0.944   2.446
 5856SOL    HW118467   0.173   0.960   2.544
 5856SOL    HW218468   0.244   0.939   2.398
 5857SOL     OW18469   6.286   5.646   6.923
 5857SOL    HW118470   6.190   5.620   6.929
 5857SOL    HW218471   6.293   5.742   6.898
 5858SOL     OW18472   3.112   2.017   0.622
 5858SOL    HW118473   3.099   2.113   0.650
 5858SOL    HW218474   3.111   1.959   0.704
 5859SOL     OW18475   6.401   4.705   1.708
 5859SOL    HW118476   6.317   4.654   1.725
 5859SOL    HW218477   6.423   4.702   1.610
 5860SOL     OW18478   1.505   3.282   1.883
 5860SOL    HW118479   1.584   3.221   1.895
 5860SOL    HW218480   1.426   3.229   1.853
 5861SOL     OW18481   5.134   6.209   4.988
 5861SOL    HW118482   5.076   6.281   5.025
 5861SOL    HW218483   5.118   6.200   4.890
 5862SOL     OW18484   0.358   5.235   1.489
 5862SOL    HW118485   0.353   5.306   1.418
 5862SOL    HW218486   0.431   5.258   1.553
 5863SOL     OW18487   3.706   0.019   5.562
 5863SOL    HW118488   3.665   0.081   5.495
 5863SOL    HW218489   3.777   6.993   5.517
 5864SOL     OW18490   4.073   3.798   3.166
 5864SOL    HW118491   4.118   3.762   3.248
 5864SOL    HW218492   4.045   3.723   3.107
 5865SOL     OW18493   6.639   6.325   0.909
 5865SOL    HW118494   6.554   6.353   0.955
 5865SOL    HW218495   6.708   6.302   0.977
 5866SOL     OW18496   3.398   3.976   3.769
 5866SOL    HW118497   3.450   3.908   3.820
 5866SOL    HW218498   3.460   4.031   3.714
 5867SOL     OW18499   5.156   0.564   0.140
 5867SOL    HW118500   5.074   0.614   0.166
 5867SOL    HW218501   5.200   0.609   0.062
 5868SOL     OW18502   1.592   0.946   0.628
 5868SOL    HW118503   1.496   0.974   0.625
 5868SOL    HW218504   1.598   0.855   0.670
 5869SOL     OW18505   2.139   5.465   3.538
 5869SOL    HW118506   2.226   5.498   3.502
 5869SOL    HW218507   2.064   5.501   3.482
 5870SOL     OW18508   3.836   6.571   3.611
 5870SOL    HW118509   3.759   6.509   3.595
 5870SOL    HW218510   3.870   6.606   3.524
 5871SOL     OW18511   4.172   3.480   3.271
 5871SOL    HW118512   4.126   3.567   3.290
 5871SOL    HW218513   4.267   3.485   3.302
 5872SOL     OW18514   3.827   4.968   1.652
 5872SOL    HW118515   3.749   4.995   1.708
 5872SOL    HW218516   3.893   4.919   1.709
 5873SOL     OW18517   3.683   6.804   1.883
 5873SOL    HW118518   3.733   6.845   1.808
 5873SOL    HW218519   3.700   6.856   1.967
 5874SOL     OW18520   0.556   3.080   4.082
 5874SOL    HW118521   0.546   3.180   4.075
 5874SOL    HW218522   0.624   3.059   4.152
 5875SOL     OW18523   3.932   2.442   1.074
 5875SOL    HW118524   3.990   2.494   1.136
 5875SOL    HW218525   3.930   2.486   0.985
 5876SOL     OW18526   4.092   3.595   2.454
 5876SOL    HW118527   4.061   3.614   2.547
 5876SOL    HW218528   4.082   3.678   2.398
 5877SOL     OW18529   4.546   4.858   1.849
 5877SOL    HW118530   4.559   4.893   1.756
 5877SOL    HW218531   4.595   4.917   1.914
 5878SOL     OW18532   0.777   3.677   2.250
 5878SOL    HW118533   0.697   3.731   2.275
 5878SOL    HW218534   0.851   3.737   2.221
 5879SOL     OW18535   1.929   4.128   5.037
 5879SOL    HW118536   1.934   4.115   4.938
 5879SOL    HW218537   2.021   4.148   5.072
 5880SOL     OW18538   2.234   5.681   0.168
 5880SOL    HW118539   2.226   5.663   0.070
 5880SOL    HW218540   2.151   5.725   0.201
 5881SOL     OW18541   1.558   6.168   4.658
 5881SOL    HW118542   1.617   6.127   4.728
 5881SOL    HW218543   1.496   6.099   4.621
 5882SOL     OW18544   5.243   0.814   2.924
 5882SOL    HW118545   5.291   0.817   2.837
 5882SOL    HW218546   5.145   0.810   2.908
 5883SOL     OW18547   0.619   3.387   5.592
 5883SOL    HW118548   0.560   3.341   5.526
 5883SOL    HW218549   0.576   3.472   5.622
 5884SOL     OW18550   7.023   1.401   3.573
 5884SOL    HW118551   6.943   1.458   3.556
 5884SOL    HW218552   0.073   1.437   3.524
 5885SOL     OW18553   6.376   5.053   0.448
 5885SOL    HW118554   6.342   5.061   0.542
 5885SOL    HW218555   6.346   5.133   0.396
 5886SOL     OW18556   6.210   2.190   5.961
 5886SOL    HW118557   6.145   2.265   5.948
 5886SOL    HW218558   6.225   2.176   6.059
 5887SOL     OW18559   3.869   6.710   2.299
 5887SOL    HW118560   3.871   6.807   2.324
 5887SOL    HW218561   3.854   6.655   2.381
 5888SOL     OW18562   0.025   5.757   2.675
 5888SOL    HW118563   6.998   5.695   2.731
 5888SOL    HW218564   6.998   5.794   2.601
 5889SOL     OW18565   3.227   6.580   0.685
 5889SOL    HW118566   3.226   6.628   0.773
 5889SOL    HW218567   3.284   6.499   0.691
 5890SOL     OW18568   4.196   5.309   6.299
 5890SOL    HW118569   4.216   5.326   6.396
 5890SOL    HW218570   4.126   5.239   6.291
 5891SOL     OW18571   2.520   3.165   6.755
 5891SOL    HW118572   2.545   3.261   6.773
 5891SOL    HW218573   2.563   3.136   6.669
 5892SOL     OW18574   3.504   5.068   1.194
 5892SOL    HW118575   3.512   5.071   1.294
 5892SOL    HW218576   3.431   5.005   1.168
 5893SOL     OW18577   0.299   3.120   1.829
 5893SOL    HW118578   0.307   3.159   1.920
 5893SOL    HW218579   0.221   3.058   1.825
 5894SOL     OW18580   2.257   4.665   3.684
 5894SOL    HW118581   2.273   4.738   3.618
 5894SOL    HW218582   2.290   4.579   3.647
 5895SOL     OW18583   4.607   4.917   3.258
 5895SOL    HW118584   4.571   4.996   3.307
 5895SOL    HW218585   4.702   4.902   3.284
 5896SOL     OW18586   5.576   2.427   5.410
 5896SOL    HW118587   5.516   2.348   5.402
 5896SOL    HW218588   5.582   2.473   5.322
 5897SOL     OW18589   4.524   4.564   0.178
 5897SOL    HW118590   4.521   4.659   0.210
 5897SOL    HW218591   4.505   4.563   0.079
 5898SOL     OW18592   1.879   5.478   2.655
 5898SOL    HW118593   1.785   5.482   2.620
 5898SOL    HW218594   1.940   5.523   2.590
 5899SOL     OW18595   4.816   0.589   3.542
 5899SOL    HW118596   4.795   0.492   3.536
 5899SOL    HW218597   4.903   0.608   3.496
 5900SOL     OW18598   3.887   5.068   2.004
 5900SOL    HW118599   3.892   5.167   2.017
 5900SOL    HW218600   3.797   5.043   1.967
 5901SOL     OW18601   2.892   6.416   3.300
 5901SOL    HW118602   2.867   6.338   3.242
 5901SOL    HW218603   2.991   6.426   3.302
 5902SOL     OW18604   6.891   1.758   0.227
 5902SOL    HW118605   6.913   1.669   0.267
 5902SOL    HW218606   6.907   1.756   0.128
 5903SOL     OW18607   1.051   2.194   6.246
 5903SOL    HW118608   0.974   2.207   6.308
 5903SOL    HW218609   1.060   2.096   6.225
 5904SOL     OW18610   0.034   3.081   2.193
 5904SOL    HW118611   0.042   3.180   2.203
 5904SOL    HW218612   7.006   3.044   2.267
 5905SOL     OW18613   6.992   3.388   2.479
 5905SOL    HW118614   6.914   3.355   2.532
 5905SOL    HW218615   0.042   3.398   2.540
 5906SOL     OW18616   5.857   1.872   3.217
 5906SOL    HW118617   5.907   1.842   3.299
 5906SOL    HW218618   5.867   1.804   3.145
 5907SOL     OW18619   1.541   0.759   2.029
 5907SOL    HW118620   1.529   0.826   2.103
 5907SOL    HW218621   1.460   0.760   1.970
 5908SOL     OW18622   0.479   2.970   4.955
 5908SOL    HW118623   0.567   2.923   4.948
 5908SOL    HW218624   0.406   2.903   4.965
 5909SOL     OW18625   6.825   4.314   6.015
 5909SOL    HW118626   6.897   4.331   6.083
 5909SOL    HW218627   6.837   4.377   5.938
 5910SOL     OW18628   1.167   1.587   3.405
 5910SOL    HW118629   1.086   1.626   3.447
 5910SOL    HW218630   1.177   1.621   3.312
 5911SOL     OW18631   5.560   4.754   6.460
 5911SOL    HW118632   5.616   4.813   6.402
 5911SOL    HW218633   5.600   4.662   6.462
 5912SOL     OW18634   0.417   1.339   1.899
 5912SOL    HW118635   0.354   1.261   1.894
 5912SOL    HW218636   0.386   1.412   1.839
 5913SOL     OW18637   0.413   3.442   1.200
 5913SOL    HW118638   0.430   3.346   1.180
 5913SOL    HW218639   0.336   3.450   1.264
 5914SOL     OW18640   1.298   6.287   0.778
 5914SOL    HW118641   1.378   6.347   0.781
 5914SOL    HW218642   1.219   6.339   0.744
 5915SOL     OW18643   5.408   0.753   5.184
 5915SOL    HW118644   5.348   0.734   5.261
 5915SOL    HW218645   5.367   0.719   5.100
 5916SOL     OW18646   1.032   0.642   3.099
 5916SOL    HW118647   0.977   0.716   3.139
 5916SOL    HW218648   1.011   0.633   3.002
 5917SOL     OW18649   3.973   3.513   1.304
 5917SOL    HW118650   3.924   3.517   1.392
 5917SOL    HW218651   3.966   3.421   1.267
 5918SOL     OW18652   3.599   6.644   5.647
 5918SOL    HW118653   3.588   6.727   5.703
 5918SOL    HW218654   3.524   6.639   5.581
 5919SOL     OW18655   2.937   3.586   4.675
 5919SOL    HW118656   2.915   3.668   4.622
 5919SOL    HW218657   2.983   3.614   4.759
 5920SOL     OW18658   1.965   0.436   5.008
 5920SOL    HW118659   1.937   0.341   5.022
 5920SOL    HW218660   1.916   0.495   5.073
 5921SOL     OW18661   3.453   5.017   1.537
 5921SOL    HW118662   3.362   5.038   1.500
 5921SOL    HW218663   3.458   4.920   1.561
 5922SOL     OW18664   5.258   2.387   2.554
 5922SOL    HW118665   5.235   2.389   2.457
 5922SOL    HW218666   5.311   2.468   2.578
 5923SOL     OW18667   5.691   1.199   2.417
 5923SOL    HW118668   5.703   1.102   2.440
 5923SOL    HW218669   5.779   1.237   2.389
 5924SOL     OW18670   0.441   6.178   3.162
 5924SOL    HW118671   0.528   6.196   3.115
 5924SOL    HW218672   0.409   6.263   3.205
 5925SOL     OW18673   3.879   0.657   0.798
 5925SOL    HW118674   3.939   0.681   0.874
 5925SOL    HW218675   3.836   0.569   0.816
 5926SOL     OW18676   4.949   3.293   3.117
 5926SOL    HW118677   4.956   3.360   3.044
 5926SOL    HW218678   4.937   3.340   3.204
 5927SOL     OW18679   1.166   0.435   1.408
 5927SOL    HW118680   1.202   0.527   1.426
 5927SOL    HW218681   1.199   0.372   1.478
 5928SOL     OW18682   3.091   0.003   6.002
 5928SOL    HW118683   3.102   0.005   5.902
 5928SOL    HW218684   3.180   7.016   6.045
 5929SOL     OW18685   1.818   0.667   0.849
 5929SOL    HW118686   1.718   0.667   0.858
 5929SOL    HW218687   1.860   0.658   0.939
 5930SOL     OW18688   6.808   4.714   2.266
 5930SOL    HW118689   6.832   4.792   2.324
 5930SOL    HW218690   6.846   4.727   2.175
 5931SOL     OW18691   5.336   0.658   4.953
 5931SOL    HW118692   5.336   0.667   4.854
 5931SOL    HW218693   5.321   0.562   4.977
 5932SOL     OW18694   2.618   5.487   1.004
 5932SOL    HW118695   2.662   5.460   0.919
 5932SOL    HW218696   2.599   5.585   1.003
 5933SOL     OW18697   6.282   5.451   4.394
 5933SOL    HW118698   6.278   5.550   4.380
 5933SOL    HW218699   6.314   5.432   4.486
 5934SOL     OW18700   2.545   4.499   0.201
 5934SOL    HW118701   2.564   4.486   0.298
 5934SOL    HW218702   2.630   4.488   0.149
 5935SOL     OW18703   1.862   0.151   5.053
 5935SOL    HW118704   1.772   0.129   5.015
 5935SOL    HW218705   1.865   0.123   5.149
 5936SOL     OW18706   3.209   2.874   1.959
 5936SOL    HW118707   3.137   2.821   1.914
 5936SOL    HW218708   3.188   2.884   2.056
 5937SOL     OW18709   0.720   3.122   0.845
 5937SOL    HW118710   0.679   3.201   0.891
 5937SOL    HW218711   0.649   3.053   0.829
 5938SOL     OW18712   1.026   3.184   4.076
 5938SOL    HW118713   1.051   3.098   4.030
 5938SOL    HW218714   1.108   3.227   4.113
 5939SOL     OW18715   5.300   2.485   5.981
 5939SOL    HW118716   5.257   2.450   6.064
 5939SOL    HW218717   5.355   2.412   5.939
 5940SOL     OW18718   4.477   4.702   1.189
 5940SOL    HW118719   4.443   4.642   1.260
 5940SOL    HW218720   4.432   4.791   1.196
 5941SOL     OW18721   1.808   1.818   3.696
 5941SOL    HW118722   1.732   1.757   3.719
 5941SOL    HW218723   1.849   1.852   3.780
 5942SOL     OW18724   4.545   2.301   5.758
 5942SOL    HW118725   4.586   2.390   5.743
 5942SOL    HW218726   4.567   2.269   5.850
 5943SOL     OW18727   2.134   4.829   2.351
 5943SOL    HW118728   2.182   4.793   2.271
 5943SOL    HW218729   2.121   4.757   2.418
 5944SOL     OW18730   0.124   3.543   5.947
 5944SOL    HW118731   0.152   3.448   5.963
 5944SOL    HW218732   0.026   3.553   5.965
 5945SOL     OW18733   0.459   6.571   4.025
 5945SOL    HW118734   0.539   6.523   4.060
 5945SOL    HW218735   0.459   6.665   4.059
 5946SOL     OW18736   2.976   2.366   0.124
 5946SOL    HW118737   3.024   2.313   0.054
 5946SOL    HW218738   2.926   2.441   0.080
 5947SOL     OW18739   3.301   3.916   5.845
 5947SOL    HW118740   3.212   3.946   5.878
 5947SOL    HW218741   3.327   3.831   5.891
 5948SOL     OW18742   5.361   2.914   1.135
 5948SOL    HW118743   5.394   2.842   1.074
 5948SOL    HW218744   5.391   2.894   1.228
 5949SOL     OW18745   1.083   4.964   4.181
 5949SOL    HW118746   1.087   4.967   4.082
 5949SOL    HW218747   1.171   4.932   4.217
 5950SOL     OW18748   2.221   6.037   4.642
 5950SOL    HW118749   2.271   6.114   4.680
 5950SOL    HW218750   2.124   6.061   4.632
 5951SOL     OW18751   6.819   3.802   6.715
 5951SOL    HW118752   6.909   3.834   6.686
 5951SOL    HW218753   6.766   3.879   6.749
 5952SOL     OW18754   3.690   3.727   2.028
 5952SOL    HW118755   3.596   3.697   2.038
 5952SOL    HW218756   3.741   3.661   1.973
 5953SOL     OW18757   0.286   3.156   6.482
 5953SOL    HW118758   0.361   3.106   6.438
 5953SOL    HW218759   0.226   3.196   6.413
 5954SOL     OW18760   2.777   5.560   3.700
 5954SOL    HW118761   2.831   5.483   3.667
 5954SOL    HW218762   2.819   5.598   3.782
 5955SOL     OW18763   4.221   2.665   6.755
 5955SOL    HW118764   4.275   2.628   6.831
 5955SOL    HW218765   4.128   2.630   6.761
 5956SOL     OW18766   3.580   1.941   6.603
 5956SOL    HW118767   3.488   1.919   6.635
 5956SOL    HW218768   3.595   2.040   6.608
 5957SOL     OW18769   6.943   3.283   3.764
 5957SOL    HW118770   6.850   3.320   3.760
 5957SOL    HW218771   7.008   3.350   3.728
 5958SOL     OW18772   2.030   5.951   2.430
 5958SOL    HW118773   2.036   6.022   2.360
 5958SOL    HW218774   2.073   5.868   2.397
 5959SOL     OW18775   4.827   4.247   3.244
 5959SOL    HW118776   4.855   4.322   3.304
 5959SOL    HW218777   4.817   4.163   3.298
 5960SOL     OW18778   7.008   6.541   6.726
 5960SOL    HW118779   6.933   6.532   6.792
 5960SOL    HW218780   6.972   6.579   6.640
 5961SOL     OW18781   1.634   2.061   3.654
 5961SOL    HW118782   1.680   1.983   3.696
 5961SOL    HW218783   1.648   2.142   3.711
 5962SOL     OW18784   5.543   5.526   0.801
 5962SOL    HW118785   5.531   5.429   0.823
 5962SOL    HW218786   5.501   5.582   0.872
 5963SOL     OW18787   2.150   3.783   1.313
 5963SOL    HW118788   2.121   3.844   1.387
 5963SOL    HW218789   2.204   3.709   1.351
 5964SOL     OW18790   1.419   6.401   4.430
 5964SOL    HW118791   1.336   6.397   4.375
 5964SOL    HW218792   1.483   6.331   4.399
 5965SOL     OW18793   2.038   0.470   1.438
 5965SOL    HW118794   2.041   0.485   1.339
 5965SOL    HW218795   2.132   0.465   1.473
 5966SOL     OW18796   2.809   1.551   5.200
 5966SOL    HW118797   2.782   1.536   5.295
 5966SOL    HW218798   2.794   1.647   5.176
 5967SOL     OW18799   5.080   2.478   5.765
 5967SOL    HW118800   4.996   2.483   5.819
 5967SOL    HW218801   5.159   2.491   5.825
 5968SOL     OW18802   6.148   1.429   3.070
 5968SOL    HW118803   6.187   1.513   3.108
 5968SOL    HW218804   6.199   1.351   3.106
 5969SOL     OW18805   5.534   6.436   1.347
 5969SOL    HW118806   5.440   6.441   1.381
 5969SOL    HW218807   5.591   6.499   1.400
 5970SOL     OW18808   6.829   1.207   0.206
 5970SOL    HW118809   6.773   1.264   0.145
 5970SOL    HW218810   6.923   1.205   0.171
 5971SOL     OW18811   6.692   5.192   3.859
 5971SOL    HW118812   6.717   5.231   3.948
 5971SOL    HW218813   6.761   5.124   3.833
 5972SOL     OW18814   6.731   5.165   6.963
 5972SOL    HW118815   6.750   5.262   6.945
 5972SOL    HW218816   6.808   5.125   7.012
 5973SOL     OW18817   3.656   0.366   1.717
 5973SOL    HW118818   3.582   0.359   1.784
 5973SOL    HW218819   3.702   0.278   1.709
 5974SOL     OW18820   6.100   0.770   4.756
 5974SOL    HW118821   6.053   0.704   4.698
 5974SOL    HW218822   6.035   0.839   4.787
 5975SOL     OW18823   3.588   4.380   0.337
 5975SOL    HW118824   3.502   4.370   0.288
 5975SOL    HW218825   3.570   4.381   0.435
 5976SOL     OW18826   0.488   2.291   6.036
 5976SOL    HW118827   0.485   2.202   5.990
 5976SOL    HW218828   0.432   2.357   5.985
 5977SOL     OW18829   0.453   5.908   1.643
 5977SOL    HW118830   0.369   5.872   1.685
 5977SOL    HW218831   0.451   5.889   1.545
 5978SOL     OW18832   3.134   3.752   6.419
 5978SOL    HW118833   3.180   3.786   6.502
 5978SOL    HW218834   3.124   3.827   6.354
 5979SOL     OW18835   6.009   0.820   1.326
 5979SOL    HW118836   5.982   0.890   1.260
 5979SOL    HW218837   6.108   0.811   1.327
 5980SOL     OW18838   3.662   2.918   0.304
 5980SOL    HW118839   3.605   2.836   0.309
 5980SOL    HW218840   3.734   2.904   0.235
 5981SOL     OW18841   4.301   2.080   0.353
 5981SOL    HW118842   4.293   2.137   0.435
 5981SOL    HW218843   4.270   1.987   0.374
 5982SOL     OW18844   5.722   2.439   1.327
 5982SOL    HW118845   5.668   2.523   1.336
 5982SOL    HW218846   5.743   2.424   1.230
 5983SOL     OW18847   0.868   1.226   4.183
 5983SOL    HW118848   0.835   1.254   4.274
 5983SOL    HW218849   0.793   1.181   4.134
 5984SOL     OW18850   6.467   6.397   1.962
 5984SOL    HW118851   6.445   6.372   2.056
 5984SOL    HW218852   6.475   6.496   1.955
 5985SOL     OW18853   0.140   4.251   2.351
 5985SOL    HW118854   0.102   4.203   2.272
 5985SOL    HW218855   0.236   4.273   2.333
 5986SOL     OW18856   3.676   3.325   3.628
 5986SOL    HW118857   3.577   3.316   3.633
 5986SOL    HW218858   3.703   3.416   3.661
 5987SOL     OW18859   0.347   6.154   3.706
 5987SOL    HW118860   0.297   6.093   3.645
 5987SOL    HW218861   0.350   6.115   3.798
 5988SOL     OW18862   1.799   2.013   6.973
 5988SOL    HW118863   1.836   2.015   6.880
 5988SOL    HW218864   1.784   1.918   7.000
 5989SOL     OW18865   2.910   6.674   5.722
 5989SOL    HW118866   2.937   6.589   5.766
 5989SOL    HW218867   2.848   6.724   5.783
 5990SOL     OW18868   2.292   4.094   1.773
 5990SOL    HW118869   2.343   4.175   1.801
 5990SOL    HW218870   2.196   4.104   1.799
 5991SOL     OW18871   4.651   1.203   6.834
 5991SOL    HW118872   4.595   1.138   6.783
 5991SOL    HW218873   4.703   1.260   6.769
 5992SOL     OW18874   2.483   4.507   2.415
 5992SOL    HW118875   2.461   4.516   2.512
 5992SOL    HW218876   2.551   4.576   2.390
 5993SOL     OW18877   6.017   0.848   0.081
 5993SOL    HW118878   5.941   0.859   0.017
 5993SOL    HW218879   6.007   0.913   0.156
 5994SOL     OW18880   0.503   5.321   1.117
 5994SOL    HW118881   0.467   5.385   1.185
 5994SOL    HW218882   0.431   5.258   1.089
 5995SOL     OW18883   5.865   4.561   1.318
 5995SOL    HW118884   5.873   4.661   1.322
 5995SOL    HW218885   5.808   4.536   1.240
 5996SOL     OW18886   2.914   1.145   1.443
 5996SOL    HW118887   2.948   1.152   1.350
 5996SOL    HW218888   2.834   1.085   1.445
 5997SOL     OW18889   6.605   0.962   4.538
 5997SOL    HW118890   6.524   1.020   4.536
 5997SOL    HW218891   6.617   0.919   4.448
 5998SOL     OW18892   5.434   6.046   0.059
 5998SOL    HW118893   5.529   6.029   0.032
 5998SOL    HW218894   5.416   6.144   0.057
 5999SOL     OW18895   6.159   2.589   1.003
 5999SOL    HW118896   6.147   2.541   1.090
 5999SOL    HW218897   6.072   2.632   0.977
 6000SOL     OW18898   0.306   5.742   2.054
 6000SOL    HW118899   0.398   5.708   2.038
 6000SOL    HW218900   0.271   5.704   2.141
 6001SOL     OW18901   0.076   6.426   6.298
 6001SOL    HW118902   0.129   6.370   6.361
 6001SOL    HW218903   0.030   6.499   6.349
 6002SOL     OW18904   5.499   4.496   4.282
 6002SOL    HW118905   5.500   4.562   4.357
 6002SOL    HW218906   5.554   4.416   4.307
 6003SOL     OW18907   2.288   0.715   4.632
 6003SOL    HW118908   2.338   0.637   4.668
 6003SOL    HW218909   2.340   0.799   4.649
 6004SOL     OW18910   5.498   3.502   4.875
 6004SOL    HW118911   5.464   3.502   4.781
 6004SOL    HW218912   5.553   3.584   4.891
 6005SOL     OW18913   3.715   3.918   0.426
 6005SOL    HW118914   3.667   3.832   0.407
 6005SOL    HW218915   3.809   3.898   0.455
 6006SOL     OW18916   3.242   6.715   5.793
 6006SOL    HW118917   3.266   6.810   5.813
 6006SOL    HW218918   3.142   6.705   5.794
 6007SOL     OW18919   2.890   7.005   3.984
 6007SOL    HW118920   2.912   6.937   4.053
 6007SOL    HW218921   2.894   0.068   4.024
 6008SOL     OW18922   2.421   3.420   6.850
 6008SOL    HW118923   2.423   3.406   6.948
 6008SOL    HW218924   2.326   3.413   6.817
 6009SOL     OW18925   2.218   5.481   2.218
 6009SOL    HW118926   2.137   5.485   2.159
 6009SOL    HW218927   2.284   5.418   2.178
 6010SOL     OW18928   0.482   5.389   6.452
 6010SOL    HW118929   0.498   5.472   6.505
 6010SOL    HW218930   0.513   5.402   6.358
 6011SOL     OW18931   5.143   2.011   3.404
 6011SOL    HW118932   5.162   1.975   3.313
 6011SOL    HW218933   5.105   2.103   3.396
 6012SOL     OW18934   6.111   1.377   5.607
 6012SOL    HW118935   6.041   1.397   5.675
 6012SOL    HW218936   6.095   1.432   5.525
 6013SOL     OW18937   6.069   2.346   3.358
 6013SOL    HW118938   6.012   2.304   3.287
 6013SOL    HW218939   6.165   2.333   3.335
 6014SOL     OW18940   4.065   3.395   3.893
 6014SOL    HW118941   4.059   3.350   3.982
 6014SOL    HW218942   4.021   3.337   3.823
 6015SOL     OW18943   6.565   0.229   3.282
 6015SOL    HW118944   6.594   0.138   3.311
 6015SOL    HW218945   6.558   0.231   3.182
 6016SOL     OW18946   4.424   1.942   4.321
 6016SOL    HW118947   4.521   1.923   4.303
 6016SOL    HW218948   4.399   1.906   4.411
 6017SOL     OW18949   1.154   2.759   5.078
 6017SOL    HW118950   1.169   2.713   4.990
 6017SOL    HW218951   1.075   2.717   5.124
 6018SOL     OW18952   2.046   1.156   4.096
 6018SOL    HW118953   2.010   1.212   4.022
 6018SOL    HW218954   2.006   1.065   4.092
 6019SOL     OW18955   6.742   3.262   6.240
 6019SOL    HW118956   6.671   3.332   6.237
 6019SOL    HW218957   6.831   3.304   6.219
 6020SOL     OW18958   0.456   5.575   4.795
 6020SOL    HW118959   0.555   5.575   4.783
 6020SOL    HW218960   0.422   5.669   4.792
 6021SOL     OW18961   5.720   0.193   4.169
 6021SOL    HW118962   5.797   0.156   4.222
 6021SOL    HW218963   5.636   0.145   4.195
 6022SOL     OW18964   6.535   3.483   1.321
 6022SOL    HW118965   6.466   3.522   1.383
 6022SOL    HW218966   6.624   3.525   1.341
 6023SOL     OW18967   3.852   0.145   2.981
 6023SOL    HW118968   3.893   0.213   2.921
 6023SOL    HW218969   3.808   0.192   3.058
 6024SOL     OW18970   0.235   6.508   0.163
 6024SOL    HW118971   0.281   6.585   0.208
 6024SOL    HW218972   0.284   6.423   0.185
 6025SOL     OW18973   3.828   0.769   5.530
 6025SOL    HW118974   3.864   0.726   5.447
 6025SOL    HW218975   3.903   0.811   5.581
 6026SOL     OW18976   5.160   6.590   3.599
 6026SOL    HW118977   5.072   6.542   3.590
 6026SOL    HW218978   5.194   6.614   3.508
 6027SOL     OW18979   5.720   4.126   6.169
 6027SOL    HW118980   5.729   4.225   6.160
 6027SOL    HW218981   5.691   4.103   6.262
 6028SOL     OW18982   6.660   5.528   6.455
 6028SOL    HW118983   6.598   5.549   6.530
 6028SOL    HW218984   6.714   5.446   6.477
 6029SOL     OW18985   2.827   1.371   2.184
 6029SOL    HW118986   2.784   1.444   2.131
 6029SOL    HW218987   2.848   1.403   2.276
 6030SOL     OW18988   6.570   2.950   5.006
 6030SOL    HW118989   6.664   2.970   4.980
 6030SOL    HW218990   6.513   3.030   4.987
 6031SOL     OW18991   0.121   0.288   4.027
 6031SOL    HW118992   0.049   0.321   4.088
 6031SOL    HW218993   0.080   0.236   3.952
 6032SOL     OW18994   3.062   0.272   3.281
 6032SOL    HW118995   3.013   0.220   3.351
 6032SOL    HW218996   3.012   0.266   3.195
 6033SOL     OW18997   0.688   1.765   2.803
 6033SOL    HW118998   0.788   1.775   2.810
 6033SOL    HW218999   0.645   1.805   2.883
 6034SOL     OW19000   0.733   0.570   1.346
 6034SOL    HW119001   0.818   0.621   1.346
 6034SOL    HW219002   0.735   0.501   1.273
 6035SOL     OW19003   2.162   1.441   2.701
 6035SOL    HW119004   2.201   1.523   2.744
 6035SOL    HW219005   2.137   1.375   2.773
 6036SOL     OW19006   6.826   3.527   6.767
 6036SOL    HW119007   6.831   3.622   6.737
 6036SOL    HW219008   6.744   3.484   6.731
 6037SOL     OW19009   4.570   0.618   0.118
 6037SOL    HW119010   4.589   0.674   0.038
 6037SOL    HW219011   4.498   0.552   0.096
 6038SOL     OW19012   2.370   2.173   0.261
 6038SOL    HW119013   2.352   2.079   0.233
 6038SOL    HW219014   2.468   2.184   0.281
 6039SOL     OW19015   2.960   3.838   3.420
 6039SOL    HW119016   2.933   3.823   3.515
 6039SOL    HW219017   2.932   3.760   3.364
 6040SOL     OW19018   6.782   0.396   0.927
 6040SOL    HW119019   6.823   0.305   0.939
 6040SOL    HW219020   6.836   0.448   0.860
 6041SOL     OW19021   0.702   3.212   4.417
 6041SOL    HW119022   0.631   3.277   4.390
 6041SOL    HW219023   0.743   3.172   4.335
 6042SOL     OW19024   3.007   5.867   2.413
 6042SOL    HW119025   2.959   5.821   2.488
 6042SOL    HW219026   3.102   5.881   2.438
 6043SOL     OW19027   2.235   4.613   0.932
 6043SOL    HW119028   2.196   4.703   0.950
 6043SOL    HW219029   2.191   4.545   0.992
 6044SOL     OW19030   6.427   3.587   6.915
 6044SOL    HW119031   6.501   3.540   6.867
 6044SOL    HW219032   6.362   3.624   6.848
 6045SOL     OW19033   4.359   1.351   4.069
 6045SOL    HW119034   4.334   1.279   4.133
 6045SOL    HW219035   4.350   1.317   3.975
 6046SOL     OW19036   3.581   3.848   2.958
 6046SOL    HW119037   3.484   3.825   2.970
 6046SOL    HW219038   3.602   3.932   3.009
 6047SOL     OW19039   6.925   1.098   0.603
 6047SOL    HW119040   6.906   1.067   0.509
 6047SOL    HW219041   6.900   1.194   0.612
 6048SOL     OW19042   6.300   5.821   3.295
 6048SOL    HW119043   6.287   5.819   3.196
 6048SOL    HW219044   6.272   5.734   3.334
 6049SOL     OW19045   5.985   4.949   0.333
 6049SOL    HW119046   5.954   4.974   0.242
 6049SOL    HW219047   6.082   4.926   0.331
 6050SOL     OW19048   2.305   5.754   3.436
 6050SOL    HW119049   2.368   5.829   3.458
 6050SOL    HW219050   2.355   5.667   3.438
 6051SOL     OW19051   0.316   2.252   2.848
 6051SOL    HW119052   0.302   2.344   2.883
 6051SOL    HW219053   0.235   2.223   2.797
 6052SOL     OW19054   5.417   5.504   6.967
 6052SOL    HW119055   5.472   5.458   6.897
 6052SOL    HW219056   5.465   5.586   6.998
 6053SOL     OW19057   3.710   1.813   6.127
 6053SOL    HW119058   3.725   1.812   6.028
 6053SOL    HW219059   3.648   1.739   6.152
 6054SOL     OW19060   4.379   3.724   6.305
 6054SOL    HW119061   4.474   3.736   6.277
 6054SOL    HW219062   4.361   3.627   6.323
 6055SOL     OW19063   3.294   4.847   1.880
 6055SOL    HW119064   3.239   4.900   1.816
 6055SOL    HW219065   3.380   4.895   1.899
 6056SOL     OW19066   5.402   6.718   3.108
 6056SOL    HW119067   5.331   6.650   3.090
 6056SOL    HW219068   5.492   6.678   3.090
 6057SOL     OW19069   5.417   1.366   4.409
 6057SOL    HW119070   5.320   1.371   4.383
 6057SOL    HW219071   5.424   1.325   4.500
 6058SOL     OW19072   6.882   4.111   6.796
 6058SOL    HW119073   6.876   4.210   6.787
 6058SOL    HW219074   6.815   4.079   6.863
 6059SOL     OW19075   4.144   1.878   6.475
 6059SOL    HW119076   4.107   1.848   6.388
 6059SOL    HW219077   4.123   1.811   6.546
 6060SOL     OW19078   2.558   2.108   1.430
 6060SOL    HW119079   2.465   2.132   1.403
 6060SOL    HW219080   2.623   2.142   1.362
 6061SOL     OW19081   2.222   4.761   6.496
 6061SOL    HW119082   2.289   4.825   6.459
 6061SOL    HW219083   2.130   4.795   6.479
 6062SOL     OW19084   1.725   1.767   4.894
 6062SOL    HW119085   1.748   1.677   4.932
 6062SOL    HW219086   1.742   1.838   4.962
 6063SOL     OW19087   4.153   3.757   5.544
 6063SOL    HW119088   4.166   3.832   5.609
 6063SOL    HW219089   4.220   3.685   5.561
 6064SOL     OW19090   5.831   5.534   0.394
 6064SOL    HW119091   5.753   5.594   0.376
 6064SOL    HW219092   5.829   5.457   0.330
 6065SOL     OW19093   1.719   5.465   1.192
 6065SOL    HW119094   1.670   5.479   1.279
 6065SOL    HW219095   1.815   5.450   1.211
 6066SOL     OW19096   4.922   5.877   2.832
 6066SOL    HW119097   4.871   5.806   2.881
 6066SOL    HW219098   4.988   5.835   2.771
 6067SOL     OW19099   6.422   5.253   5.577
 6067SOL    HW119100   6.497   5.220   5.520
 6067SOL    HW219101   6.334   5.228   5.535
 6068SOL     OW19102   4.911   2.408   3.861
 6068SOL    HW119103   4.870   2.436   3.947
 6068SOL    HW219104   4.887   2.313   3.842
 6069SOL     OW19105   0.760   5.176   5.411
 6069SOL    HW119106   0.728   5.183   5.317
 6069SOL    HW219107   0.732   5.089   5.450
 6070SOL     OW19108   2.452   0.534   1.485
 6070SOL    HW119109   2.395   0.525   1.403
 6070SOL    HW219110   2.431   0.459   1.548
 6071SOL     OW19111   6.570   6.593   6.582
 6071SOL    HW119112   6.620   6.511   6.611
 6071SOL    HW219113   6.477   6.568   6.556
 6072SOL     OW19114   0.420   2.502   6.741
 6072SOL    HW119115   0.481   2.426   6.721
 6072SOL    HW219116   0.344   2.471   6.798
 6073SOL     OW19117   4.567   4.657   6.786
 6073SOL    HW119118   4.531   4.589   6.850
 6073SOL    HW219119   4.626   4.611   6.720
 6074SOL     OW19120   1.386   5.821   2.734
 6074SOL    HW119121   1.293   5.840   2.767
 6074SOL    HW219122   1.383   5.804   2.636
 6075SOL     OW19123   6.890   6.256   0.422
 6075SOL    HW119124   6.892   6.159   0.398
 6075SOL    HW219125   6.876   6.265   0.521
 6076SOL     OW19126   0.026   6.133   3.324
 6076SOL    HW119127   7.016   6.151   3.233
 6076SOL    HW219128   0.119   6.099   3.315
 6077SOL     OW19129   4.764   5.835   3.148
 6077SOL    HW119130   4.862   5.857   3.141
 6077SOL    HW219131   4.740   5.769   3.077
 6078SOL     OW19132   5.569   4.011   0.347
 6078SOL    HW119133   5.558   4.032   0.250
 6078SOL    HW219134   5.484   3.971   0.382
 6079SOL     OW19135   3.209   1.939   0.053
 6079SOL    HW119136   3.207   1.882   7.000
 6079SOL    HW219137   3.209   1.881   0.134
 6080SOL     OW19138   5.869   3.383   5.584
 6080SOL    HW119139   5.822   3.295   5.587
 6080SOL    HW219140   5.960   3.372   5.544
 6081SOL     OW19141   2.086   4.812   3.818
 6081SOL    HW119142   2.130   4.745   3.758
 6081SOL    HW219143   2.146   4.831   3.896
 6082SOL     OW19144   4.244   1.340   1.468
 6082SOL    HW119145   4.233   1.273   1.541
 6082SOL    HW219146   4.154   1.373   1.439
 6083SOL     OW19147   5.505   0.948   5.590
 6083SOL    HW119148   5.550   0.968   5.677
 6083SOL    HW219149   5.492   1.033   5.539
 6084SOL     OW19150   6.135   5.002   3.564
 6084SOL    HW119151   6.102   5.079   3.510
 6084SOL    HW219152   6.083   4.997   3.650
 6085SOL     OW19153   0.725   6.387   0.947
 6085SOL    HW119154   0.824   6.379   0.943
 6085SOL    HW219155   0.684   6.301   0.914
 6086SOL     OW19156   4.642   3.022   0.518
 6086SOL    HW119157   4.659   2.995   0.424
 6086SOL    HW219158   4.690   3.108   0.537
 6087SOL     OW19159   3.904   0.933   6.105
 6087SOL    HW119160   3.986   0.896   6.150
 6087SOL    HW219161   3.929   0.968   6.015
 6088SOL     OW19162   3.852   6.193   2.845
 6088SOL    HW119163   3.932   6.214   2.789
 6088SOL    HW219164   3.794   6.274   2.853
 6089SOL     OW19165   6.466   5.387   2.693
 6089SOL    HW119166   6.435   5.293   2.701
 6089SOL    HW219167   6.398   5.441   2.643
 6090SOL     OW19168   4.031   6.214   4.534
 6090SOL    HW119169   4.089   6.178   4.606
 6090SOL    HW219170   4.030   6.152   4.456
 6091SOL     OW19171   0.081   2.967   1.951
 6091SOL    HW119172   0.023   2.885   1.952
 6091SOL    HW219173   0.061   3.023   2.031
 6092SOL     OW19174   1.560   7.011   1.122
 6092SOL    HW119175   1.660   7.015   1.132
 6092SOL    HW219176   1.537   6.951   1.046
 6093SOL     OW19177   3.725   3.280   2.659
 6093SOL    HW119178   3.714   3.314   2.565
 6093SOL    HW219179   3.767   3.189   2.657
 6094SOL     OW19180   0.311   6.721   5.320
 6094SOL    HW119181   0.359   6.753   5.401
 6094SOL    HW219182   0.292   6.799   5.260
 6095SOL     OW19183   5.413   5.250   2.498
 6095SOL    HW119184   5.365   5.163   2.509
 6095SOL    HW219185   5.368   5.320   2.555
 6096SOL     OW19186   4.791   6.445   2.657
 6096SOL    HW119187   4.797   6.545   2.659
 6096SOL    HW219188   4.876   6.406   2.694
 6097SOL     OW19189   2.306   5.065   1.214
 6097SOL    HW119190   2.324   4.971   1.242
 6097SOL    HW219191   2.243   5.108   1.279
 6098SOL     OW19192   6.239   1.757   5.516
 6098SOL    HW119193   6.164   1.816   5.548
 6098SOL    HW219194   6.224   1.735   5.419
 6099SOL     OW19195   3.403   7.017   5.585
 6099SOL    HW119196   3.436   6.931   5.546
 6099SOL    HW219197   3.480   0.051   5.598
 6100SOL     OW19198   6.453   5.352   6.237
 6100SOL    HW119199   6.477   5.351   6.334
 6100SOL    HW219200   6.483   5.266   6.195
 6101SOL     OW19201   0.978   2.804   0.968
 6101SOL    HW119202   0.908   2.743   1.005
 6101SOL    HW219203   1.001   2.874   1.035
 6102SOL     OW19204   2.345   0.504   2.459
 6102SOL    HW119205   2.376   0.556   2.379
 6102SOL    HW219206   2.378   0.409   2.452
 6103SOL     OW19207   5.499   0.360   2.760
 6103SOL    HW119208   5.488   0.267   2.796
 6103SOL    HW219209   5.528   0.420   2.834
 6104SOL     OW19210   7.008   0.292   5.095
 6104SOL    HW119211   6.927   0.306   5.152
 6104SOL    HW219212   0.048   0.362   5.116
 6105SOL     OW19213   3.577   5.506   6.447
 6105SOL    HW119214   3.617   5.553   6.368
 6105SOL    HW219215   3.480   5.531   6.454
 6106SOL     OW19216   6.143   3.725   5.819
 6106SOL    HW119217   6.079   3.664   5.865
 6106SOL    HW219218   6.168   3.685   5.730
 6107SOL     OW19219   6.608   5.109   5.119
 6107SOL    HW119220   6.530   5.048   5.104
 6107SOL    HW219221   6.674   5.098   5.044
 6108SOL     OW19222   3.129   0.573   6.095
 6108SOL    HW119223   3.095   0.572   6.002
 6108SOL    HW219224   3.077   0.639   6.150
 6109SOL     OW19225   6.844   6.364   3.954
 6109SOL    HW119226   6.936   6.353   3.991
 6109SOL    HW219227   6.848   6.412   3.866
 6110SOL     OW19228   1.087   1.748   4.626
 6110SOL    HW119229   1.012   1.745   4.693
 6110SOL    HW219230   1.049   1.765   4.535
 6111SOL     OW19231   3.169   3.212   1.819
 6111SOL    HW119232   3.094   3.148   1.836
 6111SOL    HW219233   3.254   3.174   1.856
 6112SOL     OW19234   4.842   6.349   3.785
 6112SOL    HW119235   4.745   6.326   3.774
 6112SOL    HW219236   4.860   6.373   3.881
 6113SOL     OW19237   3.619   5.402   1.396
 6113SOL    HW119238   3.664   5.318   1.427
 6113SOL    HW219239   3.526   5.405   1.433
 6114SOL     OW19240   5.534   3.851   1.380
 6114SOL    HW119241   5.486   3.774   1.420
 6114SOL    HW219242   5.469   3.910   1.331
 6115SOL     OW19243   5.632   1.194   4.129
 6115SOL    HW119244   5.617   1.101   4.096
 6115SOL    HW219245   5.662   1.191   4.225
 6116SOL     OW19246   6.323   2.230   0.301
 6116SOL    HW119247   6.418   2.232   0.272
 6116SOL    HW219248   6.280   2.318   0.282
 6117SOL     OW19249   3.014   2.181   0.980
 6117SOL    HW119250   3.100   2.222   1.011
 6117SOL    HW219251   2.995   2.209   0.886
 6118SOL     OW19252   6.191   0.292   1.605
 6118SOL    HW119253   6.155   0.382   1.631
 6118SOL    HW219254   6.182   0.230   1.683
 6119SOL     OW19255   0.315   1.238   6.213
 6119SOL    HW119256   0.261   1.166   6.255
 6119SOL    HW219257   0.272   1.327   6.229
 6120SOL     OW19258   3.150   1.234   3.501
 6120SOL    HW119259   3.157   1.200   3.408
 6120SOL    HW219260   3.189   1.167   3.564
 6121SOL     OW19261   4.144   1.229   6.001
 6121SOL    HW119262   4.154   1.307   5.938
 6121SOL    HW219263   4.048   1.221   6.027
 6122SOL     OW19264   4.880   4.406   4.792
 6122SOL    HW119265   4.877   4.480   4.860
 6122SOL    HW219266   4.963   4.415   4.738
 6123SOL     OW19267   5.937   1.619   5.182
 6123SOL    HW119268   5.853   1.619   5.128
 6123SOL    HW219269   5.978   1.711   5.180
 6124SOL     OW19270   1.861   6.071   3.873
 6124SOL    HW119271   1.854   5.984   3.824
 6124SOL    HW219272   1.948   6.115   3.850
 6125SOL     OW19273   3.037   0.857   5.781
 6125SOL    HW119274   3.070   0.932   5.724
 6125SOL    HW219275   3.072   0.868   5.874
 6126SOL     OW19276   6.259   3.162   6.570
 6126SOL    HW119277   6.247   3.066   6.596
 6126SOL    HW219278   6.239   3.220   6.648
 6127SOL     OW19279   4.936   2.481   3.493
 6127SOL    HW119280   4.854   2.434   3.459
 6127SOL    HW219281   4.930   2.578   3.470
 6128SOL     OW19282   6.542   4.865   4.377
 6128SOL    HW119283   6.537   4.883   4.279
 6128SOL    HW219284   6.619   4.803   4.396
 6129SOL     OW19285   2.001   6.296   3.141
 6129SOL    HW119286   2.016   6.382   3.093
 6129SOL    HW219287   1.981   6.314   3.237
 6130SOL     OW19288   6.801   2.253   6.625
 6130SOL    HW119289   6.738   2.250   6.703
 6130SOL    HW219290   6.894   2.236   6.657
 6131SOL     OW19291   6.228   3.197   2.455
 6131SOL    HW119292   6.235   3.274   2.392
 6131SOL    HW219293   6.261   3.114   2.410
 6132SOL     OW19294   4.611   5.801   6.687
 6132SOL    HW119295   4.554   5.751   6.621
 6132SOL    HW219296   4.552   5.849   6.753
 6133SOL     OW19297   6.957   2.142   3.532
 6133SOL    HW119298   6.887   2.186   3.476
 6133SOL    HW219299   6.917   2.112   3.618
 6134SOL     OW19300   0.883   0.069   5.029
 6134SOL    HW119301   0.842   0.152   5.067
 6134SOL    HW219302   0.858   0.059   4.933
 6135SOL     OW19303   6.067   6.235   0.138
 6135SOL    HW119304   6.048   6.324   0.178
 6135SOL    HW219305   6.010   6.220   0.058
 6136SOL     OW19306   0.934   2.305   2.558
 6136SOL    HW119307   1.000   2.232   2.540
 6136SOL    HW219308   0.865   2.273   2.622
 6137SOL     OW19309   6.903   4.520   1.470
 6137SOL    HW119310   6.868   4.475   1.552
 6137SOL    HW219311   6.894   4.619   1.480
 6138SOL     OW19312   4.991   0.776   2.866
 6138SOL    HW119313   4.970   0.708   2.795
 6138SOL    HW219314   4.971   0.737   2.956
 6139SOL     OW19315   1.540   1.824   5.858
 6139SOL    HW119316   1.630   1.838   5.816
 6139SOL    HW219317   1.502   1.736   5.827
 6140SOL     OW19318   2.593   0.713   4.350
 6140SOL    HW119319   2.620   0.738   4.442
 6140SOL    HW219320   2.493   0.708   4.345
 6141SOL     OW19321   0.448   0.532   0.869
 6141SOL    HW119322   0.462   0.504   0.774
 6141SOL    HW219323   0.380   0.605   0.873
 6142SOL     OW19324   0.409   7.018   1.834
 6142SOL    HW119325   0.323   6.983   1.796
 6142SOL    HW219326   0.485   6.981   1.782
 6143SOL     OW19327   2.179   3.046   5.492
 6143SOL    HW119328   2.119   2.974   5.456
 6143SOL    HW219329   2.214   3.018   5.582
 6144SOL     OW19330   3.008   6.163   2.656
 6144SOL    HW119331   2.974   6.156   2.749
 6144SOL    HW219332   3.052   6.252   2.643
 6145SOL     OW19333   5.588   3.602   4.415
 6145SOL    HW119334   5.615   3.602   4.511
 6145SOL    HW219335   5.489   3.616   4.408
 6146SOL     OW19336   6.328   1.670   5.761
 6146SOL    HW119337   6.281   1.589   5.797
 6146SOL    HW219338   6.299   1.686   5.667
 6147SOL     OW19339   1.555   1.856   5.119
 6147SOL    HW119340   1.470   1.838   5.068
 6147SOL    HW219341   1.557   1.798   5.201
 6148SOL     OW19342   4.001   5.717   6.380
 6148SOL    HW119343   3.982   5.620   6.396
 6148SOL    HW219344   4.083   5.727   6.324
 6149SOL     OW19345   4.081   1.783   1.987
 6149SOL    HW119346   3.989   1.807   2.017
 6149SOL    HW219347   4.090   1.683   1.985
 6150SOL     OW19348   0.286   5.219   3.901
 6150SOL    HW119349   0.297   5.144   3.836
 6150SOL    HW219350   0.333   5.198   3.986
 6151SOL     OW19351   3.562   5.387   2.383
 6151SOL    HW119352   3.650   5.405   2.339
 6151SOL    HW219353   3.577   5.351   2.475
 6152SOL     OW19354   0.716   4.227   2.976
 6152SOL    HW119355   0.693   4.166   3.052
 6152SOL    HW219356   0.651   4.213   2.901
 6153SOL     OW19357   5.958   6.460   1.609
 6153SOL    HW119358   6.012   6.541   1.587
 6153SOL    HW219359   5.911   6.429   1.527
 6154SOL     OW19360   3.726   5.307   3.166
 6154SOL    HW119361   3.672   5.270   3.242
 6154SOL    HW219362   3.823   5.295   3.185
 6155SOL     OW19363   1.712   1.405   4.347
 6155SOL    HW119364   1.795   1.431   4.396
 6155SOL    HW219365   1.641   1.380   4.414
 6156SOL     OW19366   4.811   4.123   2.784
 6156SOL    HW119367   4.800   4.165   2.694
 6156SOL    HW219368   4.865   4.039   2.775
 6157SOL     OW19369   0.458   2.379   1.753
 6157SOL    HW119370   0.463   2.293   1.804
 6157SOL    HW219371   0.366   2.418   1.764
 6158SOL     OW19372   2.873   0.815   6.592
 6158SOL    HW119373   2.962   0.769   6.584
 6158SOL    HW219374   2.883   0.898   6.647
 6159SOL     OW19375   6.194   1.177   0.478
 6159SOL    HW119376   6.215   1.164   0.382
 6159SOL    HW219377   6.241   1.107   0.532
 6160SOL     OW19378   1.380   0.094   0.775
 6160SOL    HW119379   1.450   0.028   0.745
 6160SOL    HW219380   1.413   0.187   0.760
 6161SOL     OW19381   6.166   4.193   0.093
 6161SOL    HW119382   6.163   4.167   7.025
 6161SOL    HW219383   6.244   4.254   0.109
 6162SOL     OW19384   5.971   5.861   1.070
 6162SOL    HW119385   5.995   5.803   0.992
 6162SOL    HW219386   5.947   5.952   1.037
 6163SOL     OW19387   4.887   5.558   2.622
 6163SOL    HW119388   4.940   5.481   2.588
 6163SOL    HW219389   4.850   5.537   2.712
 6164SOL     OW19390   3.636   3.682   4.678
 6164SOL    HW119391   3.677   3.741   4.609
 6164SOL    HW219392   3.655   3.719   4.769
 6165SOL     OW19393   3.760   0.511   6.742
 6165SOL    HW119394   3.713   0.492   6.828
 6165SOL    HW219395   3.759   0.610   6.725
 6166SOL     OW19396   3.245   1.080   5.836
 6166SOL    HW119397   3.296   1.163   5.857
 6166SOL    HW219398   3.300   1.000   5.858
 6167SOL     OW19399   1.562   3.568   2.417
 6167SOL    HW119400   1.501   3.615   2.482
 6167SOL    HW219401   1.507   3.519   2.349
 6168SOL     OW19402   1.018   3.956   3.586
 6168SOL    HW119403   1.020   3.861   3.616
 6168SOL    HW219404   1.111   3.986   3.564
 6169SOL     OW19405   2.663   0.603   0.806
 6169SOL    HW119406   2.623   0.693   0.790
 6169SOL    HW219407   2.762   0.607   0.791
 6170SOL     OW19408   2.699   4.709   1.017
 6170SOL    HW119409   2.708   4.718   1.116
 6170SOL    HW219410   2.714   4.798   0.974
 6171SOL     OW19411   2.238   4.109   2.469
 6171SOL    HW119412   2.276   4.127   2.560
 6171SOL    HW219413   2.201   4.016   2.467
 6172SOL     OW19414   2.319   4.986   1.831
 6172SOL    HW119415   2.388   4.981   1.903
 6172SOL    HW219416   2.249   4.917   1.847
 6173SOL     OW19417   0.901   5.761   3.008
 6173SOL    HW119418   0.866   5.750   2.915
 6173SOL    HW219419   0.836   5.815   3.061
 6174SOL     OW19420   5.935   4.507   1.586
 6174SOL    HW119421   5.868   4.533   1.518
 6174SOL    HW219422   5.973   4.417   1.563
 6175SOL     OW19423   5.561   0.376   3.977
 6175SOL    HW119424   5.599   0.307   4.038
 6175SOL    HW219425   5.487   0.425   4.023
 6176SOL     OW19426   6.650   3.320   0.345
 6176SOL    HW119427   6.654   3.258   0.266
 6176SOL    HW219428   6.559   3.360   0.352
 6177SOL     OW19429   5.807   2.930   2.801
 6177SOL    HW119430   5.726   2.987   2.816
 6177SOL    HW219431   5.834   2.887   2.887
 6178SOL     OW19432   0.044   4.107   1.206
 6178SOL    HW119433   0.050   4.138   1.301
 6178SOL    HW219434   0.025   4.009   1.204
 6179SOL     OW19435   0.116   1.404   5.774
 6179SOL    HW119436   0.024   1.368   5.788
 6179SOL    HW219437   0.179   1.329   5.754
 6180SOL     OW19438   2.750   0.885   6.932
 6180SOL    HW119439   2.724   0.921   7.021
 6180SOL    HW219440   2.692   0.925   6.861
 6181SOL     OW19441   4.451   6.641   6.151
 6181SOL    HW119442   4.473   6.734   6.121
 6181SOL    HW219443   4.351   6.629   6.150
 6182SOL     OW19444   4.812   6.939   5.452
 6182SOL    HW119445   4.762   7.020   5.420
 6182SOL    HW219446   4.850   6.890   5.374
 6183SOL     OW19447   2.136   6.634   2.345
 6183SOL    HW119448   2.190   6.653   2.428
 6183SOL    HW219449   2.163   6.697   2.273
 6184SOL     OW19450   6.595   6.978   5.411
 6184SOL    HW119451   6.521   7.007   5.351
 6184SOL    HW219452   6.559   6.918   5.482
 6185SOL     OW19453   2.617   2.470   0.260
 6185SOL    HW119454   2.637   2.409   0.183
 6185SOL    HW219455   2.549   2.538   0.232
 6186SOL     OW19456   4.057   1.426   3.855
 6186SOL    HW119457   4.114   1.414   3.937
 6186SOL    HW219458   4.104   1.384   3.777
 6187SOL     OW19459   3.189   5.084   4.537
 6187SOL    HW119460   3.200   5.104   4.634
 6187SOL    HW219461   3.136   5.157   4.494
 6188SOL     OW19462   2.444   0.053   2.250
 6188SOL    HW119463   2.429   0.149   2.225
 6188SOL    HW219464   2.511   0.048   2.323
 6189SOL     OW19465   5.549   5.120   3.351
 6189SOL    HW119466   5.567   5.035   3.399
 6189SOL    HW219467   5.491   5.179   3.408
 6190SOL     OW19468   5.063   3.347   5.928
 6190SOL    HW119469   5.030   3.358   5.834
 6190SOL    HW219470   4.985   3.331   5.989
 6191SOL     OW19471   7.014   1.152   6.352
 6191SOL    HW119472   0.065   1.190   6.398
 6191SOL    HW219473   6.981   1.216   6.283
 6192SOL     OW19474   3.366   1.544   0.065
 6192SOL    HW119475   3.403   1.627   0.024
 6192SOL    HW219476   3.268   1.537   0.047
 6193SOL     OW19477   0.086   6.541   1.436
 6193SOL    HW119478   0.069   6.480   1.513
 6193SOL    HW219479   0.013   6.610   1.430
 6194SOL     OW19480   3.142   0.570   1.208
 6194SOL    HW119481   3.160   0.510   1.130
 6194SOL    HW219482   3.221   0.631   1.222
 6195SOL     OW19483   2.463   0.459   5.669
 6195SOL    HW119484   2.447   0.531   5.736
 6195SOL    HW219485   2.510   0.497   5.589
 6196SOL     OW19486   1.355   1.992   5.691
 6196SOL    HW119487   1.335   1.923   5.622
 6196SOL    HW219488   1.440   1.969   5.738
 6197SOL     OW19489   2.361   2.658   2.121
 6197SOL    HW119490   2.269   2.618   2.122
 6197SOL    HW219491   2.369   2.720   2.044
 6198SOL     OW19492   2.868   5.560   1.908
 6198SOL    HW119493   2.933   5.613   1.964
 6198SOL    HW219494   2.915   5.526   1.827
 6199SOL     OW19495   0.293   0.295   6.757
 6199SOL    HW119496   0.198   0.302   6.726
 6199SOL    HW219497   0.350   0.358   6.705
 6200SOL     OW19498   4.301   0.590   5.603
 6200SOL    HW119499   4.215   0.591   5.551
 6200SOL    HW219500   4.332   0.496   5.613
 6201SOL     OW19501   2.618   5.520   4.930
 6201SOL    HW119502   2.580   5.493   4.841
 6201SOL    HW219503   2.668   5.444   4.970
 6202SOL     OW19504   1.941   2.549   1.436
 6202SOL    HW119505   1.920   2.633   1.386
 6202SOL    HW219506   1.935   2.471   1.374
 6203SOL     OW19507   5.846   2.770   4.479
 6203SOL    HW119508   5.824   2.678   4.510
 6203SOL    HW219509   5.863   2.769   4.380
 6204SOL     OW19510   1.209   6.784   5.320
 6204SOL    HW119511   1.297   6.830   5.333
 6204SOL    HW219512   1.153   6.837   5.257
 6205SOL     OW19513   4.349   6.932   6.593
 6205SOL    HW119514   4.280   6.963   6.528
 6205SOL    HW219515   4.440   6.936   6.551
 6206SOL     OW19516   4.496   0.070   4.054
 6206SOL    HW119517   4.514   0.147   4.116
 6206SOL    HW219518   4.406   0.032   4.074
 6207SOL     OW19519   2.244   4.845   4.397
 6207SOL    HW119520   2.336   4.869   4.367
 6207SOL    HW219521   2.245   4.821   4.494
 6208SOL     OW19522   5.563   4.366   5.253
 6208SOL    HW119523   5.637   4.315   5.295
 6208SOL    HW219524   5.542   4.326   5.163
 6209SOL     OW19525   1.165   5.865   0.754
 6209SOL    HW119526   1.164   5.904   0.662
 6209SOL    HW219527   1.071   5.843   0.781
 6210SOL     OW19528   0.419   4.244   3.226
 6210SOL    HW119529   0.413   4.171   3.295
 6210SOL    HW219530   0.419   4.333   3.272
 6211SOL     OW19531   2.387   0.467   4.738
 6211SOL    HW119532   2.317   0.403   4.705
 6211SOL    HW219533   2.446   0.420   4.805
 6212SOL     OW19534   6.730   0.923   4.281
 6212SOL    HW119535   6.670   0.868   4.223
 6212SOL    HW219536   6.736   1.016   4.244
 6213SOL     OW19537   6.445   6.931   0.500
 6213SOL    HW119538   6.421   6.923   0.404
 6213SOL    HW219539   6.363   6.923   0.556
 6214SOL     OW19540   4.988   4.209   2.034
 6214SOL    HW119541   4.940   4.231   1.949
 6214SOL    HW219542   4.946   4.129   2.077
 6215SOL     OW19543   3.606   4.270   1.367
 6215SOL    HW119544   3.604   4.174   1.339
 6215SOL    HW219545   3.590   4.276   1.466
 6216SOL     OW19546   5.878   1.795   2.392
 6216SOL    HW119547   5.905   1.782   2.297
 6216SOL    HW219548   5.825   1.716   2.423
 6217SOL     OW19549   4.464   1.306   1.323
 6217SOL    HW119550   4.403   1.334   1.397
 6217SOL    HW219551   4.415   1.312   1.236
 6218SOL     OW19552   4.421   6.254   4.658
 6218SOL    HW119553   4.468   6.284   4.741
 6218SOL    HW219554   4.486   6.244   4.584
 6219SOL     OW19555   0.333   0.663   4.667
 6219SOL    HW119556   0.268   0.629   4.735
 6219SOL    HW219557   0.355   0.590   4.602
 6220SOL     OW19558   1.278   3.602   4.897
 6220SOL    HW119559   1.277   3.523   4.835
 6220SOL    HW219560   1.235   3.577   4.984
 6221SOL     OW19561   4.650   4.675   4.393
 6221SOL    HW119562   4.587   4.605   4.427
 6221SOL    HW219563   4.667   4.742   4.465
 6222SOL     OW19564   6.925   1.849   1.347
 6222SOL    HW119565   7.000   1.908   1.376
 6222SOL    HW219566   6.951   1.800   1.264
 6223SOL     OW19567   5.296   4.983   3.454
 6223SOL    HW119568   5.288   5.051   3.527
 6223SOL    HW219569   5.233   5.006   3.380
 6224SOL     OW19570   3.072   0.372   4.609
 6224SOL    HW119571   3.015   0.290   4.601
 6224SOL    HW219572   3.088   0.411   4.518
 6225SOL     OW19573   3.767   1.778   6.501
 6225SOL    HW119574   3.706   1.856   6.511
 6225SOL    HW219575   3.714   1.695   6.487
 6226SOL     OW19576   0.198   6.194   4.367
 6226SOL    HW119577   0.188   6.115   4.307
 6226SOL    HW219578   0.107   6.227   4.394
 6227SOL     OW19579   2.889   4.242   0.136
 6227SOL    HW119580   2.800   4.259   0.177
 6227SOL    HW219581   2.895   4.146   0.108
 6228SOL     OW19582   6.930   2.253   3.097
 6228SOL    HW119583   6.947   2.167   3.050
 6228SOL    HW219584   7.002   2.270   3.163
 6229SOL     OW19585   1.315   2.477   2.411
 6229SOL    HW119586   1.410   2.506   2.424
 6229SOL    HW219587   1.262   2.500   2.492
 6230SOL     OW19588   1.867   2.636   3.988
 6230SOL    HW119589   1.848   2.599   4.079
 6230SOL    HW219590   1.948   2.592   3.950
 6231SOL     OW19591   6.464   4.320   2.568
 6231SOL    HW119592   6.440   4.292   2.661
 6231SOL    HW219593   6.560   4.298   2.551
 6232SOL     OW19594   0.610   0.978   6.908
 6232SOL    HW119595   0.583   1.066   6.869
 6232SOL    HW219596   0.631   0.914   6.835
 6233SOL     OW19597   4.296   0.806   6.032
 6233SOL    HW119598   4.220   0.812   6.096
 6233SOL    HW219599   4.359   0.882   6.048
 6234SOL     OW19600   2.171   2.049   4.056
 6234SOL    HW119601   2.141   2.143   4.041
 6234SOL    HW219602   2.265   2.049   4.091
 6235SOL     OW19603   1.649   5.174   1.420
 6235SOL    HW119604   1.660   5.081   1.456
 6235SOL    HW219605   1.714   5.235   1.465
 6236SOL     OW19606   0.250   4.007   0.253
 6236SOL    HW119607   0.222   3.928   0.308
 6236SOL    HW219608   0.208   4.089   0.291
 6237SOL     OW19609   3.522   6.250   6.041
 6237SOL    HW119610   3.506   6.335   6.092
 6237SOL    HW219611   3.542   6.271   5.946
 6238SOL     OW19612   5.485   3.175   1.062
 6238SOL    HW119613   5.418   3.214   1.125
 6238SOL    HW219614   5.537   3.104   1.109
 6239SOL     OW19615   3.547   6.234   4.414
 6239SOL    HW119616   3.549   6.144   4.457
 6239SOL    HW219617   3.550   6.224   4.315
 6240SOL     OW19618   2.462   3.908   0.313
 6240SOL    HW119619   2.488   3.915   0.217
 6240SOL    HW219620   2.396   3.834   0.325
 6241SOL     OW19621   3.884   6.526   2.665
 6241SOL    HW119622   3.867   6.546   2.762
 6241SOL    HW219623   3.930   6.604   2.623
 6242SOL     OW19624   3.437   1.899   2.703
 6242SOL    HW119625   3.414   1.818   2.757
 6242SOL    HW219626   3.424   1.981   2.759
 6243SOL     OW19627   6.177   6.077   2.783
 6243SOL    HW119628   6.093   6.064   2.836
 6243SOL    HW219629   6.217   5.988   2.761
 6244SOL     OW19630   1.163   1.699   1.587
 6244SOL    HW119631   1.165   1.785   1.536
 6244SOL    HW219632   1.135   1.716   1.682
 6245SOL     OW19633   2.392   3.301   0.299
 6245SOL    HW119634   2.367   3.204   0.291
 6245SOL    HW219635   2.482   3.308   0.342
 6246SOL     OW19636   4.131   6.888   0.146
 6246SOL    HW119637   4.101   6.981   0.124
 6246SOL    HW219638   4.228   6.889   0.167
 6247SOL     OW19639   6.354   0.057   2.854
 6247SOL    HW119640   6.289   0.045   2.928
 6247SOL    HW219641   6.358   7.003   2.799
 6248SOL     OW19642   1.163   5.446   0.895
 6248SOL    HW119643   1.128   5.530   0.936
 6248SOL    HW219644   1.224   5.400   0.959
 6249SOL     OW19645   6.500   3.173   5.991
 6249SOL    HW119646   6.415   3.122   6.003
 6249SOL    HW219647   6.484   3.270   6.009
 6250SOL     OW19648   6.845   4.256   6.442
 6250SOL    HW119649   6.824   4.248   6.540
 6250SOL    HW219650   6.866   4.351   6.420
 6251SOL     OW19651   4.971   1.043   6.897
 6251SOL    HW119652   4.884   1.060   6.942
 6251SOL    HW219653   4.999   1.124   6.845
 6252SOL     OW19654   2.079   6.514   5.363
 6252SOL    HW119655   2.081   6.476   5.456
 6252SOL    HW219656   2.058   6.611   5.368
 6253SOL     OW19657   2.552   3.328   0.789
 6253SOL    HW119658   2.481   3.296   0.727
 6253SOL    HW219659   2.510   3.385   0.860
 6254SOL     OW19660   5.444   0.257   7.004
 6254SOL    HW119661   5.478   0.163   7.011
 6254SOL    HW219662   5.516   0.321   0.003
 6255SOL     OW19663   1.019   3.222   2.914
 6255SOL    HW119664   1.081   3.257   2.844
 6255SOL    HW219665   0.947   3.290   2.931
 6256SOL     OW19666   4.606   5.388   4.343
 6256SOL    HW119667   4.542   5.429   4.277
 6256SOL    HW219668   4.644   5.460   4.402
 6257SOL     OW19669   3.950   2.688   6.776
 6257SOL    HW119670   3.957   2.786   6.793
 6257SOL    HW219671   3.854   2.661   6.773
 6258SOL     OW19672   4.631   2.130   3.146
 6258SOL    HW119673   4.698   2.127   3.072
 6258SOL    HW219674   4.646   2.054   3.208
 6259SOL     OW19675   3.255   2.411   1.720
 6259SOL    HW119676   3.277   2.474   1.645
 6259SOL    HW219677   3.326   2.341   1.727
 6260SOL     OW19678   4.003   3.976   1.836
 6260SOL    HW119679   3.911   4.004   1.863
 6260SOL    HW219680   4.005   3.956   1.738
 6261SOL     OW19681   4.808   6.441   6.334
 6261SOL    HW119682   4.795   6.391   6.249
 6261SOL    HW219683   4.726   6.494   6.355
 6262SOL     OW19684   0.234   6.078   5.317
 6262SOL    HW119685   0.185   6.040   5.239
 6262SOL    HW219686   0.195   6.167   5.341
 6263SOL     OW19687   6.846   0.405   1.432
 6263SOL    HW119688   6.893   0.472   1.490
 6263SOL    HW219689   6.823   0.446   1.345
 6264SOL     OW19690   2.576   1.018   0.384
 6264SOL    HW119691   2.498   1.047   0.440
 6264SOL    HW219692   2.650   0.988   0.444
 6265SOL     OW19693   6.650   3.705   0.543
 6265SOL    HW119694   6.602   3.629   0.587
 6265SOL    HW219695   6.629   3.705   0.445
 6266SOL     OW19696   2.458   6.908   2.841
 6266SOL    HW119697   2.486   6.856   2.761
 6266SOL    HW219698   2.491   7.002   2.834
 6267SOL     OW19699   3.001   6.339   6.514
 6267SOL    HW119700   2.942   6.273   6.560
 6267SOL    HW219701   3.048   6.395   6.583
 6268SOL     OW19702   2.046   6.405   2.255
 6268SOL    HW119703   1.958   6.381   2.294
 6268SOL    HW219704   2.067   6.501   2.273
 6269SOL     OW19705   6.895   4.700   6.214
 6269SOL    HW119706   6.969   4.747   6.261
 6269SOL    HW219707   6.924   4.675   6.122
 6270SOL     OW19708   0.927   1.416   4.016
 6270SOL    HW119709   1.018   1.449   4.044
 6270SOL    HW219710   0.879   1.380   4.096
 6271SOL     OW19711   5.487   1.934   1.059
 6271SOL    HW119712   5.466   2.015   1.005
 6271SOL    HW219713   5.527   1.962   1.147
 6272SOL     OW19714   2.832   2.235   3.520
 6272SOL    HW119715   2.895   2.218   3.597
 6272SOL    HW219716   2.741   2.202   3.544
 6273SOL     OW19717   3.630   1.296   2.640
 6273SOL    HW119718   3.560   1.347   2.590
 6273SOL    HW219719   3.586   1.229   2.700
 6274SOL     OW19720   2.831   5.752   6.703
 6274SOL    HW119721   2.901   5.760   6.631
 6274SOL    HW219722   2.788   5.841   6.717
 6275SOL     OW19723   3.337   0.848   4.257
 6275SOL    HW119724   3.306   0.943   4.263
 6275SOL    HW219725   3.314   0.811   4.167
 6276SOL     OW19726   0.629   5.774   3.706
 6276SOL    HW119727   0.552   5.711   3.718
 6276SOL    HW219728   0.711   5.723   3.683
 6277SOL     OW19729   6.378   3.454   4.305
 6277SOL    HW119730   6.314   3.523   4.272
 6277SOL    HW219731   6.436   3.494   4.376
 6278SOL     OW19732   4.521   1.232   3.443
 6278SOL    HW119733   4.565   1.299   3.383
 6278SOL    HW219734   4.505   1.147   3.392
 6279SOL     OW19735   3.843   2.182   5.583
 6279SOL    HW119736   3.862   2.254   5.650
 6279SOL    HW219737   3.840   2.221   5.491
 6280SOL     OW19738   1.876   5.425   5.209
 6280SOL    HW119739   1.879   5.332   5.174
 6280SOL    HW219740   1.969   5.455   5.233
 6281SOL     OW19741   3.424   6.262   4.936
 6281SOL    HW119742   3.331   6.255   4.973
 6281SOL    HW219743   3.488   6.213   4.995
 6282SOL     OW19744   0.860   6.370   4.312
 6282SOL    HW119745   0.830   6.274   4.312
 6282SOL    HW219746   0.880   6.399   4.406
 6283SOL     OW19747   1.225   3.100   4.844
 6283SOL    HW119748   1.130   3.083   4.820
 6283SOL    HW219749   1.255   3.033   4.913
 6284SOL     OW19750   2.897   4.700   0.456
 6284SOL    HW119751   2.910   4.682   0.358
 6284SOL    HW219752   2.800   4.711   0.475
 6285SOL     OW19753   2.004   3.869   2.732
 6285SOL    HW119754   2.054   3.790   2.768
 6285SOL    HW219755   2.035   3.952   2.779
 6286SOL     OW19756   0.184   6.578   3.666
 6286SOL    HW119757   0.186   6.479   3.681
 6286SOL    HW219758   0.253   6.622   3.722
 6287SOL     OW19759   3.593   4.906   3.262
 6287SOL    HW119760   3.583   4.859   3.349
 6287SOL    HW219761   3.690   4.916   3.240
 6288SOL     OW19762   6.809   3.831   1.403
 6288SOL    HW119763   6.756   3.807   1.321
 6288SOL    HW219764   6.786   3.924   1.432
 6289SOL     OW19765   0.211   6.903   2.865
 6289SOL    HW119766   0.235   6.864   2.954
 6289SOL    HW219767   0.117   6.936   2.867
 6290SOL     OW19768   5.783   3.455   4.042
 6290SOL    HW119769   5.852   3.499   3.984
 6290SOL    HW219770   5.798   3.482   4.137
 6291SOL     OW19771   3.639   3.924   4.032
 6291SOL    HW119772   3.734   3.951   4.041
 6291SOL    HW219773   3.618   3.852   4.097
 6292SOL     OW19774   6.277   1.385   0.978
 6292SOL    HW119775   6.233   1.378   1.068
 6292SOL    HW219776   6.363   1.334   0.979
 6293SOL     OW19777   5.816   4.241   5.628
 6293SOL    HW119778   5.816   4.141   5.637
 6293SOL    HW219779   5.806   4.283   5.718
 6294SOL     OW19780   2.979   6.414   0.509
 6294SOL    HW119781   3.040   6.364   0.448
 6294SOL    HW219782   3.024   6.429   0.596
 6295SOL     OW19783   6.339   5.634   6.432
 6295SOL    HW119784   6.384   5.591   6.510
 6295SOL    HW219785   6.263   5.690   6.465
 6296SOL     OW19786   6.156   2.171   3.613
 6296SOL    HW119787   6.164   2.211   3.522
 6296SOL    HW219788   6.065   2.132   3.625
 6297SOL     OW19789   5.534   2.733   6.109
 6297SOL    HW119790   5.630   2.729   6.136
 6297SOL    HW219791   5.477   2.702   6.185
 6298SOL     OW19792   6.213   2.838   4.666
 6298SOL    HW119793   6.299   2.793   4.645
 6298SOL    HW219794   6.214   2.932   4.632
 6299SOL     OW19795   0.295   2.018   6.673
 6299SOL    HW119796   0.276   1.956   6.748
 6299SOL    HW219797   0.293   1.967   6.587
 6300SOL     OW19798   5.211   1.317   3.577
 6300SOL    HW119799   5.199   1.229   3.531
 6300SOL    HW219800   5.122   1.355   3.601
 6301SOL     OW19801   2.879   6.934   0.754
 6301SOL    HW119802   2.862   6.839   0.782
 6301SOL    HW219803   2.937   6.935   0.673
 6302SOL     OW19804   6.498   0.865   3.178
 6302SOL    HW119805   6.487   0.794   3.248
 6302SOL    HW219806   6.526   0.823   3.092
 6303SOL     OW19807   2.059   5.307   4.912
 6303SOL    HW119808   2.122   5.329   4.986
 6303SOL    HW219809   1.986   5.376   4.909
 6304SOL     OW19810   4.535   0.921   4.886
 6304SOL    HW119811   4.536   0.981   4.806
 6304SOL    HW219812   4.594   0.842   4.869
 6305SOL     OW19813   4.970   6.885   2.816
 6305SOL    HW119814   4.905   6.836   2.758
 6305SOL    HW219815   5.063   6.869   2.783
 6306SOL     OW19816   6.306   2.570   4.656
 6306SOL    HW119817   6.215   2.575   4.696
 6306SOL    HW219818   6.367   2.519   4.717
 6307SOL     OW19819   2.369   4.221   1.079
 6307SOL    HW119820   2.425   4.261   1.007
 6307SOL    HW219821   2.413   4.235   1.167
 6308SOL     OW19822   3.925   2.509   6.404
 6308SOL    HW119823   3.911   2.422   6.452
 6308SOL    HW219824   3.886   2.584   6.458
 6309SOL     OW19825   6.512   2.231   5.275
 6309SOL    HW119826   6.467   2.280   5.200
 6309SOL    HW219827   6.468   2.142   5.289
 6310SOL     OW19828   0.401   5.784   5.255
 6310SOL    HW119829   0.413   5.861   5.193
 6310SOL    HW219830   0.387   5.818   5.348
 6311SOL     OW19831   6.453   6.991   4.718
 6311SOL    HW119832   6.429   6.928   4.644
 6311SOL    HW219833   6.488   6.939   4.796
 6312SOL     OW19834   5.789   3.985   5.642
 6312SOL    HW119835   5.692   3.961   5.644
 6312SOL    HW219836   5.844   3.902   5.653
 6313SOL     OW19837   2.694   5.720   3.935
 6313SOL    HW119838   2.608   5.752   3.894
 6313SOL    HW219839   2.684   5.715   4.034
 6314SOL     OW19840   0.898   6.991   3.206
 6314SOL    HW119841   0.799   6.981   3.193
 6314SOL    HW219842   0.946   6.958   3.125
 6315SOL     OW19843   1.492   3.924   0.794
 6315SOL    HW119844   1.474   3.835   0.834
 6315SOL    HW219845   1.418   3.947   0.730
 6316SOL     OW19846   4.030   1.202   4.479
 6316SOL    HW119847   4.040   1.283   4.538
 6316SOL    HW219848   4.063   1.121   4.528
 6317SOL     OW19849   6.854   6.090   4.116
 6317SOL    HW119850   6.792   6.043   4.179
 6317SOL    HW219851   6.806   6.107   4.029
 6318SOL     OW19852   1.375   2.809   3.634
 6318SOL    HW119853   1.405   2.888   3.581
 6318SOL    HW219854   1.279   2.820   3.659
 6319SOL     OW19855   1.237   2.064   3.149
 6319SOL    HW119856   1.184   2.127   3.207
 6319SOL    HW219857   1.185   2.044   3.066
 6320SOL     OW19858   0.231   2.168   1.933
 6320SOL    HW119859   0.151   2.144   1.988
 6320SOL    HW219860   0.206   2.168   1.836
 6321SOL     OW19861   2.532   4.192   5.614
 6321SOL    HW119862   2.626   4.167   5.636
 6321SOL    HW219863   2.526   4.213   5.516
 6322SOL     OW19864   2.321   6.555   0.555
 6322SOL    HW119865   2.383   6.549   0.633
 6322SOL    HW219866   2.299   6.651   0.536
 6323SOL     OW19867   4.432   1.737   1.911
 6323SOL    HW119868   4.517   1.707   1.868
 6323SOL    HW219869   4.376   1.657   1.932
 6324SOL     OW19870   3.212   1.472   1.900
 6324SOL    HW119871   3.292   1.495   1.845
 6324SOL    HW219872   3.160   1.400   1.855
 6325SOL     OW19873   2.234   3.080   3.043
 6325SOL    HW119874   2.149   3.062   3.093
 6325SOL    HW219875   2.295   3.136   3.098
 6326SOL     OW19876   4.483   6.155   1.950
 6326SOL    HW119877   4.484   6.245   1.993
 6326SOL    HW219878   4.417   6.155   1.874
 6327SOL     OW19879   4.447   5.242   5.194
 6327SOL    HW119880   4.352   5.211   5.196
 6327SOL    HW219881   4.481   5.251   5.287
 6328SOL     OW19882   2.875   4.527   0.895
 6328SOL    HW119883   2.815   4.601   0.927
 6328SOL    HW219884   2.949   4.514   0.961
 6329SOL     OW19885   0.814   2.339   3.278
 6329SOL    HW119886   0.778   2.422   3.321
 6329SOL    HW219887   0.746   2.303   3.214
 6330SOL     OW19888   3.246   0.263   6.854
 6330SOL    HW119889   3.212   0.173   6.882
 6330SOL    HW219890   3.345   0.259   6.840
 6331SOL     OW19891   5.528   2.266   1.471
 6331SOL    HW119892   5.573   2.346   1.431
 6331SOL    HW219893   5.477   2.294   1.552
 6332SOL     OW19894   3.535   6.362   2.082
 6332SOL    HW119895   3.557   6.292   2.015
 6332SOL    HW219896   3.561   6.330   2.173
 6333SOL     OW19897   2.051   5.567   2.471
 6333SOL    HW119898   2.113   5.548   2.395
 6333SOL    HW219899   2.101   5.613   2.544
 6334SOL     OW19900   2.335   0.130   1.542
 6334SOL    HW119901   2.334   0.052   1.480
 6334SOL    HW219902   2.421   0.132   1.593
 6335SOL     OW19903   6.353   0.599   0.092
 6335SOL    HW119904   6.308   0.545   0.163
 6335SOL    HW219905   6.313   0.691   0.090
 6336SOL     OW19906   1.723   2.623   5.141
 6336SOL    HW119907   1.648   2.558   5.152
 6336SOL    HW219908   1.691   2.715   5.162
 6337SOL     OW19909   0.980   4.419   5.266
 6337SOL    HW119910   0.946   4.496   5.212
 6337SOL    HW219911   1.035   4.359   5.208
 6338SOL     OW19912   3.841   1.056   3.757
 6338SOL    HW119913   3.747   1.080   3.780
 6338SOL    HW219914   3.858   1.074   3.661
 6339SOL     OW19915   6.876   3.100   4.659
 6339SOL    HW119916   6.909   3.117   4.751
 6339SOL    HW219917   6.951   3.109   4.594
 6340SOL     OW19918   2.998   5.100   3.797
 6340SOL    HW119919   3.037   5.022   3.748
 6340SOL    HW219920   3.058   5.123   3.875
 6341SOL     OW19921   5.771   4.910   1.711
 6341SOL    HW119922   5.863   4.919   1.673
 6341SOL    HW219923   5.768   4.950   1.803
 6342SOL     OW19924   0.729   3.706   0.520
 6342SOL    HW119925   0.760   3.751   0.604
 6342SOL    HW219926   0.747   3.766   0.442
 6343SOL     OW19927   3.572   1.389   6.833
 6343SOL    HW119928   3.672   1.377   6.831
 6343SOL    HW219929   3.550   1.473   6.883
 6344SOL     OW19930   5.704   5.088   4.216
 6344SOL    HW119931   5.792   5.109   4.175
 6344SOL    HW219932   5.692   4.989   4.222
 6345SOL     OW19933   1.984   2.358   1.199
 6345SOL    HW119934   2.081   2.381   1.188
 6345SOL    HW219935   1.957   2.293   1.128
 6346SOL     OW19936   1.030   4.875   4.503
 6346SOL    HW119937   1.052   4.804   4.570
 6346SOL    HW219938   1.106   4.884   4.439
 6347SOL     OW19939   2.994   0.170   0.268
 6347SOL    HW119940   2.972   0.206   0.358
 6347SOL    HW219941   3.079   0.211   0.235
 6348SOL     OW19942   0.167   2.177   4.701
 6348SOL    HW119943   0.103   2.219   4.637
 6348SOL    HW219944   0.171   2.232   4.785
 6349SOL     OW19945   0.224   0.660   0.143
 6349SOL    HW119946   0.284   0.660   0.063
 6349SOL    HW219947   0.275   0.688   0.224
 6350SOL     OW19948   6.951   5.135   3.416
 6350SOL    HW119949   6.999   5.084   3.486
 6350SOL    HW219950   6.996   5.223   3.402
 6351SOL     OW19951   0.110   2.419   2.663
 6351SOL    HW119952   0.085   2.322   2.668
 6351SOL    HW219953   0.032   2.475   2.692
 6352SOL     OW19954   6.091   4.347   2.624
 6352SOL    HW119955   6.086   4.344   2.724
 6352SOL    HW219956   6.169   4.405   2.597
 6353SOL     OW19957   6.194   0.123   2.385
 6353SOL    HW119958   6.161   0.176   2.307
 6353SOL    HW219959   6.183   0.176   2.469
 6354SOL     OW19960   6.321   6.656   5.162
 6354SOL    HW119961   6.316   6.712   5.245
 6354SOL    HW219962   6.388   6.583   5.176
 6355SOL     OW19963   0.742   1.464   0.812
 6355SOL    HW119964   0.698   1.403   0.878
 6355SOL    HW219965   0.740   1.558   0.847
 6356SOL     OW19966   3.340   3.850   1.303
 6356SOL    HW119967   3.365   3.834   1.207
 6356SOL    HW219968   3.251   3.808   1.321
 6357SOL     OW19969   4.505   1.754   1.160
 6357SOL    HW119970   4.513   1.763   1.061
 6357SOL    HW219971   4.522   1.842   1.204
 6358SOL     OW19972   1.200   2.869   5.416
 6358SOL    HW119973   1.153   2.909   5.337
 6358SOL    HW219974   1.238   2.941   5.473
 6359SOL     OW19975   0.351   6.905   6.047
 6359SOL    HW119976   0.306   6.906   5.957
 6359SOL    HW219977   0.438   6.855   6.039
 6360SOL     OW19978   2.099   5.108   4.087
 6360SOL    HW119979   2.153   5.191   4.099
 6360SOL    HW219980   2.063   5.077   4.175
 6361SOL     OW19981   2.765   5.714   5.378
 6361SOL    HW119982   2.773   5.761   5.290
 6361SOL    HW219983   2.759   5.781   5.451
 6362SOL     OW19984   6.524   4.635   6.056
 6362SOL    HW119985   6.488   4.727   6.074
 6362SOL    HW219986   6.534   4.585   6.142
 6363SOL     OW19987   0.570   5.642   3.278
 6363SOL    HW119988   0.567   5.728   3.329
 6363SOL    HW219989   0.526   5.654   3.189
 6364SOL     OW19990   2.551   1.557   6.839
 6364SOL    HW119991   2.624   1.495   6.812
 6364SOL    HW219992   2.538   1.627   6.768
 6365SOL     OW19993   3.747   6.023   2.406
 6365SOL    HW119994   3.767   6.014   2.308
 6365SOL    HW219995   3.720   5.935   2.443
 6366SOL     OW19996   0.763   4.164   5.156
 6366SOL    HW119997   0.734   4.124   5.243
 6366SOL    HW219998   0.847   4.215   5.169
 6367SOL     OW19999   5.210   5.202   2.204
 6367SOL    HW120000   5.172   5.291   2.230
 6367SOL    HW220001   5.250   5.158   2.285
 6368SOL     OW20002   2.636   1.574   1.829
 6368SOL    HW120003   2.720   1.612   1.868
 6368SOL    HW220004   2.559   1.635   1.849
 6369SOL     OW20005   2.608   6.090   5.219
 6369SOL    HW120006   2.641   6.138   5.300
 6369SOL    HW220007   2.515   6.121   5.197
 6370SOL     OW20008   4.907   2.388   2.402
 6370SOL    HW120009   4.934   2.302   2.444
 6370SOL    HW220010   4.970   2.412   2.329
 6371SOL     OW20011   4.177   2.012   3.575
 6371SOL    HW120012   4.275   1.999   3.588
 6371SOL    HW220013   4.128   1.970   3.652
 6372SOL     OW20014   2.683   0.285   2.395
 6372SOL    HW120015   2.707   0.382   2.389
 6372SOL    HW220016   2.670   0.260   2.491
 6373SOL     OW20017   3.578   4.981   0.074
 6373SOL    HW120018   3.636   5.059   0.051
 6373SOL    HW220019   3.493   5.013   0.116
 6374SOL     OW20020   3.024   3.639   4.941
 6374SOL    HW120021   3.020   3.544   4.972
 6374SOL    HW220022   2.975   3.697   5.007
 6375SOL     OW20023   2.162   5.906   1.745
 6375SOL    HW120024   2.092   5.869   1.684
 6375SOL    HW220025   2.223   5.966   1.693
 6376SOL     OW20026   1.324   0.960   5.565
 6376SOL    HW120027   1.229   0.941   5.539
 6376SOL    HW220028   1.341   0.924   5.657
 6377SOL     OW20029   0.451   2.439   3.579
 6377SOL    HW120030   0.513   2.508   3.616
 6377SOL    HW220031   0.383   2.484   3.521
 6378SOL     OW20032   4.197   5.482   3.772
 6378SOL    HW120033   4.127   5.540   3.731
 6378SOL    HW220034   4.170   5.457   3.865
 6379SOL     OW20035   1.979   3.998   1.888
 6379SOL    HW120036   2.003   4.086   1.848
 6379SOL    HW220037   2.046   3.974   1.958
 6380SOL     OW20038   0.395   0.422   6.294
 6380SOL    HW120039   0.368   0.333   6.333
 6380SOL    HW220040   0.452   0.406   6.214
 6381SOL     OW20041   4.057   3.210   3.386
 6381SOL    HW120042   4.026   3.135   3.445
 6381SOL    HW220043   4.157   3.218   3.393
 6382SOL     OW20044   1.244   4.327   5.092
 6382SOL    HW120045   1.326   4.359   5.140
 6382SOL    HW220046   1.258   4.233   5.061
 6383SOL     OW20047   4.007   1.748   3.986
 6383SOL    HW120048   4.080   1.682   4.005
 6383SOL    HW220049   3.953   1.762   4.069
 6384SOL     OW20050   6.545   4.778   2.213
 6384SOL    HW120051   6.631   4.735   2.240
 6384SOL    HW220052   6.536   4.776   2.113
 6385SOL     OW20053   1.104   5.348   5.364
 6385SOL    HW120054   1.093   5.394   5.452
 6385SOL    HW220055   1.030   5.375   5.303
 6386SOL     OW20056   2.230   5.686   2.701
 6386SOL    HW120057   2.304   5.627   2.670
 6386SOL    HW220058   2.224   5.684   2.801
 6387SOL     OW20059   5.592   1.679   5.249
 6387SOL    HW120060   5.660   1.728   5.305
 6387SOL    HW220061   5.506   1.728   5.251
 6388SOL     OW20062   2.304   5.422   1.653
 6388SOL    HW120063   2.389   5.398   1.700
 6388SOL    HW220064   2.268   5.507   1.691
 6389SOL     OW20065   1.901   3.859   0.924
 6389SOL    HW120066   1.850   3.868   0.839
 6389SOL    HW220067   1.999   3.864   0.905
 6390SOL     OW20068   0.518   3.552   4.922
 6390SOL    HW120069   0.460   3.502   4.986
 6390SOL    HW220070   0.613   3.545   4.951
 6391SOL     OW20071   4.174   0.442   0.316
 6391SOL    HW120072   4.095   0.503   0.329
 6391SOL    HW220073   4.224   0.434   0.401
 6392SOL     OW20074   1.373   6.019   4.523
 6392SOL    HW120075   1.334   5.943   4.575
 6392SOL    HW220076   1.300   6.069   4.477
 6393SOL     OW20077   5.063   1.631   6.319
 6393SOL    HW120078   5.005   1.663   6.245
 6393SOL    HW220079   5.007   1.584   6.388
 6394SOL     OW20080   3.435   5.507   2.712
 6394SOL    HW120081   3.447   5.412   2.743
 6394SOL    HW220082   3.519   5.558   2.728
 6395SOL     OW20083   5.455   1.872   0.215
 6395SOL    HW120084   5.471   1.938   0.142
 6395SOL    HW220085   5.442   1.781   0.176
 6396SOL     OW20086   6.640   2.122   6.437
 6396SOL    HW120087   6.715   2.173   6.479
 6396SOL    HW220088   6.553   2.165   6.461
 6397SOL     OW20089   0.255   0.091   0.233
 6397SOL    HW120090   0.198   0.126   0.158
 6397SOL    HW220091   0.348   0.078   0.201
 6398SOL     OW20092   4.766   0.965   1.803
 6398SOL    HW120093   4.681   0.913   1.795
 6398SOL    HW220094   4.750   1.045   1.860
 6399SOL     OW20095   0.649   6.802   6.573
 6399SOL    HW120096   0.620   6.784   6.667
 6399SOL    HW220097   0.655   6.715   6.523
 6400SOL     OW20098   3.098   5.359   4.450
 6400SOL    HW120099   3.042   5.362   4.533
 6400SOL    HW220100   3.165   5.433   4.453
 6401SOL     OW20101   6.686   4.869   5.698
 6401SOL    HW120102   6.684   4.775   5.731
 6401SOL    HW220103   6.701   4.869   5.599
 6402SOL     OW20104   2.167   4.032   2.924
 6402SOL    HW120105   2.126   4.105   2.979
 6402SOL    HW220106   2.253   4.065   2.885
 6403SOL     OW20107   0.301   6.346   1.856
 6403SOL    HW120108   0.394   6.377   1.836
 6403SOL    HW220109   0.271   6.283   1.784
 6404SOL     OW20110   5.171   0.672   1.825
 6404SOL    HW120111   5.093   0.634   1.874
 6404SOL    HW220112   5.243   0.696   1.891
 6405SOL     OW20113   3.707   5.637   2.035
 6405SOL    HW120114   3.776   5.661   1.967
 6405SOL    HW220115   3.619   5.623   1.990
 6406SOL     OW20116   2.366   2.534   3.273
 6406SOL    HW120117   2.377   2.632   3.260
 6406SOL    HW220118   2.405   2.486   3.194
 6407SOL     OW20119   5.288   6.255   0.395
 6407SOL    HW120120   5.353   6.264   0.470
 6407SOL    HW220121   5.297   6.164   0.355
 6408SOL     OW20122   6.834   1.919   1.007
 6408SOL    HW120123   6.876   1.838   1.048
 6408SOL    HW220124   6.833   1.993   1.074
 6409SOL     OW20125   0.622   4.849   1.469
 6409SOL    HW120126   0.681   4.775   1.438
 6409SOL    HW220127   0.632   4.861   1.568
 6410SOL     OW20128   6.785   6.568   0.636
 6410SOL    HW120129   6.847   6.558   0.558
 6410SOL    HW220130   6.733   6.653   0.626
 6411SOL     OW20131   1.393   1.464   3.320
 6411SOL    HW120132   1.386   1.365   3.311
 6411SOL    HW220133   1.329   1.496   3.390
 6412SOL     OW20134   6.182   2.667   5.161
 6412SOL    HW120135   6.204   2.739   5.095
 6412SOL    HW220136   6.098   2.690   5.209
 6413SOL     OW20137   0.068   5.536   1.126
 6413SOL    HW120138   0.123   5.543   1.042
 6413SOL    HW220139   7.028   5.609   1.126
 6414SOL     OW20140   6.594   0.477   3.462
 6414SOL    HW120141   6.624   0.455   3.555
 6414SOL    HW220142   6.613   0.399   3.402
 6415SOL     OW20143   1.350   1.586   2.226
 6415SOL    HW120144   1.285   1.641   2.278
 6415SOL    HW220145   1.372   1.632   2.140
 6416SOL     OW20146   2.727   6.138   6.286
 6416SOL    HW120147   2.637   6.093   6.286
 6416SOL    HW220148   2.734   6.198   6.365
 6417SOL     OW20149   6.864   6.635   4.053
 6417SOL    HW120150   6.876   6.652   3.955
 6417SOL    HW220151   6.815   6.550   4.067
 6418SOL     OW20152   6.365   5.475   2.108
 6418SOL    HW120153   6.411   5.421   2.037
 6418SOL    HW220154   6.301   5.538   2.065
 6419SOL     OW20155   3.250   2.289   1.073
 6419SOL    HW120156   3.337   2.338   1.078
 6419SOL    HW220157   3.234   2.239   1.158
 6420SOL     OW20158   0.574   1.870   0.055
 6420SOL    HW120159   0.540   1.951   0.007
 6420SOL    HW220160   0.569   1.885   0.154
 6421SOL     OW20161   5.903   1.813   0.706
 6421SOL    HW120162   5.991   1.769   0.685
 6421SOL    HW220163   5.830   1.764   0.659
 6422SOL     OW20164   5.608   2.733   2.981
 6422SOL    HW120165   5.622   2.668   2.906
 6422SOL    HW220166   5.696   2.762   3.017
 6423SOL     OW20167   5.671   3.517   0.599
 6423SOL    HW120168   5.684   3.514   0.500
 6423SOL    HW220169   5.627   3.603   0.625
 6424SOL     OW20170   6.530   3.581   4.940
 6424SOL    HW120171   6.485   3.566   5.029
 6424SOL    HW220172   6.606   3.644   4.952
 6425SOL     OW20173   0.818   5.535   1.128
 6425SOL    HW120174   0.796   5.473   1.052
 6425SOL    HW220175   0.734   5.580   1.159
 6426SOL     OW20176   6.775   4.259   3.221
 6426SOL    HW120177   6.869   4.234   3.243
 6426SOL    HW220178   6.713   4.213   3.285
 6427SOL     OW20179   0.965   3.614   5.330
 6427SOL    HW120180   0.903   3.551   5.377
 6427SOL    HW220181   0.911   3.680   5.277
 6428SOL     OW20182   6.573   3.956   5.660
 6428SOL    HW120183   6.512   3.911   5.595
 6428SOL    HW220184   6.547   4.052   5.669
 6429SOL     OW20185   1.998   6.763   4.632
 6429SOL    HW120186   2.041   6.758   4.722
 6429SOL    HW220187   1.901   6.739   4.640
 6430SOL     OW20188   6.389   3.563   6.585
 6430SOL    HW120189   6.369   3.657   6.613
 6430SOL    HW220190   6.389   3.558   6.486
 6431SOL     OW20191   5.089   1.774   2.357
 6431SOL    HW120192   5.155   1.698   2.357
 6431SOL    HW220193   5.116   1.842   2.424
 6432SOL     OW20194   6.421   3.650   0.907
 6432SOL    HW120195   6.425   3.745   0.938
 6432SOL    HW220196   6.397   3.647   0.811
 6433SOL     OW20197   2.149   3.337   1.755
 6433SOL    HW120198   2.146   3.375   1.662
 6433SOL    HW220199   2.227   3.376   1.804
 6434SOL     OW20200   1.663   6.194   0.514
 6434SOL    HW120201   1.594   6.250   0.466
 6434SOL    HW220202   1.732   6.254   0.554
 6435SOL     OW20203   5.894   3.662   0.449
 6435SOL    HW120204   5.855   3.746   0.412
 6435SOL    HW220205   5.872   3.655   0.547
 6436SOL     OW20206   2.849   2.249   0.533
 6436SOL    HW120207   2.825   2.208   0.621
 6436SOL    HW220208   2.856   2.348   0.543
 6437SOL     OW20209   6.602   0.809   2.179
 6437SOL    HW120210   6.624   0.816   2.082
 6437SOL    HW220211   6.573   0.898   2.214
 6438SOL     OW20212   1.132   4.136   4.346
 6438SOL    HW120213   1.037   4.107   4.344
 6438SOL    HW220214   1.137   4.229   4.382
 6439SOL     OW20215   0.353   5.719   2.436
 6439SOL    HW120216   0.287   5.675   2.374
 6439SOL    HW220217   0.324   5.813   2.455
 6440SOL     OW20218   0.502   0.598   2.141
 6440SOL    HW120219   0.530   0.527   2.077
 6440SOL    HW220220   0.412   0.576   2.179
 6441SOL     OW20221   5.318   2.361   3.287
 6441SOL    HW120222   5.346   2.413   3.207
 6441SOL    HW220223   5.346   2.409   3.370
 6442SOL     OW20224   1.349   2.111   3.728
 6442SOL    HW120225   1.309   2.118   3.636
 6442SOL    HW220226   1.443   2.077   3.720
 6443SOL     OW20227   2.514   0.815   0.786
 6443SOL    HW120228   2.482   0.888   0.848
 6443SOL    HW220229   2.451   0.807   0.709
 6444SOL     OW20230   0.609   1.814   3.050
 6444SOL    HW120231   0.587   1.716   3.050
 6444SOL    HW220232   0.604   1.849   3.144
 6445SOL     OW20233   3.718   4.245   6.480
 6445SOL    HW120234   3.791   4.212   6.420
 6445SOL    HW220235   3.749   4.325   6.531
 6446SOL     OW20236   0.138   0.983   1.147
 6446SOL    HW120237   0.136   0.910   1.216
 6446SOL    HW220238   0.201   0.957   1.074
 6447SOL     OW20239   1.942   1.491   3.679
 6447SOL    HW120240   1.922   1.563   3.612
 6447SOL    HW220241   1.877   1.496   3.754
 6448SOL     OW20242   5.991   1.986   1.804
 6448SOL    HW120243   5.959   2.043   1.880
 6448SOL    HW220244   5.948   2.018   1.719
 6449SOL     OW20245   4.279   2.239   0.110
 6449SOL    HW120246   4.372   2.206   0.130
 6449SOL    HW220247   4.222   2.227   0.191
 6450SOL     OW20248   6.643   1.775   0.351
 6450SOL    HW120249   6.597   1.854   0.392
 6450SOL    HW220250   6.736   1.800   0.325
 6451SOL     OW20251   3.420   6.535   4.797
 6451SOL    HW120252   3.444   6.443   4.828
 6451SOL    HW220253   3.387   6.531   4.703
 6452SOL     OW20254   3.641   6.031   4.880
 6452SOL    HW120255   3.704   6.088   4.829
 6452SOL    HW220256   3.647   6.053   4.978
 6453SOL     OW20257   2.730   5.243   6.813
 6453SOL    HW120258   2.731   5.292   6.900
 6453SOL    HW220259   2.655   5.277   6.756
 6454SOL     OW20260   4.075   0.924   5.199
 6454SOL    HW120261   4.175   0.934   5.196
 6454SOL    HW220262   4.035   1.000   5.251
 6455SOL     OW20263   5.838   3.204   0.122
 6455SOL    HW120264   5.923   3.170   0.082
 6455SOL    HW220265   5.768   3.211   0.051
 6456SOL     OW20266   6.500   1.920   4.246
 6456SOL    HW120267   6.471   1.906   4.340
 6456SOL    HW220268   6.524   2.016   4.232
 6457SOL     OW20269   5.769   3.061   0.988
 6457SOL    HW120270   5.715   3.000   1.046
 6457SOL    HW220271   5.729   3.064   0.897
 6458SOL     OW20272   1.004   5.596   3.947
 6458SOL    HW120273   1.100   5.569   3.934
 6458SOL    HW220274   0.975   5.572   4.040
 6459SOL     OW20275   6.008   3.899   0.156
 6459SOL    HW120276   6.028   3.993   0.126
 6459SOL    HW220277   5.977   3.900   0.251
 6460SOL     OW20278   4.000   5.454   1.837
 6460SOL    HW120279   3.999   5.550   1.867
 6460SOL    HW220280   3.921   5.438   1.778
 6461SOL     OW20281   3.354   5.727   4.298
 6461SOL    HW120282   3.369   5.656   4.229
 6461SOL    HW220283   3.432   5.790   4.297
 6462SOL     OW20284   2.212   4.577   2.885
 6462SOL    HW120285   2.304   4.576   2.846
 6462SOL    HW220286   2.157   4.648   2.841
 6463SOL     OW20287   2.609   3.338   5.675
 6463SOL    HW120288   2.557   3.262   5.713
 6463SOL    HW220289   2.565   3.370   5.591
 6464SOL     OW20290   0.969   5.743   1.993
 6464SOL    HW120291   0.899   5.805   2.027
 6464SOL    HW220292   0.954   5.724   1.897
 6465SOL     OW20293   6.245   6.975   3.079
 6465SOL    HW120294   6.296   6.995   3.163
 6465SOL    HW220295   6.272   6.885   3.045
 6466SOL     OW20296   6.616   3.085   4.671
 6466SOL    HW120297   6.715   3.098   4.682
 6466SOL    HW220298   6.571   3.174   4.665
 6467SOL     OW20299   3.747   0.381   5.665
 6467SOL    HW120300   3.672   0.419   5.720
 6467SOL    HW220301   3.791   0.307   5.715
 6468SOL     OW20302   6.147   4.949   2.636
 6468SOL    HW120303   6.213   4.902   2.694
 6468SOL    HW220304   6.194   4.994   2.560
 6469SOL     OW20305   6.913   2.777   5.922
 6469SOL    HW120306   7.012   2.765   5.914
 6469SOL    HW220307   6.892   2.875   5.928
 6470SOL     OW20308   6.564   6.667   4.746
 6470SOL    HW120309   6.631   6.732   4.711
 6470SOL    HW220310   6.473   6.690   4.711
 6471SOL     OW20311   6.580   6.165   5.212
 6471SOL    HW120312   6.488   6.133   5.190
 6471SOL    HW220313   6.603   6.139   5.306
 6472SOL     OW20314   1.656   0.075   1.855
 6472SOL    HW120315   1.573   0.081   1.911
 6472SOL    HW220316   1.650   0.140   1.780
 6473SOL     OW20317   2.135   1.675   5.788
 6473SOL    HW120318   2.230   1.649   5.805
 6473SOL    HW220319   2.088   1.601   5.740
 6474SOL     OW20320   1.579   2.602   6.957
 6474SOL    HW120321   1.581   2.702   6.950
 6474SOL    HW220322   1.486   2.572   6.978
 6475SOL     OW20323   4.310   5.067   3.649
 6475SOL    HW120324   4.233   5.100   3.704
 6475SOL    HW220325   4.345   5.142   3.593
 6476SOL     OW20326   4.822   6.492   3.016
 6476SOL    HW120327   4.731   6.474   2.979
 6476SOL    HW220328   4.891   6.448   2.959
 6477SOL     OW20329   6.756   5.789   0.436
 6477SOL    HW120330   6.819   5.729   0.387
 6477SOL    HW220331   6.700   5.839   0.370
 6478SOL     OW20332   4.417   6.223   0.662
 6478SOL    HW120333   4.462   6.311   0.649
 6478SOL    HW220334   4.334   6.236   0.716
 6479SOL     OW20335   2.689   6.376   2.329
 6479SOL    HW120336   2.728   6.467   2.342
 6479SOL    HW220337   2.719   6.316   2.404
 6480SOL     OW20338   2.608   1.532   0.662
 6480SOL    HW120339   2.645   1.474   0.734
 6480SOL    HW220340   2.682   1.582   0.617
 6481SOL     OW20341   4.215   0.457   0.755
 6481SOL    HW120342   4.266   0.372   0.752
 6481SOL    HW220343   4.258   0.524   0.695
 6482SOL     OW20344   6.970   6.804   5.472
 6482SOL    HW120345   7.026   6.725   5.446
 6482SOL    HW220346   7.029   6.874   5.512
 6483SOL     OW20347   1.425   5.362   0.998
 6483SOL    HW120348   1.444   5.371   0.900
 6483SOL    HW220349   1.473   5.434   1.047
 6484SOL     OW20350   4.032   0.229   2.427
 6484SOL    HW120351   4.130   0.231   2.409
 6484SOL    HW220352   4.005   0.308   2.481
 6485SOL     OW20353   6.775   2.503   2.203
 6485SOL    HW120354   6.826   2.425   2.239
 6485SOL    HW220355   6.770   2.496   2.103
 6486SOL     OW20356   1.729   2.800   2.835
 6486SOL    HW120357   1.803   2.770   2.896
 6486SOL    HW220358   1.641   2.771   2.874
 6487SOL     OW20359   6.739   5.365   2.631
 6487SOL    HW120360   6.675   5.426   2.678
 6487SOL    HW220361   6.742   5.277   2.677
 6488SOL     OW20362   3.648   5.276   4.103
 6488SOL    HW120363   3.554   5.258   4.130
 6488SOL    HW220364   3.678   5.207   4.038
 6489SOL     OW20365   2.699   1.157   6.689
 6489SOL    HW120366   2.708   1.171   6.788
 6489SOL    HW220367   2.786   1.176   6.645
 6490SOL     OW20368   3.930   0.832   6.931
 6490SOL    HW120369   3.867   0.909   6.941
 6490SOL    HW220370   3.957   0.799   7.022
 6491SOL     OW20371   4.869   0.744   5.831
 6491SOL    HW120372   4.795   0.811   5.820
 6491SOL    HW220373   4.957   0.789   5.812
 6492SOL     OW20374   5.681   4.937   6.318
 6492SOL    HW120375   5.706   4.896   6.230
 6492SOL    HW220376   5.683   5.036   6.309
 6493SOL     OW20377   6.872   6.266   5.125
 6493SOL    HW120378   6.896   6.181   5.172
 6493SOL    HW220379   6.780   6.258   5.086
 6494SOL     OW20380   0.081   3.019   3.235
 6494SOL    HW120381   0.147   3.092   3.254
 6494SOL    HW220382   0.129   2.931   3.233
 6495SOL     OW20383   5.449   4.711   1.942
 6495SOL    HW120384   5.477   4.685   2.034
 6495SOL    HW220385   5.524   4.692   1.878
 6496SOL     OW20386   7.009   0.007   3.637
 6496SOL    HW120387   7.024   6.938   3.622
 6496SOL    HW220388   6.911   0.026   3.640
 6497SOL     OW20389   0.964   1.022   1.108
 6497SOL    HW120390   1.028   0.969   1.164
 6497SOL    HW220391   0.932   1.101   1.160
 6498SOL     OW20392   1.262   3.275   4.469
 6498SOL    HW120393   1.286   3.182   4.440
 6498SOL    HW220394   1.293   3.340   4.400
 6499SOL     OW20395   5.997   1.821   2.859
 6499SOL    HW120396   6.021   1.783   2.770
 6499SOL    HW220397   5.930   1.894   2.847
 6500SOL     OW20398   5.515   5.056   2.127
 6500SOL    HW120399   5.508   5.099   2.037
 6500SOL    HW220400   5.436   4.997   2.142
 6501SOL     OW20401   6.757   4.198   0.599
 6501SOL    HW120402   6.665   4.236   0.602
 6501SOL    HW220403   6.751   4.099   0.586
 6502SOL     OW20404   0.430   4.899   2.234
 6502SOL    HW120405   0.489   4.979   2.222
 6502SOL    HW220406   0.400   4.867   2.144
 6503SOL     OW20407   4.248   0.573   3.808
 6503SOL    HW120408   4.315   0.647   3.815
 6503SOL    HW220409   4.163   0.608   3.770
 6504SOL     OW20410   2.150   2.270   0.385
 6504SOL    HW120411   2.104   2.343   0.335
 6504SOL    HW220412   2.237   2.249   0.339
 6505SOL     OW20413   5.654   5.225   1.013
 6505SOL    HW120414   5.753   5.208   1.019
 6505SOL    HW220415   5.628   5.294   1.080
 6506SOL     OW20416   2.096   1.895   1.812
 6506SOL    HW120417   2.078   1.895   1.714
 6506SOL    HW220418   2.160   1.821   1.835
 6507SOL     OW20419   2.788   0.591   1.702
 6507SOL    HW120420   2.719   0.645   1.653
 6507SOL    HW220421   2.862   0.567   1.639
 6508SOL     OW20422   1.232   3.213   1.841
 6508SOL    HW120423   1.213   3.127   1.794
 6508SOL    HW220424   1.191   3.212   1.932
 6509SOL     OW20425   1.054   3.059   3.834
 6509SOL    HW120426   1.101   3.145   3.812
 6509SOL    HW220427   1.117   2.983   3.823
 6510SOL     OW20428   6.290   3.914   6.968
 6510SOL    HW120429   6.202   3.869   6.979
 6510SOL    HW220430   6.357   3.849   6.931
 6511SOL     OW20431   6.983   6.701   6.031
 6511SOL    HW120432   0.038   6.654   6.057
 6511SOL    HW220433   6.972   6.698   5.931
 6512SOL     OW20434   5.249   6.456   4.320
 6512SOL    HW120435   5.282   6.529   4.379
 6512SOL    HW220436   5.306   6.452   4.237
 6513SOL     OW20437   1.200   0.147   3.522
 6513SOL    HW120438   1.201   0.102   3.432
 6513SOL    HW220439   1.266   0.223   3.522
 6514SOL     OW20440   2.741   1.002   4.102
 6514SOL    HW120441   2.726   0.961   4.193
 6514SOL    HW220442   2.660   0.985   4.045
 6515SOL     OW20443   1.560   1.335   3.586
 6515SOL    HW120444   1.466   1.365   3.596
 6515SOL    HW220445   1.618   1.412   3.561
 6516SOL     OW20446   2.402   1.828   5.861
 6516SOL    HW120447   2.463   1.812   5.939
 6516SOL    HW220448   2.446   1.797   5.777
 6517SOL     OW20449   3.298   2.110   1.296
 6517SOL    HW120450   3.385   2.103   1.343
 6517SOL    HW220451   3.223   2.102   1.362
 6518SOL     OW20452   5.204   6.274   1.898
 6518SOL    HW120453   5.221   6.363   1.855
 6518SOL    HW220454   5.155   6.288   1.984
 6519SOL     OW20455   0.340   1.798   3.856
 6519SOL    HW120456   0.336   1.877   3.917
 6519SOL    HW220457   0.307   1.717   3.905
 6520SOL     OW20458   6.132   4.996   1.386
 6520SOL    HW120459   6.084   5.083   1.378
 6520SOL    HW220460   6.208   4.994   1.321
 6521SOL     OW20461   1.238   2.279   6.051
 6521SOL    HW120462   1.243   2.199   5.992
 6521SOL    HW220463   1.171   2.264   6.123
 6522SOL     OW20464   2.518   4.956   4.119
 6522SOL    HW120465   2.581   4.914   4.054
 6522SOL    HW220466   2.552   4.942   4.212
 6523SOL     OW20467   2.555   2.561   1.311
 6523SOL    HW120468   2.479   2.581   1.249
 6523SOL    HW220469   2.641   2.584   1.266
 6524SOL     OW20470   4.347   2.202   5.339
 6524SOL    HW120471   4.268   2.210   5.400
 6524SOL    HW220472   4.390   2.113   5.353
 6525SOL     OW20473   0.657   2.074   4.724
 6525SOL    HW120474   0.685   2.006   4.656
 6525SOL    HW220475   0.736   2.101   4.778
 6526SOL     OW20476   1.692   6.653   2.956
 6526SOL    HW120477   1.617   6.592   2.982
 6526SOL    HW220478   1.674   6.745   2.989
 6527SOL     OW20479   2.113   1.224   4.752
 6527SOL    HW120480   2.138   1.312   4.792
 6527SOL    HW220481   2.125   1.228   4.653
 6528SOL     OW20482   6.830   0.530   2.708
 6528SOL    HW120483   6.811   0.552   2.612
 6528SOL    HW220484   6.763   0.576   2.766
 6529SOL     OW20485   6.333   3.305   2.204
 6529SOL    HW120486   6.276   3.258   2.136
 6529SOL    HW220487   6.288   3.390   2.232
 6530SOL     OW20488   0.221   0.954   0.604
 6530SOL    HW120489   0.300   1.009   0.633
 6530SOL    HW220490   0.230   0.933   0.507
 6531SOL     OW20491   5.098   2.062   5.790
 6531SOL    HW120492   5.039   1.990   5.754
 6531SOL    HW220493   5.067   2.088   5.881
 6532SOL     OW20494   2.197   1.172   6.770
 6532SOL    HW120495   2.131   1.244   6.750
 6532SOL    HW220496   2.170   1.123   6.853
 6533SOL     OW20497   5.293   0.706   6.982
 6533SOL    HW120498   5.359   0.688   6.908
 6533SOL    HW220499   5.308   0.798   7.018
 6534SOL     OW20500   3.996   2.148   6.803
 6534SOL    HW120501   3.930   2.076   6.826
 6534SOL    HW220502   4.085   2.107   6.784
 6535SOL     OW20503   1.621   1.840   4.346
 6535SOL    HW120504   1.532   1.864   4.308
 6535SOL    HW220505   1.648   1.749   4.313
 6536SOL     OW20506   0.397   1.609   0.949
 6536SOL    HW120507   0.322   1.673   0.968
 6536SOL    HW220508   0.361   1.516   0.943
 6537SOL     OW20509   0.011   0.879   5.702
 6537SOL    HW120510   6.957   0.922   5.666
 6537SOL    HW220511   0.029   0.794   5.653
 6538SOL     OW20512   3.244   2.407   5.720
 6538SOL    HW120513   3.310   2.395   5.645
 6538SOL    HW220514   3.173   2.471   5.692
 6539SOL     OW20515   3.277   0.997   6.710
 6539SOL    HW120516   3.187   1.035   6.730
 6539SOL    HW220517   3.347   1.046   6.763
 6540SOL     OW20518   3.806   2.184   3.574
 6540SOL    HW120519   3.805   2.084   3.566
 6540SOL    HW220520   3.868   2.222   3.505
 6541SOL     OW20521   3.156   1.770   5.243
 6541SOL    HW120522   3.227   1.785   5.313
 6541SOL    HW220523   3.096   1.850   5.239
 6542SOL     OW20524   4.305   5.166   2.601
 6542SOL    HW120525   4.266   5.074   2.612
 6542SOL    HW220526   4.405   5.159   2.594
 6543SOL     OW20527   1.280   6.171   6.038
 6543SOL    HW120528   1.357   6.225   6.005
 6543SOL    HW220529   1.279   6.082   5.991
 6544SOL     OW20530   0.782   5.274   2.814
 6544SOL    HW120531   0.757   5.362   2.854
 6544SOL    HW220532   0.708   5.208   2.831
 6545SOL     OW20533   6.076   2.389   6.756
 6545SOL    HW120534   6.092   2.291   6.743
 6545SOL    HW220535   6.158   2.440   6.732
 6546SOL     OW20536   3.209   4.922   6.511
 6546SOL    HW120537   3.239   4.854   6.443
 6546SOL    HW220538   3.288   4.955   6.562
 6547SOL     OW20539   4.340   1.237   6.215
 6547SOL    HW120540   4.252   1.235   6.167
 6547SOL    HW220541   4.414   1.218   6.150
 6548SOL     OW20542   4.309   3.552   5.558
 6548SOL    HW120543   4.259   3.467   5.541
 6548SOL    HW220544   4.387   3.558   5.495
 6549SOL     OW20545   2.461   1.897   2.191
 6549SOL    HW120546   2.522   1.832   2.236
 6549SOL    HW220547   2.515   1.964   2.140
 6550SOL     OW20548   0.804   6.209   2.208
 6550SOL    HW120549   0.726   6.265   2.237
 6550SOL    HW220550   0.781   6.163   2.123
 6551SOL     OW20551   3.505   5.105   2.083
 6551SOL    HW120552   3.505   5.055   2.169
 6551SOL    HW220553   3.475   5.199   2.099
 6552SOL     OW20554   4.952   5.014   6.117
 6552SOL    HW120555   5.042   4.971   6.125
 6552SOL    HW220556   4.896   4.963   6.052
 6553SOL     OW20557   6.296   3.438   2.780
 6553SOL    HW120558   6.361   3.397   2.716
 6553SOL    HW220559   6.224   3.485   2.729
 6554SOL     OW20560   6.550   3.233   4.352
 6554SOL    HW120561   6.622   3.241   4.283
 6554SOL    HW220562   6.507   3.322   4.366
 6555SOL     OW20563   0.577   0.831   1.251
 6555SOL    HW120564   0.517   0.753   1.232
 6555SOL    HW220565   0.629   0.813   1.334
 6556SOL     OW20566   2.623   0.088   2.897
 6556SOL    HW120567   2.678   0.007   2.915
 6556SOL    HW220568   2.568   0.109   2.979
 6557SOL     OW20569   4.692   6.355   0.369
 6557SOL    HW120570   4.643   6.410   0.437
 6557SOL    HW220571   4.626   6.298   0.320
 6558SOL     OW20572   5.709   6.623   6.269
 6558SOL    HW120573   5.770   6.590   6.197
 6558SOL    HW220574   5.637   6.679   6.229
 6559SOL     OW20575   3.135   3.850   1.043
 6559SOL    HW120576   3.231   3.831   1.024
 6559SOL    HW220577   3.083   3.765   1.045
 6560SOL     OW20578   4.603   1.966   0.936
 6560SOL    HW120579   4.570   2.017   1.015
 6560SOL    HW220580   4.703   1.960   0.939
 6561SOL     OW20581   3.006   3.320   4.572
 6561SOL    HW120582   2.962   3.408   4.586
 6561SOL    HW220583   3.008   3.270   4.659
 6562SOL     OW20584   7.004   4.726   4.798
 6562SOL    HW120585   0.061   4.777   4.790
 6562SOL    HW220586   7.013   4.637   4.754
 6563SOL     OW20587   0.974   6.156   2.446
 6563SOL    HW120588   0.914   6.175   2.368
 6563SOL    HW220589   0.989   6.058   2.454
 6564SOL     OW20590   2.070   4.980   3.138
 6564SOL    HW120591   2.140   4.909   3.142
 6564SOL    HW220592   2.114   5.070   3.135
 6565SOL     OW20593   6.995   3.772   5.652
 6565SOL    HW120594   0.043   3.781   5.716
 6565SOL    HW220595   7.028   3.733   5.566
 6566SOL     OW20596   4.492   0.963   0.793
 6566SOL    HW120597   4.589   0.940   0.787
 6566SOL    HW220598   4.479   1.059   0.770
 6567SOL     OW20599   6.924   2.133   0.504
 6567SOL    HW120600   6.992   2.086   0.447
 6567SOL    HW220601   6.941   2.112   0.600
 6568SOL     OW20602   5.455   3.197   1.507
 6568SOL    HW120603   5.485   3.245   1.425
 6568SOL    HW220604   5.360   3.220   1.527
 6569SOL     OW20605   1.152   4.945   5.915
 6569SOL    HW120606   1.186   4.853   5.894
 6569SOL    HW220607   1.168   5.005   5.837
 6570SOL     OW20608   0.706   3.761   1.950
 6570SOL    HW120609   0.788   3.810   1.919
 6570SOL    HW220610   0.688   3.785   2.046
 6571SOL     OW20611   2.519   5.480   4.683
 6571SOL    HW120612   2.581   5.516   4.614
 6571SOL    HW220613   2.438   5.539   4.689
 6572SOL     OW20614   1.366   3.364   5.461
 6572SOL    HW120615   1.441   3.424   5.433
 6572SOL    HW220616   1.320   3.328   5.379
 6573SOL     OW20617   1.255   2.162   1.395
 6573SOL    HW120618   1.273   2.152   1.297
 6573SOL    HW220619   1.184   2.098   1.422
 6574SOL     OW20620   1.789   4.870   4.530
 6574SOL    HW120621   1.848   4.792   4.552
 6574SOL    HW220622   1.833   4.925   4.459
 6575SOL     OW20623   1.310   1.329   2.308
 6575SOL    HW120624   1.322   1.424   2.279
 6575SOL    HW220625   1.384   1.303   2.370
 6576SOL     OW20626   0.366   5.412   4.501
 6576SOL    HW120627   0.276   5.380   4.472
 6576SOL    HW220628   0.360   5.450   4.593
 6577SOL     OW20629   1.013   4.250   5.873
 6577SOL    HW120630   1.095   4.202   5.842
 6577SOL    HW220631   1.033   4.301   5.956
 6578SOL     OW20632   5.249   5.968   4.791
 6578SOL    HW120633   5.288   5.961   4.883
 6578SOL    HW220634   5.223   5.877   4.759
 6579SOL     OW20635   0.915   4.125   4.021
 6579SOL    HW120636   0.954   4.193   3.959
 6579SOL    HW220637   0.989   4.074   4.065
 6580SOL     OW20638   5.132   2.550   1.002
 6580SOL    HW120639   5.121   2.490   0.923
 6580SOL    HW220640   5.105   2.643   0.978
 6581SOL     OW20641   2.765   2.250   5.576
 6581SOL    HW120642   2.843   2.189   5.589
 6581SOL    HW220643   2.791   2.326   5.517
 6582SOL     OW20644   6.119   0.602   2.709
 6582SOL    HW120645   6.170   0.520   2.682
 6582SOL    HW220646   6.170   0.653   2.778
 6583SOL     OW20647   6.132   0.801   5.994
 6583SOL    HW120648   6.036   0.812   6.019
 6583SOL    HW220649   6.172   0.891   5.977
 6584SOL     OW20650   6.118   1.988   0.484
 6584SOL    HW120651   6.030   1.968   0.440
 6584SOL    HW220652   6.113   1.965   0.582
 6585SOL     OW20653   2.124   0.898   2.582
 6585SOL    HW120654   2.191   0.965   2.615
 6585SOL    HW220655   2.139   0.811   2.628
 6586SOL     OW20656   6.140   0.505   6.550
 6586SOL    HW120657   6.152   0.457   6.463
 6586SOL    HW220658   6.053   0.479   6.591
 6587SOL     OW20659   1.493   6.172   2.267
 6587SOL    HW120660   1.396   6.168   2.291
 6587SOL    HW220661   1.548   6.146   2.346
 6588SOL     OW20662   3.639   3.679   0.335
 6588SOL    HW120663   3.569   3.632   0.389
 6588SOL    HW220664   3.649   3.633   0.247
 6589SOL     OW20665   4.545   2.027   6.201
 6589SOL    HW120666   4.501   2.110   6.235
 6589SOL    HW220667   4.476   1.956   6.185
 6590SOL     OW20668   6.510   2.373   5.516
 6590SOL    HW120669   6.598   2.400   5.554
 6590SOL    HW220670   6.522   2.292   5.459
 6591SOL     OW20671   4.723   0.088   2.558
 6591SOL    HW120672   4.802   0.146   2.576
 6591SOL    HW220673   4.737   0.038   2.473
 6592SOL     OW20674   6.520   4.812   5.273
 6592SOL    HW120675   6.553   4.726   5.233
 6592SOL    HW220676   6.597   4.870   5.296
 6593SOL     OW20677   5.514   1.716   2.513
 6593SOL    HW120678   5.520   1.805   2.468
 6593SOL    HW220679   5.531   1.727   2.611
 6594SOL     OW20680   5.613   0.360   6.650
 6594SOL    HW120681   5.538   0.317   6.601
 6594SOL    HW220682   5.658   0.292   6.709
 6595SOL     OW20683   3.666   2.910   6.460
 6595SOL    HW120684   3.724   2.920   6.379
 6595SOL    HW220685   3.617   2.996   6.476
 6596SOL     OW20686   1.904   5.532   4.966
 6596SOL    HW120687   1.920   5.536   5.064
 6596SOL    HW220688   1.810   5.563   4.947
 6597SOL     OW20689   0.841   4.433   0.663
 6597SOL    HW120690   0.789   4.449   0.747
 6597SOL    HW220691   0.929   4.478   0.670
 6598SOL     OW20692   3.336   6.331   4.192
 6598SOL    HW120693   3.327   6.373   4.101
 6598SOL    HW220694   3.329   6.401   4.262
 6599SOL     OW20695   3.888   4.103   5.871
 6599SOL    HW120696   3.823   4.140   5.804
 6599SOL    HW220697   3.974   4.080   5.825
 6600SOL     OW20698   4.382   4.776   5.152
 6600SOL    HW120699   4.367   4.702   5.086
 6600SOL    HW220700   4.312   4.773   5.222
 6601SOL     OW20701   1.063   0.923   2.129
 6601SOL    HW120702   1.068   0.924   2.029
 6601SOL    HW220703   1.065   1.017   2.163
 6602SOL     OW20704   5.147   1.525   0.709
 6602SOL    HW120705   5.225   1.539   0.648
 6602SOL    HW220706   5.083   1.601   0.698
 6603SOL     OW20707   3.469   2.073   1.970
 6603SOL    HW120708   3.487   1.989   2.022
 6603SOL    HW220709   3.534   2.144   1.998
 6604SOL     OW20710   4.210   4.999   4.694
 6604SOL    HW120711   4.213   4.902   4.716
 6604SOL    HW220712   4.128   5.018   4.638
 6605SOL     OW20713   4.686   5.618   1.119
 6605SOL    HW120714   4.665   5.621   1.021
 6605SOL    HW220715   4.748   5.693   1.142
 6606SOL     OW20716   0.521   2.770   2.819
 6606SOL    HW120717   0.578   2.851   2.804
 6606SOL    HW220718   0.533   2.738   2.913
 6607SOL     OW20719   2.020   4.283   2.718
 6607SOL    HW120720   1.960   4.361   2.701
 6607SOL    HW220721   1.967   4.209   2.759
 6608SOL     OW20722   5.140   4.151   4.658
 6608SOL    HW120723   5.101   4.122   4.745
 6608SOL    HW220724   5.114   4.246   4.641
 6609SOL     OW20725   5.950   2.828   6.099
 6609SOL    HW120726   5.880   2.758   6.115
 6609SOL    HW220727   6.032   2.786   6.061
 6610SOL     OW20728   4.153   0.974   0.395
 6610SOL    HW120729   4.132   1.061   0.439
 6610SOL    HW220730   4.136   0.899   0.460
 6611SOL     OW20731   5.445   3.229   1.861
 6611SOL    HW120732   5.425   3.243   1.958
 6611SOL    HW220733   5.542   3.206   1.850
 6612SOL     OW20734   0.413   4.906   6.607
 6612SOL    HW120735   0.487   4.848   6.573
 6612SOL    HW220736   0.419   4.996   6.566
 6613SOL     OW20737   6.437   4.931   0.849
 6613SOL    HW120738   6.412   4.852   0.905
 6613SOL    HW220739   6.537   4.936   0.841
 6614SOL     OW20740   5.779   4.385   5.868
 6614SOL    HW120741   5.861   4.381   5.924
 6614SOL    HW220742   5.702   4.420   5.923
 6615SOL     OW20743   0.936   3.900   4.507
 6615SOL    HW120744   0.916   3.820   4.450
 6615SOL    HW220745   0.893   3.981   4.467
 6616SOL     OW20746   4.870   1.309   3.783
 6616SOL    HW120747   4.922   1.224   3.782
 6616SOL    HW220748   4.887   1.359   3.698
 6617SOL     OW20749   3.641   0.728   4.718
 6617SOL    HW120750   3.593   0.763   4.638
 6617SOL    HW220751   3.734   0.764   4.720
 6618SOL     OW20752   6.582   4.354   1.679
 6618SOL    HW120753   6.617   4.423   1.742
 6618SOL    HW220754   6.507   4.393   1.626
 6619SOL     OW20755   6.181   6.147   2.364
 6619SOL    HW120756   6.217   6.219   2.424
 6619SOL    HW220757   6.254   6.083   2.341
 6620SOL     OW20758   5.415   3.622   5.450
 6620SOL    HW120759   5.378   3.710   5.420
 6620SOL    HW220760   5.475   3.636   5.529
 6621SOL     OW20761   4.359   3.461   1.611
 6621SOL    HW120762   4.302   3.441   1.531
 6621SOL    HW220763   4.341   3.554   1.642
 6622SOL     OW20764   5.903   5.336   0.692
 6622SOL    HW120765   5.847   5.281   0.630
 6622SOL    HW220766   5.971   5.387   0.639
 6623SOL     OW20767   2.884   3.644   2.947
 6623SOL    HW120768   2.910   3.706   2.873
 6623SOL    HW220769   2.899   3.550   2.919
 6624SOL     OW20770   4.694   4.914   4.549
 6624SOL    HW120771   4.683   5.012   4.531
 6624SOL    HW220772   4.676   4.896   4.646
 6625SOL     OW20773   5.480   6.052   0.875
 6625SOL    HW120774   5.401   6.110   0.855
 6625SOL    HW220775   5.552   6.107   0.917
 6626SOL     OW20776   2.857   5.420   4.309
 6626SOL    HW120777   2.945   5.421   4.356
 6626SOL    HW220778   2.842   5.329   4.269
 6627SOL     OW20779   0.149   0.532   1.101
 6627SOL    HW120780   0.160   0.606   1.034
 6627SOL    HW220781   0.110   0.452   1.056
 6628SOL     OW20782   3.692   6.387   4.167
 6628SOL    HW120783   3.664   6.291   4.168
 6628SOL    HW220784   3.652   6.433   4.246
 6629SOL     OW20785   2.788   4.346   0.739
 6629SOL    HW120786   2.815   4.417   0.804
 6629SOL    HW220787   2.844   4.264   0.752
 6630SOL     OW20788   3.092   1.041   5.551
 6630SOL    HW120789   3.154   1.119   5.557
 6630SOL    HW220790   3.137   0.967   5.501
 6631SOL     OW20791   3.175   6.371   1.696
 6631SOL    HW120792   3.173   6.337   1.790
 6631SOL    HW220793   3.224   6.458   1.693
 6632SOL     OW20794   6.464   3.572   1.945
 6632SOL    HW120795   6.472   3.659   1.895
 6632SOL    HW220796   6.367   3.552   1.961
 6633SOL     OW20797   0.856   6.147   3.246
 6633SOL    HW120798   0.852   6.119   3.341
 6633SOL    HW220799   0.905   6.078   3.193
 6634SOL     OW20800   6.667   2.204   4.989
 6634SOL    HW120801   6.591   2.165   4.936
 6634SOL    HW220802   6.733   2.245   4.927
 6635SOL     OW20803   4.343   5.168   4.502
 6635SOL    HW120804   4.275   5.142   4.571
 6635SOL    HW220805   4.400   5.090   4.479
 6636SOL     OW20806   2.134   3.639   2.743
 6636SOL    HW120807   2.102   3.602   2.656
 6636SOL    HW220808   2.227   3.673   2.733
 6637SOL     OW20809   0.055   2.204   6.726
 6637SOL    HW120810   0.110   2.140   6.673
 6637SOL    HW220811   0.071   2.189   6.824
 6638SOL     OW20812   1.569   0.346   6.877
 6638SOL    HW120813   1.480   0.366   6.835
 6638SOL    HW220814   1.632   0.422   6.861
 6639SOL     OW20815   4.351   5.825   6.461
 6639SOL    HW120816   4.311   5.755   6.403
 6639SOL    HW220817   4.302   5.829   6.548
 6640SOL     OW20818   5.266   4.242   3.315
 6640SOL    HW120819   5.279   4.314   3.248
 6640SOL    HW220820   5.220   4.164   3.272
 6641SOL     OW20821   2.579   5.560   6.322
 6641SOL    HW120822   2.578   5.461   6.310
 6641SOL    HW220823   2.591   5.583   6.419
 6642SOL     OW20824   6.449   5.788   6.255
 6642SOL    HW120825   6.392   5.727   6.310
 6642SOL    HW220826   6.416   5.882   6.265
 6643SOL     OW20827   4.405   4.975   1.194
 6643SOL    HW120828   4.330   5.016   1.143
 6643SOL    HW220829   4.374   4.950   1.286
 6644SOL     OW20830   0.801   2.886   2.019
 6644SOL    HW120831   0.769   2.936   2.099
 6644SOL    HW220832   0.788   2.788   2.033
 6645SOL     OW20833   0.332   5.381   5.364
 6645SOL    HW120834   0.333   5.299   5.307
 6645SOL    HW220835   0.300   5.459   5.310
 6646SOL     OW20836   1.870   5.586   3.890
 6646SOL    HW120837   1.781   5.564   3.850
 6646SOL    HW220838   1.937   5.516   3.865
 6647SOL     OW20839   4.120   1.473   1.691
 6647SOL    HW120840   4.208   1.473   1.643
 6647SOL    HW220841   4.071   1.389   1.670
 6648SOL     OW20842   3.331   5.213   2.413
 6648SOL    HW120843   3.419   5.256   2.392
 6648SOL    HW220844   3.347   5.120   2.447
 6649SOL     OW20845   4.115   1.897   5.624
 6649SOL    HW120846   4.144   1.928   5.715
 6649SOL    HW220847   4.090   1.977   5.569
 6650SOL     OW20848   3.270   1.557   3.498
 6650SOL    HW120849   3.290   1.466   3.463
 6650SOL    HW220850   3.289   1.560   3.596
 6651SOL     OW20851   0.606   1.399   1.378
 6651SOL    HW120852   0.576   1.414   1.284
 6651SOL    HW220853   0.608   1.301   1.397
 6652SOL     OW20854   0.447   5.580   3.711
 6652SOL    HW120855   0.362   5.559   3.758
 6652SOL    HW220856   0.434   5.575   3.612
 6653SOL     OW20857   3.629   4.157   4.639
 6653SOL    HW120858   3.704   4.185   4.699
 6653SOL    HW220859   3.543   4.161   4.690
 6654SOL     OW20860   1.556   3.865   1.639
 6654SOL    HW120861   1.634   3.884   1.699
 6654SOL    HW220862   1.478   3.836   1.695
 6655SOL     OW20863   1.510   0.726   6.738
 6655SOL    HW120864   1.454   0.696   6.815
 6655SOL    HW220865   1.591   0.667   6.732
 6656SOL     OW20866   6.361   1.511   1.322
 6656SOL    HW120867   6.396   1.595   1.279
 6656SOL    HW220868   6.385   1.510   1.419
 6657SOL     OW20869   3.189   4.972   5.652
 6657SOL    HW120870   3.193   4.887   5.598
 6657SOL    HW220871   3.145   4.954   5.739
 6658SOL     OW20872   5.924   0.065   5.306
 6658SOL    HW120873   5.948   0.138   5.242
 6658SOL    HW220874   5.866   0.102   5.379
 6659SOL     OW20875   2.897   2.849   0.605
 6659SOL    HW120876   2.859   2.839   0.696
 6659SOL    HW220877   2.951   2.768   0.582
 6660SOL     OW20878   0.219   6.529   3.005
 6660SOL    HW120879   0.133   6.486   2.977
 6660SOL    HW220880   0.206   6.628   3.012
 6661SOL     OW20881   6.800   0.323   3.731
 6661SOL    HW120882   6.866   0.370   3.672
 6661SOL    HW220883   6.750   0.391   3.786
 6662SOL     OW20884   1.874   3.734   6.156
 6662SOL    HW120885   1.909   3.686   6.076
 6662SOL    HW220886   1.951   3.762   6.213
 6663SOL     OW20887   1.168   5.583   2.035
 6663SOL    HW120888   1.098   5.647   2.005
 6663SOL    HW220889   1.143   5.546   2.124
 6664SOL     OW20890   6.737   1.830   1.543
 6664SOL    HW120891   6.809   1.837   1.474
 6664SOL    HW220892   6.676   1.754   1.520
 6665SOL     OW20893   1.693   6.918   3.576
 6665SOL    HW120894   1.639   6.949   3.498
 6665SOL    HW220895   1.727   6.996   3.627
 6666SOL     OW20896   6.017   0.214   0.628
 6666SOL    HW120897   6.039   0.292   0.686
 6666SOL    HW220898   5.930   0.174   0.657
 6667SOL     OW20899   5.561   4.813   5.484
 6667SOL    HW120900   5.554   4.789   5.581
 6667SOL    HW220901   5.499   4.890   5.465
 6668SOL     OW20902   6.365   6.474   0.657
 6668SOL    HW120903   6.308   6.412   0.710
 6668SOL    HW220904   6.459   6.441   0.657
 6669SOL     OW20905   0.638   4.716   3.588
 6669SOL    HW120906   0.693   4.633   3.594
 6669SOL    HW220907   0.623   4.753   3.680
 6670SOL     OW20908   5.444   4.768   0.568
 6670SOL    HW120909   5.482   4.765   0.476
 6670SOL    HW220910   5.509   4.729   0.633
 6671SOL     OW20911   1.095   2.422   5.490
 6671SOL    HW120912   1.017   2.475   5.457
 6671SOL    HW220913   1.062   2.349   5.551
 6672SOL     OW20914   6.661   1.380   5.269
 6672SOL    HW120915   6.755   1.352   5.289
 6672SOL    HW220916   6.617   1.412   5.352
 6673SOL     OW20917   3.573   6.017   1.548
 6673SOL    HW120918   3.501   5.998   1.614
 6673SOL    HW220919   3.554   6.103   1.501
 6674SOL     OW20920   1.235   6.009   4.867
 6674SOL    HW120921   1.211   5.962   4.782
 6674SOL    HW220922   1.279   6.096   4.846
 6675SOL     OW20923   6.433   6.347   6.271
 6675SOL    HW120924   6.529   6.331   6.246
 6675SOL    HW220925   6.422   6.443   6.298
 6676SOL     OW20926   0.332   1.582   0.661
 6676SOL    HW120927   0.417   1.535   0.689
 6676SOL    HW220928   0.259   1.559   0.725
 6677SOL     OW20929   0.946   4.174   0.584
 6677SOL    HW120930   0.899   4.254   0.621
 6677SOL    HW220931   0.943   4.176   0.484
 6678SOL     OW20932   0.900   3.711   4.215
 6678SOL    HW120933   0.961   3.673   4.285
 6678SOL    HW220934   0.847   3.637   4.173
 6679SOL     OW20935   2.397   1.851   4.385
 6679SOL    HW120936   2.357   1.884   4.471
 6679SOL    HW220937   2.387   1.752   4.379
 6680SOL     OW20938   2.782   1.190   6.944
 6680SOL    HW120939   2.766   1.099   6.981
 6680SOL    HW220940   2.789   1.256   7.019
 6681SOL     OW20941   6.269   5.050   6.843
 6681SOL    HW120942   6.333   5.031   6.917
 6681SOL    HW220943   6.254   4.967   6.788
 6682SOL     OW20944   6.074   4.662   2.462
 6682SOL    HW120945   6.171   4.644   2.483
 6682SOL    HW220946   6.033   4.710   2.540
 6683SOL     OW20947   5.697   3.199   3.987
 6683SOL    HW120948   5.711   3.297   4.002
 6683SOL    HW220949   5.785   3.153   3.985
 6684SOL     OW20950   1.995   1.104   1.897
 6684SOL    HW120951   2.059   1.181   1.905
 6684SOL    HW220952   1.906   1.137   1.868
 6685SOL     OW20953   6.388   2.264   6.946
 6685SOL    HW120954   6.468   2.204   6.936
 6685SOL    HW220955   6.319   2.219   7.001
 6686SOL     OW20956   4.936   4.443   3.782
 6686SOL    HW120957   4.933   4.509   3.707
 6686SOL    HW220958   4.943   4.491   3.869
 6687SOL     OW20959   0.070   6.904   0.169
 6687SOL    HW120960   0.131   6.944   0.238
 6687SOL    HW220961   0.071   6.962   0.087
 6688SOL     OW20962   0.566   4.725   3.117
 6688SOL    HW120963   0.581   4.654   3.049
 6688SOL    HW220964   0.635   4.717   3.190
 6689SOL     OW20965   5.489   3.406   0.232
 6689SOL    HW120966   5.562   3.465   0.265
 6689SOL    HW220967   5.521   3.312   0.227
 6690SOL     OW20968   0.409   1.242   0.500
 6690SOL    HW120969   0.321   1.250   0.546
 6690SOL    HW220970   0.469   1.316   0.529
 6691SOL     OW20971   0.843   4.927   1.725
 6691SOL    HW120972   0.787   4.989   1.780
 6691SOL    HW220973   0.852   4.965   1.633
 6692SOL     OW20974   5.188   3.446   6.733
 6692SOL    HW120975   5.281   3.425   6.764
 6692SOL    HW220976   5.125   3.439   6.810
 6693SOL     OW20977   3.864   3.401   5.683
 6693SOL    HW120978   3.806   3.342   5.740
 6693SOL    HW220979   3.848   3.380   5.586
 6694SOL     OW20980   2.410   5.602   0.393
 6694SOL    HW120981   2.332   5.543   0.414
 6694SOL    HW220982   2.391   5.654   0.310
 6695SOL     OW20983   1.450   1.603   0.092
 6695SOL    HW120984   1.471   1.600   0.189
 6695SOL    HW220985   1.362   1.558   0.076
 6696SOL     OW20986   1.564   2.245   1.155
 6696SOL    HW120987   1.482   2.241   1.098
 6696SOL    HW220988   1.609   2.334   1.144
 6697SOL     OW20989   5.334   3.454   4.631
 6697SOL    HW120990   5.256   3.489   4.579
 6697SOL    HW220991   5.374   3.375   4.584
 6698SOL     OW20992   2.418   4.547   5.623
 6698SOL    HW120993   2.459   4.638   5.627
 6698SOL    HW220994   2.471   4.484   5.680
 6699SOL     OW20995   1.247   3.227   6.297
 6699SOL    HW120996   1.186   3.230   6.377
 6699SOL    HW220997   1.276   3.133   6.281
 6700SOL     OW20998   0.300   6.516   6.670
 6700SOL    HW120999   0.211   6.520   6.715
 6700SOL    HW221000   0.326   6.421   6.656
 6701SOL     OW21001   1.948   2.332   6.460
 6701SOL    HW121002   1.888   2.256   6.433
 6701SOL    HW221003   1.922   2.364   6.551
 6702SOL     OW21004   3.519   3.461   0.500
 6702SOL    HW121005   3.425   3.494   0.490
 6702SOL    HW221006   3.518   3.371   0.543
 6703SOL     OW21007   0.244   1.781   0.109
 6703SOL    HW121008   0.300   1.850   0.154
 6703SOL    HW221009   0.240   1.699   0.166
 6704SOL     OW21010   5.537   3.192   2.462
 6704SOL    HW121011   5.469   3.122   2.443
 6704SOL    HW221012   5.502   3.255   2.532
 6705SOL     OW21013   4.777   2.703   0.947
 6705SOL    HW121014   4.833   2.786   0.950
 6705SOL    HW221015   4.816   2.638   0.882
 6706SOL     OW21016   1.465   6.813   6.497
 6706SOL    HW121017   1.511   6.727   6.522
 6706SOL    HW221018   1.391   6.831   6.562
 6707SOL     OW21019   1.520   5.229   3.601
 6707SOL    HW121020   1.611   5.263   3.621
 6707SOL    HW221021   1.501   5.240   3.503
 6708SOL     OW21022   2.411   5.727   0.762
 6708SOL    HW121023   2.405   5.762   0.855
 6708SOL    HW221024   2.370   5.794   0.699
 6709SOL     OW21025   4.592   1.990   4.052
 6709SOL    HW121026   4.656   2.055   4.013
 6709SOL    HW221027   4.623   1.896   4.034
 6710SOL     OW21028   2.746   2.117   0.762
 6710SOL    HW121029   2.657   2.116   0.716
 6710SOL    HW221030   2.760   2.029   0.809
 6711SOL     OW21031   5.347   3.738   6.276
 6711SOL    HW121032   5.284   3.784   6.339
 6711SOL    HW221033   5.432   3.716   6.325
 6712SOL     OW21034   3.342   6.108   0.119
 6712SOL    HW121035   3.418   6.115   0.053
 6712SOL    HW221036   3.378   6.102   0.211
 6713SOL     OW21037   0.425   2.461   3.207
 6713SOL    HW121038   0.351   2.407   3.167
 6713SOL    HW221039   0.447   2.537   3.146
 6714SOL     OW21040   6.345   1.240   5.571
 6714SOL    HW121041   6.412   1.304   5.534
 6714SOL    HW221042   6.257   1.287   5.584
 6715SOL     OW21043   4.847   3.139   1.329
 6715SOL    HW121044   4.895   3.069   1.275
 6715SOL    HW221045   4.763   3.100   1.366
 6716SOL     OW21046   3.323   5.688   1.440
 6716SOL    HW121047   3.256   5.757   1.413
 6716SOL    HW221048   3.415   5.721   1.418
 6717SOL     OW21049   3.634   0.492   7.002
 6717SOL    HW121050   3.587   0.407   7.025
 6717SOL    HW221051   3.573   0.569   7.018
 6718SOL     OW21052   4.723   0.429   6.463
 6718SOL    HW121053   4.767   0.504   6.513
 6718SOL    HW221054   4.772   0.413   6.377
 6719SOL     OW21055   1.173   2.610   4.834
 6719SOL    HW121056   1.244   2.574   4.773
 6719SOL    HW221057   1.130   2.535   4.883
 6720SOL     OW21058   1.973   4.475   0.502
 6720SOL    HW121059   1.878   4.461   0.527
 6720SOL    HW221060   2.031   4.454   0.581
 6721SOL     OW21061   6.055   6.420   3.028
 6721SOL    HW121062   6.149   6.418   3.062
 6721SOL    HW221063   5.997   6.362   3.085
 6722SOL     OW21064   3.538   4.621   6.384
 6722SOL    HW121065   3.600   4.666   6.449
 6722SOL    HW221066   3.520   4.528   6.414
 6723SOL     OW21067   3.440   1.657   2.859
 6723SOL    HW121068   3.384   1.615   2.931
 6723SOL    HW221069   3.433   1.603   2.776
 6724SOL     OW21070   3.772   5.109   6.136
 6724SOL    HW121071   3.769   5.187   6.199
 6724SOL    HW221072   3.679   5.085   6.107
 6725SOL     OW21073   0.495   6.206   1.539
 6725SOL    HW121074   0.471   6.148   1.461
 6725SOL    HW221075   0.592   6.230   1.534
 6726SOL     OW21076   2.218   2.489   1.841
 6726SOL    HW121077   2.206   2.505   1.939
 6726SOL    HW221078   2.305   2.442   1.825
 6727SOL     OW21079   2.830   3.364   1.403
 6727SOL    HW121080   2.732   3.343   1.405
 6727SOL    HW221081   2.880   3.292   1.452
 6728SOL     OW21082   4.439   2.003   3.655
 6728SOL    HW121083   4.446   1.910   3.692
 6728SOL    HW221084   4.468   2.069   3.724
 6729SOL     OW21085   4.074   5.389   3.449
 6729SOL    HW121086   4.049   5.323   3.378
 6729SOL    HW221087   4.054   5.481   3.418
 6730SOL     OW21088   1.298   6.979   2.606
 6730SOL    HW121089   1.248   6.893   2.618
 6730SOL    HW221090   1.235   0.027   2.620
 6731SOL     OW21091   2.060   4.104   1.466
 6731SOL    HW121092   1.960   4.102   1.467
 6731SOL    HW221093   2.092   4.192   1.432
 6732SOL     OW21094   3.539   5.530   0.128
 6732SOL    HW121095   3.475   5.579   0.187
 6732SOL    HW221096   3.538   5.570   0.036
 6733SOL     OW21097   6.273   5.876   4.644
 6733SOL    HW121098   6.200   5.827   4.692
 6733SOL    HW221099   6.293   5.961   4.692
 6734SOL     OW21100   2.896   3.951   0.081
 6734SOL    HW121101   2.917   3.875   0.020
 6734SOL    HW221102   2.837   3.919   0.155
 6735SOL     OW21103   0.584   6.755   6.148
 6735SOL    HW121104   0.550   6.661   6.148
 6735SOL    HW221105   0.559   6.799   6.235
 6736SOL     OW21106   2.261   4.166   2.211
 6736SOL    HW121107   2.325   4.242   2.201
 6736SOL    HW221108   2.271   4.126   2.303
 6737SOL     OW21109   1.775   0.553   1.592
 6737SOL    HW121110   1.721   0.632   1.561
 6737SOL    HW221111   1.842   0.529   1.521
 6738SOL     OW21112   5.530   1.789   0.702
 6738SOL    HW121113   5.471   1.733   0.761
 6738SOL    HW221114   5.510   1.886   0.717
 6739SOL     OW21115   4.220   5.688   6.240
 6739SOL    HW121116   4.236   5.756   6.168
 6739SOL    HW221117   4.249   5.598   6.208
 6740SOL     OW21118   5.590   2.616   4.817
 6740SOL    HW121119   5.499   2.583   4.842
 6740SOL    HW221120   5.584   2.674   4.736
 6741SOL     OW21121   6.996   0.771   5.397
 6741SOL    HW121122   0.043   0.717   5.434
 6741SOL    HW221123   6.925   0.710   5.363
 6742SOL     OW21124   6.022   6.532   5.326
 6742SOL    HW121125   6.024   6.525   5.226
 6742SOL    HW221126   6.102   6.488   5.365
 6743SOL     OW21127   5.749   2.013   0.866
 6743SOL    HW121128   5.672   2.048   0.813
 6743SOL    HW221129   5.792   1.937   0.817
 6744SOL     OW21130   4.415   0.782   3.798
 6744SOL    HW121131   4.367   0.858   3.755
 6744SOL    HW221132   4.459   0.813   3.882
 6745SOL     OW21133   0.681   3.592   3.356
 6745SOL    HW121134   0.613   3.520   3.342
 6745SOL    HW221135   0.721   3.583   3.447
 6746SOL     OW21136   6.345   6.847   0.250
 6746SOL    HW121137   6.306   6.769   0.299
 6746SOL    HW221138   6.313   6.847   0.155
 6747SOL     OW21139   5.311   5.049   5.860
 6747SOL    HW121140   5.315   5.128   5.921
 6747SOL    HW221141   5.243   4.984   5.893
 6748SOL     OW21142   5.971   6.996   2.073
 6748SOL    HW121143   6.033   0.036   2.112
 6748SOL    HW221144   5.890   6.988   2.131
 6749SOL     OW21145   3.279   4.957   0.737
 6749SOL    HW121146   3.300   4.862   0.759
 6749SOL    HW221147   3.359   5.014   0.755
 6750SOL     OW21148   2.200   3.082   4.809
 6750SOL    HW121149   2.268   3.096   4.880
 6750SOL    HW221150   2.241   3.032   4.733
 6751SOL     OW21151   5.066   3.195   5.602
 6751SOL    HW121152   5.133   3.265   5.575
 6751SOL    HW221153   5.113   3.111   5.627
 6752SOL     OW21154   5.561   1.342   0.224
 6752SOL    HW121155   5.461   1.339   0.219
 6752SOL    HW221156   5.593   1.282   0.298
 6753SOL     OW21157   5.888   0.491   6.151
 6753SOL    HW121158   5.986   0.492   6.169
 6753SOL    HW221159   5.857   0.396   6.138
 6754SOL     OW21160   4.092   0.875   6.547
 6754SOL    HW121161   4.086   0.802   6.615
 6754SOL    HW221162   4.035   0.952   6.575
 6755SOL     OW21163   5.074   1.893   2.932
 6755SOL    HW121164   5.128   1.809   2.923
 6755SOL    HW221165   5.090   1.952   2.853
 6756SOL     OW21166   4.172   5.238   2.888
 6756SOL    HW121167   4.220   5.162   2.930
 6756SOL    HW221168   4.159   5.311   2.955
 6757SOL     OW21169   6.524   3.808   1.820
 6757SOL    HW121170   6.463   3.860   1.880
 6757SOL    HW221171   6.513   3.840   1.726
 6758SOL     OW21172   0.105   2.370   2.157
 6758SOL    HW121173   0.035   2.306   2.188
 6758SOL    HW221174   0.070   2.464   2.163
 6759SOL     OW21175   6.813   5.617   4.197
 6759SOL    HW121176   6.779   5.528   4.166
 6759SOL    HW221177   6.793   5.686   4.127
 6760SOL     OW21178   1.100   3.786   5.090
 6760SOL    HW121179   1.103   3.705   5.149
 6760SOL    HW221180   1.171   3.850   5.117
 6761SOL     OW21181   6.749   3.070   6.774
 6761SOL    HW121182   6.775   3.102   6.682
 6761SOL    HW221183   6.832   3.040   6.823
 6762SOL     OW21184   6.513   1.838   4.511
 6762SOL    HW121185   6.435   1.892   4.541
 6762SOL    HW221186   6.496   1.741   4.527
 6763SOL     OW21187   5.160   6.559   5.214
 6763SOL    HW121188   5.218   6.512   5.147
 6763SOL    HW221189   5.192   6.536   5.306
 6764SOL     OW21190   1.885   3.624   0.071
 6764SOL    HW121191   1.921   3.654   0.159
 6764SOL    HW221192   1.935   3.670   7.026
 6765SOL     OW21193   5.123   5.635   2.078
 6765SOL    HW121194   5.034   5.644   2.033
 6765SOL    HW221195   5.168   5.724   2.081
 6766SOL     OW21196   2.302   2.070   5.220
 6766SOL    HW121197   2.301   2.124   5.304
 6766SOL    HW221198   2.241   1.991   5.231
 6767SOL     OW21199   0.892   2.589   5.962
 6767SOL    HW121200   0.884   2.685   5.935
 6767SOL    HW221201   0.985   2.572   5.996
 6768SOL     OW21202   6.580   0.279   5.356
 6768SOL    HW121203   6.552   0.249   5.447
 6768SOL    HW221204   6.582   0.201   5.294
 6769SOL     OW21205   1.075   2.804   6.363
 6769SOL    HW121206   1.126   2.790   6.448
 6769SOL    HW221207   0.977   2.802   6.383
 6770SOL     OW21208   0.155   2.430   3.783
 6770SOL    HW121209   0.159   2.378   3.698
 6770SOL    HW221210   0.059   2.440   3.811
 6771SOL     OW21211   5.798   2.102   1.616
 6771SOL    HW121212   5.849   2.155   1.548
 6771SOL    HW221213   5.710   2.146   1.634
 6772SOL     OW21214   1.916   6.397   1.753
 6772SOL    HW121215   1.967   6.414   1.837
 6772SOL    HW221216   1.835   6.343   1.773
 6773SOL     OW21217   1.574   1.538   3.119
 6773SOL    HW121218   1.508   1.596   3.071
 6773SOL    HW221219   1.526   1.484   3.189
 6774SOL     OW21220   4.050   0.902   5.630
 6774SOL    HW121221   4.079   0.975   5.568
 6774SOL    HW221222   4.128   0.845   5.653
 6775SOL     OW21223   1.912   3.221   5.275
 6775SOL    HW121224   1.902   3.176   5.363
 6775SOL    HW221225   2.002   3.201   5.237
 6776SOL     OW21226   3.063   3.107   4.024
 6776SOL    HW121227   3.114   3.074   4.104
 6776SOL    HW221228   3.025   3.197   4.045
 6777SOL     OW21229   6.732   0.432   4.956
 6777SOL    HW121230   6.738   0.352   4.896
 6777SOL    HW221231   6.740   0.403   5.051
 6778SOL     OW21232   6.288   6.145   1.431
 6778SOL    HW121233   6.347   6.161   1.352
 6778SOL    HW221234   6.340   6.162   1.515
 6779SOL     OW21235   5.501   3.237   5.554
 6779SOL    HW121236   5.421   3.289   5.523
 6779SOL    HW221237   5.477   3.182   5.634
 6780SOL     OW21238   4.950   1.021   2.434
 6780SOL    HW121239   4.875   1.021   2.368
 6780SOL    HW221240   4.916   1.050   2.524
 6781SOL     OW21241   5.256   3.643   3.391
 6781SOL    HW121242   5.329   3.597   3.443
 6781SOL    HW221243   5.257   3.610   3.297
 6782SOL     OW21244   6.267   1.875   2.967
 6782SOL    HW121245   6.312   1.900   2.882
 6782SOL    HW221246   6.177   1.836   2.946
 6783SOL     OW21247   0.496   6.875   6.961
 6783SOL    HW121248   0.467   6.948   6.899
 6783SOL    HW221249   0.509   6.791   6.909
 6784SOL     OW21250   1.568   4.612   6.403
 6784SOL    HW121251   1.653   4.655   6.435
 6784SOL    HW221252   1.491   4.672   6.424
 6785SOL     OW21253   5.506   4.319   1.047
 6785SOL    HW121254   5.407   4.333   1.044
 6785SOL    HW221255   5.528   4.227   1.015
 6786SOL     OW21256   6.240   1.417   6.341
 6786SOL    HW121257   6.211   1.328   6.377
 6786SOL    HW221258   6.257   1.409   6.243
 6787SOL     OW21259   3.823   2.173   1.708
 6787SOL    HW121260   3.757   2.231   1.755
 6787SOL    HW221261   3.902   2.227   1.681
 6788SOL     OW21262   1.307   4.896   1.358
 6788SOL    HW121263   1.330   4.942   1.272
 6788SOL    HW221264   1.335   4.800   1.353
 6789SOL     OW21265   6.255   2.734   2.605
 6789SOL    HW121266   6.216   2.689   2.525
 6789SOL    HW221267   6.181   2.763   2.666
 6790SOL     OW21268   1.230   5.718   0.003
 6790SOL    HW121269   1.164   5.703   0.077
 6790SOL    HW221270   1.322   5.720   0.041
 6791SOL     OW21271   2.115   6.689   3.979
 6791SOL    HW121272   2.142   6.773   4.025
 6791SOL    HW221273   2.132   6.610   4.039
 6792SOL     OW21274   2.931   6.220   6.893
 6792SOL    HW121275   2.886   6.271   6.967
 6792SOL    HW221276   2.955   6.129   6.925
 6793SOL     OW21277   1.913   3.193   5.956
 6793SOL    HW121278   2.006   3.225   5.971
 6793SOL    HW221279   1.875   3.235   5.874
 6794SOL     OW21280   4.131   2.257   4.042
 6794SOL    HW121281   4.195   2.190   4.005
 6794SOL    HW221282   4.134   2.340   3.987
 6795SOL     OW21283   0.879   0.372   2.570
 6795SOL    HW121284   0.789   0.361   2.612
 6795SOL    HW221285   0.875   0.344   2.474
 6796SOL     OW21286   5.757   2.647   2.333
 6796SOL    HW121287   5.819   2.569   2.324
 6796SOL    HW221288   5.808   2.726   2.368
 6797SOL     OW21289   2.370   4.253   0.492
 6797SOL    HW121290   2.416   4.165   0.505
 6797SOL    HW221291   2.439   4.326   0.490
 6798SOL     OW21292   5.243   2.198   1.434
 6798SOL    HW121293   5.338   2.198   1.403
 6798SOL    HW221294   5.228   2.275   1.495
 6799SOL     OW21295   4.094   6.732   2.941
 6799SOL    HW121296   4.137   6.714   2.853
 6799SOL    HW221297   4.057   6.825   2.942
 6800SOL     OW21298   0.121   2.242   3.252
 6800SOL    HW121299   0.057   2.173   3.288
 6800SOL    HW221300   0.168   2.287   3.328
 6801SOL     OW21301   1.741   5.158   4.918
 6801SOL    HW121302   1.691   5.183   5.001
 6801SOL    HW221303   1.830   5.121   4.943
 6802SOL     OW21304   2.690   4.729   2.716
 6802SOL    HW121305   2.604   4.743   2.669
 6802SOL    HW221306   2.766   4.737   2.651
 6803SOL     OW21307   5.857   5.027   6.043
 6803SOL    HW121308   5.936   5.083   6.067
 6803SOL    HW221309   5.803   5.073   5.973
 6804SOL     OW21310   2.891   6.118   1.505
 6804SOL    HW121311   2.969   6.061   1.530
 6804SOL    HW221312   2.923   6.199   1.456
 6805SOL     OW21313   0.696   4.275   4.127
 6805SOL    HW121314   0.719   4.373   4.123
 6805SOL    HW221315   0.776   4.222   4.097
 6806SOL     OW21316   5.818   3.391   2.124
 6806SOL    HW121317   5.803   3.324   2.197
 6806SOL    HW221318   5.857   3.345   2.044
 6807SOL     OW21319   4.121   3.335   2.546
 6807SOL    HW121320   4.121   3.420   2.493
 6807SOL    HW221321   4.104   3.355   2.642
 6808SOL     OW21322   2.961   6.244   4.645
 6808SOL    HW121323   2.961   6.341   4.621
 6808SOL    HW221324   2.891   6.227   4.714
 6809SOL     OW21325   6.284   1.899   0.268
 6809SOL    HW121326   6.215   1.944   0.325
 6809SOL    HW221327   6.239   1.838   0.203
 6810SOL     OW21328   3.651   0.542   4.963
 6810SOL    HW121329   3.584   0.585   5.023
 6810SOL    HW221330   3.648   0.585   4.873
 6811SOL     OW21331   6.596   2.196   1.219
 6811SOL    HW121332   6.624   2.194   1.123
 6811SOL    HW221333   6.676   2.214   1.277
 6812SOL     OW21334   3.950   4.706   6.193
 6812SOL    HW121335   3.862   4.668   6.167
 6812SOL    HW221336   3.940   4.760   6.276
 6813SOL     OW21337   1.008   3.592   1.464
 6813SOL    HW121338   1.057   3.603   1.551
 6813SOL    HW221339   1.074   3.574   1.391
 6814SOL     OW21340   5.094   2.713   1.638
 6814SOL    HW121341   5.132   2.649   1.572
 6814SOL    HW221342   4.998   2.691   1.655
 6815SOL     OW21343   1.590   5.887   1.492
 6815SOL    HW121344   1.531   5.923   1.565
 6815SOL    HW221345   1.672   5.942   1.485
 6816SOL     OW21346   5.231   0.369   3.381
 6816SOL    HW121347   5.292   0.437   3.420
 6816SOL    HW221348   5.261   0.346   3.289
 6817SOL     OW21349   6.142   0.646   0.625
 6817SOL    HW121350   6.089   0.633   0.541
 6817SOL    HW221351   6.203   0.568   0.638
 6818SOL     OW21352   0.328   6.427   5.433
 6818SOL    HW121353   0.344   6.475   5.347
 6818SOL    HW221354   0.243   6.375   5.428
 6819SOL     OW21355   6.049   4.101   0.609
 6819SOL    HW121356   5.962   4.146   0.589
 6819SOL    HW221357   6.034   4.027   0.675
 6820SOL     OW21358   2.941   4.419   1.421
 6820SOL    HW121359   3.007   4.363   1.371
 6820SOL    HW221360   2.871   4.360   1.462
 6821SOL     OW21361   2.481   3.697   6.095
 6821SOL    HW121362   2.388   3.662   6.111
 6821SOL    HW221363   2.519   3.654   6.013
 6822SOL     OW21364   1.018   4.421   4.916
 6822SOL    HW121365   1.108   4.411   4.958
 6822SOL    HW221366   0.970   4.499   4.956
 6823SOL     OW21367   6.702   3.710   5.665
 6823SOL    HW121368   6.773   3.713   5.735
 6823SOL    HW221369   6.647   3.793   5.668
 6824SOL     OW21370   1.478   0.912   3.638
 6824SOL    HW121371   1.430   0.942   3.720
 6824SOL    HW221372   1.572   0.947   3.639
 6825SOL     OW21373   5.133   5.804   1.798
 6825SOL    HW121374   5.210   5.741   1.788
 6825SOL    HW221375   5.165   5.898   1.784
 6826SOL     OW21376   5.400   0.729   4.420
 6826SOL    HW121377   5.345   0.807   4.392
 6826SOL    HW221378   5.451   0.751   4.503
 6827SOL     OW21379   6.137   5.507   5.091
 6827SOL    HW121380   6.135   5.553   5.180
 6827SOL    HW221381   6.048   5.517   5.047
 6828SOL     OW21382   2.464   1.260   2.658
 6828SOL    HW121383   2.553   1.302   2.674
 6828SOL    HW221384   2.408   1.321   2.601
 6829SOL     OW21385   5.746   6.603   5.268
 6829SOL    HW121386   5.741   6.534   5.196
 6829SOL    HW221387   5.841   6.614   5.298
 6830SOL     OW21388   3.571   6.108   3.646
 6830SOL    HW121389   3.529   6.018   3.656
 6830SOL    HW221390   3.652   6.114   3.704
 6831SOL     OW21391   2.205   0.191   6.707
 6831SOL    HW121392   2.130   0.186   6.774
 6831SOL    HW221393   2.176   0.243   6.627
 6832SOL     OW21394   4.000   3.991   0.477
 6832SOL    HW121395   4.039   4.062   0.535
 6832SOL    HW221396   3.990   3.906   0.530
 6833SOL     OW21397   3.740   5.453   0.540
 6833SOL    HW121398   3.817   5.505   0.501
 6833SOL    HW221399   3.655   5.504   0.526
 6834SOL     OW21400   6.627   5.996   4.762
 6834SOL    HW121401   6.616   6.019   4.665
 6834SOL    HW221402   6.574   5.914   4.783
 6835SOL     OW21403   3.306   0.166   3.182
 6835SOL    HW121404   3.245   0.118   3.120
 6835SOL    HW221405   3.252   0.225   3.243
 6836SOL     OW21406   1.398   4.603   6.814
 6836SOL    HW121407   1.448   4.608   6.900
 6836SOL    HW221408   1.323   4.537   6.823
 6837SOL     OW21409   5.803   2.641   1.538
 6837SOL    HW121410   5.792   2.739   1.556
 6837SOL    HW221411   5.868   2.602   1.603
 6838SOL     OW21412   2.481   4.609   6.911
 6838SOL    HW121413   2.564   4.614   6.965
 6838SOL    HW221414   2.421   4.539   6.949
 6839SOL     OW21415   0.202   3.108   5.065
 6839SOL    HW121416   0.280   3.090   5.125
 6839SOL    HW221417   0.135   3.165   5.113
 6840SOL     OW21418   3.376   6.960   4.301
 6840SOL    HW121419   3.371   6.923   4.393
 6840SOL    HW221420   3.471   6.956   4.268
 6841SOL     OW21421   5.236   5.823   1.308
 6841SOL    HW121422   5.193   5.754   1.250
 6841SOL    HW221423   5.179   5.839   1.388
 6842SOL     OW21424   6.544   3.685   3.131
 6842SOL    HW121425   6.526   3.629   3.212
 6842SOL    HW221426   6.457   3.722   3.096
 6843SOL     OW21427   4.460   3.156   1.694
 6843SOL    HW121428   4.518   3.102   1.755
 6843SOL    HW221429   4.514   3.228   1.651
 6844SOL     OW21430   3.084   6.640   4.011
 6844SOL    HW121431   3.145   6.573   3.969
 6844SOL    HW221432   3.138   6.708   4.061
 6845SOL     OW21433   3.801   4.220   0.208
 6845SOL    HW121434   3.762   4.264   0.289
 6845SOL    HW221435   3.739   4.148   0.177
 6846SOL     OW21436   3.117   3.177   3.736
 6846SOL    HW121437   3.057   3.148   3.811
 6846SOL    HW221438   3.205   3.206   3.774
 6847SOL     OW21439   5.045   3.641   0.522
 6847SOL    HW121440   4.957   3.607   0.490
 6847SOL    HW221441   5.039   3.663   0.620
 6848SOL     OW21442   1.169   6.201   4.463
 6848SOL    HW121443   1.155   6.217   4.561
 6848SOL    HW221444   1.133   6.278   4.411
 6849SOL     OW21445   2.488   0.862   4.954
 6849SOL    HW121446   2.448   0.932   5.013
 6849SOL    HW221447   2.491   0.896   4.860
 6850SOL     OW21448   0.435   1.809   1.558
 6850SOL    HW121449   0.347   1.825   1.515
 6850SOL    HW221450   0.469   1.719   1.532
 6851SOL     OW21451   2.000   5.810   0.990
 6851SOL    HW121452   1.913   5.790   1.036
 6851SOL    HW221453   1.993   5.898   0.943
 6852SOL     OW21454   4.937   4.521   2.857
 6852SOL    HW121455   4.879   4.495   2.780
 6852SOL    HW221456   4.998   4.595   2.828
 6853SOL     OW21457   6.115   4.206   4.828
 6853SOL    HW121458   6.044   4.262   4.871
 6853SOL    HW221459   6.134   4.242   4.736
 6854SOL     OW21460   6.056   0.790   6.535
 6854SOL    HW121461   5.957   0.804   6.543
 6854SOL    HW221462   6.077   0.693   6.534
 6855SOL     OW21463   2.468   0.062   3.148
 6855SOL    HW121464   2.537   0.098   3.210
 6855SOL    HW221465   2.419   7.016   3.192
 6856SOL     OW21466   0.942   4.850   5.204
 6856SOL    HW121467   1.038   4.870   5.224
 6856SOL    HW221468   0.894   4.936   5.183
 6857SOL     OW21469   5.016   0.917   6.163
 6857SOL    HW121470   5.074   0.840   6.139
 6857SOL    HW221471   4.938   0.885   6.217
 6858SOL     OW21472   3.339   3.337   6.478
 6858SOL    HW121473   3.354   3.380   6.567
 6858SOL    HW221474   3.256   3.375   6.437
 6859SOL     OW21475   4.312   6.959   1.478
 6859SOL    HW121476   4.298   6.860   1.483
 6859SOL    HW221477   4.349   6.983   1.387
 6860SOL     OW21478   4.350   3.432   0.474
 6860SOL    HW121479   4.420   3.372   0.434
 6860SOL    HW221480   4.268   3.430   0.416
 6861SOL     OW21481   6.381   3.105   0.210
 6861SOL    HW121482   6.331   3.150   0.284
 6861SOL    HW221483   6.326   3.105   0.127
 6862SOL     OW21484   2.808   4.996   4.419
 6862SOL    HW121485   2.845   4.908   4.389
 6862SOL    HW221486   2.842   5.017   4.510
 6863SOL     OW21487   0.985   3.561   3.415
 6863SOL    HW121488   0.978   3.631   3.485
 6863SOL    HW221489   1.080   3.553   3.385
 6864SOL     OW21490   3.002   5.931   5.540
 6864SOL    HW121491   2.911   5.891   5.552
 6864SOL    HW221492   3.069   5.877   5.592
 6865SOL     OW21493   0.810   2.678   5.439
 6865SOL    HW121494   0.780   2.610   5.505
 6865SOL    HW221495   0.859   2.751   5.487
 6866SOL     OW21496   0.580   4.168   2.615
 6866SOL    HW121497   0.543   4.104   2.683
 6866SOL    HW221498   0.546   4.143   2.524
 6867SOL     OW21499   3.082   5.855   3.539
 6867SOL    HW121500   3.011   5.846   3.468
 6867SOL    HW221501   3.057   5.930   3.601
 6868SOL     OW21502   2.236   6.092   6.070
 6868SOL    HW121503   2.214   6.187   6.091
 6868SOL    HW221504   2.165   6.032   6.107
 6869SOL     OW21505   0.052   2.525   3.483
 6869SOL    HW121506   0.004   2.552   3.400
 6869SOL    HW221507   0.010   2.570   3.562
 6870SOL     OW21508   4.846   3.990   3.049
 6870SOL    HW121509   4.763   4.042   3.029
 6870SOL    HW221510   4.907   3.992   2.969
 6871SOL     OW21511   3.983   5.637   2.420
 6871SOL    HW121512   3.995   5.689   2.505
 6871SOL    HW221513   4.009   5.542   2.435
 6872SOL     OW21514   3.441   4.430   1.219
 6872SOL    HW121515   3.518   4.383   1.261
 6872SOL    HW221516   3.436   4.524   1.253
 6873SOL     OW21517   4.664   4.945   5.777
 6873SOL    HW121518   4.606   4.960   5.697
 6873SOL    HW221519   4.608   4.941   5.859
 6874SOL     OW21520   1.205   1.847   6.376
 6874SOL    HW121521   1.156   1.825   6.292
 6874SOL    HW221522   1.294   1.799   6.377
 6875SOL     OW21523   3.667   6.596   4.604
 6875SOL    HW121524   3.749   6.544   4.579
 6875SOL    HW221525   3.605   6.537   4.657
 6876SOL     OW21526   3.029   6.948   5.169
 6876SOL    HW121527   2.944   6.913   5.130
 6876SOL    HW221528   3.021   0.018   5.184
 6877SOL     OW21529   1.748   4.119   0.477
 6877SOL    HW121530   1.779   4.184   0.546
 6877SOL    HW221531   1.750   4.162   0.386
 6878SOL     OW21532   2.530   2.095   5.550
 6878SOL    HW121533   2.614   2.141   5.578
 6878SOL    HW221534   2.478   2.154   5.489
 6879SOL     OW21535   6.381   1.018   6.213
 6879SOL    HW121536   6.336   0.997   6.300
 6879SOL    HW221537   6.315   1.012   6.139
 6880SOL     OW21538   1.378   5.466   4.249
 6880SOL    HW121539   1.346   5.528   4.178
 6880SOL    HW221540   1.378   5.372   4.213
 6881SOL     OW21541   5.115   0.027   1.168
 6881SOL    HW121542   5.048   0.083   1.215
 6881SOL    HW221543   5.133   6.972   1.220
 6882SOL     OW21544   2.306   6.111   5.495
 6882SOL    HW121545   2.296   6.132   5.593
 6882SOL    HW221546   2.299   6.012   5.482
 6883SOL     OW21547   2.278   6.922   1.870
 6883SOL    HW121548   2.247   6.998   1.927
 6883SOL    HW221549   2.282   6.953   1.775
 6884SOL     OW21550   1.521   5.536   3.247
 6884SOL    HW121551   1.590   5.546   3.174
 6884SOL    HW221552   1.520   5.619   3.303
 6885SOL     OW21553   4.511   4.537   4.781
 6885SOL    HW121554   4.547   4.444   4.771
 6885SOL    HW221555   4.438   4.538   4.849
 6886SOL     OW21556   5.679   6.532   0.713
 6886SOL    HW121557   5.735   6.458   0.750
 6886SOL    HW221558   5.656   6.597   0.785
 6887SOL     OW21559   6.846   0.640   4.795
 6887SOL    HW121560   6.823   0.555   4.843
 6887SOL    HW221561   6.858   0.620   4.697
 6888SOL     OW21562   6.880   6.775   3.789
 6888SOL    HW121563   6.860   6.735   3.700
 6888SOL    HW221564   6.978   6.772   3.806
 6889SOL     OW21565   2.136   4.067   6.263
 6889SOL    HW121566   2.082   4.135   6.311
 6889SOL    HW221567   2.233   4.087   6.273
 6890SOL     OW21568   1.500   0.460   1.243
 6890SOL    HW121569   1.592   0.428   1.220
 6890SOL    HW221570   1.434   0.418   1.180
 6891SOL     OW21571   5.471   5.814   5.499
 6891SOL    HW121572   5.555   5.775   5.462
 6891SOL    HW221573   5.394   5.756   5.476
 6892SOL     OW21574   2.670   2.151   4.393
 6892SOL    HW121575   2.745   2.088   4.372
 6892SOL    HW221576   2.645   2.142   4.490
 6893SOL     OW21577   5.132   0.120   0.649
 6893SOL    HW121578   5.059   0.167   0.600
 6893SOL    HW221579   5.175   0.052   0.590
 6894SOL     OW21580   5.952   4.408   4.908
 6894SOL    HW121581   6.028   4.473   4.897
 6894SOL    HW221582   5.882   4.450   4.966
 6895SOL     OW21583   5.016   4.576   4.023
 6895SOL    HW121584   5.094   4.527   4.063
 6895SOL    HW221585   4.961   4.616   4.096
 6896SOL     OW21586   5.232   2.076   2.357
 6896SOL    HW121587   5.287   2.157   2.338
 6896SOL    HW221588   5.266   1.999   2.302
 6897SOL     OW21589   4.277   1.595   1.261
 6897SOL    HW121590   4.353   1.659   1.248
 6897SOL    HW221591   4.313   1.503   1.277
 6898SOL     OW21592   4.384   0.995   1.328
 6898SOL    HW121593   4.390   1.095   1.337
 6898SOL    HW221594   4.442   0.965   1.252
 6899SOL     OW21595   5.273   4.435   5.495
 6899SOL    HW121596   5.245   4.358   5.438
 6899SOL    HW221597   5.370   4.425   5.520
 6900SOL     OW21598   4.484   0.383   5.650
 6900SOL    HW121599   4.578   0.351   5.643
 6900SOL    HW221600   4.437   0.333   5.723
 6901SOL     OW21601   1.779   0.739   7.020
 6901SOL    HW121602   1.810   0.834   7.016
 6901SOL    HW221603   1.830   0.691   0.063
 6902SOL     OW21604   6.671   5.346   2.378
 6902SOL    HW121605   6.686   5.336   2.476
 6902SOL    HW221606   6.635   5.260   2.341
 6903SOL     OW21607   6.161   4.523   6.896
 6903SOL    HW121608   6.093   4.450   6.886
 6903SOL    HW221609   6.244   4.485   6.939
 6904SOL     OW21610   0.199   1.254   2.340
 6904SOL    HW121611   0.206   1.296   2.431
 6904SOL    HW221612   0.257   1.172   2.337
 6905SOL     OW21613   3.620   4.883   0.805
 6905SOL    HW121614   3.655   4.923   0.720
 6905SOL    HW221615   3.550   4.816   0.783
 6906SOL     OW21616   5.709   6.551   2.101
 6906SOL    HW121617   5.700   6.454   2.123
 6906SOL    HW221618   5.771   6.563   2.024
 6907SOL     OW21619   3.645   1.372   1.871
 6907SOL    HW121620   3.591   1.441   1.822
 6907SOL    HW221621   3.589   1.291   1.887
 6908SOL     OW21622   5.464   6.541   6.804
 6908SOL    HW121623   5.496   6.466   6.745
 6908SOL    HW221624   5.465   6.627   6.752
 6909SOL     OW21625   2.746   2.399   6.950
 6909SOL    HW121626   2.702   2.319   6.991
 6909SOL    HW221627   2.795   2.371   6.868
 6910SOL     OW21628   3.912   1.281   0.810
 6910SOL    HW121629   3.956   1.192   0.802
 6910SOL    HW221630   3.819   1.276   0.773
 6911SOL     OW21631   3.971   5.930   5.239
 6911SOL    HW121632   3.911   6.000   5.200
 6911SOL    HW221633   3.929   5.840   5.229
 6912SOL     OW21634   3.545   5.474   1.725
 6912SOL    HW121635   3.514   5.542   1.791
 6912SOL    HW221636   3.548   5.384   1.769
 6913SOL     OW21637   3.987   6.107   5.692
 6913SOL    HW121638   3.968   6.012   5.666
 6913SOL    HW221639   4.084   6.126   5.677
 6914SOL     OW21640   0.371   4.801   0.235
 6914SOL    HW121641   0.410   4.810   0.143
 6914SOL    HW221642   0.275   4.830   0.233
 6915SOL     OW21643   0.973   7.000   6.947
 6915SOL    HW121644   1.053   0.025   6.974
 6915SOL    HW221645   0.977   6.910   6.992
 6916SOL     OW21646   6.118   0.348   6.310
 6916SOL    HW121647   6.152   0.256   6.290
 6916SOL    HW221648   6.023   0.342   6.340
 6917SOL     OW21649   4.105   6.122   6.326
 6917SOL    HW121650   4.065   6.067   6.253
 6917SOL    HW221651   4.037   6.138   6.398
 6918SOL     OW21652   1.457   2.554   3.692
 6918SOL    HW121653   1.428   2.642   3.655
 6918SOL    HW221654   1.397   2.529   3.769
 6919SOL     OW21655   1.630   6.211   3.802
 6919SOL    HW121656   1.570   6.153   3.746
 6919SOL    HW221657   1.716   6.163   3.820
 6920SOL     OW21658   5.913   6.316   3.880
 6920SOL    HW121659   5.833   6.376   3.877
 6920SOL    HW221660   5.930   6.278   3.789
 6921SOL     OW21661   1.598   4.728   2.278
 6921SOL    HW121662   1.679   4.771   2.317
 6921SOL    HW221663   1.580   4.765   2.187
 6922SOL     OW21664   1.645   6.301   1.810
 6922SOL    HW121665   1.607   6.333   1.896
 6922SOL    HW221666   1.574   6.301   1.739
 6923SOL     OW21667   4.949   5.779   5.019
 6923SOL    HW121668   4.882   5.807   4.951
 6923SOL    HW221669   4.994   5.861   5.057
 6924SOL     OW21670   5.331   5.989   2.509
 6924SOL    HW121671   5.349   6.075   2.460
 6924SOL    HW221672   5.272   5.931   2.454
 6925SOL     OW21673   4.197   5.803   1.526
 6925SOL    HW121674   4.156   5.872   1.585
 6925SOL    HW221675   4.128   5.765   1.465
 6926SOL     OW21676   2.822   4.294   5.315
 6926SOL    HW121677   2.846   4.346   5.233
 6926SOL    HW221678   2.730   4.258   5.306
 6927SOL     OW21679   4.551   3.618   0.544
 6927SOL    HW121680   4.501   3.551   0.489
 6927SOL    HW221681   4.648   3.594   0.545
 6928SOL     OW21682   6.648   0.022   6.439
 6928SOL    HW121683   6.640   6.961   6.394
 6928SOL    HW221684   6.557   0.060   6.453
 6929SOL     OW21685   4.150   6.184   1.216
 6929SOL    HW121686   4.177   6.173   1.312
 6929SOL    HW221687   4.162   6.280   1.189
 6930SOL     OW21688   0.088   1.035   3.249
 6930SOL    HW121689   0.123   0.949   3.284
 6930SOL    HW221690   0.071   1.098   3.326
 6931SOL     OW21691   2.619   0.057   1.029
 6931SOL    HW121692   2.716   0.067   1.008
 6931SOL    HW221693   2.584   7.001   0.989
 6932SOL     OW21694   3.483   2.512   0.792
 6932SOL    HW121695   3.536   2.596   0.783
 6932SOL    HW221696   3.545   2.434   0.797
 6933SOL     OW21697   3.011   6.088   5.246
 6933SOL    HW121698   2.949   6.017   5.212
 6933SOL    HW221699   3.060   6.054   5.326
 6934SOL     OW21700   5.379   5.093   0.046
 6934SOL    HW121701   5.410   5.119   6.984
 6934SOL    HW221702   5.373   4.993   0.053
 6935SOL     OW21703   4.573   5.528   3.403
 6935SOL    HW121704   4.664   5.569   3.401
 6935SOL    HW221705   4.504   5.601   3.402
 6936SOL     OW21706   1.233   4.819   0.162
 6936SOL    HW121707   1.259   4.741   0.219
 6936SOL    HW221708   1.290   4.820   0.080
 6937SOL     OW21709   4.906   6.332   6.894
 6937SOL    HW121710   4.928   6.409   6.833
 6937SOL    HW221711   4.857   6.262   6.843
 6938SOL     OW21712   6.777   2.447   5.367
 6938SOL    HW121713   6.771   2.456   5.466
 6938SOL    HW221714   6.780   2.538   5.325
 6939SOL     OW21715   6.041   4.504   2.220
 6939SOL    HW121716   6.034   4.547   2.130
 6939SOL    HW221717   6.040   4.574   2.291
 6940SOL     OW21718   4.301   1.059   3.903
 6940SOL    HW121719   4.326   1.138   3.847
 6940SOL    HW221720   4.383   1.025   3.949
 6941SOL     OW21721   3.559   2.762   5.173
 6941SOL    HW121722   3.460   2.774   5.166
 6941SOL    HW221723   3.601   2.784   5.085
 6942SOL     OW21724   6.272   1.064   6.702
 6942SOL    HW121725   6.321   1.021   6.626
 6942SOL    HW221726   6.203   1.001   6.737
 6943SOL     OW21727   5.749   4.240   0.477
 6943SOL    HW121728   5.695   4.202   0.552
 6943SOL    HW221729   5.729   4.338   0.467
 6944SOL     OW21730   2.553   0.247   0.154
 6944SOL    HW121731   2.550   0.337   0.198
 6944SOL    HW221732   2.500   0.250   0.070
 6945SOL     OW21733   2.966   1.105   6.010
 6945SOL    HW121734   2.891   1.040   6.003
 6945SOL    HW221735   3.011   1.114   5.921
 6946SOL     OW21736   6.077   4.279   2.908
 6946SOL    HW121737   6.028   4.345   2.965
 6946SOL    HW221738   6.122   4.211   2.967
 6947SOL     OW21739   3.968   6.673   0.812
 6947SOL    HW121740   3.935   6.651   0.903
 6947SOL    HW221741   3.958   6.593   0.753
 6948SOL     OW21742   3.381   1.261   6.156
 6948SOL    HW121743   3.320   1.338   6.139
 6948SOL    HW221744   3.459   1.292   6.209
 6949SOL     OW21745   5.260   0.062   2.683
 6949SOL    HW121746   5.207   0.108   2.754
 6949SOL    HW221747   5.295   7.004   2.719
 6950SOL     OW21748   3.218   2.102   3.751
 6950SOL    HW121749   3.308   2.138   3.730
 6950SOL    HW221750   3.225   2.004   3.773
 6951SOL     OW21751   3.949   4.233   5.609
 6951SOL    HW121752   3.991   4.173   5.541
 6951SOL    HW221753   3.855   4.253   5.582
 6952SOL     OW21754   0.813   3.781   6.788
 6952SOL    HW121755   0.759   3.740   6.714
 6952SOL    HW221756   0.753   3.834   6.848
 6953SOL     OW21757   5.821   2.504   4.561
 6953SOL    HW121758   5.810   2.469   4.654
 6953SOL    HW221759   5.912   2.478   4.528
 6954SOL     OW21760   0.372   4.786   1.986
 6954SOL    HW121761   0.301   4.716   1.989
 6954SOL    HW221762   0.455   4.748   1.947
 6955SOL     OW21763   6.683   1.494   3.673
 6955SOL    HW121764   6.725   1.531   3.590
 6955SOL    HW221765   6.686   1.563   3.746
 6956SOL     OW21766   3.597   3.994   1.316
 6956SOL    HW121767   3.520   3.938   1.287
 6956SOL    HW221768   3.680   3.965   1.267
 6957SOL     OW21769   1.439   4.355   0.178
 6957SOL    HW121770   1.476   4.312   0.259
 6957SOL    HW221771   1.440   4.291   0.101
 6958SOL     OW21772   2.167   3.305   5.977
 6958SOL    HW121773   2.235   3.236   5.950
 6958SOL    HW221774   2.185   3.333   6.072
 6959SOL     OW21775   4.243   1.259   5.616
 6959SOL    HW121776   4.281   1.191   5.679
 6959SOL    HW221777   4.227   1.344   5.665
 6960SOL     OW21778   1.138   5.945   6.919
 6960SOL    HW121779   1.163   5.849   6.931
 6960SOL    HW221780   1.209   6.003   6.959
 6961SOL     OW21781   6.067   0.610   3.357
 6961SOL    HW121782   5.985   0.557   3.336
 6961SOL    HW221783   6.093   0.665   3.277
 6962SOL     OW21784   3.293   3.133   0.729
 6962SOL    HW121785   3.213   3.115   0.672
 6962SOL    HW221786   3.370   3.076   0.698
 6963SOL     OW21787   6.966   5.938   1.497
 6963SOL    HW121788   6.872   5.966   1.515
 6963SOL    HW221789   6.989   5.960   1.402
 6964SOL     OW21790   4.260   5.133   5.681
 6964SOL    HW121791   4.205   5.114   5.600
 6964SOL    HW221792   4.337   5.192   5.655
 6965SOL     OW21793   5.698   0.625   5.929
 6965SOL    HW121794   5.634   0.595   5.858
 6965SOL    HW221795   5.744   0.545   5.969
 6966SOL     OW21796   3.990   2.190   3.766
 6966SOL    HW121797   4.070   2.246   3.744
 6966SOL    HW221798   3.920   2.201   3.696
 6967SOL     OW21799   2.518   2.785   0.101
 6967SOL    HW121800   2.482   2.847   0.032
 6967SOL    HW221801   2.574   2.836   0.167
 6968SOL     OW21802   3.099   0.757   3.406
 6968SOL    HW121803   3.090   0.735   3.503
 6968SOL    HW221804   3.009   0.781   3.370
 6969SOL     OW21805   3.592   3.238   1.815
 6969SOL    HW121806   3.522   3.189   1.868
 6969SOL    HW221807   3.547   3.300   1.751
 6970SOL     OW21808   4.762   3.789   6.984
 6970SOL    HW121809   4.703   3.754   6.911
 6970SOL    HW221810   4.858   3.783   6.955
 6971SOL     OW21811   5.915   2.135   2.032
 6971SOL    HW121812   5.973   2.216   2.034
 6971SOL    HW221813   5.819   2.163   2.031
 6972SOL     OW21814   4.907   6.164   4.119
 6972SOL    HW121815   4.957   6.250   4.117
 6972SOL    HW221816   4.837   6.167   4.190
 6973SOL     OW21817   1.687   4.741   2.868
 6973SOL    HW121818   1.723   4.768   2.957
 6973SOL    HW221819   1.591   4.769   2.862
 6974SOL     OW21820   2.759   3.343   5.341
 6974SOL    HW121821   2.660   3.343   5.358
 6974SOL    HW221822   2.782   3.419   5.280
 6975SOL     OW21823   1.860   6.628   5.851
 6975SOL    HW121824   1.957   6.627   5.875
 6975SOL    HW221825   1.807   6.582   5.923
 6976SOL     OW21826   1.261   5.831   1.576
 6976SOL    HW121827   1.303   5.787   1.497
 6976SOL    HW221828   1.323   5.900   1.613
 6977SOL     OW21829   5.828   2.137   1.114
 6977SOL    HW121830   5.747   2.154   1.171
 6977SOL    HW221831   5.803   2.078   1.038
 6978SOL     OW21832   5.250   3.242   4.002
 6978SOL    HW121833   5.286   3.223   3.910
 6978SOL    HW221834   5.162   3.196   4.013
 6979SOL     OW21835   0.397   3.734   4.131
 6979SOL    HW121836   0.365   3.644   4.161
 6979SOL    HW221837   0.413   3.733   4.032
 6980SOL     OW21838   5.072   2.038   5.142
 6980SOL    HW121839   5.089   2.112   5.207
 6980SOL    HW221840   4.974   2.018   5.138
 6981SOL     OW21841   3.097   3.486   6.390
 6981SOL    HW121842   3.103   3.584   6.407
 6981SOL    HW221843   3.034   3.468   6.315
 6982SOL     OW21844   1.319   0.150   4.430
 6982SOL    HW121845   1.378   0.227   4.453
 6982SOL    HW221846   1.244   0.144   4.496
 6983SOL     OW21847   5.702   0.885   3.088
 6983SOL    HW121848   5.711   0.961   3.153
 6983SOL    HW221849   5.634   0.909   3.018
 6984SOL     OW21850   2.449   1.247   6.584
 6984SOL    HW121851   2.385   1.229   6.658
 6984SOL    HW221852   2.527   1.184   6.591
 6985SOL     OW21853   4.258   6.975   4.135
 6985SOL    HW121854   4.172   6.988   4.086
 6985SOL    HW221855   4.266   6.879   4.164
 6986SOL     OW21856   2.521   6.297   5.853
 6986SOL    HW121857   2.542   6.202   5.829
 6986SOL    HW221858   2.483   6.301   5.945
 6987SOL     OW21859   6.493   3.946   6.426
 6987SOL    HW121860   6.511   4.039   6.396
 6987SOL    HW221861   6.537   3.881   6.363
 6988SOL     OW21862   5.265   2.158   6.534
 6988SOL    HW121863   5.273   2.224   6.459
 6988SOL    HW221864   5.357   2.125   6.559
 6989SOL     OW21865   2.145   3.919   4.133
 6989SOL    HW121866   2.113   3.912   4.227
 6989SOL    HW221867   2.223   3.982   4.129
 6990SOL     OW21868   4.285   3.689   1.742
 6990SOL    HW121869   4.187   3.667   1.739
 6990SOL    HW221870   4.313   3.703   1.836
 6991SOL     OW21871   4.594   4.514   5.734
 6991SOL    HW121872   4.579   4.459   5.817
 6991SOL    HW221873   4.687   4.499   5.701
 6992SOL     OW21874   6.633   6.208   4.958
 6992SOL    HW121875   6.628   6.168   5.050
 6992SOL    HW221876   6.640   6.134   4.891
 6993SOL     OW21877   0.270   0.949   2.731
 6993SOL    HW121878   0.284   1.044   2.760
 6993SOL    HW221879   0.283   0.888   2.809
 6994SOL     OW21880   1.867   2.569   0.525
 6994SOL    HW121881   1.949   2.569   0.582
 6994SOL    HW221882   1.886   2.524   0.438
 6995SOL     OW21883   0.877   5.651   3.710
 6995SOL    HW121884   0.945   5.605   3.652
 6995SOL    HW221885   0.915   5.666   3.801
 6996SOL     OW21886   1.726   6.840   5.234
 6996SOL    HW121887   1.778   6.804   5.312
 6996SOL    HW221888   1.788   6.858   5.158
 6997SOL     OW21889   5.040   4.709   4.724
 6997SOL    HW121890   5.038   4.769   4.645
 6997SOL    HW221891   4.947   4.697   4.759
 6998SOL     OW21892   2.346   2.045   1.715
 6998SOL    HW121893   2.391   1.984   1.781
 6998SOL    HW221894   2.408   2.119   1.689
 6999SOL     OW21895   5.630   2.688   6.909
 6999SOL    HW121896   5.710   2.639   6.942
 6999SOL    HW221897   5.611   2.766   6.969
 7000SOL     OW21898   0.019   0.227   2.127
 7000SOL    HW121899   6.975   0.295   2.135
 7000SOL    HW221900   0.076   0.249   2.048
 7001SOL     OW21901   3.103   1.542   6.951
 7001SOL    HW121902   3.018   1.577   6.913
 7001SOL    HW221903   3.087   1.453   6.993
 7002SOL     OW21904   3.017   5.717   1.244
 7002SOL    HW121905   3.002   5.627   1.284
 7002SOL    HW221906   2.929   5.762   1.230
 7003SOL     OW21907   1.323   6.550   6.098
 7003SOL    HW121908   1.301   6.647   6.107
 7003SOL    HW221909   1.318   6.524   6.001
 7004SOL     OW21910   2.567   3.907   6.470
 7004SOL    HW121911   2.576   3.914   6.569
 7004SOL    HW221912   2.485   3.956   6.441
 7005SOL     OW21913   6.506   0.253   5.784
 7005SOL    HW121914   6.441   0.203   5.726
 7005SOL    HW221915   6.555   0.320   5.729
 7006SOL     OW21916   5.030   5.375   4.380
 7006SOL    HW121917   4.961   5.354   4.450
 7006SOL    HW221918   5.073   5.290   4.350
 7007SOL     OW21919   5.332   4.855   1.328
 7007SOL    HW121920   5.302   4.796   1.254
 7007SOL    HW221921   5.431   4.864   1.326
 7008SOL     OW21922   0.428   6.686   4.372
 7008SOL    HW121923   0.510   6.741   4.353
 7008SOL    HW221924   0.347   6.743   4.359
 7009SOL     OW21925   6.532   3.848   1.504
 7009SOL    HW121926   6.513   3.935   1.458
 7009SOL    HW221927   6.630   3.832   1.506
 7010SOL     OW21928   5.171   4.455   5.758
 7010SOL    HW121929   5.197   4.527   5.822
 7010SOL    HW221930   5.200   4.481   5.665
 7011SOL     OW21931   1.619   0.329   6.055
 7011SOL    HW121932   1.555   0.261   6.018
 7011SOL    HW221933   1.592   0.420   6.024
 7012SOL     OW21934   0.076   1.031   1.812
 7012SOL    HW121935   7.014   0.993   1.831
 7012SOL    HW221936   0.112   1.075   1.894
 7013SOL     OW21937   6.389   1.727   1.085
 7013SOL    HW121938   6.298   1.687   1.087
 7013SOL    HW221939   6.389   1.813   1.135
 7014SOL     OW21940   2.736   5.387   1.240
 7014SOL    HW121941   2.697   5.425   1.155
 7014SOL    HW221942   2.678   5.311   1.271
 7015SOL     OW21943   4.581   1.987   2.681
 7015SOL    HW121944   4.571   2.007   2.583
 7015SOL    HW221945   4.664   2.032   2.716
 7016SOL     OW21946   5.640   4.439   0.156
 7016SOL    HW121947   5.713   4.479   0.211
 7016SOL    HW221948   5.595   4.366   0.208
 7017SOL     OW21949   5.074   2.651   5.553
 7017SOL    HW121950   4.992   2.616   5.508
 7017SOL    HW221951   5.080   2.612   5.645
 7018SOL     OW21952   0.356   4.768   3.809
 7018SOL    HW121953   0.312   4.797   3.894
 7018SOL    HW221954   0.454   4.785   3.815
 7019SOL     OW21955   6.561   6.495   2.403
 7019SOL    HW121956   6.657   6.495   2.375
 7019SOL    HW221957   6.552   6.533   2.495
 7020SOL     OW21958   6.936   5.569   0.377
 7020SOL    HW121959   7.002   5.574   0.301
 7020SOL    HW221960   6.881   5.486   0.368
 7021SOL     OW21961   3.194   6.822   5.331
 7021SOL    HW121962   3.153   6.833   5.422
 7021SOL    HW221963   3.130   6.854   5.262
 7022SOL     OW21964   3.839   4.910   5.755
 7022SOL    HW121965   3.833   4.824   5.704
 7022SOL    HW221966   3.751   4.931   5.797
 7023SOL     OW21967   4.936   4.984   2.257
 7023SOL    HW121968   4.934   4.913   2.328
 7023SOL    HW221969   5.009   4.963   2.192
 7024SOL     OW21970   6.559   0.038   2.071
 7024SOL    HW121971   6.653   0.047   2.104
 7024SOL    HW221972   6.512   6.995   2.122
 7025SOL     OW21973   3.081   0.293   1.452
 7025SOL    HW121974   3.013   0.305   1.380
 7025SOL    HW221975   3.038   0.254   1.533
 7026SOL     OW21976   4.428   2.637   0.302
 7026SOL    HW121977   4.454   2.567   0.368
 7026SOL    HW221978   4.398   2.720   0.350
 7027SOL     OW21979   5.451   6.186   5.039
 7027SOL    HW121980   5.414   6.217   4.951
 7027SOL    HW221981   5.498   6.099   5.026
 7028SOL     OW21982   3.415   0.772   4.954
 7028SOL    HW121983   3.325   0.763   4.997
 7028SOL    HW221984   3.423   0.704   4.880
 7029SOL     OW21985   3.655   0.016   4.201
 7029SOL    HW121986   3.704   6.971   4.153
 7029SOL    HW221987   3.690   0.104   4.169
 7030SOL     OW21988   0.887   4.013   3.367
 7030SOL    HW121989   0.933   4.019   3.455
 7030SOL    HW221990   0.938   3.951   3.307
 7031SOL     OW21991   2.275   0.813   3.858
 7031SOL    HW121992   2.226   0.757   3.791
 7031SOL    HW221993   2.250   0.909   3.847
 7032SOL     OW21994   6.288   2.587   3.577
 7032SOL    HW121995   6.340   2.505   3.603
 7032SOL    HW221996   6.311   2.613   3.483
 7033SOL     OW21997   6.962   0.887   5.049
 7033SOL    HW121998   6.897   0.956   5.081
 7033SOL    HW221999   6.916   0.822   4.989
 7034SOL     OW22000   6.879   4.866   4.052
 7034SOL    HW122001   6.915   4.773   4.052
 7034SOL    HW222002   6.853   4.891   4.145
 7035SOL     OW22003   0.071   4.341   1.101
 7035SOL    HW122004   0.034   4.415   1.157
 7035SOL    HW222005   0.061   4.254   1.149
 7036SOL     OW22006   6.266   5.527   1.003
 7036SOL    HW122007   6.241   5.535   1.099
 7036SOL    HW222008   6.208   5.459   0.959
 7037SOL     OW22009   1.477   0.207   0.093
 7037SOL    HW122010   1.506   0.253   0.009
 7037SOL    HW222011   1.489   0.109   0.084
 7038SOL     OW22012   2.480   2.356   3.635
 7038SOL    HW122013   2.530   2.393   3.557
 7038SOL    HW222014   2.518   2.267   3.660
 7039SOL     OW22015   4.189   1.560   6.082
 7039SOL    HW122016   4.115   1.519   6.136
 7039SOL    HW222017   4.150   1.626   6.018
 7040SOL     OW22018   6.326   2.130   6.504
 7040SOL    HW122019   6.367   2.071   6.573
 7040SOL    HW222020   6.375   2.217   6.501
 7041SOL     OW22021   2.192   1.167   3.148
 7041SOL    HW122022   2.109   1.165   3.204
 7041SOL    HW222023   2.168   1.159   3.051
 7042SOL     OW22024   2.375   0.931   7.003
 7042SOL    HW122025   2.285   0.909   0.011
 7042SOL    HW222026   2.433   0.849   7.004
 7043SOL     OW22027   1.861   2.763   1.295
 7043SOL    HW122028   1.771   2.763   1.253
 7043SOL    HW222029   1.929   2.793   1.228
 7044SOL     OW22030   7.019   5.742   0.665
 7044SOL    HW122031   0.012   5.647   0.643
 7044SOL    HW222032   6.936   5.746   0.720
 7045SOL     OW22033   1.119   4.395   0.254
 7045SOL    HW122034   1.053   4.335   0.299
 7045SOL    HW222035   1.196   4.341   0.221
 7046SOL     OW22036   2.332   2.081   3.365
 7046SOL    HW122037   2.264   2.121   3.303
 7046SOL    HW222038   2.286   2.030   3.437
 7047SOL     OW22039   1.108   6.527   3.161
 7047SOL    HW122040   1.165   6.609   3.168
 7047SOL    HW222041   1.083   6.496   3.252
 7048SOL     OW22042   0.654   5.188   6.810
 7048SOL    HW122043   0.630   5.227   6.899
 7048SOL    HW222044   0.749   5.208   6.789
 7049SOL     OW22045   2.794   1.316   6.291
 7049SOL    HW122046   2.776   1.223   6.259
 7049SOL    HW222047   2.893   1.332   6.292
 7050SOL     OW22048   3.455   3.434   6.021
 7050SOL    HW122049   3.394   3.397   6.090
 7050SOL    HW222050   3.550   3.423   6.050
 7051SOL     OW22051   5.472   6.102   1.903
 7051SOL    HW122052   5.507   6.069   1.816
 7051SOL    HW222053   5.385   6.150   1.889
 7052SOL     OW22054   6.363   1.086   4.555
 7052SOL    HW122055   6.288   1.054   4.497
 7052SOL    HW222056   6.372   1.025   4.633
 7053SOL     OW22057   6.579   3.470   6.287
 7053SOL    HW122058   6.641   3.523   6.345
 7053SOL    HW222059   6.487   3.509   6.294
 7054SOL     OW22060   5.605   2.454   2.145
 7054SOL    HW122061   5.610   2.536   2.203
 7054SOL    HW222062   5.607   2.373   2.203
 7055SOL     OW22063   4.122   1.529   3.271
 7055SOL    HW122064   4.031   1.562   3.297
 7055SOL    HW222065   4.123   1.429   3.274
 7056SOL     OW22066   4.693   6.221   4.279
 7056SOL    HW122067   4.699   6.147   4.347
 7056SOL    HW222068   4.603   6.263   4.283
 7057SOL     OW22069   5.271   6.049   3.010
 7057SOL    HW122070   5.184   6.060   3.058
 7057SOL    HW222071   5.321   6.136   3.012
 7058SOL     OW22072   0.768   3.928   4.735
 7058SOL    HW122073   0.850   3.948   4.682
 7058SOL    HW222074   0.687   3.957   4.684
 7059SOL     OW22075   1.644   0.506   2.061
 7059SOL    HW122076   1.592   0.590   2.078
 7059SOL    HW222077   1.589   0.443   2.006
 7060SOL     OW22078   3.944   0.118   1.304
 7060SOL    HW122079   3.880   0.172   1.248
 7060SOL    HW222080   4.030   0.107   1.254
 7061SOL     OW22081   0.791   1.456   3.012
 7061SOL    HW122082   0.848   1.401   3.073
 7061SOL    HW222083   0.813   1.553   3.025
 7062SOL     OW22084   6.382   0.866   5.623
 7062SOL    HW122085   6.325   0.901   5.697
 7062SOL    HW222086   6.365   0.919   5.540
 7063SOL     OW22087   1.640   6.855   1.969
 7063SOL    HW122088   1.636   6.939   1.915
 7063SOL    HW222089   1.622   6.876   2.065
 7064SOL     OW22090   3.311   3.210   1.018
 7064SOL    HW122091   3.319   3.169   0.927
 7064SOL    HW222092   3.281   3.140   1.083
 7065SOL     OW22093   3.314   3.816   3.013
 7065SOL    HW122094   3.300   3.897   3.070
 7065SOL    HW222095   3.239   3.752   3.028
 7066SOL     OW22096   2.583   4.570   1.537
 7066SOL    HW122097   2.497   4.619   1.523
 7066SOL    HW222098   2.646   4.629   1.588
 7067SOL     OW22099   1.806   3.758   4.440
 7067SOL    HW122100   1.760   3.795   4.521
 7067SOL    HW222101   1.756   3.784   4.358
 7068SOL     OW22102   0.384   0.712   3.226
 7068SOL    HW122103   0.448   0.788   3.227
 7068SOL    HW222104   0.431   0.628   3.254
 7069SOL     OW22105   1.523   3.712   5.547
 7069SOL    HW122106   1.442   3.719   5.605
 7069SOL    HW222107   1.535   3.618   5.517
 7070SOL     OW22108   5.749   5.777   2.938
 7070SOL    HW122109   5.691   5.715   2.885
 7070SOL    HW222110   5.691   5.839   2.991
 7071SOL     OW22111   1.805   6.827   5.634
 7071SOL    HW122112   1.827   6.776   5.717
 7071SOL    HW222113   1.800   6.924   5.654
 7072SOL     OW22114   0.157   6.863   6.548
 7072SOL    HW122115   0.177   6.843   6.644
 7072SOL    HW222116   0.163   6.961   6.532
 7073SOL     OW22117   1.687   2.309   0.329
 7073SOL    HW122118   1.649   2.281   0.241
 7073SOL    HW222119   1.779   2.346   0.315
 7074SOL     OW22120   4.011   1.414   6.259
 7074SOL    HW122121   3.971   1.439   6.347
 7074SOL    HW222122   3.954   1.343   6.216
 7075SOL     OW22123   0.357   6.390   3.300
 7075SOL    HW122124   0.260   6.413   3.310
 7075SOL    HW222125   0.395   6.367   3.390
 7076SOL     OW22126   3.052   1.273   5.764
 7076SOL    HW122127   3.078   1.365   5.734
 7076SOL    HW222128   3.133   1.224   5.796
 7077SOL     OW22129   0.939   5.713   6.460
 7077SOL    HW122130   0.973   5.766   6.537
 7077SOL    HW222131   0.848   5.747   6.433
 7078SOL     OW22132   0.367   0.432   1.455
 7078SOL    HW122133   0.383   0.357   1.392
 7078SOL    HW222134   0.366   0.518   1.404
 7079SOL     OW22135   4.933   6.698   4.082
 7079SOL    HW122136   5.001   6.656   4.142
 7079SOL    HW222137   4.940   6.798   4.087
 7080SOL     OW22138   6.133   0.645   3.644
 7080SOL    HW122139   6.109   0.639   3.547
 7080SOL    HW222140   6.125   0.740   3.675
 7081SOL     OW22141   4.337   0.871   4.554
 7081SOL    HW122142   4.362   0.957   4.601
 7081SOL    HW222143   4.336   0.887   4.455
 7082SOL     OW22144   5.815   1.466   0.310
 7082SOL    HW122145   5.742   1.429   0.252
 7082SOL    HW222146   5.872   1.528   0.256
 7083SOL     OW22147   4.610   0.462   4.830
 7083SOL    HW122148   4.532   0.458   4.893
 7083SOL    HW222149   4.607   0.549   4.780
 7084SOL     OW22150   6.483   5.334   0.194
 7084SOL    HW122151   6.417   5.334   0.269
 7084SOL    HW222152   6.483   5.244   0.150
 7085SOL     OW22153   5.418   1.633   1.167
 7085SOL    HW122154   5.467   1.704   1.116
 7085SOL    HW222155   5.419   1.548   1.113
 7086SOL     OW22156   1.231   0.791   6.113
 7086SOL    HW122157   1.327   0.772   6.136
 7086SOL    HW222158   1.206   0.882   6.147
 7087SOL     OW22159   2.450   2.637   4.179
 7087SOL    HW122160   2.513   2.565   4.209
 7087SOL    HW222161   2.480   2.673   4.090
 7088SOL     OW22162   0.110   0.949   4.776
 7088SOL    HW122163   0.047   0.939   4.852
 7088SOL    HW222164   0.069   1.006   4.706
 7089SOL     OW22165   2.682   2.078   2.102
 7089SOL    HW122166   2.704   2.167   2.064
 7089SOL    HW222167   2.728   2.066   2.190
 7090SOL     OW22168   3.654   0.892   5.093
 7090SOL    HW122169   3.569   0.865   5.048
 7090SOL    HW222170   3.645   0.878   5.192
 7091SOL     OW22171   6.765   4.933   6.794
 7091SOL    HW122172   6.734   4.973   6.880
 7091SOL    HW222173   6.861   4.905   6.803
 7092SOL     OW22174   3.403   2.128   0.831
 7092SOL    HW122175   3.462   2.050   0.811
 7092SOL    HW222176   3.343   2.106   0.908
 7093SOL     OW22177   3.847   3.969   6.131
 7093SOL    HW122178   3.778   3.908   6.170
 7093SOL    HW222179   3.819   3.997   6.039
 7094SOL     OW22180   6.110   1.184   6.432
 7094SOL    HW122181   6.017   1.171   6.465
 7094SOL    HW222182   6.165   1.104   6.455
 7095SOL     OW22183   1.133   4.568   1.576
 7095SOL    HW122184   1.044   4.604   1.604
 7095SOL    HW222185   1.121   4.497   1.508
 7096SOL     OW22186   3.391   0.097   3.424
 7096SOL    HW122187   3.365   0.127   3.332
 7096SOL    HW222188   3.351   0.158   3.492
 7097SOL     OW22189   1.985   1.548   1.518
 7097SOL    HW122190   2.068   1.592   1.554
 7097SOL    HW222191   1.919   1.537   1.591
 7098SOL     OW22192   1.089   0.744   0.006
 7098SOL    HW122193   1.130   0.664   0.050
 7098SOL    HW222194   1.159   0.814   7.021
 7099SOL     OW22195   0.087   1.685   4.220
 7099SOL    HW122196   0.028   1.641   4.288
 7099SOL    HW222197   0.040   1.685   4.131
 7100SOL     OW22198   5.526   2.464   0.937
 7100SOL    HW122199   5.612   2.462   0.988
 7100SOL    HW222200   5.540   2.421   0.847
 7101SOL     OW22201   1.369   0.471   4.872
 7101SOL    HW122202   1.274   0.471   4.840
 7101SOL    HW222203   1.375   0.422   4.959
 7102SOL     OW22204   4.581   2.807   6.900
 7102SOL    HW122205   4.543   2.892   6.935
 7102SOL    HW222206   4.553   2.731   6.959
 7103SOL     OW22207   2.499   6.771   6.757
 7103SOL    HW122208   2.500   6.854   6.814
 7103SOL    HW222209   2.546   6.789   6.671
 7104SOL     OW22210   7.028   3.405   1.422
 7104SOL    HW122211   0.012   3.306   1.409
 7104SOL    HW222212   0.088   3.447   1.442
 7105SOL     OW22213   1.990   2.545   4.524
 7105SOL    HW122214   2.034   2.606   4.458
 7105SOL    HW222215   2.049   2.465   4.540
 7106SOL     OW22216   3.007   2.783   5.378
 7106SOL    HW122217   2.977   2.857   5.438
 7106SOL    HW222218   3.070   2.723   5.429
 7107SOL     OW22219   1.767   1.807   0.237
 7107SOL    HW122220   1.781   1.905   0.219
 7107SOL    HW222221   1.854   1.759   0.228
 7108SOL     OW22222   3.838   6.466   2.151
 7108SOL    HW122223   3.841   6.553   2.201
 7108SOL    HW222224   3.762   6.411   2.185
 7109SOL     OW22225   4.894   6.044   0.082
 7109SOL    HW122226   4.940   6.116   0.030
 7109SOL    HW222227   4.919   5.955   0.043
 7110SOL     OW22228   4.267   5.301   4.265
 7110SOL    HW122229   4.287   5.281   4.169
 7110SOL    HW222230   4.304   5.228   4.323
 7111SOL     OW22231   1.471   3.001   2.993
 7111SOL    HW122232   1.500   3.096   2.984
 7111SOL    HW222233   1.508   2.963   3.078
 7112SOL     OW22234   2.121   6.028   3.112
 7112SOL    HW122235   2.064   6.107   3.136
 7112SOL    HW222236   2.115   6.012   3.013
 7113SOL     OW22237   3.547   4.127   6.213
 7113SOL    HW122238   3.550   4.100   6.116
 7113SOL    HW222239   3.530   4.047   6.270
 7114SOL     OW22240   3.632   6.555   0.463
 7114SOL    HW122241   3.568   6.626   0.492
 7114SOL    HW222242   3.701   6.541   0.535
 7115SOL     OW22243   3.674   2.405   1.128
 7115SOL    HW122244   3.653   2.331   1.193
 7115SOL    HW222245   3.770   2.400   1.102
 7116SOL     OW22246   6.461   4.421   4.035
 7116SOL    HW122247   6.424   4.501   4.082
 7116SOL    HW222248   6.465   4.438   3.937
 7117SOL     OW22249   5.273   0.476   2.626
 7117SOL    HW122250   5.359   0.446   2.668
 7117SOL    HW222251   5.246   0.411   2.555
 7118SOL     OW22252   6.721   3.830   3.924
 7118SOL    HW122253   6.774   3.914   3.914
 7118SOL    HW222254   6.689   3.821   4.018
 7119SOL     OW22255   0.356   2.005   2.401
 7119SOL    HW122256   0.387   1.946   2.326
 7119SOL    HW222257   0.272   2.051   2.373
 7120SOL     OW22258   4.721   6.797   4.460
 7120SOL    HW122259   4.664   6.878   4.444
 7120SOL    HW222260   4.697   6.756   4.547
 7121SOL     OW22261   1.518   6.437   0.832
 7121SOL    HW122262   1.526   6.495   0.913
 7121SOL    HW222263   1.598   6.378   0.825
 7122SOL     OW22264   6.996   6.004   0.544
 7122SOL    HW122265   6.953   6.074   0.602
 7122SOL    HW222266   6.962   5.914   0.570
 7123SOL     OW22267   3.417   4.722   0.754
 7123SOL    HW122268   3.412   4.685   0.846
 7123SOL    HW222269   3.370   4.661   0.690
 7124SOL     OW22270   0.498   4.868   7.014
 7124SOL    HW122271   0.579   4.869   6.954
 7124SOL    HW222272   0.473   4.962   0.008
 7125SOL     OW22273   1.469   5.765   3.480
 7125SOL    HW122274   1.485   5.854   3.437
 7125SOL    HW222275   1.453   5.777   3.577
 7126SOL     OW22276   1.759   4.386   1.017
 7126SOL    HW122277   1.774   4.459   0.950
 7126SOL    HW222278   1.825   4.312   1.002
 7127SOL     OW22279   2.565   0.368   4.944
 7127SOL    HW122280   2.645   0.311   4.963
 7127SOL    HW222281   2.587   0.463   4.962
 7128SOL     OW22282   3.167   4.075   2.587
 7128SOL    HW122283   3.101   4.064   2.513
 7128SOL    HW222284   3.231   4.149   2.564
 7129SOL     OW22285   3.475   1.804   0.428
 7129SOL    HW122286   3.402   1.871   0.414
 7129SOL    HW222287   3.563   1.847   0.411
 7130SOL     OW22288   1.367   0.613   2.939
 7130SOL    HW122289   1.443   0.670   2.969
 7130SOL    HW222290   1.298   0.670   2.894
 7131SOL     OW22291   2.886   1.068   3.027
 7131SOL    HW122292   2.924   1.129   2.957
 7131SOL    HW222293   2.834   1.122   3.092
 7132SOL     OW22294   3.260   4.085   2.299
 7132SOL    HW122295   3.300   3.998   2.270
 7132SOL    HW222296   3.167   4.069   2.333
 7133SOL     OW22297   6.161   4.044   2.041
 7133SOL    HW122298   6.156   4.130   2.092
 7133SOL    HW222299   6.078   4.033   1.986
 7134SOL     OW22300   4.743   4.491   2.682
 7134SOL    HW122301   4.699   4.515   2.595
 7134SOL    HW222302   4.676   4.494   2.756
 7135SOL     OW22303   6.875   1.896   5.912
 7135SOL    HW122304   6.895   1.801   5.936
 7135SOL    HW222305   6.785   1.921   5.948
 7136SOL     OW22306   2.235   2.245   6.701
 7136SOL    HW122307   2.148   2.270   6.745
 7136SOL    HW222308   2.241   2.290   6.612
 7137SOL     OW22309   5.420   2.212   5.313
 7137SOL    HW122310   5.321   2.199   5.311
 7137SOL    HW222311   5.452   2.235   5.221
 7138SOL     OW22312   2.196   2.318   6.401
 7138SOL    HW122313   2.107   2.351   6.433
 7138SOL    HW222314   2.184   2.252   6.327
 7139SOL     OW22315   2.020   1.372   0.160
 7139SOL    HW122316   2.116   1.359   0.186
 7139SOL    HW222317   1.964   1.303   0.205
 7140SOL     OW22318   6.634   4.580   4.584
 7140SOL    HW122319   6.614   4.531   4.499
 7140SOL    HW222320   6.724   4.552   4.619
 7141SOL     OW22321   0.857   0.804   1.883
 7141SOL    HW122322   0.794   0.808   1.961
 7141SOL    HW222323   0.851   0.714   1.840
 7142SOL     OW22324   3.578   6.675   4.170
 7142SOL    HW122325   3.585   6.610   4.246
 7142SOL    HW222326   3.485   6.712   4.167
 7143SOL     OW22327   1.822   2.979   4.112
 7143SOL    HW122328   1.767   2.897   4.131
 7143SOL    HW222329   1.851   2.978   4.017
 7144SOL     OW22330   1.853   3.355   3.479
 7144SOL    HW122331   1.895   3.408   3.405
 7144SOL    HW222332   1.881   3.393   3.567
 7145SOL     OW22333   3.199   5.780   6.950
 7145SOL    HW122334   3.162   5.723   6.877
 7145SOL    HW222335   3.288   5.744   6.978
 7146SOL     OW22336   4.012   5.054   1.422
 7146SOL    HW122337   3.969   4.993   1.488
 7146SOL    HW222338   4.060   5.127   1.470
 7147SOL     OW22339   0.659   0.886   3.892
 7147SOL    HW122340   0.755   0.889   3.864
 7147SOL    HW222341   0.654   0.868   3.991
 7148SOL     OW22342   6.609   1.995   0.704
 7148SOL    HW122343   6.674   2.011   0.629
 7148SOL    HW222344   6.555   2.078   0.719
 7149SOL     OW22345   1.261   0.788   4.636
 7149SOL    HW122346   1.273   0.821   4.730
 7149SOL    HW222347   1.343   0.810   4.583
 7150SOL     OW22348   6.844   3.530   5.960
 7150SOL    HW122349   6.855   3.518   6.059
 7150SOL    HW222350   6.810   3.622   5.942
 7151SOL     OW22351   1.207   6.923   0.694
 7151SOL    HW122352   1.259   6.841   0.715
 7151SOL    HW222353   1.260   7.004   0.720
 7152SOL     OW22354   0.770   2.444   4.515
 7152SOL    HW122355   0.672   2.435   4.498
 7152SOL    HW222356   0.786   2.449   4.614
 7153SOL     OW22357   4.627   1.936   3.395
 7153SOL    HW122358   4.597   1.844   3.368
 7153SOL    HW222359   4.559   1.977   3.457
 7154SOL     OW22360   3.803   0.392   4.480
 7154SOL    HW122361   3.873   0.323   4.459
 7154SOL    HW222362   3.836   0.482   4.451
 7155SOL     OW22363   1.799   1.639   4.198
 7155SOL    HW122364   1.886   1.685   4.180
 7155SOL    HW222365   1.813   1.569   4.268
 7156SOL     OW22366   1.858   5.580   5.453
 7156SOL    HW122367   1.886   5.490   5.486
 7156SOL    HW222368   1.896   5.596   5.361
 7157SOL     OW22369   5.837   4.205   0.821
 7157SOL    HW122370   5.797   4.113   0.823
 7157SOL    HW222371   5.765   4.272   0.804
 7158SOL     OW22372   3.710   0.317   3.172
 7158SOL    HW122373   3.681   0.297   3.266
 7158SOL    HW222374   3.717   0.416   3.160
 7159SOL     OW22375   1.348   6.106   7.012
 7159SOL    HW122376   1.439   6.065   7.022
 7159SOL    HW222377   1.315   6.135   0.073
 7160SOL     OW22378   0.718   0.149   2.364
 7160SOL    HW122379   0.631   0.198   2.354
 7160SOL    HW222380   0.792   0.204   2.325
 7161SOL     OW22381   3.188   4.072   5.150
 7161SOL    HW122382   3.198   4.154   5.207
 7161SOL    HW222383   3.270   4.017   5.156
 7162SOL     OW22384   3.761   4.882   4.101
 7162SOL    HW122385   3.670   4.900   4.138
 7162SOL    HW222386   3.794   4.963   4.052
 7163SOL     OW22387   1.348   6.477   3.929
 7163SOL    HW122388   1.446   6.486   3.948
 7163SOL    HW222389   1.308   6.568   3.918
 7164SOL     OW22390   3.591   1.272   4.073
 7164SOL    HW122391   3.521   1.294   4.142
 7164SOL    HW222392   3.677   1.317   4.097
 7165SOL     OW22393   4.434   5.079   2.242
 7165SOL    HW122394   4.344   5.077   2.198
 7165SOL    HW222395   4.502   5.041   2.180
 7166SOL     OW22396   3.135   6.753   2.742
 7166SOL    HW122397   3.135   6.723   2.646
 7166SOL    HW222398   3.229   6.758   2.775
 7167SOL     OW22399   5.348   2.532   0.520
 7167SOL    HW122400   5.416   2.504   0.588
 7167SOL    HW222401   5.343   2.463   0.448
 7168SOL     OW22402   6.814   1.582   4.081
 7168SOL    HW122403   6.843   1.628   3.996
 7168SOL    HW222404   6.871   1.501   4.096
 7169SOL     OW22405   1.906   2.404   0.259
 7169SOL    HW122406   1.867   2.429   0.170
 7169SOL    HW222407   1.991   2.454   0.273
 7170SOL     OW22408   4.781   4.037   4.657
 7170SOL    HW122409   4.777   3.967   4.728
 7170SOL    HW222410   4.805   3.995   4.570
 7171SOL     OW22411   3.589   3.595   5.441
 7171SOL    HW122412   3.508   3.640   5.478
 7171SOL    HW222413   3.660   3.592   5.512
 7172SOL     OW22414   5.304   5.518   1.521
 7172SOL    HW122415   5.318   5.526   1.620
 7172SOL    HW222416   5.362   5.444   1.485
 7173SOL     OW22417   6.402   6.691   4.168
 7173SOL    HW122418   6.451   6.763   4.217
 7173SOL    HW222419   6.464   6.647   4.103
 7174SOL     OW22420   0.985   6.219   5.597
 7174SOL    HW122421   0.965   6.180   5.507
 7174SOL    HW222422   0.947   6.311   5.603
 7175SOL     OW22423   5.825   3.678   5.651
 7175SOL    HW122424   5.880   3.721   5.580
 7175SOL    HW222425   5.824   3.579   5.637
 7176SOL     OW22426   1.568   3.579   1.310
 7176SOL    HW122427   1.588   3.495   1.258
 7176SOL    HW222428   1.621   3.579   1.395
 7177SOL     OW22429   6.969   4.982   1.447
 7177SOL    HW122430   0.018   5.020   1.497
 7177SOL    HW222431   6.917   4.921   1.507
 7178SOL     OW22432   6.820   0.339   6.752
 7178SOL    HW122433   6.772   0.252   6.740
 7178SOL    HW222434   6.760   0.414   6.725
 7179SOL     OW22435   0.993   3.896   5.885
 7179SOL    HW122436   1.077   3.863   5.929
 7179SOL    HW222437   0.993   3.869   5.789
 7180SOL     OW22438   0.231   0.521   1.978
 7180SOL    HW122439   0.277   0.439   1.943
 7180SOL    HW222440   0.279   0.603   1.944
 7181SOL     OW22441   5.377   6.570   2.438
 7181SOL    HW122442   5.305   6.511   2.401
 7181SOL    HW222443   5.443   6.515   2.489
 7182SOL     OW22444   3.336   3.686   5.995
 7182SOL    HW122445   3.385   3.601   5.979
 7182SOL    HW222446   3.337   3.707   6.093
 7183SOL     OW22447   2.379   2.776   2.683
 7183SOL    HW122448   2.459   2.716   2.675
 7183SOL    HW222449   2.342   2.794   2.592
 7184SOL     OW22450   2.768   5.274   3.058
 7184SOL    HW122451   2.832   5.313   3.125
 7184SOL    HW222452   2.818   5.250   2.975
 7185SOL     OW22453   5.576   2.324   6.244
 7185SOL    HW122454   5.665   2.293   6.213
 7185SOL    HW222455   5.582   2.357   6.338
 7186SOL     OW22456   1.326   0.023   4.729
 7186SOL    HW122457   1.362   0.113   4.704
 7186SOL    HW222458   1.346   6.987   4.656
 7187SOL     OW22459   1.777   4.760   1.145
 7187SOL    HW122460   1.877   4.764   1.143
 7187SOL    HW222461   1.742   4.842   1.191
 7188SOL     OW22462   4.152   0.172   1.819
 7188SOL    HW122463   4.076   0.181   1.754
 7188SOL    HW222464   4.134   0.229   1.899
 7189SOL     OW22465   6.423   0.635   5.922
 7189SOL    HW122466   6.357   0.700   5.884
 7189SOL    HW222467   6.375   0.566   5.976
 7190SOL     OW22468   4.820   4.742   2.031
 7190SOL    HW122469   4.868   4.820   1.993
 7190SOL    HW222470   4.805   4.756   2.129
 7191SOL     OW22471   0.611   3.682   1.550
 7191SOL    HW122472   0.652   3.599   1.514
 7191SOL    HW222473   0.676   3.758   1.541
 7192SOL     OW22474   3.537   4.392   6.029
 7192SOL    HW122475   3.500   4.333   6.101
 7192SOL    HW222476   3.580   4.336   5.958
 7193SOL     OW22477   6.166   2.293   4.881
 7193SOL    HW122478   6.137   2.387   4.863
 7193SOL    HW222479   6.143   2.269   4.975
 7194SOL     OW22480   3.572   1.018   1.778
 7194SOL    HW122481   3.640   1.040   1.847
 7194SOL    HW222482   3.501   1.088   1.778
 7195SOL     OW22483   0.851   0.159   3.719
 7195SOL    HW122484   0.850   0.100   3.638
 7195SOL    HW222485   0.775   0.223   3.714
 7196SOL     OW22486   3.839   4.100   1.567
 7196SOL    HW122487   3.926   4.095   1.519
 7196SOL    HW222488   3.769   4.051   1.514
 7197SOL     OW22489   2.163   0.675   3.628
 7197SOL    HW122490   2.065   0.663   3.640
 7197SOL    HW222491   2.185   0.682   3.530
 7198SOL     OW22492   0.057   6.584   5.396
 7198SOL    HW122493   0.154   6.600   5.380
 7198SOL    HW222494   0.010   6.569   5.308
 7199SOL     OW22495   6.449   5.961   1.712
 7199SOL    HW122496   6.457   5.882   1.773
 7199SOL    HW222497   6.426   6.042   1.766
 7200SOL     OW22498   1.060   1.868   2.510
 7200SOL    HW122499   1.083   1.829   2.421
 7200SOL    HW222500   0.961   1.880   2.517
 7201SOL     OW22501   1.563   5.009   3.051
 7201SOL    HW122502   1.647   4.967   3.084
 7201SOL    HW222503   1.506   4.939   3.006
 7202SOL     OW22504   1.968   0.036   5.287
 7202SOL    HW122505   2.068   0.030   5.281
 7202SOL    HW222506   1.943   0.117   5.339
 7203SOL     OW22507   5.505   0.620   6.672
 7203SOL    HW122508   5.540   0.527   6.661
 7203SOL    HW222509   5.553   0.665   6.747
 7204SOL     OW22510   0.992   3.304   2.427
 7204SOL    HW122511   1.052   3.385   2.429
 7204SOL    HW222512   0.944   3.301   2.340
 7205SOL     OW22513   1.431   4.334   1.391
 7205SOL    HW122514   1.338   4.366   1.370
 7205SOL    HW222515   1.428   4.239   1.421
 7206SOL     OW22516   6.999   0.617   2.009
 7206SOL    HW122517   0.066   0.586   2.009
 7206SOL    HW222518   6.943   0.551   1.958
 7207SOL     OW22519   3.923   6.818   1.372
 7207SOL    HW122520   3.940   6.795   1.468
 7207SOL    HW222521   3.925   6.917   1.360
 7208SOL     OW22522   2.786   6.856   5.022
 7208SOL    HW122523   2.778   6.790   5.097
 7208SOL    HW222524   2.702   6.910   5.015
 7209SOL     OW22525   2.265   3.634   5.379
 7209SOL    HW122526   2.312   3.696   5.441
 7209SOL    HW222527   2.202   3.686   5.321
 7210SOL     OW22528   4.318   0.920   4.284
 7210SOL    HW122529   4.289   0.879   4.198
 7210SOL    HW222530   4.320   1.019   4.275
 7211SOL     OW22531   0.244   5.474   3.039
 7211SOL    HW122532   0.251   5.471   2.939
 7211SOL    HW222533   0.152   5.500   3.065
 7212SOL     OW22534   5.277   6.437   2.727
 7212SOL    HW122535   5.374   6.432   2.705
 7212SOL    HW222536   5.238   6.345   2.729
 7213SOL     OW22537   5.780   6.255   5.266
 7213SOL    HW122538   5.863   6.249   5.323
 7213SOL    HW222539   5.805   6.250   5.170
 7214SOL     OW22540   1.666   5.117   6.098
 7214SOL    HW122541   1.587   5.173   6.071
 7214SOL    HW222542   1.653   5.024   6.064
 7215SOL     OW22543   1.310   2.820   1.595
 7215SOL    HW122544   1.384   2.850   1.655
 7215SOL    HW222545   1.233   2.788   1.651
 7216SOL     OW22546   2.511   1.622   2.744
 7216SOL    HW122547   2.414   1.635   2.724
 7216SOL    HW222548   2.561   1.606   2.658
 7217SOL     OW22549   1.283   3.862   1.819
 7217SOL    HW122550   1.341   3.825   1.892
 7217SOL    HW222551   1.314   3.955   1.797
 7218SOL     OW22552   6.572   3.098   3.755
 7218SOL    HW122553   6.659   3.054   3.735
 7218SOL    HW222554   6.586   3.197   3.762
 7219SOL     OW22555   2.031   1.474   1.827
 7219SOL    HW122556   2.130   1.473   1.810
 7219SOL    HW222557   2.015   1.489   1.925
 7220SOL     OW22558   6.671   1.863   3.494
 7220SOL    HW122559   6.623   1.934   3.442
 7220SOL    HW222560   6.648   1.773   3.457
 7221SOL     OW22561   6.749   3.911   4.619
 7221SOL    HW122562   6.810   3.987   4.599
 7221SOL    HW222563   6.683   3.939   4.690
 7222SOL     OW22564   6.286   0.372   2.751
 7222SOL    HW122565   6.317   0.448   2.808
 7222SOL    HW222566   6.295   0.286   2.802
 7223SOL     OW22567   5.059   1.031   4.582
 7223SOL    HW122568   5.116   1.071   4.510
 7223SOL    HW222569   5.046   0.934   4.563
 7224SOL     OW22570   4.989   1.033   3.362
 7224SOL    HW122571   5.053   0.956   3.361
 7224SOL    HW222572   4.913   1.013   3.424
 7225SOL     OW22573   2.703   0.347   1.583
 7225SOL    HW122574   2.704   0.377   1.487
 7225SOL    HW222575   2.733   0.423   1.641
 7226SOL     OW22576   5.481   6.716   4.947
 7226SOL    HW122577   5.427   6.798   4.929
 7226SOL    HW222578   5.420   6.643   4.980
 7227SOL     OW22579   0.570   2.731   5.307
 7227SOL    HW122580   0.563   2.648   5.251
 7227SOL    HW222581   0.653   2.727   5.362
 7228SOL     OW22582   1.815   0.156   3.115
 7228SOL    HW122583   1.795   0.237   3.059
 7228SOL    HW222584   1.912   0.135   3.110
 7229SOL     OW22585   6.162   0.355   3.486
 7229SOL    HW122586   6.243   0.370   3.543
 7229SOL    HW222587   6.181   0.383   3.392
 7230SOL     OW22588   6.305   5.454   1.651
 7230SOL    HW122589   6.320   5.371   1.704
 7230SOL    HW222590   6.222   5.500   1.684
 7231SOL     OW22591   5.863   1.167   6.844
 7231SOL    HW122592   5.955   1.189   6.810
 7231SOL    HW222593   5.853   1.204   6.936
 7232SOL     OW22594   3.327   3.661   0.776
 7232SOL    HW122595   3.280   3.690   0.693
 7232SOL    HW222596   3.271   3.592   0.823
 7233SOL     OW22597   1.268   1.949   6.628
 7233SOL    HW122598   1.264   1.882   6.553
 7233SOL    HW222599   1.258   2.041   6.590
 7234SOL     OW22600   5.377   2.645   3.747
 7234SOL    HW122601   5.473   2.671   3.749
 7234SOL    HW222602   5.348   2.615   3.837
 7235SOL     OW22603   5.518   2.761   4.584
 7235SOL    HW122604   5.531   2.730   4.490
 7235SOL    HW222605   5.421   2.755   4.608
 7236SOL     OW22606   0.686   1.818   3.587
 7236SOL    HW122607   0.650   1.897   3.636
 7236SOL    HW222608   0.615   1.780   3.527
 7237SOL     OW22609   6.375   4.873   5.825
 7237SOL    HW122610   6.464   4.875   5.780
 7237SOL    HW222611   6.307   4.835   5.762
 7238SOL     OW22612   1.576   0.336   2.721
 7238SOL    HW122613   1.562   0.237   2.734
 7238SOL    HW222614   1.488   0.383   2.730
 7239SOL     OW22615   4.640   1.559   2.163
 7239SOL    HW122616   4.558   1.616   2.173
 7239SOL    HW222617   4.678   1.538   2.253
 7240SOL     OW22618   2.981   3.250   3.366
 7240SOL    HW122619   2.881   3.248   3.362
 7240SOL    HW222620   3.010   3.299   3.448
 7241SOL     OW22621   5.079   0.271   4.991
 7241SOL    HW122622   5.013   0.331   4.946
 7241SOL    HW222623   5.161   0.264   4.936
 7242SOL     OW22624   6.017   5.640   0.841
 7242SOL    HW122625   6.026   5.695   0.758
 7242SOL    HW222626   6.047   5.546   0.823
 7243SOL     OW22627   0.283   6.071   1.319
 7243SOL    HW122628   0.340   6.106   1.245
 7243SOL    HW222629   0.322   5.986   1.354
 7244SOL     OW22630   4.437   1.936   1.733
 7244SOL    HW122631   4.503   1.965   1.802
 7244SOL    HW222632   4.373   1.870   1.774
 7245SOL     OW22633   5.678   2.229   3.537
 7245SOL    HW122634   5.697   2.314   3.488
 7245SOL    HW222635   5.676   2.152   3.473
 7246SOL     OW22636   0.909   5.597   5.607
 7246SOL    HW122637   0.963   5.681   5.617
 7246SOL    HW222638   0.881   5.587   5.511
 7247SOL     OW22639   4.461   5.460   3.682
 7247SOL    HW122640   4.368   5.471   3.716
 7247SOL    HW222641   4.474   5.518   3.601
 7248SOL     OW22642   3.270   0.883   5.382
 7248SOL    HW122643   3.363   0.862   5.412
 7248SOL    HW222644   3.269   0.895   5.283
 7249SOL     OW22645   5.429   2.732   6.393
 7249SOL    HW122646   5.375   2.719   6.476
 7249SOL    HW222647   5.523   2.701   6.410
 7250SOL     OW22648   3.234   3.287   0.256
 7250SOL    HW122649   3.207   3.276   0.351
 7250SOL    HW222650   3.303   3.218   0.232
 7251SOL     OW22651   6.197   1.445   5.882
 7251SOL    HW122652   6.246   1.363   5.851
 7251SOL    HW222653   6.127   1.468   5.815
 7252SOL     OW22654   4.542   3.519   5.369
 7252SOL    HW122655   4.621   3.520   5.307
 7252SOL    HW222656   4.460   3.496   5.317
 7253SOL     OW22657   5.160   5.074   0.307
 7253SOL    HW122658   5.141   5.089   0.211
 7253SOL    HW222659   5.189   4.979   0.321
 7254SOL     OW22660   4.995   6.195   5.558
 7254SOL    HW122661   5.075   6.223   5.506
 7254SOL    HW222662   5.022   6.133   5.632
 7255SOL     OW22663   3.462   3.718   3.896
 7255SOL    HW122664   3.537   3.681   3.950
 7255SOL    HW222665   3.385   3.741   3.956
 7256SOL     OW22666   3.558   5.886   3.861
 7256SOL    HW122667   3.533   5.838   3.944
 7256SOL    HW222668   3.527   5.981   3.866
 7257SOL     OW22669   6.261   5.315   2.313
 7257SOL    HW122670   6.300   5.372   2.241
 7257SOL    HW222671   6.253   5.368   2.397
 7258SOL     OW22672   2.736   0.636   6.032
 7258SOL    HW122673   2.720   0.678   6.122
 7258SOL    HW222674   2.660   0.574   6.010
 7259SOL     OW22675   3.656   4.238   5.769
 7259SOL    HW122676   3.592   4.279   5.704
 7259SOL    HW222677   3.611   4.164   5.818
 7260SOL     OW22678   4.354   2.104   2.900
 7260SOL    HW122679   4.421   2.099   2.825
 7260SOL    HW222680   4.283   2.171   2.877
 7261SOL     OW22681   2.741   4.807   1.295
 7261SOL    HW122682   2.735   4.884   1.231
 7261SOL    HW222683   2.771   4.840   1.384
 7262SOL     OW22684   5.959   0.612   4.403
 7262SOL    HW122685   5.905   0.557   4.339
 7262SOL    HW222686   6.031   0.556   4.443
 7263SOL     OW22687   4.821   4.399   1.259
 7263SOL    HW122688   4.781   4.396   1.351
 7263SOL    HW222689   4.781   4.475   1.208
 7264SOL     OW22690   6.414   6.852   4.967
 7264SOL    HW122691   6.506   6.851   5.007
 7264SOL    HW222692   6.367   6.767   4.992
 7265SOL     OW22693   4.616   2.988   6.273
 7265SOL    HW122694   4.654   3.029   6.356
 7265SOL    HW222695   4.646   2.893   6.267
 7266SOL     OW22696   4.005   1.268   2.706
 7266SOL    HW122697   3.911   1.300   2.693
 7266SOL    HW222698   4.024   1.259   2.803
 7267SOL     OW22699   4.477   2.415   4.206
 7267SOL    HW122700   4.420   2.362   4.269
 7267SOL    HW222701   4.464   2.513   4.223
 7268SOL     OW22702   3.917   6.462   6.497
 7268SOL    HW122703   3.959   6.373   6.514
 7268SOL    HW222704   3.959   6.505   6.417
 7269SOL     OW22705   1.413   0.101   4.050
 7269SOL    HW122706   1.449   0.040   3.981
 7269SOL    HW222707   1.348   0.052   4.109
 7270SOL     OW22708   3.964   2.567   1.567
 7270SOL    HW122709   3.871   2.560   1.603
 7270SOL    HW222710   4.012   2.641   1.615
 7271SOL     OW22711   4.544   6.330   3.609
 7271SOL    HW122712   4.471   6.331   3.678
 7271SOL    HW222713   4.562   6.236   3.581
 7272SOL     OW22714   5.463   1.364   1.675
 7272SOL    HW122715   5.415   1.372   1.762
 7272SOL    HW222716   5.400   1.330   1.605
 7273SOL     OW22717   5.935   4.594   4.254
 7273SOL    HW122718   5.873   4.524   4.220
 7273SOL    HW222719   5.905   4.625   4.344
 7274SOL     OW22720   5.642   4.872   3.832
 7274SOL    HW122721   5.695   4.845   3.752
 7274SOL    HW222722   5.558   4.818   3.837
 7275SOL     OW22723   6.091   0.213   2.160
 7275SOL    HW122724   6.186   0.224   2.131
 7275SOL    HW222725   6.038   0.293   2.132
 7276SOL     OW22726   4.143   1.496   2.990
 7276SOL    HW122727   4.158   1.517   3.087
 7276SOL    HW222728   4.108   1.403   2.981
 7277SOL     OW22729   6.662   2.572   3.977
 7277SOL    HW122730   6.562   2.561   3.971
 7277SOL    HW222731   6.705   2.482   3.973
 7278SOL     OW22732   3.747   1.389   2.881
 7278SOL    HW122733   3.788   1.481   2.878
 7278SOL    HW222734   3.702   1.370   2.794
 7279SOL     OW22735   3.255   3.509   2.186
 7279SOL    HW122736   3.186   3.489   2.117
 7279SOL    HW222737   3.254   3.438   2.256
 7280SOL     OW22738   6.353   1.402   6.107
 7280SOL    HW122739   6.423   1.330   6.105
 7280SOL    HW222740   6.290   1.388   6.031
 7281SOL     OW22741   3.464   0.181   3.767
 7281SOL    HW122742   3.484   0.092   3.727
 7281SOL    HW222743   3.403   0.233   3.707
 7282SOL     OW22744   1.107   4.073   1.309
 7282SOL    HW122745   1.203   4.068   1.280
 7282SOL    HW222746   1.059   3.991   1.278
 7283SOL     OW22747   2.533   5.865   2.780
 7283SOL    HW122748   2.602   5.824   2.719
 7283SOL    HW222749   2.447   5.875   2.731
 7284SOL     OW22750   0.375   1.064   4.222
 7284SOL    HW122751   0.435   1.035   4.148
 7284SOL    HW222752   0.280   1.066   4.190
 7285SOL     OW22753   4.634   2.363   2.351
 7285SOL    HW122754   4.619   2.265   2.345
 7285SOL    HW222755   4.730   2.380   2.375
 7286SOL     OW22756   6.381   1.363   5.093
 7286SOL    HW122757   6.378   1.333   4.997
 7286SOL    HW222758   6.473   1.393   5.116
 7287SOL     OW22759   3.379   1.536   4.579
 7287SOL    HW122760   3.281   1.549   4.594
 7287SOL    HW222761   3.427   1.622   4.597
 7288SOL     OW22762   3.147   2.256   0.752
 7288SOL    HW122763   3.168   2.342   0.705
 7288SOL    HW222764   3.231   2.221   0.795
 7289SOL     OW22765   0.175   2.344   0.580
 7289SOL    HW122766   0.199   2.441   0.579
 7289SOL    HW222767   0.168   2.311   0.486
 7290SOL     OW22768   3.281   2.013   4.983
 7290SOL    HW122769   3.366   1.987   5.029
 7290SOL    HW222770   3.243   2.095   5.027
 7291SOL     OW22771   1.005   0.930   0.195
 7291SOL    HW122772   0.944   0.898   0.267
 7291SOL    HW222773   1.032   0.853   0.137
 7292SOL     OW22774   3.147   0.946   2.224
 7292SOL    HW122775   3.076   0.897   2.173
 7292SOL    HW222776   3.105   0.996   2.300
 7293SOL     OW22777   5.740   1.372   3.924
 7293SOL    HW122778   5.659   1.416   3.886
 7293SOL    HW222779   5.716   1.321   4.006
 7294SOL     OW22780   1.988   1.246   2.329
 7294SOL    HW122781   2.063   1.181   2.342
 7294SOL    HW222782   1.958   1.244   2.233
 7295SOL     OW22783   5.535   4.466   1.601
 7295SOL    HW122784   5.461   4.480   1.535
 7295SOL    HW222785   5.593   4.391   1.570
 7296SOL     OW22786   3.200   6.986   2.981
 7296SOL    HW122787   3.150   6.999   2.895
 7296SOL    HW222788   3.176   6.897   3.020
 7297SOL     OW22789   5.073   0.412   6.629
 7297SOL    HW122790   5.010   0.346   6.590
 7297SOL    HW222791   5.131   0.367   6.696
 7298SOL     OW22792   4.218   4.385   0.320
 7298SOL    HW122793   4.188   4.446   0.394
 7298SOL    HW222794   4.202   4.429   0.232
 7299SOL     OW22795   0.167   3.074   0.289
 7299SOL    HW122796   0.080   3.076   0.238
 7299SOL    HW222797   0.213   2.987   0.272
 7300SOL     OW22798   0.557   3.832   2.377
 7300SOL    HW122799   0.506   3.909   2.414
 7300SOL    HW222800   0.627   3.804   2.444
 7301SOL     OW22801   3.986   1.895   0.775
 7301SOL    HW122802   4.004   1.830   0.701
 7301SOL    HW222803   3.923   1.855   0.841
 7302SOL     OW22804   5.647   1.747   6.751
 7302SOL    HW122805   5.724   1.809   6.760
 7302SOL    HW222806   5.610   1.753   6.658
 7303SOL     OW22807   3.720   2.329   0.495
 7303SOL    HW122808   3.772   2.290   0.571
 7303SOL    HW222809   3.626   2.295   0.498
 7304SOL     OW22810   2.956   6.787   0.429
 7304SOL    HW122811   3.020   6.852   0.470
 7304SOL    HW222812   2.862   6.818   0.444
 7305SOL     OW22813   6.880   6.787   6.272
 7305SOL    HW122814   6.919   6.878   6.278
 7305SOL    HW222815   6.912   6.742   6.188
 7306SOL     OW22816   2.048   3.345   0.596
 7306SOL    HW122817   2.078   3.439   0.579
 7306SOL    HW222818   2.019   3.337   0.691
 7307SOL     OW22819   4.368   6.700   0.737
 7307SOL    HW122820   4.444   6.763   0.755
 7307SOL    HW222821   4.378   6.618   0.793
 7308SOL     OW22822   3.675   1.786   2.898
 7308SOL    HW122823   3.593   1.729   2.882
 7308SOL    HW222824   3.757   1.732   2.878
 7309SOL     OW22825   2.294   5.453   3.032
 7309SOL    HW122826   2.291   5.551   3.013
 7309SOL    HW222827   2.389   5.423   3.038
 7310SOL     OW22828   4.977   3.434   0.275
 7310SOL    HW122829   4.958   3.457   0.179
 7310SOL    HW222830   5.075   3.425   0.288
 7311SOL     OW22831   1.336   6.489   5.804
 7311SOL    HW122832   1.396   6.549   5.752
 7311SOL    HW222833   1.308   6.412   5.747
 7312SOL     OW22834   5.204   2.101   4.868
 7312SOL    HW122835   5.258   2.028   4.827
 7312SOL    HW222836   5.184   2.078   4.964
 7313SOL     OW22837   3.485   1.039   2.779
 7313SOL    HW122838   3.475   1.068   2.875
 7313SOL    HW222839   3.485   0.940   2.775
 7314SOL     OW22840   3.035   5.576   4.893
 7314SOL    HW122841   2.955   5.634   4.904
 7314SOL    HW222842   3.009   5.480   4.901
 7315SOL     OW22843   2.629   4.792   2.347
 7315SOL    HW122844   2.640   4.876   2.400
 7315SOL    HW222845   2.719   4.754   2.326
 7316SOL     OW22846   2.814   0.921   2.448
 7316SOL    HW122847   2.748   0.897   2.520
 7316SOL    HW222848   2.764   0.943   2.364
 7317SOL     OW22849   5.199   1.522   0.998
 7317SOL    HW122850   5.177   1.529   0.900
 7317SOL    HW222851   5.252   1.602   1.025
 7318SOL     OW22852   4.696   6.681   1.419
 7318SOL    HW122853   4.704   6.631   1.333
 7318SOL    HW222854   4.778   6.667   1.474
 7319SOL     OW22855   4.484   5.000   5.974
 7319SOL    HW122856   4.400   4.946   5.960
 7319SOL    HW222857   4.471   5.091   5.935
 7320SOL     OW22858   1.706   3.180   0.672
 7320SOL    HW122859   1.688   3.082   0.660
 7320SOL    HW222860   1.674   3.209   0.762
 7321SOL     OW22861   2.272   2.470   5.243
 7321SOL    HW122862   2.175   2.445   5.232
 7321SOL    HW222863   2.279   2.544   5.310
 7322SOL     OW22864   2.797   1.986   3.972
 7322SOL    HW122865   2.882   1.953   4.013
 7322SOL    HW222866   2.747   2.041   4.039
 7323SOL     OW22867   2.137   1.910   0.088
 7323SOL    HW122868   2.068   1.857   0.038
 7323SOL    HW222869   2.144   2.001   0.047
 7324SOL     OW22870   6.016   3.762   5.439
 7324SOL    HW122871   6.093   3.708   5.405
 7324SOL    HW222872   6.049   3.851   5.469
 7325SOL     OW22873   3.416   0.655   7.022
 7325SOL    HW122874   3.380   0.681   0.083
 7325SOL    HW222875   3.341   0.623   6.964
 7326SOL     OW22876   3.932   6.774   0.530
 7326SOL    HW122877   3.948   6.782   0.629
 7326SOL    HW222878   3.927   6.865   0.490
 7327SOL     OW22879   1.852   5.113   3.423
 7327SOL    HW122880   1.837   5.143   3.328
 7327SOL    HW222881   1.942   5.144   3.454
 7328SOL     OW22882   4.224   5.966   0.259
 7328SOL    HW122883   4.302   6.029   0.260
 7328SOL    HW222884   4.251   5.879   0.301
 7329SOL     OW22885   2.646   3.884   6.745
 7329SOL    HW122886   2.742   3.868   6.723
 7329SOL    HW222887   2.614   3.813   6.807
 7330SOL     OW22888   2.768   3.601   1.828
 7330SOL    HW122889   2.689   3.542   1.816
 7330SOL    HW222890   2.835   3.583   1.756
 7331SOL     OW22891   5.620   1.983   2.571
 7331SOL    HW122892   5.716   2.005   2.587
 7331SOL    HW222893   5.562   2.040   2.629
 7332SOL     OW22894   1.626   0.122   4.904
 7332SOL    HW122895   1.541   0.159   4.942
 7332SOL    HW222896   1.628   0.137   4.805
 7333SOL     OW22897   6.475   1.259   1.486
 7333SOL    HW122898   6.549   1.193   1.473
 7333SOL    HW222899   6.418   1.263   1.404
 7334SOL     OW22900   0.565   4.922   5.199
 7334SOL    HW122901   0.648   4.953   5.154
 7334SOL    HW222902   0.518   4.855   5.141
 7335SOL     OW22903   6.866   2.605   0.790
 7335SOL    HW122904   6.899   2.603   0.695
 7335SOL    HW222905   6.774   2.568   0.794
 7336SOL     OW22906   2.130   0.048   1.103
 7336SOL    HW122907   2.114   0.026   1.007
 7336SOL    HW222908   2.225   0.029   1.126
 7337SOL     OW22909   2.897   1.874   1.808
 7337SOL    HW122910   2.939   1.947   1.862
 7337SOL    HW222911   2.798   1.890   1.802
 7338SOL     OW22912   5.290   2.262   6.979
 7338SOL    HW122913   5.304   2.346   6.927
 7338SOL    HW222914   5.264   2.284   0.044
 7339SOL     OW22915   6.763   6.630   3.543
 7339SOL    HW122916   6.836   6.681   3.498
 7339SOL    HW222917   6.800   6.547   3.586
 7340SOL     OW22918   2.689   0.132   0.403
 7340SOL    HW122919   2.718   0.036   0.406
 7340SOL    HW222920   2.645   0.150   0.315
 7341SOL     OW22921   5.555   5.568   3.162
 7341SOL    HW122922   5.562   5.641   3.095
 7341SOL    HW222923   5.617   5.585   3.238
 7342SOL     OW22924   6.810   4.719   7.026
 7342SOL    HW122925   6.905   4.749   7.027
 7342SOL    HW222926   6.773   4.728   6.933
 7343SOL     OW22927   0.318   1.709   3.600
 7343SOL    HW122928   0.399   1.735   3.547
 7343SOL    HW222929   0.331   1.733   3.696
 7344SOL     OW22930   1.508   1.566   5.567
 7344SOL    HW122931   1.432   1.603   5.620
 7344SOL    HW222932   1.506   1.466   5.571
 7345SOL     OW22933   1.787   6.920   6.897
 7345SOL    HW122934   1.858   6.863   6.856
 7345SOL    HW222935   1.716   6.939   6.829
 7346SOL     OW22936   3.219   5.514   3.271
 7346SOL    HW122937   3.316   5.516   3.248
 7346SOL    HW222938   3.174   5.596   3.237
 7347SOL     OW22939   6.037   2.887   3.569
 7347SOL    HW122940   6.039   2.894   3.669
 7347SOL    HW222941   6.036   2.979   3.530
 7348SOL     OW22942   5.478   0.021   6.347
 7348SOL    HW122943   5.429   0.085   6.405
 7348SOL    HW222944   5.485   0.058   6.254
 7349SOL     OW22945   3.501   1.798   0.918
 7349SOL    HW122946   3.422   1.847   0.953
 7349SOL    HW222947   3.566   1.782   0.992
 7350SOL     OW22948   1.629   1.291   2.243
 7350SOL    HW122949   1.637   1.200   2.283
 7350SOL    HW222950   1.536   1.304   2.209
 7351SOL     OW22951   6.242   4.816   0.343
 7351SOL    HW122952   6.302   4.888   0.377
 7351SOL    HW222953   6.296   4.746   0.296
 7352SOL     OW22954   6.409   1.876   2.729
 7352SOL    HW122955   6.400   1.776   2.730
 7352SOL    HW222956   6.488   1.903   2.784
 7353SOL     OW22957   5.346   1.707   4.184
 7353SOL    HW122958   5.379   1.707   4.089
 7353SOL    HW222959   5.418   1.740   4.245
 7354SOL     OW22960   5.907   4.527   5.282
 7354SOL    HW122961   5.970   4.449   5.289
 7354SOL    HW222962   5.850   4.517   5.200
 7355SOL     OW22963   0.025   5.462   0.623
 7355SOL    HW122964   7.012   5.394   0.683
 7355SOL    HW222965   6.999   5.471   0.540
 7356SOL     OW22966   0.046   2.257   6.374
 7356SOL    HW122967   0.005   2.333   6.423
 7356SOL    HW222968   0.145   2.273   6.366
 7357SOL     OW22969   1.220   1.099   1.367
 7357SOL    HW122970   1.187   1.194   1.371
 7357SOL    HW222971   1.301   1.090   1.425
 7358SOL     OW22972   3.787   1.449   3.886
 7358SOL    HW122973   3.770   1.504   3.967
 7358SOL    HW222974   3.884   1.455   3.861
 7359SOL     OW22975   3.124   3.997   4.335
 7359SOL    HW122976   3.143   4.016   4.238
 7359SOL    HW222977   3.204   4.022   4.390
 7360SOL     OW22978   1.871   5.217   5.940
 7360SOL    HW122979   1.789   5.196   5.993
 7360SOL    HW222980   1.941   5.147   5.957
 7361SOL     OW22981   4.656   6.983   1.435
 7361SOL    HW122982   4.669   6.889   1.405
 7361SOL    HW222983   4.729   7.008   1.500
 7362SOL     OW22984   1.757   4.688   0.895
 7362SOL    HW122985   1.776   4.710   0.991
 7362SOL    HW222986   1.821   4.738   0.836
 7363SOL     OW22987   5.150   2.462   6.261
 7363SOL    HW122988   5.088   2.426   6.330
 7363SOL    HW222989   5.127   2.557   6.242
 7364SOL     OW22990   4.597   6.072   0.002
 7364SOL    HW122991   4.572   5.977   7.012
 7364SOL    HW222992   4.683   6.074   0.053
 7365SOL     OW22993   5.573   6.983   1.990
 7365SOL    HW122994   5.544   0.046   1.961
 7365SOL    HW222995   5.504   6.916   1.962
 7366SOL     OW22996   3.267   6.711   0.144
 7366SOL    HW122997   3.185   6.690   0.091
 7366SOL    HW222998   3.245   6.706   0.242
 7367SOL     OW22999   4.868   3.464   6.552
 7367SOL    HW123000   4.820   3.390   6.505
 7367SOL    HW223001   4.964   3.465   6.524
 7368SOL     OW23002   3.259   2.958   5.402
 7368SOL    HW123003   3.281   2.924   5.311
 7368SOL    HW223004   3.226   3.052   5.395
 7369SOL     OW23005   0.406   6.557   6.433
 7369SOL    HW123006   0.360   6.549   6.521
 7369SOL    HW223007   0.378   6.641   6.388
 7370SOL     OW23008   6.932   5.743   1.136
 7370SOL    HW123009   6.962   5.837   1.153
 7370SOL    HW223010   6.833   5.743   1.118
 7371SOL     OW23011   2.180   5.239   3.154
 7371SOL    HW123012   2.190   5.310   3.084
 7371SOL    HW223013   2.245   5.255   3.228
 7372SOL     OW23014   1.955   6.885   5.071
 7372SOL    HW123015   1.969   6.964   5.011
 7372SOL    HW223016   1.966   6.914   5.167
 7373SOL     OW23017   4.465   1.207   0.709
 7373SOL    HW123018   4.497   1.292   0.750
 7373SOL    HW223019   4.504   1.197   0.618
 7374SOL     OW23020   2.420   3.793   0.780
 7374SOL    HW123021   2.408   3.876   0.834
 7374SOL    HW223022   2.393   3.714   0.833
 7375SOL     OW23023   2.330   5.298   2.068
 7375SOL    HW123024   2.271   5.291   1.987
 7375SOL    HW223025   2.390   5.217   2.072
 7376SOL     OW23026   3.252   5.003   0.410
 7376SOL    HW123027   3.325   4.987   0.477
 7376SOL    HW223028   3.265   5.093   0.368
 7377SOL     OW23029   4.952   6.257   1.556
 7377SOL    HW123030   4.998   6.336   1.598
 7377SOL    HW223031   4.865   6.286   1.517
 7378SOL     OW23032   0.867   1.350   6.200
 7378SOL    HW123033   0.780   1.334   6.245
 7378SOL    HW223034   0.883   1.278   6.132
 7379SOL     OW23035   4.631   0.743   6.903
 7379SOL    HW123036   4.693   0.721   6.828
 7379SOL    HW223037   4.624   0.842   6.913
 7380SOL     OW23038   0.302   3.489   6.455
 7380SOL    HW123039   0.275   3.392   6.455
 7380SOL    HW223040   0.369   3.504   6.528
 7381SOL     OW23041   5.822   2.723   0.484
 7381SOL    HW123042   5.777   2.812   0.492
 7381SOL    HW223043   5.891   2.727   0.412
 7382SOL     OW23044   0.682   5.794   3.974
 7382SOL    HW123045   0.671   5.695   3.980
 7382SOL    HW223046   0.669   5.823   3.879
 7383SOL     OW23047   1.431   5.034   1.817
 7383SOL    HW123048   1.465   4.968   1.751
 7383SOL    HW223049   1.345   5.072   1.785
 7384SOL     OW23050   5.783   0.589   1.694
 7384SOL    HW123051   5.850   0.598   1.620
 7384SOL    HW223052   5.708   0.653   1.680
 7385SOL     OW23053   5.237   0.029   1.988
 7385SOL    HW123054   5.306   0.101   1.984
 7385SOL    HW223055   5.280   6.971   2.012
 7386SOL     OW23056   5.713   1.522   5.057
 7386SOL    HW123057   5.746   1.445   5.112
 7386SOL    HW223058   5.630   1.559   5.099
 7387SOL     OW23059   5.142   5.736   4.579
 7387SOL    HW123060   5.194   5.653   4.560
 7387SOL    HW223061   5.131   5.789   4.494
 7388SOL     OW23062   4.788   4.102   4.025
 7388SOL    HW123063   4.704   4.063   3.987
 7388SOL    HW223064   4.863   4.037   4.013
 7389SOL     OW23065   2.210   3.640   6.140
 7389SOL    HW123066   2.163   3.611   6.057
 7389SOL    HW223067   2.158   3.715   6.182
 7390SOL     OW23068   4.008   5.820   0.908
 7390SOL    HW123069   4.099   5.863   0.914
 7390SOL    HW223070   4.019   5.722   0.891
 7391SOL     OW23071   0.142   4.653   0.974
 7391SOL    HW123072   0.089   4.651   1.059
 7391SOL    HW223073   0.171   4.747   0.955
 7392SOL     OW23074   1.538   4.880   1.582
 7392SOL    HW123075   1.527   4.872   1.483
 7392SOL    HW223076   1.470   4.824   1.628
 7393SOL     OW23077   1.685   3.415   0.527
 7393SOL    HW123078   1.633   3.457   0.601
 7393SOL    HW223079   1.714   3.323   0.555
 7394SOL     OW23080   3.090   4.416   0.075
 7394SOL    HW123081   3.014   4.359   0.108
 7394SOL    HW223082   3.120   4.383   7.015
 7395SOL     OW23083   2.575   6.822   1.043
 7395SOL    HW123084   2.642   6.791   0.976
 7395SOL    HW223085   2.622   6.850   1.127
 7396SOL     OW23086   6.383   6.956   2.396
 7396SOL    HW123087   6.311   7.025   2.385
 7396SOL    HW223088   6.472   7.002   2.399
 7397SOL     OW23089   6.040   4.001   3.666
 7397SOL    HW123090   6.065   4.077   3.725
 7397SOL    HW223091   5.975   4.032   3.597
 7398SOL     OW23092   4.218   5.031   3.087
 7398SOL    HW123093   4.204   5.029   3.186
 7398SOL    HW223094   4.313   5.008   3.065
 7399SOL     OW23095   4.689   6.622   3.991
 7399SOL    HW123096   4.784   6.615   4.023
 7399SOL    HW223097   4.687   6.670   3.903
 7400SOL     OW23098   2.112   4.734   6.748
 7400SOL    HW123099   2.169   4.720   6.668
 7400SOL    HW223100   2.022   4.692   6.734
 7401SOL     OW23101   6.739   3.123   4.038
 7401SOL    HW123102   6.758   3.214   4.077
 7401SOL    HW223103   6.710   3.132   3.943
 7402SOL     OW23104   1.870   6.004   5.110
 7402SOL    HW123105   1.867   5.905   5.121
 7402SOL    HW223106   1.965   6.035   5.114
 7403SOL     OW23107   1.927   3.140   1.781
 7403SOL    HW123108   1.999   3.201   1.750
 7403SOL    HW223109   1.933   3.053   1.732
 7404SOL     OW23110   1.304   2.396   2.797
 7404SOL    HW123111   1.376   2.466   2.808
 7404SOL    HW223112   1.240   2.425   2.727
 7405SOL     OW23113   3.702   5.769   5.634
 7405SOL    HW123114   3.692   5.854   5.686
 7405SOL    HW223115   3.619   5.753   5.580
 7406SOL     OW23116   5.965   5.581   2.926
 7406SOL    HW123117   5.902   5.658   2.940
 7406SOL    HW223118   5.918   5.495   2.944
 7407SOL     OW23119   4.428   1.651   5.704
 7407SOL    HW123120   4.513   1.620   5.747
 7407SOL    HW223121   4.374   1.703   5.769
 7408SOL     OW23122   0.761   3.482   5.014
 7408SOL    HW123123   0.838   3.443   4.964
 7408SOL    HW223124   0.791   3.564   5.062
 7409SOL     OW23125   2.244   0.056   4.313
 7409SOL    HW123126   2.160   0.077   4.265
 7409SOL    HW223127   2.237   6.995   4.357
 7410SOL     OW23128   4.183   5.191   5.914
 7410SOL    HW123129   4.119   5.120   5.942
 7410SOL    HW223130   4.210   5.177   5.819
 7411SOL     OW23131   5.740   3.140   5.505
 7411SOL    HW123132   5.647   3.170   5.526
 7411SOL    HW223133   5.744   3.110   5.409
 7412SOL     OW23134   0.922   0.975   0.825
 7412SOL    HW123135   0.947   1.000   0.918
 7412SOL    HW223136   0.838   0.922   0.826
 7413SOL     OW23137   6.748   3.702   3.424
 7413SOL    HW123138   6.728   3.745   3.513
 7413SOL    HW223139   6.728   3.767   3.351
 7414SOL     OW23140   0.252   5.058   2.346
 7414SOL    HW123141   0.297   4.978   2.306
 7414SOL    HW223142   0.319   5.111   2.398
 7415SOL     OW23143   2.746   1.511   3.340
 7415SOL    HW123144   2.660   1.460   3.333
 7415SOL    HW223145   2.727   1.601   3.380
 7416SOL     OW23146   6.561   0.536   1.715
 7416SOL    HW123147   6.606   0.511   1.802
 7416SOL    HW223148   6.565   0.459   1.652
 7417SOL     OW23149   0.568   5.352   1.659
 7417SOL    HW123150   0.613   5.423   1.713
 7417SOL    HW223151   0.580   5.371   1.562
 7418SOL     OW23152   2.039   2.973   0.834
 7418SOL    HW123153   2.001   3.029   0.908
 7418SOL    HW223154   2.020   3.017   0.746
 7419SOL     OW23155   5.993   2.160   5.685
 7419SOL    HW123156   6.056   2.195   5.617
 7419SOL    HW223157   5.984   2.226   5.760
 7420SOL     OW23158   1.056   6.687   2.159
 7420SOL    HW123159   0.966   6.651   2.137
 7420SOL    HW223160   1.102   6.625   2.223
 7421SOL     OW23161   4.804   1.945   1.412
 7421SOL    HW123162   4.804   1.852   1.375
 7421SOL    HW223163   4.710   1.980   1.414
 7422SOL     OW23164   1.009   2.062   0.529
 7422SOL    HW123165   1.008   2.014   0.617
 7422SOL    HW223166   1.101   2.057   0.489
 7423SOL     OW23167   2.925   4.074   0.766
 7423SOL    HW123168   2.974   3.992   0.736
 7423SOL    HW223169   2.843   4.047   0.817
 7424SOL     OW23170   5.426   6.662   3.697
 7424SOL    HW123171   5.335   6.668   3.656
 7424SOL    HW223172   5.428   6.588   3.763
 7425SOL     OW23173   4.472   0.001   4.863
 7425SOL    HW123174   4.462   0.069   4.790
 7425SOL    HW223175   4.388   7.026   4.917
 7426SOL     OW23176   6.981   0.003   6.207
 7426SOL    HW123177   0.049   0.027   6.199
 7426SOL    HW223178   6.925   0.086   6.201
 7427SOL     OW23179   5.254   4.586   6.069
 7427SOL    HW123180   5.296   4.558   6.156
 7427SOL    HW223181   5.156   4.601   6.083
 7428SOL     OW23182   5.572   1.903   5.023
 7428SOL    HW123183   5.524   1.820   4.994
 7428SOL    HW223184   5.538   1.931   5.113
 7429SOL     OW23185   5.671   6.295   3.037
 7429SOL    HW123186   5.698   6.247   3.120
 7429SOL    HW223187   5.587   6.255   3.000
 7430SOL     OW23188   0.669   4.538   4.405
 7430SOL    HW123189   0.662   4.454   4.458
 7430SOL    HW223190   0.690   4.614   4.466
 7431SOL     OW23191   0.176   4.030   3.437
 7431SOL    HW123192   0.141   3.936   3.444
 7431SOL    HW223193   0.275   4.027   3.430
 7432SOL     OW23194   2.114   6.344   6.011
 7432SOL    HW123195   2.019   6.335   6.041
 7432SOL    HW223196   2.117   6.369   5.915
 7433SOL     OW23197   1.192   6.580   1.253
 7433SOL    HW123198   1.260   6.644   1.288
 7433SOL    HW223199   1.200   6.575   1.153
 7434SOL     OW23200   4.879   6.984   0.282
 7434SOL    HW123201   4.933   0.040   0.278
 7434SOL    HW223202   4.900   6.928   0.202
 7435SOL     OW23203   1.019   3.940   0.010
 7435SOL    HW123204   0.948   4.006   0.034
 7435SOL    HW223205   1.043   3.951   6.942
 7436SOL     OW23206   5.143   3.566   6.505
 7436SOL    HW123207   5.167   3.533   6.597
 7436SOL    HW223208   5.222   3.557   6.445
 7437SOL     OW23209   6.773   6.377   5.475
 7437SOL    HW123210   6.769   6.439   5.396
 7437SOL    HW223211   6.863   6.384   5.519
 7438SOL     OW23212   6.647   3.964   1.043
 7438SOL    HW123213   6.710   3.937   0.971
 7438SOL    HW223214   6.618   3.882   1.094
 7439SOL     OW23215   1.587   6.618   2.691
 7439SOL    HW123216   1.611   6.630   2.787
 7439SOL    HW223217   1.489   6.596   2.684
 7440SOL     OW23218   1.476   0.608   4.505
 7440SOL    HW123219   1.524   0.695   4.494
 7440SOL    HW223220   1.398   0.620   4.568
 7441SOL     OW23221   6.793   1.657   3.255
 7441SOL    HW123222   6.830   1.747   3.228
 7441SOL    HW223223   6.831   1.587   3.194
 7442SOL     OW23224   1.665   0.986   0.352
 7442SOL    HW123225   1.582   1.031   0.322
 7442SOL    HW223226   1.646   0.931   0.434
 7443SOL     OW23227   5.956   1.004   1.087
 7443SOL    HW123228   5.856   1.015   1.083
 7443SOL    HW223229   5.999   1.063   1.020
 7444SOL     OW23230   2.437   2.382   4.529
 7444SOL    HW123231   2.381   2.316   4.578
 7444SOL    HW223232   2.410   2.384   4.433
 7445SOL     OW23233   6.161   2.619   2.345
 7445SOL    HW123234   6.256   2.643   2.362
 7445SOL    HW223235   6.114   2.696   2.302
 7446SOL     OW23236   4.624   4.394   2.384
 7446SOL    HW123237   4.650   4.323   2.319
 7446SOL    HW223238   4.591   4.474   2.334
 7447SOL     OW23239   1.636   2.901   6.302
 7447SOL    HW123240   1.685   2.988   6.305
 7447SOL    HW223241   1.693   2.833   6.255
 7448SOL     OW23242   6.856   1.056   5.557
 7448SOL    HW123243   6.937   1.063   5.498
 7448SOL    HW223244   6.784   1.008   5.508
 7449SOL     OW23245   3.224   1.321   2.786
 7449SOL    HW123246   3.287   1.294   2.859
 7449SOL    HW223247   3.168   1.398   2.816
 7450SOL     OW23248   3.731   1.913   1.806
 7450SOL    HW123249   3.788   1.878   1.880
 7450SOL    HW223250   3.756   2.007   1.786
 7451SOL     OW23251   0.870   0.557   1.741
 7451SOL    HW123252   0.955   0.524   1.700
 7451SOL    HW223253   0.829   0.484   1.796
 7452SOL     OW23254   2.168   5.724   2.988
 7452SOL    HW123255   2.232   5.767   3.051
 7452SOL    HW223256   2.081   5.774   2.988
 7453SOL     OW23257   6.522   4.279   4.669
 7453SOL    HW123258   6.486   4.358   4.619
 7453SOL    HW223259   6.448   4.232   4.716
 7454SOL     OW23260   2.844   1.766   0.341
 7454SOL    HW123261   2.772   1.729   0.282
 7454SOL    HW223262   2.834   1.865   0.347
 7455SOL     OW23263   5.308   6.819   0.316
 7455SOL    HW123264   5.286   6.917   0.321
 7455SOL    HW223265   5.242   6.772   0.258
 7456SOL     OW23266   1.478   2.459   6.619
 7456SOL    HW123267   1.465   2.552   6.585
 7456SOL    HW223268   1.570   2.428   6.598
 7457SOL     OW23269   0.648   6.311   4.853
 7457SOL    HW123270   0.665   6.406   4.878
 7457SOL    HW223271   0.579   6.273   4.915
 7458SOL     OW23272   3.323   0.373   1.742
 7458SOL    HW123273   3.336   0.310   1.665
 7458SOL    HW223274   3.377   0.456   1.726
 7459SOL     OW23275   3.939   4.893   3.703
 7459SOL    HW123276   4.012   4.825   3.707
 7459SOL    HW223277   3.973   4.981   3.737
 7460SOL     OW23278   1.350   4.919   6.153
 7460SOL    HW123279   1.294   4.935   6.071
 7460SOL    HW223280   1.436   4.876   6.127
 7461SOL     OW23281   3.334   1.832   3.764
 7461SOL    HW123282   3.422   1.851   3.721
 7461SOL    HW223283   3.316   1.734   3.760
 7462SOL     OW23284   1.258   2.476   3.857
 7462SOL    HW123285   1.224   2.385   3.833
 7462SOL    HW223286   1.181   2.541   3.859
 7463SOL     OW23287   3.709   3.684   2.566
 7463SOL    HW123288   3.733   3.686   2.469
 7463SOL    HW223289   3.760   3.755   2.614
 7464SOL     OW23290   4.561   5.412   0.801
 7464SOL    HW123291   4.488   5.378   0.860
 7464SOL    HW223292   4.583   5.343   0.732
 7465SOL     OW23293   2.988   1.159   2.795
 7465SOL    HW123294   3.067   1.220   2.787
 7465SOL    HW223295   3.003   1.077   2.741
 7466SOL     OW23296   0.030   6.319   0.960
 7466SOL    HW123297   0.001   6.229   0.927
 7466SOL    HW223298   7.003   6.390   0.918
 7467SOL     OW23299   3.997   2.438   0.616
 7467SOL    HW123300   4.014   2.439   0.517
 7467SOL    HW223301   3.906   2.475   0.635
 7468SOL     OW23302   4.915   5.000   4.775
 7468SOL    HW123303   4.908   5.100   4.769
 7468SOL    HW223304   4.943   4.963   4.686
 7469SOL     OW23305   5.016   2.156   1.006
 7469SOL    HW123306   5.081   2.195   1.072
 7469SOL    HW223307   5.009   2.215   0.926
 7470SOL     OW23308   0.938   3.338   3.244
 7470SOL    HW123309   1.014   3.275   3.264
 7470SOL    HW223310   0.959   3.428   3.281
 7471SOL     OW23311   6.971   4.421   5.785
 7471SOL    HW123312   6.985   4.517   5.759
 7471SOL    HW223313   0.031   4.379   5.805
 7472SOL     OW23314   3.267   5.677   3.045
 7472SOL    HW123315   3.320   5.597   3.071
 7472SOL    HW223316   3.300   5.757   3.096
 7473SOL     OW23317   1.853   2.221   6.200
 7473SOL    HW123318   1.803   2.162   6.136
 7473SOL    HW223319   1.952   2.209   6.185
 7474SOL     OW23320   2.625   1.299   1.957
 7474SOL    HW123321   2.640   1.394   1.930
 7474SOL    HW223322   2.587   1.295   2.050
 7475SOL     OW23323   5.505   1.015   6.202
 7475SOL    HW123324   5.410   0.988   6.216
 7475SOL    HW223325   5.531   1.000   6.106
 7476SOL     OW23326   1.748   6.652   4.668
 7476SOL    HW123327   1.664   6.683   4.624
 7476SOL    HW223328   1.744   6.671   4.766
 7477SOL     OW23329   4.796   4.077   5.000
 7477SOL    HW123330   4.782   4.129   4.916
 7477SOL    HW223331   4.711   4.078   5.054
 7478SOL     OW23332   6.450   4.179   1.366
 7478SOL    HW123333   6.528   4.177   1.429
 7478SOL    HW223334   6.483   4.193   1.273
 7479SOL     OW23335   3.937   0.108   4.648
 7479SOL    HW123336   3.880   0.044   4.597
 7479SOL    HW223337   3.879   0.173   4.698
 7480SOL     OW23338   5.869   5.073   0.105
 7480SOL    HW123339   5.797   5.122   0.153
 7480SOL    HW223340   5.834   5.039   0.018
 7481SOL     OW23341   5.980   6.859   0.078
 7481SOL    HW123342   5.973   6.764   0.048
 7481SOL    HW223343   5.911   6.877   0.148
 7482SOL     OW23344   5.261   0.339   5.285
 7482SOL    HW123345   5.193   0.269   5.262
 7482SOL    HW223346   5.214   0.426   5.301
 7483SOL     OW23347   3.827   6.894   6.450
 7483SOL    HW123348   3.859   6.941   6.368
 7483SOL    HW223349   3.893   6.906   6.524
 7484SOL     OW23350   3.252   6.034   1.116
 7484SOL    HW123351   3.152   6.028   1.112
 7484SOL    HW223352   3.292   5.964   1.057
 7485SOL     OW23353   1.134   0.234   5.046
 7485SOL    HW123354   1.114   0.314   4.989
 7485SOL    HW223355   1.090   0.153   5.006
 7486SOL     OW23356   1.830   2.168   4.703
 7486SOL    HW123357   1.824   2.085   4.647
 7486SOL    HW223358   1.796   2.246   4.650
 7487SOL     OW23359   1.696   6.506   2.410
 7487SOL    HW123360   1.757   6.576   2.373
 7487SOL    HW223361   1.654   6.540   2.494
 7488SOL     OW23362   4.631   2.264   4.586
 7488SOL    HW123363   4.672   2.314   4.662
 7488SOL    HW223364   4.536   2.293   4.575
 7489SOL     OW23365   1.455   3.244   3.222
 7489SOL    HW123366   1.359   3.227   3.198
 7489SOL    HW223367   1.463   3.258   3.320
 7490SOL     OW23368   5.526   0.710   2.419
 7490SOL    HW123369   5.540   0.655   2.501
 7490SOL    HW223370   5.474   0.656   2.352
 7491SOL     OW23371   0.950   7.003   1.508
 7491SOL    HW123372   1.009   6.995   1.427
 7491SOL    HW223373   0.861   0.010   1.479
 7492SOL     OW23374   1.412   1.676   2.948
 7492SOL    HW123375   1.366   1.627   2.874
 7492SOL    HW223376   1.429   1.770   2.920
 7493SOL     OW23377   5.780   4.206   7.009
 7493SOL    HW123378   5.820   4.193   0.071
 7493SOL    HW223379   5.695   4.259   7.017
 7494SOL     OW23380   4.881   2.530   0.726
 7494SOL    HW123381   4.801   2.470   0.731
 7494SOL    HW223382   4.857   2.614   0.677
 7495SOL     OW23383   1.178   2.102   3.507
 7495SOL    HW123384   1.121   2.153   3.443
 7495SOL    HW223385   1.120   2.055   3.573
 7496SOL     OW23386   0.277   4.896   6.023
 7496SOL    HW123387   0.343   4.829   5.989
 7496SOL    HW223388   0.266   4.970   5.956
 7497SOL     OW23389   0.592   4.502   2.937
 7497SOL    HW123390   0.656   4.504   2.860
 7497SOL    HW223391   0.587   4.410   2.974
 7498SOL     OW23392   4.954   1.929   4.312
 7498SOL    HW123393   4.962   2.009   4.371
 7498SOL    HW223394   4.859   1.899   4.309
 7499SOL     OW23395   3.470   4.891   3.535
 7499SOL    HW123396   3.410   4.968   3.559
 7499SOL    HW223397   3.513   4.856   3.618
 7500SOL     OW23398   4.953   3.994   1.397
 7500SOL    HW123399   4.917   3.910   1.439
 7500SOL    HW223400   4.908   4.074   1.437
 7501SOL     OW23401   1.284   4.336   3.554
 7501SOL    HW123402   1.284   4.415   3.493
 7501SOL    HW223403   1.321   4.256   3.506
 7502SOL     OW23404   1.318   1.832   4.982
 7502SOL    HW123405   1.333   1.787   4.894
 7502SOL    HW223406   1.296   1.929   4.966
 7503SOL     OW23407   2.358   2.366   1.005
 7503SOL    HW123408   2.300   2.336   0.929
 7503SOL    HW223409   2.426   2.297   1.025
 7504SOL     OW23410   5.327   5.202   6.099
 7504SOL    HW123411   5.346   5.106   6.122
 7504SOL    HW223412   5.248   5.234   6.151
 7505SOL     OW23413   1.214   1.679   3.147
 7505SOL    HW123414   1.289   1.712   3.090
 7505SOL    HW223415   1.219   1.579   3.154
 7506SOL     OW23416   3.592   0.650   3.279
 7506SOL    HW123417   3.553   0.599   3.356
 7506SOL    HW223418   3.691   0.633   3.275
 7507SOL     OW23419   2.126   6.059   5.176
 7507SOL    HW123420   2.179   6.143   5.176
 7507SOL    HW223421   2.169   5.991   5.236
 7508SOL     OW23422   4.851   6.140   3.444
 7508SOL    HW123423   4.846   6.208   3.371
 7508SOL    HW223424   4.763   6.135   3.492
 7509SOL     OW23425   2.281   4.346   6.690
 7509SOL    HW123426   2.316   4.274   6.630
 7509SOL    HW223427   2.352   4.414   6.705
 7510SOL     OW23428   3.591   2.864   4.193
 7510SOL    HW123429   3.545   2.795   4.136
 7510SOL    HW223430   3.689   2.860   4.177
 7511SOL     OW23431   1.496   1.030   1.850
 7511SOL    HW123432   1.472   1.062   1.758
 7511SOL    HW223433   1.482   0.931   1.855
 7512SOL     OW23434   1.430   3.125   2.440
 7512SOL    HW123435   1.415   3.026   2.447
 7512SOL    HW223436   1.382   3.161   2.361
 7513SOL     OW23437   2.197   3.038   0.059
 7513SOL    HW123438   2.110   2.992   0.041
 7513SOL    HW223439   2.215   3.038   0.157
 7514SOL     OW23440   3.104   5.161   3.056
 7514SOL    HW123441   3.107   5.075   3.106
 7514SOL    HW223442   3.052   5.149   2.972
 7515SOL     OW23443   6.402   5.008   3.475
 7515SOL    HW123444   6.438   5.085   3.527
 7515SOL    HW223445   6.306   4.994   3.497
 7516SOL     OW23446   1.739   3.349   1.138
 7516SOL    HW123447   1.705   3.330   1.045
 7516SOL    HW223448   1.745   3.263   1.189
 7517SOL     OW23449   1.217   5.949   2.309
 7517SOL    HW123450   1.239   6.036   2.352
 7517SOL    HW223451   1.183   5.886   2.379
 7518SOL     OW23452   5.222   3.595   2.081
 7518SOL    HW123453   5.198   3.685   2.046
 7518SOL    HW223454   5.162   3.526   2.040
 7519SOL     OW23455   1.768   0.579   4.681
 7519SOL    HW123456   1.753   0.635   4.600
 7519SOL    HW223457   1.862   0.591   4.714
 7520SOL     OW23458   1.639   0.152   4.629
 7520SOL    HW123459   1.665   0.107   4.543
 7520SOL    HW223460   1.561   0.211   4.614
 7521SOL     OW23461   3.922   2.364   5.805
 7521SOL    HW123462   3.912   2.278   5.855
 7521SOL    HW223463   3.950   2.436   5.868
 7522SOL     OW23464   1.872   6.703   2.086
 7522SOL    HW123465   1.859   6.706   2.185
 7522SOL    HW223466   1.783   6.715   2.041
 7523SOL     OW23467   6.848   5.784   6.370
 7523SOL    HW123468   6.779   5.773   6.442
 7523SOL    HW223469   6.821   5.730   6.291
 7524SOL     OW23470   6.219   2.727   6.053
 7524SOL    HW123471   6.248   2.743   5.959
 7524SOL    HW223472   6.270   2.787   6.115
 7525SOL     OW23473   0.541   0.133   0.417
 7525SOL    HW123474   0.513   0.203   0.482
 7525SOL    HW223475   0.533   0.168   0.324
 7526SOL     OW23476   3.815   3.555   5.227
 7526SOL    HW123477   3.770   3.509   5.151
 7526SOL    HW223478   3.751   3.619   5.270
 7527SOL     OW23479   2.400   6.188   1.316
 7527SOL    HW123480   2.364   6.182   1.409
 7527SOL    HW223481   2.329   6.221   1.254
 7528SOL     OW23482   5.889   1.939   0.367
 7528SOL    HW123483   5.857   2.024   0.326
 7528SOL    HW223484   5.811   1.885   0.397
 7529SOL     OW23485   1.077   0.297   4.170
 7529SOL    HW123486   1.002   0.274   4.108
 7529SOL    HW223487   1.160   0.315   4.116
 7530SOL     OW23488   0.203   3.456   2.607
 7530SOL    HW123489   0.246   3.446   2.697
 7530SOL    HW223490   0.261   3.413   2.538
 7531SOL     OW23491   1.564   2.491   4.386
 7531SOL    HW123492   1.498   2.437   4.334
 7531SOL    HW223493   1.515   2.554   4.447
 7532SOL     OW23494   4.719   4.254   2.157
 7532SOL    HW123495   4.789   4.293   2.096
 7532SOL    HW223496   4.629   4.268   2.117
 7533SOL     OW23497   3.899   0.192   5.256
 7533SOL    HW123498   3.913   0.223   5.161
 7533SOL    HW223499   3.801   0.184   5.274
 7534SOL     OW23500   4.363   6.683   4.278
 7534SOL    HW123501   4.332   6.677   4.373
 7534SOL    HW223502   4.461   6.704   4.276
 7535SOL     OW23503   2.976   4.495   6.674
 7535SOL    HW123504   2.915   4.529   6.745
 7535SOL    HW223505   3.055   4.450   6.716
 7536SOL     OW23506   4.688   4.776   7.022
 7536SOL    HW123507   4.659   4.723   6.942
 7536SOL    HW223508   4.788   4.785   7.022
 7537SOL     OW23509   1.960   4.691   5.099
 7537SOL    HW123510   1.899   4.634   5.154
 7537SOL    HW223511   2.031   4.633   5.059
 7538SOL     OW23512   3.557   4.022   5.428
 7538SOL    HW123513   3.632   3.957   5.441
 7538SOL    HW223514   3.595   4.112   5.406
 7539SOL     OW23515   1.370   2.847   4.202
 7539SOL    HW123516   1.273   2.827   4.187
 7539SOL    HW223517   1.401   2.914   4.135
 7540SOL     OW23518   2.892   0.914   0.372
 7540SOL    HW123519   2.888   1.014   0.382
 7540SOL    HW223520   2.848   0.871   0.451
 7541SOL     OW23521   0.475   1.877   6.098
 7541SOL    HW123522   0.504   1.953   6.158
 7541SOL    HW223523   0.471   1.910   6.003
 7542SOL     OW23524   1.884   0.561   4.258
 7542SOL    HW123525   1.902   0.596   4.166
 7542SOL    HW223526   1.901   0.462   4.260
 7543SOL     OW23527   2.330   2.348   2.308
 7543SOL    HW123528   2.385   2.355   2.225
 7543SOL    HW223529   2.280   2.262   2.308
 7544SOL     OW23530   1.127   2.136   2.545
 7544SOL    HW123531   1.183   2.170   2.469
 7544SOL    HW223532   1.110   2.038   2.532
 7545SOL     OW23533   4.054   0.373   4.160
 7545SOL    HW123534   4.110   0.359   4.079
 7545SOL    HW223535   4.091   0.320   4.236
 7546SOL     OW23536   4.869   6.617   4.725
 7546SOL    HW123537   4.889   6.553   4.799
 7546SOL    HW223538   4.908   6.707   4.747
 7547SOL     OW23539   1.677   6.617   1.338
 7547SOL    HW123540   1.601   6.589   1.396
 7547SOL    HW223541   1.763   6.587   1.379
 7548SOL     OW23542   2.693   3.976   0.866
 7548SOL    HW123543   2.713   3.878   0.860
 7548SOL    HW223544   2.597   3.992   0.842
 7549SOL     OW23545   6.032   6.863   2.402
 7549SOL    HW123546   6.027   6.851   2.501
 7549SOL    HW223547   6.088   6.943   2.380
 7550SOL     OW23548   0.882   5.608   0.612
 7550SOL    HW123549   0.804   5.545   0.610
 7550SOL    HW223550   0.961   5.565   0.570
 7551SOL     OW23551   4.725   3.976   5.675
 7551SOL    HW123552   4.784   3.903   5.641
 7551SOL    HW223553   4.630   3.957   5.648
 7552SOL     OW23554   3.728   5.573   4.836
 7552SOL    HW123555   3.637   5.550   4.869
 7552SOL    HW223556   3.727   5.664   4.796
 7553SOL     OW23557   4.360   4.345   5.589
 7553SOL    HW123558   4.449   4.375   5.625
 7553SOL    HW223559   4.297   4.329   5.665
 7554SOL     OW23560   6.541   0.823   1.042
 7554SOL    HW123561   6.535   0.797   0.946
 7554SOL    HW223562   6.479   0.900   1.060
 7555SOL     OW23563   2.904   6.730   6.786
 7555SOL    HW123564   2.967   6.731   6.863
 7555SOL    HW223565   2.844   6.651   6.793
 7556SOL     OW23566   0.239   4.082   2.891
 7556SOL    HW123567   0.198   3.992   2.883
 7556SOL    HW223568   0.338   4.076   2.875
 7557SOL     OW23569   4.548   4.327   0.585
 7557SOL    HW123570   4.559   4.334   0.486
 7557SOL    HW223571   4.575   4.235   0.615
 7558SOL     OW23572   1.473   3.758   3.576
 7558SOL    HW123573   1.542   3.776   3.506
 7558SOL    HW223574   1.480   3.663   3.607
 7559SOL     OW23575   1.196   5.235   0.338
 7559SOL    HW123576   1.286   5.217   0.298
 7559SOL    HW223577   1.132   5.164   0.308
 7560SOL     OW23578   4.331   0.272   5.850
 7560SOL    HW123579   4.287   0.303   5.934
 7560SOL    HW223580   4.419   0.231   5.871
 7561SOL     OW23581   1.516   2.947   0.540
 7561SOL    HW123582   1.505   2.988   0.449
 7561SOL    HW223583   1.429   2.952   0.589
 7562SOL     OW23584   4.506   6.138   5.130
 7562SOL    HW123585   4.505   6.206   5.203
 7562SOL    HW223586   4.600   6.127   5.097
 7563SOL     OW23587   2.518   1.386   3.284
 7563SOL    HW123588   2.500   1.362   3.189
 7563SOL    HW223589   2.512   1.304   3.341
 7564SOL     OW23590   6.334   5.686   4.002
 7564SOL    HW123591   6.385   5.760   4.046
 7564SOL    HW223592   6.320   5.707   3.905
 7565SOL     OW23593   4.695   5.040   6.763
 7565SOL    HW123594   4.689   5.035   6.863
 7565SOL    HW223595   4.653   4.958   6.723
 7566SOL     OW23596   1.519   5.904   3.973
 7566SOL    HW123597   1.609   5.904   4.015
 7566SOL    HW223598   1.460   5.968   4.023
 7567SOL     OW23599   2.727   3.978   0.542
 7567SOL    HW123600   2.637   3.969   0.584
 7567SOL    HW223601   2.782   4.043   0.593
 7568SOL     OW23602   4.045   4.847   4.464
 7568SOL    HW123603   3.987   4.919   4.502
 7568SOL    HW223604   4.025   4.836   4.366
 7569SOL     OW23605   3.462   0.027   2.704
 7569SOL    HW123606   3.465   0.095   2.777
 7569SOL    HW223607   3.554   7.021   2.686
 7570SOL     OW23608   6.262   5.261   4.998
 7570SOL    HW123609   6.196   5.325   5.038
 7570SOL    HW223610   6.352   5.303   4.998
 7571SOL     OW23611   6.916   4.402   0.554
 7571SOL    HW123612   6.940   4.456   0.634
 7571SOL    HW223613   6.865   4.321   0.582
 7572SOL     OW23614   5.974   1.287   3.593
 7572SOL    HW123615   6.014   1.352   3.657
 7572SOL    HW223616   6.047   1.240   3.544
 7573SOL     OW23617   3.054   4.808   3.927
 7573SOL    HW123618   2.975   4.804   3.988
 7573SOL    HW223619   3.119   4.876   3.960
 7574SOL     OW23620   4.306   6.088   1.724
 7574SOL    HW123621   4.350   6.004   1.754
 7574SOL    HW223622   4.207   6.076   1.725
 7575SOL     OW23623   5.160   3.584   3.844
 7575SOL    HW123624   5.104   3.534   3.911
 7575SOL    HW223625   5.113   3.583   3.756
 7576SOL     OW23626   0.172   4.606   1.948
 7576SOL    HW123627   0.214   4.519   1.974
 7576SOL    HW223628   0.139   4.599   1.853
 7577SOL     OW23629   4.079   1.642   3.686
 7577SOL    HW123630   4.028   1.595   3.758
 7577SOL    HW223631   4.080   1.740   3.704
 7578SOL     OW23632   2.055   5.260   5.724
 7578SOL    HW123633   1.982   5.267   5.792
 7578SOL    HW223634   2.114   5.182   5.746
 7579SOL     OW23635   4.083   2.228   4.640
 7579SOL    HW123636   3.987   2.205   4.659
 7579SOL    HW223637   4.093   2.249   4.542
 7580SOL     OW23638   1.527   3.171   2.677
 7580SOL    HW123639   1.481   3.158   2.589
 7580SOL    HW223640   1.614   3.122   2.676
 7581SOL     OW23641   5.337   1.115   0.986
 7581SOL    HW123642   5.294   1.161   0.909
 7581SOL    HW223643   5.282   1.036   1.013
 7582SOL     OW23644   3.781   3.501   1.525
 7582SOL    HW123645   3.740   3.549   1.602
 7582SOL    HW223646   3.711   3.480   1.457
 7583SOL     OW23647   6.138   4.278   3.520
 7583SOL    HW123648   6.106   4.248   3.610
 7583SOL    HW223649   6.177   4.369   3.527
 7584SOL     OW23650   1.629   2.570   2.140
 7584SOL    HW123651   1.602   2.487   2.188
 7584SOL    HW223652   1.570   2.583   2.060
 7585SOL     OW23653   3.177   3.772   0.569
 7585SOL    HW123654   3.213   3.856   0.531
 7585SOL    HW223655   3.078   3.768   0.554
 7586SOL     OW23656   1.494   2.539   3.102
 7586SOL    HW123657   1.472   2.445   3.130
 7586SOL    HW223658   1.451   2.603   3.165
 7587SOL     OW23659   3.241   0.543   5.472
 7587SOL    HW123660   3.169   0.607   5.445
 7587SOL    HW223661   3.262   0.482   5.396
 7588SOL     OW23662   0.112   4.539   1.698
 7588SOL    HW123663   0.179   4.481   1.652
 7588SOL    HW223664   0.105   4.627   1.650
 7589SOL     OW23665   4.635   5.852   6.414
 7589SOL    HW123666   4.536   5.860   6.417
 7589SOL    HW223667   4.671   5.837   6.506
 7590SOL     OW23668   2.244   0.853   5.321
 7590SOL    HW123669   2.329   0.811   5.289
 7590SOL    HW223670   2.225   0.821   5.415
 7591SOL     OW23671   0.207   5.826   6.346
 7591SOL    HW123672   0.287   5.880   6.372
 7591SOL    HW223673   0.232   5.762   6.273
 7592SOL     OW23674   4.784   4.766   6.586
 7592SOL    HW123675   4.854   4.718   6.533
 7592SOL    HW223676   4.738   4.833   6.527
 7593SOL     OW23677   6.669   4.711   0.241
 7593SOL    HW123678   6.678   4.711   0.141
 7593SOL    HW223679   6.633   4.800   0.271
 7594SOL     OW23680   1.013   0.699   4.674
 7594SOL    HW123681   1.108   0.728   4.664
 7594SOL    HW223682   0.956   0.779   4.694
 7595SOL     OW23683   0.251   3.940   6.727
 7595SOL    HW123684   0.168   3.911   6.679
 7595SOL    HW223685   0.226   3.981   6.814
 7596SOL     OW23686   5.613   5.250   2.276
 7596SOL    HW123687   5.585   5.181   2.210
 7596SOL    HW223688   5.549   5.252   2.353
 7597SOL     OW23689   2.531   4.575   2.894
 7597SOL    HW123690   2.554   4.598   2.988
 7597SOL    HW223691   2.594   4.622   2.832
 7598SOL     OW23692   6.191   1.438   2.764
 7598SOL    HW123693   6.273   1.488   2.738
 7598SOL    HW223694   6.164   1.462   2.857
 7599SOL     OW23695   5.539   4.089   1.568
 7599SOL    HW123696   5.620   4.109   1.622
 7599SOL    HW223697   5.559   4.014   1.505
 7600SOL     OW23698   1.796   3.072   2.585
 7600SOL    HW123699   1.751   2.988   2.553
 7600SOL    HW223700   1.877   3.090   2.529
 7601SOL     OW23701   1.680   0.590   5.336
 7601SOL    HW123702   1.700   0.688   5.331
 7601SOL    HW223703   1.726   0.550   5.415
 7602SOL     OW23704   1.952   2.808   5.051
 7602SOL    HW123705   1.908   2.721   5.071
 7602SOL    HW223706   2.025   2.794   4.984
 7603SOL     OW23707   5.931   1.183   1.516
 7603SOL    HW123708   5.891   1.215   1.430
 7603SOL    HW223709   5.925   1.083   1.520
 7604SOL     OW23710   5.755   5.503   6.571
 7604SOL    HW123711   5.735   5.405   6.573
 7604SOL    HW223712   5.808   5.529   6.652
 7605SOL     OW23713   4.862   3.108   5.203
 7605SOL    HW123714   4.901   3.046   5.271
 7605SOL    HW223715   4.799   3.171   5.248
 7606SOL     OW23716   5.581   0.871   4.004
 7606SOL    HW123717   5.589   0.872   3.905
 7606SOL    HW223718   5.486   0.889   4.030
 7607SOL     OW23719   4.911   6.024   6.366
 7607SOL    HW123720   5.001   5.982   6.377
 7607SOL    HW223721   4.917   6.122   6.387
 7608SOL     OW23722   3.588   3.137   4.899
 7608SOL    HW123723   3.498   3.141   4.856
 7608SOL    HW223724   3.600   3.048   4.943
 7609SOL     OW23725   0.846   2.652   3.126
 7609SOL    HW123726   0.764   2.631   3.180
 7609SOL    HW223727   0.871   2.572   3.071
 7610SOL     OW23728   5.692   0.347   2.225
 7610SOL    HW123729   5.600   0.312   2.208
 7610SOL    HW223730   5.710   0.350   2.323
 7611SOL     OW23731   1.729   2.015   1.437
 7611SOL    HW123732   1.655   2.081   1.449
 7611SOL    HW223733   1.737   1.959   1.520
 7612SOL     OW23734   3.507   0.741   2.771
 7612SOL    HW123735   3.515   0.758   2.672
 7612SOL    HW223736   3.475   0.647   2.785
 7613SOL     OW23737   6.904   0.836   1.902
 7613SOL    HW123738   6.949   0.761   1.949
 7613SOL    HW223739   6.811   0.808   1.876
 7614SOL     OW23740   4.138   1.027   6.856
 7614SOL    HW123741   4.055   0.970   6.857
 7614SOL    HW223742   4.113   1.121   6.879
 7615SOL     OW23743   4.620   4.843   6.368
 7615SOL    HW123744   4.645   4.914   6.303
 7615SOL    HW223745   4.520   4.840   6.377
 7616SOL     OW23746   0.029   6.005   3.735
 7616SOL    HW123747   7.015   5.917   3.758
 7616SOL    HW223748   0.076   6.041   3.815
 7617SOL     OW23749   3.826   5.169   3.445
 7617SOL    HW123750   3.819   5.069   3.434
 7617SOL    HW223751   3.891   5.205   3.378
 7618SOL     OW23752   3.453   1.318   0.216
 7618SOL    HW123753   3.433   1.406   0.173
 7618SOL    HW223754   3.548   1.293   0.195
 7619SOL     OW23755   5.565   3.512   5.922
 7619SOL    HW123756   5.492   3.458   5.965
 7619SOL    HW223757   5.651   3.498   5.973
 7620SOL     OW23758   2.667   5.597   2.089
 7620SOL    HW123759   2.646   5.694   2.102
 7620SOL    HW223760   2.740   5.587   2.022
 7621SOL     OW23761   2.396   3.009   1.422
 7621SOL    HW123762   2.332   3.008   1.344
 7621SOL    HW223763   2.399   2.918   1.463
 7622SOL     OW23764   4.823   1.927   0.683
 7622SOL    HW123765   4.834   1.912   0.782
 7622SOL    HW223766   4.753   1.997   0.668
 7623SOL     OW23767   6.831   6.970   5.302
 7623SOL    HW123768   6.894   6.918   5.359
 7623SOL    HW223769   6.744   6.982   5.351
 7624SOL     OW23770   6.802   1.310   4.877
 7624SOL    HW123771   6.817   1.400   4.837
 7624SOL    HW223772   6.773   1.246   4.807
 7625SOL     OW23773   2.193   4.450   0.675
 7625SOL    HW123774   2.260   4.376   0.677
 7625SOL    HW223775   2.228   4.527   0.730
 7626SOL     OW23776   2.610   3.914   5.306
 7626SOL    HW123777   2.590   3.847   5.378
 7626SOL    HW223778   2.527   3.931   5.254
 7627SOL     OW23779   0.181   6.902   6.841
 7627SOL    HW123780   0.172   6.812   6.883
 7627SOL    HW223781   0.109   6.963   6.876
 7628SOL     OW23782   4.070   1.438   0.617
 7628SOL    HW123783   4.123   1.364   0.577
 7628SOL    HW223784   4.022   1.405   0.698
 7629SOL     OW23785   6.175   5.731   2.333
 7629SOL    HW123786   6.180   5.652   2.394
 7629SOL    HW223787   6.112   5.798   2.372
 7630SOL     OW23788   5.554   2.246   2.329
 7630SOL    HW123789   5.570   2.282   2.420
 7630SOL    HW223790   5.616   2.170   2.311
 7631SOL     OW23791   0.754   0.498   4.043
 7631SOL    HW123792   0.683   0.530   3.980
 7631SOL    HW223793   0.776   0.402   4.022
 7632SOL     OW23794   5.146   1.110   4.876
 7632SOL    HW123795   5.222   1.171   4.855
 7632SOL    HW223796   5.111   1.070   4.791
 7633SOL     OW23797   5.605   3.373   6.374
 7633SOL    HW123798   5.512   3.396   6.403
 7633SOL    HW223799   5.609   3.369   6.274
 7634SOL     OW23800   0.748   1.799   2.200
 7634SOL    HW123801   0.822   1.731   2.205
 7634SOL    HW223802   0.780   1.879   2.149
 7635SOL     OW23803   2.138   4.595   5.839
 7635SOL    HW123804   2.166   4.623   5.931
 7635SOL    HW223805   2.203   4.527   5.804
 7636SOL     OW23806   0.941   1.725   3.501
 7636SOL    HW123807   0.866   1.779   3.539
 7636SOL    HW223808   0.905   1.662   3.432
 7637SOL     OW23809   3.328   6.456   3.942
 7637SOL    HW123810   3.295   6.387   3.877
 7637SOL    HW223811   3.420   6.484   3.917
 7638SOL     OW23812   4.617   5.308   1.816
 7638SOL    HW123813   4.647   5.259   1.735
 7638SOL    HW223814   4.522   5.337   1.805
 7639SOL     OW23815   0.728   1.868   4.276
 7639SOL    HW123816   0.677   1.870   4.190
 7639SOL    HW223817   0.799   1.938   4.274
 7640SOL     OW23818   2.232   3.060   6.535
 7640SOL    HW123819   2.278   2.973   6.518
 7640SOL    HW223820   2.218   3.072   6.633
 7641SOL     OW23821   6.163   2.888   0.805
 7641SOL    HW123822   6.177   2.941   0.889
 7641SOL    HW223823   6.252   2.859   0.769
 7642SOL     OW23824   1.146   3.145   3.211
 7642SOL    HW123825   1.118   3.156   3.115
 7642SOL    HW223826   1.156   3.048   3.231
 7643SOL     OW23827   5.821   3.515   3.507
 7643SOL    HW123828   5.856   3.600   3.545
 7643SOL    HW223829   5.806   3.449   3.581
 7644SOL     OW23830   6.839   2.769   4.051
 7644SOL    HW123831   6.834   2.855   4.001
 7644SOL    HW223832   6.776   2.703   4.009
 7645SOL     OW23833   3.637   2.742   0.828
 7645SOL    HW123834   3.723   2.778   0.793
 7645SOL    HW223835   3.624   2.772   0.922
 7646SOL     OW23836   0.505   0.320   2.352
 7646SOL    HW123837   0.429   0.336   2.290
 7646SOL    HW223838   0.550   0.406   2.373
 7647SOL     OW23839   2.743   4.486   7.013
 7647SOL    HW123840   2.777   4.566   6.963
 7647SOL    HW223841   2.759   4.403   6.959
 7648SOL     OW23842   2.533   0.651   3.911
 7648SOL    HW123843   2.459   0.709   3.876
 7648SOL    HW223844   2.621   0.692   3.886
 7649SOL     OW23845   3.712   2.218   1.313
 7649SOL    HW123846   3.653   2.155   1.364
 7649SOL    HW223847   3.804   2.216   1.352
 7650SOL     OW23848   0.496   4.623   1.173
 7650SOL    HW123849   0.411   4.591   1.215
 7650SOL    HW223850   0.485   4.717   1.142
 7651SOL     OW23851   5.742   2.412   5.966
 7651SOL    HW123852   5.740   2.313   5.981
 7651SOL    HW223853   5.655   2.441   5.926
 7652SOL     OW23854   0.502   2.770   2.147
 7652SOL    HW123855   0.544   2.683   2.121
 7652SOL    HW223856   0.554   2.812   2.221
 7653SOL     OW23857   4.895   2.535   1.687
 7653SOL    HW123858   4.954   2.453   1.684
 7653SOL    HW223859   4.858   2.546   1.779
 7654SOL     OW23860   5.985   3.597   5.081
 7654SOL    HW123861   5.933   3.539   5.144
 7654SOL    HW223862   5.939   3.685   5.071
 7655SOL     OW23863   5.117   4.014   6.253
 7655SOL    HW123864   5.093   3.920   6.275
 7655SOL    HW223865   5.203   4.016   6.203
 7656SOL     OW23866   6.804   0.403   5.241
 7656SOL    HW123867   6.877   0.447   5.293
 7656SOL    HW223868   6.725   0.389   5.300
 7657SOL     OW23869   3.542   2.101   3.324
 7657SOL    HW123870   3.565   2.013   3.283
 7657SOL    HW223871   3.620   2.162   3.317
 7658SOL     OW23872   4.630   1.148   5.440
 7658SOL    HW123873   4.684   1.162   5.357
 7658SOL    HW223874   4.542   1.193   5.430
 7659SOL     OW23875   4.985   5.671   6.208
 7659SOL    HW123876   5.023   5.733   6.276
 7659SOL    HW223877   4.962   5.584   6.251
 7660SOL     OW23878   5.542   5.728   3.925
 7660SOL    HW123879   5.444   5.717   3.945
 7660SOL    HW223880   5.592   5.647   3.957
 7661SOL     OW23881   5.814   3.070   3.683
 7661SOL    HW123882   5.823   3.161   3.643
 7661SOL    HW223883   5.747   3.017   3.631
 7662SOL     OW23884   6.394   5.453   3.556
 7662SOL    HW123885   6.404   5.378   3.622
 7662SOL    HW223886   6.472   5.515   3.565
 7663SOL     OW23887   0.932   6.419   6.953
 7663SOL    HW123888   1.023   6.398   6.919
 7663SOL    HW223889   0.935   6.503   7.008
 7664SOL     OW23890   5.031   4.832   5.016
 7664SOL    HW123891   5.001   4.885   4.936
 7664SOL    HW223892   5.131   4.831   5.019
 7665SOL     OW23893   1.778   5.782   4.086
 7665SOL    HW123894   1.845   5.856   4.084
 7665SOL    HW223895   1.811   5.705   4.031
 7666SOL     OW23896   2.038   0.110   2.346
 7666SOL    HW123897   2.033   0.209   2.359
 7666SOL    HW223898   2.099   0.070   2.415
 7667SOL     OW23899   5.672   0.111   5.506
 7667SOL    HW123900   5.624   0.178   5.449
 7667SOL    HW223901   5.661   0.020   5.466
 7668SOL     OW23902   3.481   4.108   3.057
 7668SOL    HW123903   3.393   4.122   3.102
 7668SOL    HW223904   3.470   4.124   2.959
 7669SOL     OW23905   4.194   6.121   4.725
 7669SOL    HW123906   4.281   6.154   4.688
 7669SOL    HW223907   4.208   6.083   4.816
 7670SOL     OW23908   1.399   5.864   0.931
 7670SOL    HW123909   1.412   5.952   0.976
 7670SOL    HW223910   1.325   5.872   0.863
 7671SOL     OW23911   5.069   2.767   5.001
 7671SOL    HW123912   5.109   2.767   5.093
 7671SOL    HW223913   5.129   2.818   4.939
 7672SOL     OW23914   5.109   0.005   1.722
 7672SOL    HW123915   5.144   7.016   1.814
 7672SOL    HW223916   5.112   0.103   1.703
 7673SOL     OW23917   2.002   3.842   6.948
 7673SOL    HW123918   2.077   3.891   6.905
 7673SOL    HW223919   1.990   3.874   0.013
 7674SOL     OW23920   6.175   1.507   6.605
 7674SOL    HW123921   6.239   1.485   6.679
 7674SOL    HW223922   6.217   1.485   6.517
 7675SOL     OW23923   5.306   7.024   3.534
 7675SOL    HW123924   5.239   0.070   3.539
 7675SOL    HW223925   5.329   7.006   3.439
 7676SOL     OW23926   2.376   0.241   0.498
 7676SOL    HW123927   2.473   0.264   0.490
 7676SOL    HW223928   2.320   0.316   0.462
 7677SOL     OW23929   1.622   1.898   2.637
 7677SOL    HW123930   1.672   1.955   2.571
 7677SOL    HW223931   1.645   1.802   2.623
 7678SOL     OW23932   4.907   6.863   5.698
 7678SOL    HW123933   4.846   6.878   5.620
 7678SOL    HW223934   4.942   6.952   5.730
 7679SOL     OW23935   1.635   5.111   4.655
 7679SOL    HW123936   1.675   5.125   4.746
 7679SOL    HW223937   1.693   5.050   4.602
 7680SOL     OW23938   4.535   0.267   0.767
 7680SOL    HW123939   4.553   0.364   0.786
 7680SOL    HW223940   4.505   0.221   0.851
 7681SOL     OW23941   4.512   2.497   5.325
 7681SOL    HW123942   4.462   2.503   5.412
 7681SOL    HW223943   4.572   2.576   5.316
 7682SOL     OW23944   3.770   1.094   6.933
 7682SOL    HW123945   3.840   1.133   6.991
 7682SOL    HW223946   3.683   1.089   6.983
 7683SOL     OW23947   6.374   3.375   3.049
 7683SOL    HW123948   6.358   3.377   2.951
 7683SOL    HW223949   6.334   3.456   3.091
 7684SOL     OW23950   4.103   2.273   6.473
 7684SOL    HW123951   4.035   2.297   6.542
 7684SOL    HW223952   4.107   2.174   6.464
 7685SOL     OW23953   4.514   4.393   1.624
 7685SOL    HW123954   4.467   4.359   1.543
 7685SOL    HW223955   4.492   4.334   1.702
 7686SOL     OW23956   2.228   0.653   2.060
 7686SOL    HW123957   2.211   0.666   2.158
 7686SOL    HW223958   2.326   0.651   2.043
 7687SOL     OW23959   4.870   4.579   5.335
 7687SOL    HW123960   4.955   4.545   5.294
 7687SOL    HW223961   4.821   4.635   5.268
 7688SOL     OW23962   7.018   0.428   3.572
 7688SOL    HW123963   7.000   0.517   3.613
 7688SOL    HW223964   0.065   0.383   3.621
 7689SOL     OW23965   3.423   0.185   5.088
 7689SOL    HW123966   3.397   0.093   5.117
 7689SOL    HW223967   3.501   0.180   5.027
 7690SOL     OW23968   0.820   5.577   3.211
 7690SOL    HW123969   0.732   5.590   3.257
 7690SOL    HW223970   0.845   5.660   3.161
 7691SOL     OW23971   0.070   4.159   5.513
 7691SOL    HW123972   7.008   4.125   5.486
 7691SOL    HW223973   0.085   4.140   5.610
 7692SOL     OW23974   1.029   6.027   1.308
 7692SOL    HW123975   1.046   6.001   1.213
 7692SOL    HW223976   1.107   6.078   1.344
 7693SOL     OW23977   4.029   1.678   6.620
 7693SOL    HW123978   4.051   1.581   6.627
 7693SOL    HW223979   3.934   1.689   6.591
 7694SOL     OW23980   5.933   5.546   4.090
 7694SOL    HW123981   6.003   5.603   4.047
 7694SOL    HW223982   5.956   5.532   4.186
 7695SOL     OW23983   5.229   6.698   6.251
 7695SOL    HW123984   5.256   6.722   6.158
 7695SOL    HW223985   5.195   6.604   6.254
 7696SOL     OW23986   1.291   4.083   5.451
 7696SOL    HW123987   1.258   4.177   5.463
 7696SOL    HW223988   1.373   4.069   5.506
 7697SOL     OW23989   4.309   0.324   2.157
 7697SOL    HW123990   4.289   0.258   2.229
 7697SOL    HW223991   4.236   0.323   2.089
 7698SOL     OW23992   0.327   2.290   6.299
 7698SOL    HW123993   0.390   2.217   6.271
 7698SOL    HW223994   0.306   2.348   6.220
 7699SOL     OW23995   3.231   3.511   1.518
 7699SOL    HW123996   3.178   3.585   1.476
 7699SOL    HW223997   3.263   3.539   1.609
 7700SOL     OW23998   5.776   1.194   5.616
 7700SOL    HW123999   5.699   1.245   5.655
 7700SOL    HW224000   5.820   1.250   5.546
 7701SOL     OW24001   6.872   2.487   5.067
 7701SOL    HW124002   6.797   2.476   5.002
 7701SOL    HW224003   6.950   2.529   5.022
 7702SOL     OW24004   0.879   6.011   6.897
 7702SOL    HW124005   0.978   6.002   6.906
 7702SOL    HW224006   0.849   6.094   6.944
 7703SOL     OW24007   1.381   2.698   0.226
 7703SOL    HW124008   1.306   2.762   0.212
 7703SOL    HW224009   1.458   2.721   0.166
 7704SOL     OW24010   4.026   3.677   1.746
 7704SOL    HW124011   4.021   3.712   1.653
 7704SOL    HW224012   3.937   3.640   1.773
 7705SOL     OW24013   3.921   3.036   4.689
 7705SOL    HW124014   3.844   3.092   4.718
 7705SOL    HW224015   4.005   3.069   4.733
 7706SOL     OW24016   6.114   1.011   5.656
 7706SOL    HW124017   6.089   0.916   5.677
 7706SOL    HW224018   6.094   1.030   5.560
 7707SOL     OW24019   0.293   4.957   6.272
 7707SOL    HW124020   0.376   4.955   6.327
 7707SOL    HW224021   0.315   4.935   6.177
 7708SOL     OW24022   5.281   1.579   5.643
 7708SOL    HW124023   5.227   1.514   5.698
 7708SOL    HW224024   5.340   1.528   5.580
 7709SOL     OW24025   4.042   2.316   1.633
 7709SOL    HW124026   4.133   2.303   1.672
 7709SOL    HW224027   4.032   2.411   1.603
 7710SOL     OW24028   3.307   0.998   6.189
 7710SOL    HW124029   3.319   1.088   6.145
 7710SOL    HW224030   3.214   0.990   6.224
 7711SOL     OW24031   4.993   6.647   4.463
 7711SOL    HW124032   4.964   6.622   4.555
 7711SOL    HW224033   4.925   6.708   4.421
 7712SOL     OW24034   6.181   4.378   6.208
 7712SOL    HW124035   6.151   4.315   6.279
 7712SOL    HW224036   6.272   4.414   6.230
 7713SOL     OW24037   1.190   4.978   6.595
 7713SOL    HW124038   1.240   4.998   6.511
 7713SOL    HW224039   1.092   4.971   6.575
 7714SOL     OW24040   6.376   4.944   5.072
 7714SOL    HW124041   6.402   4.901   5.159
 7714SOL    HW224042   6.288   4.989   5.082
 7715SOL     OW24043   3.195   1.389   1.506
 7715SOL    HW124044   3.132   1.376   1.582
 7715SOL    HW224045   3.176   1.476   1.462
 7716SOL     OW24046   3.534   2.077   4.493
 7716SOL    HW124047   3.475   2.090   4.573
 7716SOL    HW224048   3.478   2.080   4.410
 7717SOL     OW24049   3.176   6.252   0.418
 7717SOL    HW124050   3.264   6.300   0.418
 7717SOL    HW224051   3.193   6.153   0.417
 7718SOL     OW24052   1.144   6.239   3.315
 7718SOL    HW124053   1.170   6.258   3.220
 7718SOL    HW224054   1.048   6.213   3.318
 7719SOL     OW24055   5.239   2.745   5.919
 7719SOL    HW124056   5.278   2.660   5.957
 7719SOL    HW224057   5.144   2.729   5.893
 7720SOL     OW24058   4.730   6.345   1.431
 7720SOL    HW124059   4.710   6.357   1.334
 7720SOL    HW224060   4.667   6.278   1.470
 7721SOL     OW24061   0.293   5.002   3.695
 7721SOL    HW124062   0.378   5.044   3.665
 7721SOL    HW224063   0.310   4.906   3.718
 7722SOL     OW24064   0.554   5.902   3.363
 7722SOL    HW124065   0.605   5.958   3.429
 7722SOL    HW224066   0.457   5.904   3.386
 7723SOL     OW24067   6.976   2.261   6.085
 7723SOL    HW124068   6.880   2.246   6.109
 7723SOL    HW224069   7.012   2.180   6.039
 7724SOL     OW24070   2.725   5.926   6.939
 7724SOL    HW124071   2.648   5.864   6.955
 7724SOL    HW224072   2.742   5.981   7.021
 7725SOL     OW24073   4.875   4.421   3.466
 7725SOL    HW124074   4.952   4.359   3.479
 7725SOL    HW224075   4.899   4.512   3.500
 7726SOL     OW24076   5.098   6.239   3.563
 7726SOL    HW124077   5.048   6.313   3.609
 7726SOL    HW224078   5.034   6.176   3.521
 7727SOL     OW24079   5.952   3.448   2.451
 7727SOL    HW124080   6.014   3.472   2.377
 7727SOL    HW224081   5.902   3.364   2.427
 7728SOL     OW24082   2.046   3.406   2.873
 7728SOL    HW124083   2.027   3.331   2.809
 7728SOL    HW224084   2.099   3.477   2.827
 7729SOL     OW24085   5.517   1.278   5.966
 7729SOL    HW124086   5.547   1.372   5.979
 7729SOL    HW224087   5.591   1.215   5.989
 7730SOL     OW24088   4.505   6.128   3.278
 7730SOL    HW124089   4.544   6.080   3.356
 7730SOL    HW224090   4.557   6.212   3.261
 7731SOL     OW24091   6.135   1.525   3.868
 7731SOL    HW124092   6.170   1.475   3.947
 7731SOL    HW224093   6.195   1.603   3.850
 7732SOL     OW24094   4.251   4.631   0.714
 7732SOL    HW124095   4.312   4.658   0.789
 7732SOL    HW224096   4.159   4.666   0.731
 7733SOL     OW24097   3.815   5.370   1.651
 7733SOL    HW124098   3.733   5.426   1.659
 7733SOL    HW224099   3.790   5.273   1.657
 7734SOL     OW24100   1.008   3.079   2.253
 7734SOL    HW124101   1.076   3.020   2.210
 7734SOL    HW224102   1.015   3.070   2.353
 7735SOL     OW24103   5.801   3.829   0.642
 7735SOL    HW124104   5.843   3.851   0.730
 7735SOL    HW224105   5.711   3.787   0.657
 7736SOL     OW24106   5.806   4.509   6.752
 7736SOL    HW124107   5.846   4.600   6.769
 7736SOL    HW224108   5.869   4.439   6.784
 7737SOL     OW24109   4.969   3.444   6.967
 7737SOL    HW124110   4.884   3.432   6.917
 7737SOL    HW224111   4.967   3.530   7.018
 7738SOL     OW24112   1.692   4.851   6.500
 7738SOL    HW124113   1.678   4.836   6.598
 7738SOL    HW224114   1.616   4.904   6.463
 7739SOL     OW24115   6.091   4.891   2.315
 7739SOL    HW124116   6.113   4.874   2.219
 7739SOL    HW224117   6.068   4.805   2.360
 7740SOL     OW24118   6.643   6.079   3.196
 7740SOL    HW124119   6.572   6.145   3.221
 7740SOL    HW224120   6.667   6.090   3.100
 7741SOL     OW24121   2.534   5.471   3.684
 7741SOL    HW124122   2.528   5.372   3.698
 7741SOL    HW224123   2.628   5.501   3.698
 7742SOL     OW24124   6.943   0.842   4.418
 7742SOL    HW124125   6.865   0.892   4.379
 7742SOL    HW224126   7.017   0.838   4.350
 7743SOL     OW24127   5.032   3.406   2.021
 7743SOL    HW124128   5.001   3.329   2.075
 7743SOL    HW224129   4.979   3.411   1.936
 7744SOL     OW24130   0.164   6.575   3.409
 7744SOL    HW124131   0.170   6.556   3.507
 7744SOL    HW224132   0.207   6.664   3.389
 7745SOL     OW24133   6.325   2.827   5.396
 7745SOL    HW124134   6.265   2.902   5.422
 7745SOL    HW224135   6.276   2.765   5.335
 7746SOL     OW24136   1.841   0.608   6.327
 7746SOL    HW124137   1.810   0.686   6.382
 7746SOL    HW224138   1.765   0.543   6.316
 7747SOL     OW24139   4.749   4.839   0.893
 7747SOL    HW124140   4.848   4.823   0.894
 7747SOL    HW224141   4.728   4.923   0.942
 7748SOL     OW24142   1.257   3.931   6.813
 7748SOL    HW124143   1.345   3.947   6.768
 7748SOL    HW224144   1.236   3.833   6.811
 7749SOL     OW24145   5.977   3.286   5.929
 7749SOL    HW124146   6.073   3.310   5.944
 7749SOL    HW224147   5.932   3.358   5.877
 7750SOL     OW24148   3.755   5.490   2.972
 7750SOL    HW124149   3.797   5.575   3.005
 7750SOL    HW224150   3.750   5.424   3.047
 7751SOL     OW24151   1.189   2.415   1.514
 7751SOL    HW124152   1.193   2.407   1.614
 7751SOL    HW224153   1.228   2.333   1.473
 7752SOL     OW24154   2.684   1.218   2.396
 7752SOL    HW124155   2.698   1.259   2.486
 7752SOL    HW224156   2.766   1.230   2.340
 7753SOL     OW24157   4.895   0.438   4.877
 7753SOL    HW124158   4.927   0.528   4.908
 7753SOL    HW224159   4.805   0.448   4.835
 7754SOL     OW24160   4.552   6.269   1.157
 7754SOL    HW124161   4.651   6.271   1.146
 7754SOL    HW224162   4.519   6.176   1.145
 7755SOL     OW24163   1.627   2.884   5.928
 7755SOL    HW124164   1.631   2.830   5.843
 7755SOL    HW224165   1.534   2.883   5.963
 7756SOL     OW24166   1.431   4.617   1.933
 7756SOL    HW124167   1.506   4.569   1.978
 7756SOL    HW224168   1.370   4.657   2.002
 7757SOL     OW24169   0.438   4.359   0.591
 7757SOL    HW124170   0.509   4.302   0.632
 7757SOL    HW224171   0.378   4.395   0.663
 7758SOL     OW24172   6.751   1.174   5.101
 7758SOL    HW124173   6.760   1.232   5.020
 7758SOL    HW224174   6.710   1.227   5.176
 7759SOL     OW24175   3.244   1.079   2.653
 7759SOL    HW124176   3.222   1.165   2.700
 7759SOL    HW224177   3.340   1.057   2.667
 7760SOL     OW24178   5.364   2.960   0.512
 7760SOL    HW124179   5.459   2.971   0.540
 7760SOL    HW224180   5.361   2.913   0.424
 7761SOL     OW24181   4.837   5.376   2.856
 7761SOL    HW124182   4.900   5.299   2.845
 7761SOL    HW224183   4.745   5.341   2.874
 7762SOL     OW24184   4.755   1.087   0.061
 7762SOL    HW124185   4.688   1.048   0.124
 7762SOL    HW224186   4.708   1.150   7.027
 7763SOL     OW24187   1.578   0.769   3.017
 7763SOL    HW124188   1.520   0.850   3.007
 7763SOL    HW224189   1.582   0.744   3.114
 7764SOL     OW24190   3.859   4.424   5.264
 7764SOL    HW124191   3.954   4.442   5.289
 7764SOL    HW224192   3.803   4.504   5.286
 7765SOL     OW24193   6.673   4.134   4.228
 7765SOL    HW124194   6.692   4.210   4.165
 7765SOL    HW224195   6.575   4.111   4.224
 7766SOL     OW24196   0.348   2.806   5.694
 7766SOL    HW124197   0.278   2.738   5.717
 7766SOL    HW224198   0.306   2.897   5.691
 7767SOL     OW24199   4.057   0.634   3.182
 7767SOL    HW124200   4.013   0.652   3.094
 7767SOL    HW224201   4.134   0.696   3.194
 7768SOL     OW24202   3.153   6.140   4.212
 7768SOL    HW124203   3.101   6.146   4.296
 7768SOL    HW224204   3.224   6.211   4.211
 7769SOL     OW24205   3.961   1.838   6.195
 7769SOL    HW124206   3.862   1.832   6.182
 7769SOL    HW224207   4.007   1.785   6.123
 7770SOL     OW24208   1.478   3.043   3.462
 7770SOL    HW124209   1.513   3.135   3.475
 7770SOL    HW224210   1.523   3.001   3.383
 7771SOL     OW24211   1.069   2.983   5.202
 7771SOL    HW124212   1.084   2.892   5.165
 7771SOL    HW224213   1.003   3.032   5.146
 7772SOL     OW24214   5.024   6.605   2.180
 7772SOL    HW124215   4.945   6.665   2.194
 7772SOL    HW224216   5.097   6.656   2.135
 7773SOL     OW24217   2.690   6.782   5.854
 7773SOL    HW124218   2.687   6.875   5.891
 7773SOL    HW224219   2.597   6.744   5.853
 7774SOL     OW24220   5.287   1.155   2.740
 7774SOL    HW124221   5.329   1.088   2.680
 7774SOL    HW224222   5.198   1.122   2.770
 7775SOL     OW24223   4.109   2.287   1.354
 7775SOL    HW124224   4.112   2.381   1.320
 7775SOL    HW224225   4.062   2.285   1.442
 7776SOL     OW24226   2.458   1.830   3.645
 7776SOL    HW124227   2.364   1.844   3.613
 7776SOL    HW224228   2.459   1.830   3.745
 7777SOL     OW24229   5.121   4.713   2.775
 7777SOL    HW124230   5.147   4.802   2.812
 7777SOL    HW224231   5.203   4.656   2.765
 7778SOL     OW24232   0.662   2.999   1.781
 7778SOL    HW124233   0.567   3.016   1.807
 7778SOL    HW224234   0.710   2.957   1.858
 7779SOL     OW24235   2.065   1.428   3.967
 7779SOL    HW124236   2.135   1.481   3.920
 7779SOL    HW224237   1.974   1.458   3.936
 7780SOL     OW24238   6.534   6.028   3.637
 7780SOL    HW124239   6.437   6.030   3.610
 7780SOL    HW224240   6.549   6.093   3.712
 7781SOL     OW24241   3.283   3.140   1.562
 7781SOL    HW124242   3.227   3.177   1.636
 7781SOL    HW224243   3.230   3.139   1.477
 7782SOL     OW24244   5.108   5.328   3.334
 7782SOL    HW124245   5.094   5.417   3.291
 7782SOL    HW224246   5.031   5.307   3.394
 7783SOL     OW24247   0.339   6.779   3.770
 7783SOL    HW124248   0.418   6.789   3.831
 7783SOL    HW224249   0.370   6.779   3.675
 7784SOL     OW24250   0.544   3.236   2.529
 7784SOL    HW124251   0.558   3.286   2.443
 7784SOL    HW224252   0.632   3.200   2.561
 7785SOL     OW24253   6.133   0.357   2.525
 7785SOL    HW124254   6.200   0.352   2.600
 7785SOL    HW224255   6.171   0.411   2.451
 7786SOL     OW24256   5.446   0.742   6.425
 7786SOL    HW124257   5.514   0.702   6.364
 7786SOL    HW224258   5.473   0.726   6.520
 7787SOL     OW24259   0.982   1.962   0.938
 7787SOL    HW124260   0.921   1.937   0.863
 7787SOL    HW224261   1.072   1.985   0.902
 7788SOL     OW24262   0.740   4.392   2.666
 7788SOL    HW124263   0.835   4.370   2.646
 7788SOL    HW224264   0.689   4.307   2.682
 7789SOL     OW24265   4.023   6.878   6.655
 7789SOL    HW124266   3.987   6.930   6.733
 7789SOL    HW224267   4.123   6.887   6.652
 7790SOL     OW24268   3.936   4.970   4.972
 7790SOL    HW124269   4.022   5.016   4.993
 7790SOL    HW224270   3.877   4.971   5.053
 7791SOL     OW24271   1.493   6.310   1.184
 7791SOL    HW124272   1.556   6.302   1.260
 7791SOL    HW224273   1.499   6.402   1.144
 7792SOL     OW24274   1.293   1.464   1.564
 7792SOL    HW124275   1.250   1.439   1.477
 7792SOL    HW224276   1.260   1.553   1.594
 7793SOL     OW24277   4.873   1.176   0.705
 7793SOL    HW124278   4.913   1.172   0.613
 7793SOL    HW224279   4.871   1.271   0.736
 7794SOL     OW24280   0.930   1.677   3.139
 7794SOL    HW124281   1.014   1.678   3.086
 7794SOL    HW224282   0.938   1.611   3.213
 7795SOL     OW24283   4.749   3.419   1.033
 7795SOL    HW124284   4.698   3.349   1.082
 7795SOL    HW224285   4.818   3.376   0.975
 7796SOL     OW24286   4.132   1.526   0.234
 7796SOL    HW124287   4.193   1.491   0.163
 7796SOL    HW224288   4.051   1.565   0.191
 7797SOL     OW24289   1.664   5.792   2.677
 7797SOL    HW124290   1.654   5.717   2.612
 7797SOL    HW224291   1.575   5.811   2.719
 7798SOL     OW24292   2.309   2.929   0.740
 7798SOL    HW124293   2.371   2.951   0.814
 7798SOL    HW224294   2.214   2.945   0.769
 7799SOL     OW24295   2.585   5.807   4.396
 7799SOL    HW124296   2.656   5.866   4.356
 7799SOL    HW224297   2.540   5.856   4.471
 7800SOL     OW24298   0.506   1.138   1.545
 7800SOL    HW124299   0.432   1.115   1.608
 7800SOL    HW224300   0.590   1.090   1.572
 7801SOL     OW24301   3.061   2.501   0.984
 7801SOL    HW124302   3.044   2.426   0.920
 7801SOL    HW224303   3.079   2.463   1.075
 7802SOL     OW24304   0.178   4.848   4.464
 7802SOL    HW124305   0.272   4.824   4.492
 7802SOL    HW224306   0.128   4.764   4.441
 7803SOL     OW24307   3.124   2.409   6.281
 7803SOL    HW124308   3.026   2.401   6.264
 7803SOL    HW224309   3.174   2.376   6.201
 7804SOL     OW24310   3.098   1.565   5.426
 7804SOL    HW124311   3.009   1.558   5.472
 7804SOL    HW224312   3.091   1.629   5.349
 7805SOL     OW24313   0.279   1.902   6.445
 7805SOL    HW124314   0.231   1.949   6.371
 7805SOL    HW224315   0.353   1.847   6.408
 7806SOL     OW24316   6.557   2.689   4.920
 7806SOL    HW124317   6.537   2.772   4.972
 7806SOL    HW224318   6.546   2.708   4.822
 7807SOL     OW24319   2.636   6.430   5.641
 7807SOL    HW124320   2.736   6.427   5.638
 7807SOL    HW224321   2.603   6.390   5.726
 7808SOL     OW24322   0.396   2.943   4.490
 7808SOL    HW124323   0.432   3.036   4.482
 7808SOL    HW224324   0.368   2.926   4.584
 7809SOL     OW24325   2.915   0.578   3.086
 7809SOL    HW124326   2.976   0.630   3.027
 7809SOL    HW224327   2.929   0.606   3.181
 7810SOL     OW24328   2.668   6.933   5.587
 7810SOL    HW124329   2.720   6.999   5.534
 7810SOL    HW224330   2.687   6.946   5.684
 7811SOL     OW24331   1.043   5.931   3.222
 7811SOL    HW124332   1.072   5.865   3.152
 7811SOL    HW224333   1.033   5.884   3.309
 7812SOL     OW24334   3.165   0.152   5.453
 7812SOL    HW124335   3.169   0.243   5.494
 7812SOL    HW224336   3.248   0.101   5.476
 7813SOL     OW24337   5.099   1.127   0.453
 7813SOL    HW124338   5.055   1.217   0.451
 7813SOL    HW224339   5.178   1.130   0.514
 7814SOL     OW24340   6.460   1.793   1.453
 7814SOL    HW124341   6.453   1.853   1.373
 7814SOL    HW224342   6.386   1.814   1.516
 7815SOL     OW24343   4.686   5.853   3.664
 7815SOL    HW124344   4.671   5.763   3.704
 7815SOL    HW224345   4.763   5.897   3.709
 7816SOL     OW24346   1.425   1.287   5.580
 7816SOL    HW124347   1.389   1.197   5.558
 7816SOL    HW224348   1.357   1.339   5.631
 7817SOL     OW24349   5.098   0.904   5.312
 7817SOL    HW124350   5.046   0.863   5.387
 7817SOL    HW224351   5.041   0.909   5.230
 7818SOL     OW24352   3.728   6.905   3.490
 7818SOL    HW124353   3.690   6.909   3.398
 7818SOL    HW224354   3.796   6.832   3.495
 7819SOL     OW24355   2.609   2.424   4.275
 7819SOL    HW124356   2.657   2.396   4.192
 7819SOL    HW224357   2.606   2.347   4.339
 7820SOL     OW24358   1.943   0.505   6.633
 7820SOL    HW124359   1.999   0.461   6.562
 7820SOL    HW224360   2.001   0.562   6.691
 7821SOL     OW24361   2.935   6.286   6.125
 7821SOL    HW124362   2.932   6.386   6.123
 7821SOL    HW224363   2.846   6.251   6.154
 7822SOL     OW24364   0.747   1.482   4.645
 7822SOL    HW124365   0.766   1.399   4.697
 7822SOL    HW224366   0.806   1.556   4.677
 7823SOL     OW24367   1.800   2.198   4.979
 7823SOL    HW124368   1.826   2.294   4.971
 7823SOL    HW224369   1.821   2.151   4.892
 7824SOL     OW24370   6.381   4.200   2.798
 7824SOL    HW124371   6.291   4.160   2.810
 7824SOL    HW224372   6.446   4.129   2.769
 7825SOL     OW24373   3.176   4.026   3.890
 7825SOL    HW124374   3.109   3.964   3.849
 7825SOL    HW224375   3.264   4.016   3.844
 7826SOL     OW24376   6.168   6.870   0.970
 7826SOL    HW124377   6.131   6.863   1.062
 7826SOL    HW224378   6.114   6.936   0.917
 7827SOL     OW24379   5.248   3.486   0.303
 7827SOL    HW124380   5.334   3.454   0.263
 7827SOL    HW224381   5.236   3.584   0.284
 7828SOL     OW24382   0.925   5.433   7.006
 7828SOL    HW124383   0.863   5.381   0.036
 7828SOL    HW224384   0.983   5.493   0.033
 7829SOL     OW24385   3.148   4.043   2.874
 7829SOL    HW124386   3.224   4.002   2.924
 7829SOL    HW224387   3.176   4.063   2.780
 7830SOL     OW24388   0.035   4.611   0.018
 7830SOL    HW124389   0.079   4.596   6.959
 7830SOL    HW224390   0.061   4.540   0.083
 7831SOL     OW24391   3.350   3.830   0.138
 7831SOL    HW124392   3.259   3.869   0.128
 7831SOL    HW224393   3.414   3.901   0.168
 7832SOL     OW24394   3.887   2.618   5.933
 7832SOL    HW124395   3.940   2.701   5.917
 7832SOL    HW224396   3.857   2.615   6.029
 7833SOL     OW24397   6.563   6.659   1.733
 7833SOL    HW124398   6.490   6.608   1.688
 7833SOL    HW224399   6.581   6.743   1.681
 7834SOL     OW24400   4.927   1.175   1.491
 7834SOL    HW124401   4.959   1.113   1.562
 7834SOL    HW224402   4.827   1.174   1.488
 7835SOL     OW24403   1.895   2.201   4.227
 7835SOL    HW124404   1.958   2.255   4.172
 7835SOL    HW224405   1.810   2.252   4.241
 7836SOL     OW24406   2.326   6.819   0.221
 7836SOL    HW124407   2.257   6.762   0.177
 7836SOL    HW224408   2.417   6.789   0.193
 7837SOL     OW24409   4.900   6.894   1.978
 7837SOL    HW124410   4.934   6.986   1.995
 7837SOL    HW224411   4.839   6.895   1.899
 7838SOL     OW24412   3.405   5.221   4.207
 7838SOL    HW124413   3.451   5.143   4.249
 7838SOL    HW224414   3.306   5.207   4.210
 7839SOL     OW24415   7.002   5.544   3.116
 7839SOL    HW124416   6.941   5.466   3.103
 7839SOL    HW224417   6.950   5.629   3.107
 7840SOL     OW24418   3.966   3.097   6.119
 7840SOL    HW124419   3.883   3.042   6.129
 7840SOL    HW224420   3.944   3.181   6.069
 7841SOL     OW24421   1.306   1.625   5.743
 7841SOL    HW124422   1.267   1.550   5.797
 7841SOL    HW224423   1.233   1.685   5.712
 7842SOL     OW24424   0.946   0.915   2.589
 7842SOL    HW124425   1.011   0.964   2.649
 7842SOL    HW224426   0.972   0.818   2.585
 7843SOL     OW24427   6.596   1.949   1.874
 7843SOL    HW124428   6.505   1.925   1.910
 7843SOL    HW224429   6.586   1.987   1.782
 7844SOL     OW24430   3.631   1.862   3.245
 7844SOL    HW124431   3.620   1.898   3.152
 7844SOL    HW224432   3.602   1.766   3.246
 7845SOL     OW24433   0.807   0.883   4.722
 7845SOL    HW124434   0.820   0.895   4.624
 7845SOL    HW224435   0.870   0.943   4.771
 7846SOL     OW24436   5.292   6.865   2.866
 7846SOL    HW124437   5.339   6.833   2.948
 7846SOL    HW224438   5.225   6.798   2.837
 7847SOL     OW24439   0.650   6.553   5.490
 7847SOL    HW124440   0.706   6.630   5.461
 7847SOL    HW224441   0.587   6.584   5.562
 7848SOL     OW24442   4.389   3.212   1.318
 7848SOL    HW124443   4.358   3.160   1.397
 7848SOL    HW224444   4.328   3.290   1.303
 7849SOL     OW24445   6.703   4.384   5.708
 7849SOL    HW124446   6.801   4.371   5.717
 7849SOL    HW224447   6.680   4.480   5.728
 7850SOL     OW24448   1.296   2.850   4.683
 7850SOL    HW124449   1.257   2.847   4.775
 7850SOL    HW224450   1.311   2.946   4.657
 7851SOL     OW24451   2.836   6.476   0.288
 7851SOL    HW124452   2.856   6.561   0.238
 7851SOL    HW224453   2.893   6.472   0.370
 7852SOL     OW24454   2.555   6.155   0.583
 7852SOL    HW124455   2.623   6.092   0.621
 7852SOL    HW224456   2.601   6.220   0.523
 7853SOL     OW24457   2.614   2.014   6.685
 7853SOL    HW124458   2.570   1.929   6.656
 7853SOL    HW224459   2.647   2.004   6.779
 7854SOL     OW24460   3.925   3.895   4.701
 7854SOL    HW124461   4.019   3.866   4.683
 7854SOL    HW224462   3.867   3.871   4.623
 7855SOL     OW24463   3.157   0.166   4.921
 7855SOL    HW124464   3.213   0.086   4.947
 7855SOL    HW224465   3.209   0.249   4.939
 7856SOL     OW24466   3.058   2.559   5.568
 7856SOL    HW124467   3.052   2.495   5.491
 7856SOL    HW224468   2.975   2.614   5.573
 7857SOL     OW24469   0.278   3.712   4.883
 7857SOL    HW124470   0.362   3.658   4.891
 7857SOL    HW224471   0.220   3.696   4.963
 7858SOL     OW24472   5.137   2.978   3.316
 7858SOL    HW124473   5.189   3.053   3.276
 7858SOL    HW224474   5.056   3.015   3.363
 7859SOL     OW24475   6.623   6.816   6.942
 7859SOL    HW124476   6.561   6.829   6.864
 7859SOL    HW224477   6.674   6.731   6.929
 7860SOL     OW24478   4.411   6.877   0.253
 7860SOL    HW124479   4.370   6.847   0.339
 7860SOL    HW224480   4.511   6.875   0.261
 7861SOL     OW24481   6.403   3.580   0.243
 7861SOL    HW124482   6.313   3.545   0.217
 7861SOL    HW224483   6.398   3.679   0.258
 7862SOL     OW24484   2.882   4.636   1.610
 7862SOL    HW124485   2.842   4.609   1.697
 7862SOL    HW224486   2.917   4.555   1.562
 7863SOL     OW24487   4.499   5.930   2.818
 7863SOL    HW124488   4.579   5.906   2.763
 7863SOL    HW224489   4.523   6.003   2.882
 7864SOL     OW24490   2.174   5.741   5.551
 7864SOL    HW124491   2.183   5.739   5.650
 7864SOL    HW224492   2.082   5.772   5.526
 7865SOL     OW24493   4.477   0.448   2.996
 7865SOL    HW124494   4.397   0.452   2.936
 7865SOL    HW224495   4.554   0.494   2.951
 7866SOL     OW24496   2.737   0.323   5.371
 7866SOL    HW124497   2.701   0.410   5.405
 7866SOL    HW224498   2.805   0.341   5.299
 7867SOL     OW24499   0.016   2.314   0.240
 7867SOL    HW124500   6.960   2.278   0.280
 7867SOL    HW224501   0.094   2.266   0.280
 7868SOL     OW24502   5.357   0.273   1.511
 7868SOL    HW124503   5.418   0.309   1.581
 7868SOL    HW224504   5.355   0.336   1.433
 7869SOL     OW24505   5.954   2.012   4.489
 7869SOL    HW124506   5.932   1.962   4.572
 7869SOL    HW224507   6.018   2.086   4.510
 7870SOL     OW24508   5.989   0.171   3.072
 7870SOL    HW124509   5.926   0.154   3.148
 7870SOL    HW224510   6.014   0.268   3.071
 7871SOL     OW24511   5.420   2.519   3.085
 7871SOL    HW124512   5.480   2.598   3.077
 7871SOL    HW224513   5.348   2.525   3.016
 7872SOL     OW24514   5.272   4.011   3.913
 7872SOL    HW124515   5.185   4.058   3.895
 7872SOL    HW224516   5.337   4.033   3.841
 7873SOL     OW24517   0.155   6.354   4.706
 7873SOL    HW124518   0.097   6.362   4.625
 7873SOL    HW224519   0.210   6.271   4.699
 7874SOL     OW24520   5.999   6.655   0.322
 7874SOL    HW124521   5.922   6.654   0.386
 7874SOL    HW224522   6.085   6.667   0.373
 7875SOL     OW24523   5.422   2.352   0.272
 7875SOL    HW124524   5.503   2.321   0.222
 7875SOL    HW224525   5.378   2.427   0.222
 7876SOL     OW24526   6.797   2.690   5.264
 7876SOL    HW124527   6.858   2.702   5.186
 7876SOL    HW224528   6.708   2.730   5.244
 7877SOL     OW24529   6.119   3.215   1.463
 7877SOL    HW124530   6.128   3.211   1.363
 7877SOL    HW224531   6.196   3.168   1.505
 7878SOL     OW24532   3.909   3.434   2.276
 7878SOL    HW124533   3.957   3.346   2.274
 7878SOL    HW224534   3.965   3.501   2.325
 7879SOL     OW24535   6.561   1.448   5.525
 7879SOL    HW124536   6.593   1.429   5.618
 7879SOL    HW224537   6.580   1.543   5.502
 7880SOL     OW24538   2.011   6.207   6.524
 7880SOL    HW124539   2.027   6.146   6.602
 7880SOL    HW224540   2.052   6.296   6.542
 7881SOL     OW24541   6.992   4.629   5.594
 7881SOL    HW124542   6.899   4.604   5.566
 7881SOL    HW224543   6.997   4.727   5.612
 7882SOL     OW24544   1.307   4.631   0.544
 7882SOL    HW124545   1.333   4.728   0.540
 7882SOL    HW224546   1.268   4.610   0.633
 7883SOL     OW24547   2.938   2.193   2.745
 7883SOL    HW124548   2.989   2.201   2.659
 7883SOL    HW224549   2.846   2.231   2.733
 7884SOL     OW24550   6.601   2.222   5.886
 7884SOL    HW124551   6.551   2.287   5.943
 7884SOL    HW224552   6.535   2.171   5.830
 7885SOL     OW24553   5.186   4.740   2.199
 7885SOL    HW124554   5.283   4.763   2.207
 7885SOL    HW224555   5.177   4.652   2.152
 7886SOL     OW24556   3.593   5.289   3.594
 7886SOL    HW124557   3.589   5.218   3.524
 7886SOL    HW224558   3.518   5.277   3.658
 7887SOL     OW24559   0.381   3.416   0.726
 7887SOL    HW124560   0.382   3.338   0.788
 7887SOL    HW224561   0.318   3.485   0.761
 7888SOL     OW24562   0.364   1.105   5.127
 7888SOL    HW124563   0.346   1.017   5.082
 7888SOL    HW224564   0.358   1.093   5.226
 7889SOL     OW24565   6.092   4.491   0.548
 7889SOL    HW124566   6.050   4.578   0.526
 7889SOL    HW224567   6.063   4.421   0.482
 7890SOL     OW24568   1.223   2.330   1.790
 7890SOL    HW124569   1.293   2.276   1.745
 7890SOL    HW224570   1.216   2.304   1.886
 7891SOL     OW24571   6.573   0.973   4.997
 7891SOL    HW124572   6.602   0.918   4.919
 7891SOL    HW224573   6.627   1.057   5.001
 7892SOL     OW24574   0.856   1.750   4.780
 7892SOL    HW124575   0.806   1.805   4.713
 7892SOL    HW224576   0.791   1.713   4.847
 7893SOL     OW24577   5.718   6.192   0.709
 7893SOL    HW124578   5.692   6.197   0.806
 7893SOL    HW224579   5.720   6.096   0.680
 7894SOL     OW24580   2.724   0.267   6.260
 7894SOL    HW124581   2.757   0.265   6.166
 7894SOL    HW224582   2.729   0.174   6.298
 7895SOL     OW24583   5.110   6.982   2.443
 7895SOL    HW124584   5.185   6.926   2.409
 7895SOL    HW224585   5.139   0.002   2.526
 7896SOL     OW24586   3.317   1.537   1.259
 7896SOL    HW124587   3.319   1.610   1.327
 7896SOL    HW224588   3.411   1.512   1.234
 7897SOL     OW24589   5.260   0.976   1.406
 7897SOL    HW124590   5.237   0.908   1.475
 7897SOL    HW224591   5.265   1.066   1.449
 7898SOL     OW24592   3.614   6.172   3.338
 7898SOL    HW124593   3.619   6.123   3.425
 7898SOL    HW224594   3.680   6.248   3.339
 7899SOL     OW24595   5.695   4.792   2.879
 7899SOL    HW124596   5.739   4.702   2.869
 7899SOL    HW224597   5.710   4.826   2.971
 7900SOL     OW24598   0.621   4.174   0.700
 7900SOL    HW124599   0.640   4.220   0.786
 7900SOL    HW224600   0.606   4.076   0.717
 7901SOL     OW24601   0.070   3.245   6.335
 7901SOL    HW124602   7.021   3.259   6.397
 7901SOL    HW224603   0.049   3.170   6.273
 7902SOL     OW24604   1.520   1.046   1.395
 7902SOL    HW124605   1.554   0.993   1.473
 7902SOL    HW224606   1.534   0.994   1.311
 7903SOL     OW24607   3.457   2.059   5.588
 7903SOL    HW124608   3.425   2.101   5.673
 7903SOL    HW224609   3.489   2.131   5.526
 7904SOL     OW24610   5.785   3.257   3.143
 7904SOL    HW124611   5.695   3.292   3.117
 7904SOL    HW224612   5.778   3.209   3.231
 7905SOL     OW24613   6.357   2.075   0.640
 7905SOL    HW124614   6.322   2.071   0.733
 7905SOL    HW224615   6.290   2.036   0.577
 7906SOL     OW24616   6.966   5.705   5.932
 7906SOL    HW124617   6.974   5.802   5.957
 7906SOL    HW224618   0.026   5.671   5.902
 7907SOL     OW24619   5.252   5.784   2.987
 7907SOL    HW124620   5.168   5.774   2.933
 7907SOL    HW224621   5.267   5.881   3.007
 7908SOL     OW24622   1.596   7.018   6.352
 7908SOL    HW124623   1.542   7.026   6.268
 7908SOL    HW224624   1.567   6.937   6.403
 7909SOL     OW24625   6.979   4.031   3.022
 7909SOL    HW124626   7.003   4.121   2.986
 7909SOL    HW224627   7.012   3.960   2.959
 7910SOL     OW24628   1.743   4.128   4.541
 7910SOL    HW124629   1.800   4.148   4.461
 7910SOL    HW224630   1.714   4.032   4.538
 7911SOL     OW24631   5.960   3.966   6.688
 7911SOL    HW124632   6.033   4.022   6.727
 7911SOL    HW224633   5.979   3.946   6.592
 7912SOL     OW24634   5.778   5.610   1.894
 7912SOL    HW124635   5.711   5.678   1.923
 7912SOL    HW224636   5.847   5.599   1.966
 7913SOL     OW24637   1.073   4.149   6.763
 7913SOL    HW124638   1.129   4.066   6.769
 7913SOL    HW224639   1.017   4.146   6.680
 7914SOL     OW24640   1.081   0.483   4.818
 7914SOL    HW124641   1.057   0.414   4.750
 7914SOL    HW224642   1.036   0.569   4.795
 7915SOL     OW24643   2.450   6.317   1.588
 7915SOL    HW124644   2.385   6.390   1.609
 7915SOL    HW224645   2.543   6.351   1.596
 7916SOL     OW24646   2.123   0.450   3.006
 7916SOL    HW124647   2.185   0.388   2.957
 7916SOL    HW224648   2.078   0.510   2.941
 7917SOL     OW24649   4.593   1.256   3.019
 7917SOL    HW124650   4.566   1.339   2.971
 7917SOL    HW224651   4.611   1.278   3.115
 7918SOL     OW24652   1.587   2.810   2.580
 7918SOL    HW124653   1.585   2.716   2.546
 7918SOL    HW224654   1.610   2.809   2.677
 7919SOL     OW24655   0.883   0.542   4.476
 7919SOL    HW124656   0.913   0.607   4.546
 7919SOL    HW224657   0.789   0.561   4.450
 7920SOL     OW24658   4.880   0.114   1.294
 7920SOL    HW124659   4.872   0.194   1.354
 7920SOL    HW224660   4.821   0.041   1.329
 7921SOL     OW24661   6.667   3.559   0.952
 7921SOL    HW124662   6.576   3.593   0.927
 7921SOL    HW224663   6.737   3.610   0.901
 7922SOL     OW24664   1.940   6.790   3.438
 7922SOL    HW124665   1.882   6.855   3.487
 7922SOL    HW224666   1.910   6.785   3.343
 7923SOL     OW24667   5.224   0.289   6.816
 7923SOL    HW124668   5.307   0.272   6.870
 7923SOL    HW224669   5.160   0.345   6.870
 7924SOL     OW24670   5.240   5.716   6.878
 7924SOL    HW124671   5.189   5.665   6.809
 7924SOL    HW224672   5.281   5.652   6.943
 7925SOL     OW24673   2.259   4.497   6.441
 7925SOL    HW124674   2.280   4.591   6.466
 7925SOL    HW224675   2.234   4.446   6.524
 7926SOL     OW24676   4.801   5.630   0.669
 7926SOL    HW124677   4.833   5.541   0.635
 7926SOL    HW224678   4.709   5.620   0.706
 7927SOL     OW24679   4.699   6.758   3.756
 7927SOL    HW124680   4.679   6.854   3.772
 7927SOL    HW224681   4.795   6.748   3.728
 7928SOL     OW24682   5.796   2.884   4.038
 7928SOL    HW124683   5.784   2.967   4.091
 7928SOL    HW224684   5.869   2.897   3.971
 7929SOL     OW24685   4.465   3.940   5.603
 7929SOL    HW124686   4.379   3.978   5.637
 7929SOL    HW224687   4.454   3.915   5.507
 7930SOL     OW24688   3.484   5.323   1.093
 7930SOL    HW124689   3.503   5.232   1.130
 7930SOL    HW224690   3.556   5.386   1.123
 7931SOL     OW24691   5.520   0.912   0.344
 7931SOL    HW124692   5.571   0.992   0.378
 7931SOL    HW224693   5.585   0.842   0.315
 7932SOL     OW24694   1.242   3.797   0.715
 7932SOL    HW124695   1.206   3.826   0.627
 7932SOL    HW224696   1.231   3.698   0.724
 7933SOL     OW24697   2.315   1.547   0.200
 7933SOL    HW124698   2.340   1.535   0.104
 7933SOL    HW224699   2.315   1.458   0.246
 7934SOL     OW24700   6.520   5.379   0.856
 7934SOL    HW124701   6.434   5.429   0.841
 7934SOL    HW224702   6.547   5.388   0.951
 7935SOL     OW24703   6.444   4.478   3.774
 7935SOL    HW124704   6.455   4.423   3.691
 7935SOL    HW224705   6.525   4.535   3.787
 7936SOL     OW24706   2.361   5.468   3.904
 7936SOL    HW124707   2.412   5.388   3.937
 7936SOL    HW224708   2.396   5.494   3.814
 7937SOL     OW24709   4.194   1.154   1.643
 7937SOL    HW124710   4.108   1.131   1.597
 7937SOL    HW224711   4.253   1.074   1.646
 7938SOL     OW24712   1.627   0.111   3.353
 7938SOL    HW124713   1.579   0.050   3.290
 7938SOL    HW224714   1.717   0.132   3.315
 7939SOL     OW24715   1.802   0.493   3.849
 7939SOL    HW124716   1.749   0.471   3.767
 7939SOL    HW224717   1.742   0.537   3.916
 7940SOL     OW24718   6.411   1.214   5.836
 7940SOL    HW124719   6.399   1.193   5.739
 7940SOL    HW224720   6.497   1.262   5.850
 7941SOL     OW24721   2.868   0.359   0.925
 7941SOL    HW124722   2.871   0.273   0.975
 7941SOL    HW224723   2.787   0.361   0.866
 7942SOL     OW24724   1.800   3.583   0.927
 7942SOL    HW124725   1.715   3.606   0.973
 7942SOL    HW224726   1.865   3.658   0.937
 7943SOL     OW24727   1.516   5.742   6.775
 7943SOL    HW124728   1.437   5.745   6.713
 7943SOL    HW224729   1.599   5.762   6.724
 7944SOL     OW24730   1.495   1.830   0.503
 7944SOL    HW124731   1.520   1.736   0.479
 7944SOL    HW224732   1.554   1.894   0.455
 7945SOL     OW24733   6.496   4.351   3.544
 7945SOL    HW124734   6.587   4.393   3.547
 7945SOL    HW224735   6.496   4.274   3.481
 7946SOL     OW24736   5.366   1.167   5.735
 7946SOL    HW124737   5.431   1.200   5.803
 7946SOL    HW224738   5.290   1.120   5.781
 7947SOL     OW24739   0.847   4.158   0.036
 7947SOL    HW124740   0.856   4.249   7.024
 7947SOL    HW224741   0.765   4.113   0.001
 7948SOL     OW24742   1.249   5.657   1.227
 7948SOL    HW124743   1.266   5.584   1.293
 7948SOL    HW224744   1.317   5.729   1.237
 7949SOL     OW24745   3.784   5.229   5.192
 7949SOL    HW124746   3.806   5.304   5.253
 7949SOL    HW224747   3.689   5.235   5.163
 7950SOL     OW24748   6.310   2.546   6.388
 7950SOL    HW124749   6.308   2.534   6.488
 7950SOL    HW224750   6.397   2.511   6.353
 7951SOL     OW24751   3.242   0.567   2.696
 7951SOL    HW124752   3.310   0.525   2.755
 7951SOL    HW224753   3.196   0.641   2.745
 7952SOL     OW24754   0.387   3.306   5.408
 7952SOL    HW124755   0.383   3.242   5.332
 7952SOL    HW224756   0.349   3.394   5.380
 7953SOL     OW24757   0.486   0.813   0.044
 7953SOL    HW124758   0.558   0.875   0.011
 7953SOL    HW224759   0.472   0.740   7.006
 7954SOL     OW24760   4.009   2.183   1.011
 7954SOL    HW124761   4.057   2.176   0.923
 7954SOL    HW224762   4.010   2.278   1.042
 7955SOL     OW24763   6.476   6.810   6.734
 7955SOL    HW124764   6.433   6.854   6.655
 7955SOL    HW224765   6.552   6.754   6.703
 7956SOL     OW24766   0.172   6.824   1.515
 7956SOL    HW124767   0.076   6.794   1.521
 7956SOL    HW224768   0.224   6.784   1.591
 7957SOL     OW24769   6.010   1.980   6.256
 7957SOL    HW124770   6.008   1.942   6.164
 7957SOL    HW224771   6.077   2.054   6.260
 7958SOL     OW24772   4.881   2.483   5.949
 7958SOL    HW124773   4.862   2.514   6.043
 7958SOL    HW224774   4.800   2.499   5.892
 7959SOL     OW24775   5.499   2.838   0.120
 7959SOL    HW124776   5.587   2.861   0.161
 7959SOL    HW224777   5.428   2.898   0.157
 7960SOL     OW24778   0.784   2.889   5.015
 7960SOL    HW124779   0.752   2.898   5.109
 7960SOL    HW224780   0.852   2.959   4.995
 7961SOL     OW24781   6.242   0.092   6.224
 7961SOL    HW124782   6.226   0.009   6.170
 7961SOL    HW224783   6.306   0.151   6.176
 7962SOL     OW24784   6.184   0.468   4.499
 7962SOL    HW124785   6.129   0.443   4.578
 7962SOL    HW224786   6.261   0.524   4.528
 7963SOL     OW24787   5.840   6.224   2.527
 7963SOL    HW124788   5.864   6.244   2.622
 7963SOL    HW224789   5.818   6.127   2.517
 7964SOL     OW24790   1.147   4.839   1.820
 7964SOL    HW124791   1.167   4.838   1.722
 7964SOL    HW224792   1.231   4.857   1.871
 7965SOL     OW24793   4.745   1.920   6.377
 7965SOL    HW124794   4.671   1.974   6.338
 7965SOL    HW224795   4.830   1.973   6.373
 7966SOL     OW24796   5.604   3.957   5.299
 7966SOL    HW124797   5.651   4.045   5.297
 7966SOL    HW224798   5.561   3.944   5.388
 7967SOL     OW24799   2.180   4.398   1.892
 7967SOL    HW124800   2.158   4.440   1.980
 7967SOL    HW224801   2.278   4.380   1.887
 7968SOL     OW24802   2.162   2.370   3.433
 7968SOL    HW124803   2.145   2.289   3.377
 7968SOL    HW224804   2.235   2.424   3.391
 7969SOL     OW24805   2.513   4.442   6.320
 7969SOL    HW124806   2.424   4.458   6.362
 7969SOL    HW224807   2.502   4.424   6.222
 7970SOL     OW24808   6.695   2.621   2.605
 7970SOL    HW124809   6.673   2.574   2.520
 7970SOL    HW224810   6.615   2.673   2.636
 7971SOL     OW24811   2.696   0.014   0.051
 7971SOL    HW124812   2.759   0.027   7.004
 7971SOL    HW224813   2.662   0.103   0.082
 7972SOL     OW24814   3.257   2.953   3.883
 7972SOL    HW124815   3.220   2.955   3.790
 7972SOL    HW224816   3.197   3.004   3.944
 7973SOL     OW24817   0.966   5.532   2.259
 7973SOL    HW124818   1.033   5.564   2.327
 7973SOL    HW224819   0.963   5.597   2.183
 7974SOL     OW24820   0.400   3.217   3.823
 7974SOL    HW124821   0.453   3.133   3.834
 7974SOL    HW224822   0.372   3.225   3.727
 7975SOL     OW24823   3.668   0.283   6.597
 7975SOL    HW124824   3.704   0.364   6.643
 7975SOL    HW224825   3.622   0.310   6.512
 7976SOL     OW24826   0.004   0.234   0.980
 7976SOL    HW124827   0.020   0.175   0.901
 7976SOL    HW224828   0.068   0.212   1.053
 7977SOL     OW24829   5.404   5.166   2.891
 7977SOL    HW124830   5.477   5.120   2.840
 7977SOL    HW224831   5.443   5.215   2.969
 7978SOL     OW24832   0.394   4.163   1.448
 7978SOL    HW124833   0.375   4.103   1.370
 7978SOL    HW224834   0.402   4.108   1.531
 7979SOL     OW24835   3.757   2.683   5.621
 7979SOL    HW124836   3.691   2.757   5.635
 7979SOL    HW224837   3.715   2.612   5.564
 7980SOL     OW24838   3.826   5.930   2.822
 7980SOL    HW124839   3.837   6.029   2.826
 7980SOL    HW224840   3.869   5.894   2.740
 7981SOL     OW24841   1.084   2.854   3.607
 7981SOL    HW124842   1.041   2.764   3.616
 7981SOL    HW224843   1.014   2.925   3.604
 7982SOL     OW24844   6.644   6.878   0.668
 7982SOL    HW124845   6.582   6.906   0.594
 7982SOL    HW224846   6.727   6.933   0.665
 7983SOL     OW24847   3.757   1.597   0.729
 7983SOL    HW124848   3.801   1.626   0.814
 7983SOL    HW224849   3.671   1.550   0.751
 7984SOL     OW24850   5.901   1.369   1.753
 7984SOL    HW124851   5.817   1.423   1.748
 7984SOL    HW224852   5.907   1.309   1.673
 7985SOL     OW24853   3.055   3.858   6.171
 7985SOL    HW124854   2.987   3.789   6.197
 7985SOL    HW224855   3.060   3.864   6.071
 7986SOL     OW24856   2.018   1.241   3.636
 7986SOL    HW124857   1.987   1.332   3.661
 7986SOL    HW224858   1.954   1.172   3.671
 7987SOL     OW24859   0.602   2.799   0.223
 7987SOL    HW124860   0.625   2.888   0.182
 7987SOL    HW224861   0.647   2.792   0.312
 7988SOL     OW24862   6.309   6.915   1.793
 7988SOL    HW124863   6.284   6.850   1.865
 7988SOL    HW224864   6.408   6.923   1.787
 7989SOL     OW24865   0.610   5.077   2.098
 7989SOL    HW124866   0.533   5.085   2.035
 7989SOL    HW224867   0.600   5.144   2.172
 7990SOL     OW24868   4.493   4.964   5.580
 7990SOL    HW124869   4.507   4.961   5.481
 7990SOL    HW224870   4.400   4.932   5.601
 7991SOL     OW24871   5.426   0.529   4.236
 7991SOL    HW124872   5.356   0.572   4.180
 7991SOL    HW224873   5.416   0.559   4.331
 7992SOL     OW24874   3.205   0.312   0.434
 7992SOL    HW124875   3.193   0.378   0.360
 7992SOL    HW224876   3.121   0.306   0.488
 7993SOL     OW24877   6.272   4.688   1.365
 7993SOL    HW124878   6.249   4.640   1.281
 7993SOL    HW224879   6.211   4.766   1.377
 7994SOL     OW24880   0.788   1.316   5.265
 7994SOL    HW124881   0.778   1.287   5.360
 7994SOL    HW224882   0.821   1.411   5.262
 7995SOL     OW24883   0.503   5.687   0.363
 7995SOL    HW124884   0.539   5.757   0.425
 7995SOL    HW224885   0.576   5.653   0.304
 7996SOL     OW24886   1.620   6.341   4.176
 7996SOL    HW124887   1.588   6.299   4.091
 7996SOL    HW224888   1.627   6.440   4.163
 7997SOL     OW24889   2.465   0.568   6.010
 7997SOL    HW124890   2.457   0.471   6.033
 7997SOL    HW224891   2.459   0.622   6.094
 7998SOL     OW24892   2.148   2.109   1.544
 7998SOL    HW124893   2.124   2.199   1.580
 7998SOL    HW224894   2.214   2.065   1.605
 7999SOL     OW24895   0.016   0.753   2.341
 7999SOL    HW124896   0.060   0.835   2.379
 7999SOL    HW224897   0.056   0.672   2.383
 8000SOL     OW24898   4.420   5.918   0.727
 8000SOL    HW124899   4.446   6.014   0.715
 8000SOL    HW224900   4.341   5.898   0.670
 8001SOL     OW24901   5.052   4.899   2.012
 8001SOL    HW124902   5.078   4.832   2.081
 8001SOL    HW224903   5.126   4.909   1.945
 8002SOL     OW24904   1.220   0.568   5.274
 8002SOL    HW124905   1.310   0.586   5.235
 8002SOL    HW224906   1.216   0.473   5.306
 8003SOL     OW24907   2.461   5.575   2.579
 8003SOL    HW124908   2.475   5.598   2.483
 8003SOL    HW224909   2.459   5.475   2.590
 8004SOL     OW24910   2.079   4.095   3.692
 8004SOL    HW124911   2.132   4.074   3.609
 8004SOL    HW224912   2.044   4.188   3.685
 8005SOL     OW24913   2.903   0.218   4.859
 8005SOL    HW124914   2.998   0.222   4.890
 8005SOL    HW224915   2.844   0.192   4.935
 8006SOL     OW24916   4.714   5.232   6.560
 8006SOL    HW124917   4.644   5.291   6.518
 8006SOL    HW224918   4.674   5.183   6.637
 8007SOL     OW24919   0.640   0.342   1.202
 8007SOL    HW124920   0.705   0.331   1.127
 8007SOL    HW224921   0.551   0.306   1.175
 8008SOL     OW24922   5.105   5.387   1.377
 8008SOL    HW124923   5.137   5.295   1.401
 8008SOL    HW224924   5.132   5.451   1.449
 8009SOL     OW24925   5.713   0.096   1.678
 8009SOL    HW124926   5.724   0.033   1.602
 8009SOL    HW224927   5.686   0.186   1.644
 8010SOL     OW24928   3.123   6.979   0.578
 8010SOL    HW124929   3.200   6.989   0.640
 8010SOL    HW224930   3.124   0.026   0.512
 8011SOL     OW24931   3.554   1.780   1.521
 8011SOL    HW124932   3.644   1.784   1.476
 8011SOL    HW224933   3.566   1.775   1.620
 8012SOL     OW24934   6.055   0.744   5.421
 8012SOL    HW124935   6.122   0.676   5.453
 8012SOL    HW224936   6.080   0.773   5.328
 8013SOL     OW24937   3.594   0.949   3.627
 8013SOL    HW124938   3.670   0.884   3.618
 8013SOL    HW224939   3.526   0.912   3.690
 8014SOL     OW24940   2.031   2.305   3.686
 8014SOL    HW124941   2.060   2.315   3.591
 8014SOL    HW224942   1.939   2.343   3.698
 8015SOL     OW24943   3.892   5.661   5.214
 8015SOL    HW124944   3.797   5.643   5.238
 8015SOL    HW224945   3.910   5.628   5.121
 8016SOL     OW24946   2.683   3.730   5.606
 8016SOL    HW124947   2.721   3.645   5.569
 8016SOL    HW224948   2.758   3.793   5.629
 8017SOL     OW24949   5.486   6.677   2.003
 8017SOL    HW124950   5.513   6.702   1.910
 8017SOL    HW224951   5.566   6.644   2.052
 8018SOL     OW24952   3.794   2.674   1.246
 8018SOL    HW124953   3.879   2.698   1.295
 8018SOL    HW224954   3.813   2.603   1.179
 8019SOL     OW24955   3.158   3.427   0.854
 8019SOL    HW124956   3.162   3.389   0.946
 8019SOL    HW224957   3.187   3.357   0.788
 8020SOL     OW24958   1.011   6.681   0.054
 8020SOL    HW124959   0.944   6.712   0.121
 8020SOL    HW224960   1.093   6.647   0.101
 8021SOL     OW24961   1.354   2.168   0.604
 8021SOL    HW124962   1.381   2.103   0.533
 8021SOL    HW224963   1.426   2.237   0.616
 8022SOL     OW24964   3.976   6.995   2.556
 8022SOL    HW124965   4.051   6.993   2.622
 8022SOL    HW224966   3.974   0.056   2.510
 8023SOL     OW24967   3.650   4.859   2.600
 8023SOL    HW124968   3.746   4.831   2.602
 8023SOL    HW224969   3.622   4.876   2.506
 8024SOL     OW24970   2.526   0.936   6.735
 8024SOL    HW124971   2.431   0.921   6.706
 8024SOL    HW224972   2.549   1.033   6.725
 8025SOL     OW24973   1.383   6.955   1.758
 8025SOL    HW124974   1.436   6.871   1.770
 8025SOL    HW224975   1.286   6.932   1.750
 8026SOL     OW24976   0.613   6.710   5.145
 8026SOL    HW124977   0.601   6.628   5.202
 8026SOL    HW224978   0.689   6.764   5.180
 8027SOL     OW24979   4.184   6.998   6.373
 8027SOL    HW124980   4.134   0.056   6.375
 8027SOL    HW224981   4.216   6.980   6.281
 8028SOL     OW24982   3.322   5.638   6.388
 8028SOL    HW124983   3.348   5.704   6.458
 8028SOL    HW224984   3.365   5.664   6.301
 8029SOL     OW24985   1.707   6.887   1.399
 8029SOL    HW124986   1.740   6.803   1.357
 8029SOL    HW224987   1.610   6.900   1.379
 8030SOL     OW24988   0.853   3.272   0.665
 8030SOL    HW124989   0.812   3.197   0.716
 8030SOL    HW224990   0.794   3.352   0.669
 8031SOL     OW24991   0.496   0.777   4.316
 8031SOL    HW124992   0.551   0.769   4.399
 8031SOL    HW224993   0.421   0.842   4.332
 8032SOL     OW24994   0.756   3.491   1.471
 8032SOL    HW124995   0.850   3.518   1.491
 8032SOL    HW224996   0.747   3.469   1.374
 8033SOL     OW24997   3.699   4.991   0.569
 8033SOL    HW124998   3.739   5.080   0.591
 8033SOL    HW224999   3.653   4.996   0.480
 8034SOL     OW25000   1.036   1.591   4.963
 8034SOL    HW125001   1.083   1.620   5.047
 8034SOL    HW225002   1.104   1.561   4.896
 8035SOL     OW25003   5.356   0.343   3.680
 8035SOL    HW125004   5.275   0.302   3.637
 8035SOL    HW225005   5.438   0.310   3.634
 8036SOL     OW25006   5.461   5.017   5.310
 8036SOL    HW125007   5.443   5.112   5.283
 8036SOL    HW225008   5.412   4.955   5.248
 8037SOL     OW25009   3.687   0.787   6.753
 8037SOL    HW125010   3.611   0.809   6.692
 8037SOL    HW225011   3.651   0.745   6.837
 8038SOL     OW25012   5.530   5.983   2.148
 8038SOL    HW125013   5.616   6.005   2.193
 8038SOL    HW225014   5.527   6.025   2.057
 8039SOL     OW25015   1.855   2.484   4.932
 8039SOL    HW125016   1.803   2.528   5.005
 8039SOL    HW225017   1.903   2.553   4.878
 8040SOL     OW25018   0.744   6.969   4.831
 8040SOL    HW125019   0.662   6.916   4.812
 8040SOL    HW225020   0.727   0.036   4.808
 8041SOL     OW25021   3.062   2.000   2.884
 8041SOL    HW125022   3.008   2.074   2.843
 8041SOL    HW225023   3.159   2.024   2.878
 8042SOL     OW25024   5.371   4.256   6.360
 8042SOL    HW125025   5.358   4.330   6.295
 8042SOL    HW225026   5.355   4.168   6.314
 8043SOL     OW25027   5.815   5.367   0.171
 8043SOL    HW125028   5.848   5.357   0.077
 8043SOL    HW225029   5.754   5.291   0.193
 8044SOL     OW25030   1.200   2.976   1.397
 8044SOL    HW125031   1.235   2.933   1.480
 8044SOL    HW225032   1.140   3.052   1.421
 8045SOL     OW25033   5.787   3.051   5.064
 8045SOL    HW125034   5.721   3.026   5.134
 8045SOL    HW225035   5.761   3.009   4.977
 8046SOL     OW25036   6.919   4.397   1.732
 8046SOL    HW125037   6.955   4.306   1.750
 8046SOL    HW225038   6.995   4.462   1.726
 8047SOL     OW25039   2.792   6.345   0.069
 8047SOL    HW125040   2.749   6.257   0.091
 8047SOL    HW225041   2.802   6.399   0.152
 8048SOL     OW25042   4.711   2.200   6.669
 8048SOL    HW125043   4.697   2.197   6.569
 8048SOL    HW225044   4.807   2.185   6.690
 8049SOL     OW25045   2.409   1.777   0.347
 8049SOL    HW125046   2.368   1.695   0.308
 8049SOL    HW225047   2.355   1.807   0.426
 8050SOL     OW25048   6.934   4.700   5.944
 8050SOL    HW125049   7.020   4.650   5.940
 8050SOL    HW225050   6.952   4.799   5.941
 8051SOL     OW25051   4.171   6.243   3.384
 8051SOL    HW125052   4.213   6.288   3.305
 8051SOL    HW225053   4.078   6.215   3.361
 8052SOL     OW25054   2.005   1.521   2.980
 8052SOL    HW125055   1.994   1.621   2.979
 8052SOL    HW225056   1.924   1.478   3.019
 8053SOL     OW25057   1.605   1.255   6.591
 8053SOL    HW125058   1.679   1.323   6.593
 8053SOL    HW225059   1.641   1.166   6.619
 8054SOL     OW25060   4.841   3.837   4.857
 8054SOL    HW125061   4.826   3.743   4.887
 8054SOL    HW225062   4.826   3.900   4.933
 8055SOL     OW25063   6.941   1.211   6.040
 8055SOL    HW125064   6.964   1.208   5.943
 8055SOL    HW225065   6.938   1.118   6.076
 8056SOL     OW25066   1.554   2.494   2.535
 8056SOL    HW125067   1.564   2.467   2.631
 8056SOL    HW225068   1.624   2.449   2.480
 8057SOL     OW25069   3.057   1.609   2.082
 8057SOL    HW125070   3.116   1.536   2.046
 8057SOL    HW225071   3.113   1.677   2.129
 8058SOL     OW25072   3.130   6.221   1.953
 8058SOL    HW125073   3.138   6.236   2.052
 8058SOL    HW225074   3.084   6.133   1.937
 8059SOL     OW25075   4.624   4.342   5.055
 8059SOL    HW125076   4.640   4.323   4.958
 8059SOL    HW225077   4.643   4.260   5.109
 8060SOL     OW25078   0.207   1.202   4.826
 8060SOL    HW125079   0.207   1.108   4.790
 8060SOL    HW225080   0.204   1.198   4.926
 8061SOL     OW25081   6.931   0.306   0.624
 8061SOL    HW125082   7.024   0.326   0.656
 8061SOL    HW225083   6.900   0.380   0.565
 8062SOL     OW25084   4.944   4.374   6.733
 8062SOL    HW125085   4.846   4.390   6.720
 8062SOL    HW225086   4.969   4.289   6.686
 8063SOL     OW25087   2.568   4.738   2.087
 8063SOL    HW125088   2.654   4.713   2.042
 8063SOL    HW225089   2.587   4.764   2.182
 8064SOL     OW25090   6.899   2.009   0.032
 8064SOL    HW125091   6.901   2.098   0.078
 8064SOL    HW225092   6.807   1.969   0.040
 8065SOL     OW25093   5.298   6.966   6.855
 8065SOL    HW125094   5.224   6.996   6.795
 8065SOL    HW225095   5.283   6.871   6.883
 8066SOL     OW25096   6.629   0.953   5.286
 8066SOL    HW125097   6.538   0.967   5.324
 8066SOL    HW225098   6.631   0.987   5.192
 8067SOL     OW25099   5.684   1.079   4.463
 8067SOL    HW125100   5.710   0.986   4.489
 8067SOL    HW225101   5.584   1.086   4.459
 8068SOL     OW25102   6.732   4.127   1.394
 8068SOL    HW125103   6.810   4.188   1.409
 8068SOL    HW225104   6.703   4.134   1.299
 8069SOL     OW25105   0.923   2.354   2.070
 8069SOL    HW125106   0.887   2.330   2.161
 8069SOL    HW225107   0.877   2.299   2.001
 8070SOL     OW25108   5.582   4.083   0.957
 8070SOL    HW125109   5.538   4.038   0.879
 8070SOL    HW225110   5.627   4.014   1.014
 8071SOL     OW25111   1.881   6.947   6.489
 8071SOL    HW125112   1.925   0.007   6.481
 8071SOL    HW225113   1.783   6.956   6.475
 8072SOL     OW25114   2.741   1.808   5.425
 8072SOL    HW125115   2.654   1.788   5.469
 8072SOL    HW225116   2.727   1.878   5.355
 8073SOL     OW25117   5.375   5.331   0.473
 8073SOL    HW125118   5.447   5.378   0.523
 8073SOL    HW225119   5.402   5.322   0.377
 8074SOL     OW25120   6.730   0.833   0.664
 8074SOL    HW125121   6.779   0.920   0.657
 8074SOL    HW225122   6.781   0.762   0.616
 8075SOL     OW25123   0.267   6.797   1.255
 8075SOL    HW125124   0.253   6.775   1.352
 8075SOL    HW225125   0.180   6.787   1.207
 8076SOL     OW25126   6.613   5.920   0.678
 8076SOL    HW125127   6.663   5.888   0.598
 8076SOL    HW225128   6.553   5.848   0.712
 8077SOL     OW25129   6.021   4.254   1.534
 8077SOL    HW125130   5.959   4.191   1.581
 8077SOL    HW225131   6.098   4.203   1.496
 8078SOL     OW25132   5.146   1.781   1.521
 8078SOL    HW125133   5.072   1.791   1.587
 8078SOL    HW225134   5.142   1.855   1.454
 8079SOL     OW25135   7.019   0.790   5.997
 8079SOL    HW125136   6.967   0.705   5.986
 8079SOL    HW225137   0.041   0.808   5.913
 8080SOL     OW25138   6.768   4.096   3.466
 8080SOL    HW125139   6.715   4.102   3.551
 8080SOL    HW225140   6.759   4.005   3.426
 8081SOL     OW25141   5.884   0.971   5.182
 8081SOL    HW125142   5.819   0.935   5.115
 8081SOL    HW225143   5.843   0.967   5.273
 8082SOL     OW25144   5.182   2.514   5.248
 8082SOL    HW125145   5.229   2.582   5.191
 8082SOL    HW225146   5.178   2.547   5.342
 8083SOL     OW25147   0.016   3.088   3.602
 8083SOL    HW125148   0.104   3.112   3.560
 8083SOL    HW225149   7.019   3.159   3.667
 8084SOL     OW25150   5.890   1.752   7.003
 8084SOL    HW125151   5.882   1.806   6.919
 8084SOL    HW225152   5.823   1.677   7.001
 8085SOL     OW25153   1.591   5.978   4.378
 8085SOL    HW125154   1.610   6.032   4.296
 8085SOL    HW225155   1.494   5.983   4.400
 8086SOL     OW25156   7.021   1.915   1.633
 8086SOL    HW125157   6.931   1.894   1.595
 8086SOL    HW225158   0.064   1.881   1.572
 8087SOL     OW25159   6.124   0.854   6.806
 8087SOL    HW125160   6.141   0.828   6.901
 8087SOL    HW225161   6.184   0.801   6.746
 8088SOL     OW25162   6.324   0.065   5.536
 8088SOL    HW125163   6.315   0.146   5.478
 8088SOL    HW225164   6.273   0.079   5.621
 8089SOL     OW25165   6.713   0.741   0.311
 8089SOL    HW125166   6.705   0.689   0.225
 8089SOL    HW225167   6.624   0.749   0.354
 8090SOL     OW25168   3.827   2.116   4.672
 8090SOL    HW125169   3.865   2.027   4.647
 8090SOL    HW225170   3.762   2.145   4.601
 8091SOL     OW25171   0.888   3.422   5.485
 8091SOL    HW125172   0.819   3.365   5.530
 8091SOL    HW225173   0.978   3.402   5.524
 8092SOL     OW25174   4.765   6.199   5.413
 8092SOL    HW125175   4.862   6.216   5.425
 8092SOL    HW225176   4.751   6.133   5.339
 8093SOL     OW25177   3.751   0.238   3.839
 8093SOL    HW125178   3.658   0.254   3.806
 8093SOL    HW225179   3.797   0.173   3.780
 8094SOL     OW25180   2.490   5.141   3.104
 8094SOL    HW125181   2.584   5.177   3.105
 8094SOL    HW225182   2.492   5.042   3.088
 8095SOL     OW25183   0.356   5.157   5.218
 8095SOL    HW125184   0.368   5.075   5.275
 8095SOL    HW225185   0.410   5.147   5.134
 8096SOL     OW25186   1.239   5.165   0.637
 8096SOL    HW125187   1.208   5.182   0.544
 8096SOL    HW225188   1.162   5.172   0.700
 8097SOL     OW25189   4.975   0.770   6.902
 8097SOL    HW125190   5.049   0.732   6.958
 8097SOL    HW225191   4.968   0.869   6.918
 8098SOL     OW25192   2.926   6.448   5.507
 8098SOL    HW125193   2.985   6.375   5.544
 8098SOL    HW225194   2.940   6.532   5.560
 8099SOL     OW25195   2.378   4.847   3.479
 8099SOL    HW125196   2.453   4.781   3.485
 8099SOL    HW225197   2.333   4.839   3.390
 8100SOL     OW25198   0.085   6.455   0.467
 8100SOL    HW125199   0.002   6.399   0.472
 8100SOL    HW225200   0.152   6.409   0.408
 8101SOL     OW25201   2.956   4.938   6.608
 8101SOL    HW125202   3.025   4.884   6.559
 8101SOL    HW225203   2.972   5.035   6.594
 8102SOL     OW25204   1.037   4.656   3.783
 8102SOL    HW125205   1.095   4.712   3.842
 8102SOL    HW225206   1.078   4.652   3.691
 8103SOL     OW25207   5.379   0.637   1.564
 8103SOL    HW125208   5.293   0.688   1.573
 8103SOL    HW225209   5.384   0.568   1.637
 8104SOL     OW25210   1.598   6.911   0.265
 8104SOL    HW125211   1.642   6.859   0.338
 8104SOL    HW225212   1.650   6.995   0.248
 8105SOL     OW25213   6.997   6.963   2.955
 8105SOL    HW125214   6.996   7.011   3.042
 8105SOL    HW225215   6.910   6.915   2.942
 8106SOL     OW25216   3.892   6.798   0.019
 8106SOL    HW125217   3.960   6.822   0.087
 8106SOL    HW225218   3.896   6.700   0.000
 8107SOL     OW25219   0.463   6.274   0.013
 8107SOL    HW125220   0.431   6.185   7.010
 8107SOL    HW225221   0.419   6.297   0.100
 8108SOL     OW25222   2.148   1.348   1.098
 8108SOL    HW125223   2.080   1.376   1.165
 8108SOL    HW225224   2.166   1.422   1.034
 8109SOL     OW25225   0.235   4.026   2.165
 8109SOL    HW125226   0.236   3.981   2.254
 8109SOL    HW225227   0.317   4.000   2.113
 8110SOL     OW25228   4.920   3.805   6.727
 8110SOL    HW125229   4.970   3.725   6.693
 8110SOL    HW225230   4.846   3.828   6.664
 8111SOL     OW25231   5.656   2.206   2.831
 8111SOL    HW125232   5.633   2.253   2.917
 8111SOL    HW225233   5.589   2.230   2.761
 8112SOL     OW25234   1.900   4.609   6.651
 8112SOL    HW125235   1.806   4.616   6.683
 8112SOL    HW225236   1.901   4.585   6.554
 8113SOL     OW25237   5.754   5.064   6.865
 8113SOL    HW125238   5.673   5.058   6.807
 8113SOL    HW225239   5.812   5.138   6.833
 8114SOL     OW25240   2.131   2.657   2.857
 8114SOL    HW125241   2.101   2.711   2.778
 8114SOL    HW225242   2.216   2.696   2.893
 8115SOL     OW25243   2.658   1.876   6.016
 8115SOL    HW125244   2.650   1.803   6.083
 8115SOL    HW225245   2.647   1.965   6.062
 8116SOL     OW25246   4.039   3.087   1.802
 8116SOL    HW125247   4.109   3.157   1.792
 8116SOL    HW225248   3.982   3.108   1.881
 8117SOL     OW25249   1.165   0.757   2.798
 8117SOL    HW125250   1.106   0.834   2.821
 8117SOL    HW225251   1.124   0.705   2.723
 8118SOL     OW25252   5.878   1.912   6.790
 8118SOL    HW125253   5.828   1.994   6.819
 8118SOL    HW225254   5.924   1.930   6.703
 8119SOL     OW25255   5.588   4.967   6.654
 8119SOL    HW125256   5.584   4.874   6.619
 8119SOL    HW225257   5.495   5.002   6.667
 8120SOL     OW25258   1.855   6.739   2.362
 8120SOL    HW125259   1.827   6.807   2.430
 8120SOL    HW225260   1.944   6.702   2.388
 8121SOL     OW25261   1.489   1.938   3.174
 8121SOL    HW125262   1.524   2.007   3.111
 8121SOL    HW225263   1.391   1.927   3.159
 8122SOL     OW25264   0.317   5.465   1.273
 8122SOL    HW125265   0.232   5.437   1.227
 8122SOL    HW225266   0.303   5.554   1.316
 8123SOL     OW25267   6.902   0.483   5.955
 8123SOL    HW125268   6.854   0.397   5.936
 8123SOL    HW225269   6.835   0.553   5.982
 8124SOL     OW25270   6.504   5.771   5.736
 8124SOL    HW125271   6.429   5.783   5.671
 8124SOL    HW225272   6.468   5.766   5.829
 8125SOL     OW25273   0.821   6.019   1.455
 8125SOL    HW125274   0.882   6.010   1.377
 8125SOL    HW225275   0.781   6.111   1.455
 8126SOL     OW25276   3.493   5.579   4.941
 8126SOL    HW125277   3.432   5.654   4.966
 8126SOL    HW225278   3.446   5.518   4.877
 8127SOL     OW25279   4.578   1.952   5.574
 8127SOL    HW125280   4.499   1.912   5.527
 8127SOL    HW225281   4.589   2.047   5.545
 8128SOL     OW25282   3.862   2.875   0.748
 8128SOL    HW125283   3.831   2.967   0.726
 8128SOL    HW225284   3.873   2.822   0.664
 8129SOL     OW25285   6.337   3.127   3.579
 8129SOL    HW125286   6.351   3.030   3.555
 8129SOL    HW225287   6.360   3.141   3.675
 8130SOL     OW25288   0.030   6.226   0.076
 8130SOL    HW125289   0.001   6.310   0.122
 8130SOL    HW225290   0.093   6.176   0.136
 8131SOL     OW25291   2.908   2.006   0.102
 8131SOL    HW125292   3.004   1.996   0.076
 8131SOL    HW225293   2.902   2.054   0.190
 8132SOL     OW25294   6.362   1.580   4.476
 8132SOL    HW125295   6.344   1.553   4.381
 8132SOL    HW225296   6.291   1.644   4.507
 8133SOL     OW25297   4.365   5.389   1.416
 8133SOL    HW125298   4.447   5.430   1.376
 8133SOL    HW225299   4.289   5.399   1.352
 8134SOL     OW25300   6.340   1.687   6.965
 8134SOL    HW125301   6.273   1.614   6.950
 8134SOL    HW225302   6.427   1.647   6.993
 8135SOL     OW25303   2.544   5.951   1.821
 8135SOL    HW125304   2.557   5.895   1.903
 8135SOL    HW225305   2.623   6.012   1.810
 8136SOL     OW25306   4.357   4.760   2.256
 8136SOL    HW125307   4.420   4.690   2.222
 8136SOL    HW225308   4.402   4.850   2.253
 8137SOL     OW25309   3.645   1.114   5.998
 8137SOL    HW125310   3.593   1.132   6.082
 8137SOL    HW225311   3.661   1.015   5.990
 8138SOL     OW25312   6.502   1.020   2.356
 8138SOL    HW125313   6.419   1.075   2.348
 8138SOL    HW225314   6.581   1.074   2.327
 8139SOL     OW25315   1.147   1.700   5.206
 8139SOL    HW125316   1.204   1.778   5.179
 8139SOL    HW225317   1.105   1.719   5.294
 8140SOL     OW25318   4.701   2.679   3.132
 8140SOL    HW125319   4.669   2.769   3.163
 8140SOL    HW225320   4.639   2.642   3.063
 8141SOL     OW25321   6.410   4.116   4.102
 8141SOL    HW125322   6.400   4.197   4.044
 8141SOL    HW225323   6.332   4.056   4.089
 8142SOL     OW25324   0.310   6.064   0.557
 8142SOL    HW125325   0.331   6.149   0.605
 8142SOL    HW225326   0.273   5.997   0.621
 8143SOL     OW25327   6.789   2.799   6.452
 8143SOL    HW125328   6.780   2.895   6.477
 8143SOL    HW225329   6.799   2.791   6.353
 8144SOL     OW25330   4.452   6.042   0.462
 8144SOL    HW125331   4.430   6.099   0.542
 8144SOL    HW225332   4.466   6.100   0.382
 8145SOL     OW25333   4.678   0.201   4.453
 8145SOL    HW125334   4.754   0.149   4.414
 8145SOL    HW225335   4.610   0.219   4.382
 8146SOL     OW25336   3.106   1.517   2.951
 8146SOL    HW125337   3.050   1.567   2.885
 8146SOL    HW225338   3.057   1.510   3.038
 8147SOL     OW25339   4.781   1.846   3.749
 8147SOL    HW125340   4.874   1.810   3.753
 8147SOL    HW225341   4.783   1.942   3.723
 8148SOL     OW25342   0.845   3.025   3.653
 8148SOL    HW125343   0.792   3.094   3.605
 8148SOL    HW225344   0.916   3.069   3.709
 8149SOL     OW25345   4.056   5.478   4.319
 8149SOL    HW125346   3.960   5.451   4.308
 8149SOL    HW225347   4.115   5.406   4.282
 8150SOL     OW25348   1.721   5.787   0.331
 8150SOL    HW125349   1.669   5.872   0.334
 8150SOL    HW225350   1.757   5.766   0.422
 8151SOL     OW25351   0.953   1.910   5.016
 8151SOL    HW125352   0.979   1.833   4.957
 8151SOL    HW225353   0.935   1.990   4.960
 8152SOL     OW25354   0.393   1.088   3.465
 8152SOL    HW125355   0.375   1.180   3.429
 8152SOL    HW225356   0.342   1.021   3.413
 8153SOL     OW25357   1.611   6.629   6.635
 8153SOL    HW125358   1.704   6.618   6.669
 8153SOL    HW225359   1.558   6.686   6.698
 8154SOL     OW25360   1.967   7.004   3.942
 8154SOL    HW125361   2.067   6.999   3.948
 8154SOL    HW225362   1.929   6.911   3.937
 8155SOL     OW25363   4.022   3.679   5.095
 8155SOL    HW125364   3.974   3.617   5.158
 8155SOL    HW225365   3.984   3.669   5.003
 8156SOL     OW25366   1.122   6.273   5.009
 8156SOL    HW125367   1.051   6.258   4.940
 8156SOL    HW225368   1.209   6.292   4.963
 8157SOL     OW25369   6.069   2.808   6.752
 8157SOL    HW125370   6.117   2.801   6.840
 8157SOL    HW225371   6.017   2.724   6.735
 8158SOL     OW25372   1.152   5.601   2.445
 8158SOL    HW125373   1.241   5.645   2.457
 8158SOL    HW225374   1.109   5.588   2.534
 8159SOL     OW25375   0.425   6.407   0.548
 8159SOL    HW125376   0.392   6.363   0.631
 8159SOL    HW225377   0.397   6.502   0.546
 8160SOL     OW25378   6.164   1.870   0.855
 8160SOL    HW125379   6.157   1.792   0.794
 8160SOL    HW225380   6.154   1.839   0.950
 8161SOL     OW25381   3.442   4.019   1.655
 8161SOL    HW125382   3.487   4.108   1.665
 8161SOL    HW225383   3.421   3.982   1.745
 8162SOL     OW25384   5.506   0.872   0.867
 8162SOL    HW125385   5.414   0.843   0.839
 8162SOL    HW225386   5.499   0.938   0.942
 8163SOL     OW25387   2.652   3.082   5.400
 8163SOL    HW125388   2.714   3.155   5.374
 8163SOL    HW225389   2.584   3.069   5.327
 8164SOL     OW25390   5.347   3.984   1.736
 8164SOL    HW125391   5.421   4.016   1.677
 8164SOL    HW225392   5.354   4.030   1.825
 8165SOL     OW25393   1.558   3.554   1.847
 8165SOL    HW125394   1.521   3.576   1.757
 8165SOL    HW225395   1.548   3.456   1.864
 8166SOL     OW25396   2.721   0.196   2.674
 8166SOL    HW125397   2.669   0.159   2.751
 8166SOL    HW225398   2.815   0.212   2.701
 8167SOL     OW25399   5.190   3.241   4.375
 8167SOL    HW125400   5.143   3.154   4.388
 8167SOL    HW225401   5.276   3.240   4.427
 8168SOL     OW25402   2.886   1.458   2.443
 8168SOL    HW125403   2.958   1.398   2.408
 8168SOL    HW225404   2.928   1.533   2.494
 8169SOL     OW25405   5.406   4.141   5.683
 8169SOL    HW125406   5.473   4.214   5.669
 8169SOL    HW225407   5.354   4.159   5.767
 8170SOL     OW25408   0.791   5.221   4.462
 8170SOL    HW125409   0.695   5.194   4.449
 8170SOL    HW225410   0.849   5.170   4.399
 8171SOL     OW25411   2.073   0.719   6.803
 8171SOL    HW125412   2.061   0.767   6.890
 8171SOL    HW225413   2.165   0.681   6.799
 8172SOL     OW25414   0.060   5.389   2.595
 8172SOL    HW125415   7.019   5.429   2.535
 8172SOL    HW225416   0.017   5.359   2.680
 8173SOL     OW25417   0.264   3.631   6.768
 8173SOL    HW125418   0.358   3.601   6.750
 8173SOL    HW225419   0.201   3.573   6.718
 8174SOL     OW25420   5.168   6.439   2.331
 8174SOL    HW125421   5.102   6.483   2.270
 8174SOL    HW225422   5.135   6.348   2.355
 8175SOL     OW25423   1.366   2.459   3.460
 8175SOL    HW125424   1.412   2.479   3.547
 8175SOL    HW225425   1.425   2.402   3.403
 8176SOL     OW25426   4.778   4.598   3.161
 8176SOL    HW125427   4.857   4.596   3.099
 8176SOL    HW225428   4.694   4.584   3.108
 8177SOL     OW25429   2.156   0.249   6.238
 8177SOL    HW125430   2.220   0.181   6.273
 8177SOL    HW225431   2.083   0.204   6.187
 8178SOL     OW25432   1.973   6.191   6.921
 8178SOL    HW125433   1.996   6.145   7.007
 8178SOL    HW225434   1.991   6.129   6.844
 8179SOL     OW25435   4.253   6.806   5.174
 8179SOL    HW125436   4.320   6.840   5.107
 8179SOL    HW225437   4.187   6.878   5.194
 8180SOL     OW25438   4.764   4.240   4.470
 8180SOL    HW125439   4.755   4.174   4.545
 8180SOL    HW225440   4.846   4.219   4.417
 8181SOL     OW25441   2.231   1.713   2.758
 8181SOL    HW125442   2.204   1.756   2.671
 8181SOL    HW225443   2.168   1.742   2.830
 8182SOL     OW25444   5.599   3.033   5.255
 8182SOL    HW125445   5.529   3.104   5.242
 8182SOL    HW225446   5.576   2.979   5.336
 8183SOL     OW25447   2.089   4.409   3.638
 8183SOL    HW125448   2.183   4.407   3.605
 8183SOL    HW225449   2.089   4.421   3.738
 8184SOL     OW25450   6.071   6.080   5.171
 8184SOL    HW125451   6.070   6.148   5.098
 8184SOL    HW225452   5.995   6.017   5.159
 8185SOL     OW25453   0.380   2.178   3.457
 8185SOL    HW125454   0.429   2.265   3.457
 8185SOL    HW225455   0.289   2.190   3.497
 8186SOL     OW25456   4.060   3.018   6.377
 8186SOL    HW125457   4.011   2.969   6.449
 8186SOL    HW225458   4.068   2.959   6.297
 8187SOL     OW25459   2.632   1.794   6.365
 8187SOL    HW125460   2.646   1.893   6.378
 8187SOL    HW225461   2.551   1.780   6.309
 8188SOL     OW25462   5.045   3.668   2.956
 8188SOL    HW125463   5.014   3.754   2.916
 8188SOL    HW225464   5.007   3.591   2.904
 8189SOL     OW25465   0.158   5.894   3.049
 8189SOL    HW125466   0.199   5.916   2.961
 8189SOL    HW225467   0.060   5.882   3.038
 8190SOL     OW25468   5.264   3.531   2.789
 8190SOL    HW125469   5.269   3.431   2.778
 8190SOL    HW225470   5.293   3.575   2.705
 8191SOL     OW25471   6.033   4.278   1.219
 8191SOL    HW125472   6.100   4.229   1.276
 8191SOL    HW225473   5.989   4.349   1.274
 8192SOL     OW25474   2.398   1.496   0.510
 8192SOL    HW125475   2.369   1.401   0.520
 8192SOL    HW225476   2.480   1.512   0.565
 8193SOL     OW25477   3.949   6.288   5.931
 8193SOL    HW125478   3.941   6.222   5.856
 8193SOL    HW225479   3.875   6.273   5.996
 8194SOL     OW25480   0.557   1.139   2.107
 8194SOL    HW125481   0.635   1.096   2.152
 8194SOL    HW225482   0.574   1.237   2.095
 8195SOL     OW25483   6.268   0.836   0.762
 8195SOL    HW125484   6.266   0.798   0.854
 8195SOL    HW225485   6.218   0.775   0.700
 8196SOL     OW25486   2.366   0.575   0.926
 8196SOL    HW125487   2.392   0.589   1.022
 8196SOL    HW225488   2.444   0.593   0.867
 8197SOL     OW25489   0.858   6.715   0.769
 8197SOL    HW125490   0.871   6.814   0.760
 8197SOL    HW225491   0.769   6.697   0.809
 8198SOL     OW25492   2.444   0.770   2.788
 8198SOL    HW125493   2.411   0.863   2.771
 8198SOL    HW225494   2.539   0.763   2.756
 8199SOL     OW25495   6.201   4.557   1.143
 8199SOL    HW125496   6.182   4.459   1.146
 8199SOL    HW225497   6.121   4.604   1.104
 8200SOL     OW25498   4.048   4.614   1.283
 8200SOL    HW125499   4.092   4.634   1.195
 8200SOL    HW225500   3.950   4.601   1.269
 8201SOL     OW25501   0.786   1.181   4.501
 8201SOL    HW125502   0.778   1.203   4.599
 8201SOL    HW225503   0.698   1.197   4.456
 8202SOL     OW25504   1.540   3.581   4.167
 8202SOL    HW125505   1.624   3.546   4.124
 8202SOL    HW225506   1.561   3.663   4.219
 8203SOL     OW25507   6.561   4.208   6.779
 8203SOL    HW125508   6.646   4.260   6.769
 8203SOL    HW225509   6.547   4.188   6.876
 8204SOL     OW25510   2.611   6.626   1.904
 8204SOL    HW125511   2.631   6.533   1.936
 8204SOL    HW225512   2.512   6.635   1.890
 8205SOL     OW25513   3.563   6.785   3.001
 8205SOL    HW125514   3.508   6.709   3.036
 8205SOL    HW225515   3.529   6.813   2.912
 8206SOL     OW25516   3.768   2.172   4.311
 8206SOL    HW125517   3.678   2.204   4.343
 8206SOL    HW225518   3.760   2.140   4.217
 8207SOL     OW25519   2.448   6.388   0.139
 8207SOL    HW125520   2.370   6.445   0.166
 8207SOL    HW225521   2.480   6.416   0.048
 8208SOL     OW25522   0.905   5.807   0.823
 8208SOL    HW125523   0.878   5.759   0.740
 8208SOL    HW225524   0.957   5.745   0.882
 8209SOL     OW25525   0.742   6.083   4.300
 8209SOL    HW125526   0.830   6.080   4.253
 8209SOL    HW225527   0.738   6.009   4.367
 8210SOL     OW25528   2.485   0.273   1.148
 8210SOL    HW125529   2.543   0.231   1.078
 8210SOL    HW225530   2.446   0.201   1.206
 8211SOL     OW25531   3.366   4.075   4.458
 8211SOL    HW125532   3.414   4.145   4.407
 8211SOL    HW225533   3.429   4.002   4.484
 8212SOL     OW25534   3.689   5.447   6.702
 8212SOL    HW125535   3.667   5.486   6.612
 8212SOL    HW225536   3.605   5.442   6.757
 8213SOL     OW25537   5.083   3.807   1.968
 8213SOL    HW125538   5.077   3.893   2.019
 8213SOL    HW225539   4.993   3.784   1.930
 8214SOL     OW25540   3.914   4.840   3.444
 8214SOL    HW125541   3.902   4.829   3.542
 8214SOL    HW225542   4.008   4.813   3.419
 8215SOL     OW25543   2.934   6.348   5.235
 8215SOL    HW125544   2.966   6.255   5.250
 8215SOL    HW225545   2.877   6.377   5.313
 8216SOL     OW25546   6.447   4.499   7.006
 8216SOL    HW125547   6.427   4.457   0.066
 8216SOL    HW225548   6.533   4.462   6.970
 8217SOL     OW25549   3.588   6.454   3.616
 8217SOL    HW125550   3.595   6.480   3.712
 8217SOL    HW225551   3.605   6.356   3.607
 8218SOL     OW25552   2.146   5.756   3.691
 8218SOL    HW125553   2.193   5.773   3.777
 8218SOL    HW225554   2.197   5.690   3.637
 8219SOL     OW25555   3.933   3.637   4.834
 8219SOL    HW125556   3.995   3.661   4.760
 8219SOL    HW225557   3.875   3.716   4.856
 8220SOL     OW25558   4.601   4.011   5.946
 8220SOL    HW125559   4.613   3.980   5.852
 8220SOL    HW225560   4.670   3.968   6.004
 8221SOL     OW25561   6.612   3.752   4.163
 8221SOL    HW125562   6.588   3.669   4.114
 8221SOL    HW225563   6.529   3.799   4.193
 8222SOL     OW25564   5.442   1.730   5.792
 8222SOL    HW125565   5.419   1.826   5.775
 8222SOL    HW225566   5.379   1.671   5.741
 8223SOL     OW25567   1.260   6.262   5.651
 8223SOL    HW125568   1.275   6.298   5.559
 8223SOL    HW225569   1.164   6.236   5.662
 8224SOL     OW25570   4.955   1.679   4.809
 8224SOL    HW125571   4.941   1.776   4.791
 8224SOL    HW225572   5.036   1.648   4.760
 8225SOL     OW25573   6.136   1.493   6.942
 8225SOL    HW125574   6.148   1.405   6.898
 8225SOL    HW225575   6.040   1.520   6.938
 8226SOL     OW25576   4.033   0.460   6.597
 8226SOL    HW125577   4.059   0.544   6.643
 8226SOL    HW225578   3.941   0.432   6.628
 8227SOL     OW25579   5.956   3.374   2.751
 8227SOL    HW125580   5.988   3.290   2.708
 8227SOL    HW225581   5.914   3.433   2.681
 8228SOL     OW25582   2.965   1.414   5.028
 8228SOL    HW125583   2.896   1.451   5.091
 8228SOL    HW225584   2.920   1.388   4.942
 8229SOL     OW25585   4.777   3.572   0.767
 8229SOL    HW125586   4.859   3.619   0.800
 8229SOL    HW225587   4.712   3.561   0.842
 8230SOL     OW25588   5.914   1.519   6.518
 8230SOL    HW125589   5.872   1.516   6.609
 8230SOL    HW225590   6.013   1.508   6.527
 8231SOL     OW25591   3.216   1.061   1.487
 8231SOL    HW125592   3.159   1.065   1.569
 8231SOL    HW225593   3.270   1.145   1.480
 8232SOL     OW25594   4.026   6.007   4.372
 8232SOL    HW125595   4.091   5.931   4.366
 8232SOL    HW225596   3.953   5.993   4.304
 8233SOL     OW25597   2.967   0.660   6.920
 8233SOL    HW125598   2.904   0.588   6.889
 8233SOL    HW225599   2.932   0.749   6.892
 8234SOL     OW25600   0.190   2.690   6.239
 8234SOL    HW125601   0.289   2.682   6.250
 8234SOL    HW225602   0.158   2.773   6.285
 8235SOL     OW25603   1.332   6.139   6.742
 8235SOL    HW125604   1.418   6.172   6.703
 8235SOL    HW225605   1.348   6.106   6.835
 8236SOL     OW25606   0.642   0.419   0.700
 8236SOL    HW125607   0.708   0.354   0.664
 8236SOL    HW225608   0.681   0.511   0.699
 8237SOL     OW25609   4.668   4.260   5.875
 8237SOL    HW125610   4.729   4.292   5.948
 8237SOL    HW225611   4.634   4.169   5.898
 8238SOL     OW25612   0.073   5.207   6.878
 8238SOL    HW125613   0.161   5.169   6.850
 8238SOL    HW225614   0.049   5.283   6.818
 8239SOL     OW25615   5.064   2.822   3.909
 8239SOL    HW125616   5.083   2.735   3.863
 8239SOL    HW225617   4.992   2.871   3.859
 8240SOL     OW25618   3.377   3.385   4.986
 8240SOL    HW125619   3.278   3.392   4.995
 8240SOL    HW225620   3.406   3.429   4.901
 8241SOL     OW25621   0.369   2.865   5.426
 8241SOL    HW125622   0.371   2.829   5.519
 8241SOL    HW225623   0.429   2.810   5.368
 8242SOL     OW25624   0.672   4.036   3.161
 8242SOL    HW125625   0.746   4.039   3.229
 8242SOL    HW225626   0.619   3.952   3.174
 8243SOL     OW25627   2.247   5.703   3.960
 8243SOL    HW125628   2.199   5.727   4.044
 8243SOL    HW225629   2.285   5.611   3.969
 8244SOL     OW25630   5.532   6.751   4.662
 8244SOL    HW125631   5.474   6.693   4.604
 8244SOL    HW225632   5.528   6.717   4.756
 8245SOL     OW25633   5.434   3.922   2.038
 8245SOL    HW125634   5.363   3.992   2.031
 8245SOL    HW225635   5.410   3.857   2.110
 8246SOL     OW25636   2.117   4.271   0.387
 8246SOL    HW125637   2.198   4.244   0.440
 8246SOL    HW225638   2.083   4.359   0.421
 8247SOL     OW25639   2.098   5.199   3.486
 8247SOL    HW125640   2.179   5.158   3.529
 8247SOL    HW225641   2.096   5.297   3.506
 8248SOL     OW25642   6.236   0.827   2.914
 8248SOL    HW125643   6.162   0.878   2.957
 8248SOL    HW225644   6.265   0.873   2.830
 8249SOL     OW25645   3.432   6.701   5.429
 8249SOL    HW125646   3.497   6.730   5.358
 8249SOL    HW225647   3.339   6.722   5.398
 8250SOL     OW25648   1.926   0.992   0.077
 8250SOL    HW125649   1.914   1.021   7.010
 8250SOL    HW225650   1.891   1.063   0.138
 8251SOL     OW25651   1.871   1.687   6.567
 8251SOL    HW125652   1.945   1.753   6.553
 8251SOL    HW225653   1.793   1.733   6.609
 8252SOL     OW25654   0.692   0.873   6.660
 8252SOL    HW125655   0.675   0.930   6.579
 8252SOL    HW225656   0.791   0.863   6.673
 8253SOL     OW25657   0.024   3.765   4.502
 8253SOL    HW125658   6.989   3.708   4.554
 8253SOL    HW225659   7.002   3.813   4.430
 8254SOL     OW25660   4.810   4.013   0.306
 8254SOL    HW125661   4.715   3.982   0.304
 8254SOL    HW225662   4.839   4.039   0.214
 8255SOL     OW25663   1.703   6.086   5.811
 8255SOL    HW125664   1.666   6.037   5.732
 8255SOL    HW225665   1.745   6.020   5.874
 8256SOL     OW25666   1.674   5.937   3.123
 8256SOL    HW125667   1.743   5.896   3.063
 8256SOL    HW225668   1.587   5.891   3.110
 8257SOL     OW25669   4.933   4.656   3.612
 8257SOL    HW125670   4.869   4.732   3.621
 8257SOL    HW225671   5.027   4.692   3.613
 8258SOL     OW25672   0.311   2.908   4.073
 8258SOL    HW125673   0.399   2.945   4.042
 8258SOL    HW225674   0.318   2.808   4.081
 8259SOL     OW25675   5.219   3.715   4.115
 8259SOL    HW125676   5.238   3.620   4.141
 8259SOL    HW225677   5.246   3.730   4.020
 8260SOL     OW25678   4.620   2.320   6.059
 8260SOL    HW125679   4.715   2.296   6.077
 8260SOL    HW225680   4.563   2.285   6.134
 8261SOL     OW25681   5.091   2.281   3.383
 8261SOL    HW125682   5.167   2.322   3.332
 8261SOL    HW225683   5.034   2.353   3.421
 8262SOL     OW25684   5.348   3.937   2.367
 8262SOL    HW125685   5.361   3.843   2.336
 8262SOL    HW225686   5.387   4.000   2.301
 8263SOL     OW25687   0.049   1.281   0.173
 8263SOL    HW125688   0.138   1.239   0.191
 8263SOL    HW225689   0.062   1.363   0.117
 8264SOL     OW25690   3.456   1.677   1.929
 8264SOL    HW125691   3.517   1.692   1.851
 8264SOL    HW225692   3.471   1.748   1.998
 8265SOL     OW25693   6.267   5.292   0.351
 8265SOL    HW125694   6.188   5.281   0.290
 8265SOL    HW225695   6.235   5.314   0.443
 8266SOL     OW25696   4.179   2.305   2.949
 8266SOL    HW125697   4.084   2.283   2.971
 8266SOL    HW225698   4.186   2.326   2.851
 8267SOL     OW25699   1.749   3.851   2.573
 8267SOL    HW125700   1.680   3.923   2.565
 8267SOL    HW225701   1.822   3.881   2.634
 8268SOL     OW25702   2.282   5.432   1.384
 8268SOL    HW125703   2.295   5.416   1.482
 8268SOL    HW225704   2.368   5.414   1.336
 8269SOL     OW25705   6.213   2.117   3.059
 8269SOL    HW125706   6.171   2.089   3.145
 8269SOL    HW225707   6.249   2.036   3.011
 8270SOL     OW25708   4.579   5.155   0.320
 8270SOL    HW125709   4.644   5.107   0.378
 8270SOL    HW225710   4.581   5.253   0.340
 8271SOL     OW25711   2.471   0.334   6.151
 8271SOL    HW125712   2.559   0.295   6.177
 8271SOL    HW225713   2.413   0.343   6.233
 8272SOL     OW25714   6.945   1.398   1.919
 8272SOL    HW125715   6.979   1.457   1.846
 8272SOL    HW225716   7.016   1.333   1.946
 8273SOL     OW25717   5.486   0.496   6.084
 8273SOL    HW125718   5.541   0.533   6.158
 8273SOL    HW225719   5.544   0.439   6.025
 8274SOL     OW25720   4.874   6.962   4.061
 8274SOL    HW125721   4.810   6.986   3.988
 8274SOL    HW225722   4.961   7.009   4.046
 8275SOL     OW25723   4.747   0.892   4.497
 8275SOL    HW125724   4.695   0.944   4.429
 8275SOL    HW225725   4.843   0.921   4.495
 8276SOL     OW25726   4.789   2.705   0.045
 8276SOL    HW125727   4.875   2.750   0.069
 8276SOL    HW225728   4.750   2.748   6.992
 8277SOL     OW25729   1.354   0.403   1.617
 8277SOL    HW125730   1.310   0.375   1.702
 8277SOL    HW225731   1.381   0.321   1.565
 8278SOL     OW25732   1.635   1.550   1.506
 8278SOL    HW125733   1.696   1.621   1.542
 8278SOL    HW225734   1.620   1.567   1.408
 8279SOL     OW25735   5.870   4.542   6.135
 8279SOL    HW125736   5.797   4.476   6.156
 8279SOL    HW225737   5.946   4.495   6.092
 8280SOL     OW25738   0.025   4.786   0.700
 8280SOL    HW125739   7.010   4.699   0.724
 8280SOL    HW225740   0.027   4.846   0.780
 8281SOL     OW25741   2.289   4.516   0.256
 8281SOL    HW125742   2.386   4.500   0.237
 8281SOL    HW225743   2.256   4.446   0.319
 8282SOL     OW25744   4.365   2.844   0.460
 8282SOL    HW125745   4.418   2.869   0.541
 8282SOL    HW225746   4.270   2.830   0.486
 8283SOL     OW25747   0.845   2.024   3.015
 8283SOL    HW125748   0.773   1.957   3.033
 8283SOL    HW225749   0.896   2.042   3.099
 8284SOL     OW25750   4.179   2.384   0.816
 8284SOL    HW125751   4.116   2.406   0.742
 8284SOL    HW225752   4.235   2.464   0.837
 8285SOL     OW25753   0.669   4.790   0.602
 8285SOL    HW125754   0.643   4.763   0.695
 8285SOL    HW225755   0.698   4.710   0.551
 8286SOL     OW25756   6.879   1.968   6.784
 8286SOL    HW125757   6.942   2.034   6.743
 8286SOL    HW225758   6.893   1.967   6.883
 8287SOL     OW25759   0.966   1.836   2.784
 8287SOL    HW125760   1.025   1.906   2.824
 8287SOL    HW225761   0.978   1.834   2.685
 8288SOL     OW25762   1.938   6.933   2.782
 8288SOL    HW125763   2.021   6.939   2.837
 8288SOL    HW225764   1.934   6.844   2.736
 8289SOL     OW25765   5.673   6.255   0.157
 8289SOL    HW125766   5.683   6.156   0.170
 8289SOL    HW225767   5.753   6.302   0.195
 8290SOL     OW25768   4.575   2.781   1.738
 8290SOL    HW125769   4.615   2.693   1.762
 8290SOL    HW225770   4.605   2.850   1.804
 8291SOL     OW25771   5.876   5.844   5.181
 8291SOL    HW125772   5.891   5.752   5.218
 8291SOL    HW225773   5.791   5.881   5.217
 8292SOL     OW25774   0.544   4.039   6.133
 8292SOL    HW125775   0.633   4.075   6.104
 8292SOL    HW225776   0.523   4.071   6.225
 8293SOL     OW25777   3.153   5.358   3.948
 8293SOL    HW125778   3.166   5.457   3.960
 8293SOL    HW225779   3.180   5.311   4.032
 8294SOL     OW25780   6.201   3.417   5.893
 8294SOL    HW125781   6.252   3.388   5.812
 8294SOL    HW225782   6.265   3.450   5.962
 8295SOL     OW25783   4.138   4.738   1.511
 8295SOL    HW125784   4.103   4.688   1.590
 8295SOL    HW225785   4.095   4.701   1.428
 8296SOL     OW25786   3.299   0.015   1.910
 8296SOL    HW125787   3.214   0.065   1.893
 8296SOL    HW225788   3.365   0.035   1.838
 8297SOL     OW25789   5.289   4.855   1.811
 8297SOL    HW125790   5.348   4.935   1.821
 8297SOL    HW225791   5.337   4.774   1.844
 8298SOL     OW25792   0.185   5.922   0.773
 8298SOL    HW125793   0.105   5.894   0.721
 8298SOL    HW225794   0.160   5.941   0.867
 8299SOL     OW25795   0.998   1.352   6.997
 8299SOL    HW125796   0.913   1.385   6.955
 8299SOL    HW225797   1.003   1.253   6.986
 8300SOL     OW25798   4.701   5.838   5.208
 8300SOL    HW125799   4.612   5.861   5.169
 8300SOL    HW225800   4.772   5.891   5.162
 8301SOL     OW25801   5.969   4.312   6.862
 8301SOL    HW125802   6.039   4.242   6.844
 8301SOL    HW225803   5.892   4.269   6.910
 8302SOL     OW25804   3.435   6.410   6.323
 8302SOL    HW125805   3.346   6.454   6.313
 8302SOL    HW225806   3.440   6.366   6.412
 8303SOL     OW25807   6.680   4.624   4.263
 8303SOL    HW125808   6.594   4.660   4.228
 8303SOL    HW225809   6.665   4.532   4.300
 8304SOL     OW25810   5.495   3.038   3.903
 8304SOL    HW125811   5.547   2.968   3.855
 8304SOL    HW225812   5.556   3.114   3.926
 8305SOL     OW25813   4.396   6.295   5.620
 8305SOL    HW125814   4.474   6.234   5.634
 8305SOL    HW225815   4.429   6.389   5.608
 8306SOL     OW25816   4.538   0.994   3.261
 8306SOL    HW125817   4.520   0.920   3.325
 8306SOL    HW225818   4.624   0.976   3.212
 8307SOL     OW25819   1.120   5.244   4.228
 8307SOL    HW125820   1.199   5.252   4.166
 8307SOL    HW225821   1.077   5.155   4.215
 8308SOL     OW25822   2.208   4.147   0.823
 8308SOL    HW125823   2.283   4.195   0.777
 8308SOL    HW225824   2.172   4.204   0.897
 8309SOL     OW25825   5.586   5.565   2.831
 8309SOL    HW125826   5.620   5.558   2.737
 8309SOL    HW225827   5.486   5.572   2.830
 8310SOL     OW25828   2.545   5.690   2.982
 8310SOL    HW125829   2.507   5.736   3.062
 8310SOL    HW225830   2.559   5.757   2.909
 8311SOL     OW25831   4.902   6.802   2.437
 8311SOL    HW125832   4.827   6.802   2.371
 8311SOL    HW225833   4.955   6.886   2.427
 8312SOL     OW25834   6.513   6.857   0.917
 8312SOL    HW125835   6.574   6.871   0.839
 8312SOL    HW225836   6.450   6.781   0.896
 8313SOL     OW25837   5.055   1.926   5.456
 8313SOL    HW125838   5.007   1.899   5.540
 8313SOL    HW225839   5.027   2.019   5.430
 8314SOL     OW25840   5.676   5.616   5.447
 8314SOL    HW125841   5.586   5.572   5.446
 8314SOL    HW225842   5.739   5.561   5.502
 8315SOL     OW25843   3.197   1.895   6.810
 8315SOL    HW125844   3.253   1.976   6.792
 8315SOL    HW225845   3.224   1.821   6.749
 8316SOL     OW25846   1.559   0.949   5.077
 8316SOL    HW125847   1.487   0.919   5.141
 8316SOL    HW225848   1.522   1.018   5.016
 8317SOL     OW25849   2.822   1.595   6.272
 8317SOL    HW125850   2.770   1.679   6.288
 8317SOL    HW225851   2.780   1.520   6.322
 8318SOL     OW25852   5.069   5.660   5.269
 8318SOL    HW125853   5.011   5.713   5.208
 8318SOL    HW225854   5.053   5.562   5.254
 8319SOL     OW25855   3.131   6.183   6.322
 8319SOL    HW125856   3.085   6.185   6.233
 8319SOL    HW225857   3.077   6.235   6.389
 8320SOL     OW25858   3.872   4.755   5.519
 8320SOL    HW125859   3.928   4.826   5.476
 8320SOL    HW225860   3.932   4.690   5.566
 8321SOL     OW25861   0.651   6.512   0.111
 8321SOL    HW125862   0.583   6.460   0.059
 8321SOL    HW225863   0.693   6.581   0.052
 8322SOL     OW25864   2.866   0.058   2.287
 8322SOL    HW125865   2.838   0.147   2.323
 8322SOL    HW225866   2.803   7.016   2.318
 8323SOL     OW25867   6.470   5.542   6.641
 8323SOL    HW125868   6.427   5.473   6.699
 8323SOL    HW225869   6.487   5.624   6.696
 8324SOL     OW25870   6.880   5.887   4.831
 8324SOL    HW125871   6.796   5.929   4.796
 8324SOL    HW225872   6.867   5.859   4.925
 8325SOL     OW25873   1.528   5.224   5.082
 8325SOL    HW125874   1.550   5.315   5.118
 8325SOL    HW225875   1.440   5.229   5.034
 8326SOL     OW25876   3.516   0.963   0.060
 8326SOL    HW125877   3.565   0.945   0.146
 8326SOL    HW225878   3.440   0.898   0.051
 8327SOL     OW25879   0.764   6.105   5.296
 8327SOL    HW125880   0.710   6.082   5.377
 8327SOL    HW225881   0.707   6.096   5.214
 8328SOL     OW25882   1.259   6.937   1.050
 8328SOL    HW125883   1.275   6.840   1.030
 8328SOL    HW225884   1.347   6.983   1.061
 8329SOL     OW25885   2.032   1.764   6.298
 8329SOL    HW125886   2.032   1.801   6.205
 8329SOL    HW225887   2.125   1.766   6.334
 8330SOL     OW25888   3.452   6.509   0.052
 8330SOL    HW125889   3.542   6.504   0.094
 8330SOL    HW225890   3.393   6.570   0.105
 8331SOL     OW25891   1.783   2.724   6.136
 8331SOL    HW125892   1.753   2.778   6.057
 8331SOL    HW225893   1.722   2.646   6.148
 8332SOL     OW25894   5.112   4.207   0.825
 8332SOL    HW125895   5.066   4.151   0.755
 8332SOL    HW225896   5.192   4.252   0.784
 8333SOL     OW25897   2.149   4.305   5.574
 8333SOL    HW125898   2.140   4.285   5.672
 8333SOL    HW225899   2.215   4.243   5.533
 8334SOL     OW25900   3.150   2.835   5.682
 8334SOL    HW125901   3.148   2.743   5.720
 8334SOL    HW225902   3.231   2.845   5.624
 8335SOL     OW25903   6.513   2.682   0.284
 8335SOL    HW125904   6.558   2.710   0.198
 8335SOL    HW225905   6.465   2.760   0.323
 8336SOL     OW25906   0.626   4.543   3.996
 8336SOL    HW125907   0.575   4.459   4.013
 8336SOL    HW225908   0.687   4.529   3.918
 8337SOL     OW25909   6.508   6.831   4.380
 8337SOL    HW125910   6.582   6.890   4.413
 8337SOL    HW225911   6.419   6.871   4.406
 8338SOL     OW25912   2.452   4.658   0.756
 8338SOL    HW125913   2.539   4.615   0.778
 8338SOL    HW225914   2.386   4.639   0.829
 8339SOL     OW25915   6.537   0.054   1.803
 8339SOL    HW125916   6.558   0.054   1.901
 8339SOL    HW225917   6.622   0.059   1.750
 8340SOL     OW25918   6.086   2.560   6.266
 8340SOL    HW125919   6.117   2.604   6.182
 8340SOL    HW225920   6.163   2.552   6.330
 8341SOL     OW25921   3.573   6.766   0.984
 8341SOL    HW125922   3.647   6.699   0.985
 8341SOL    HW225923   3.606   6.852   0.945
 8342SOL     OW25924   4.079   0.903   1.306
 8342SOL    HW125925   3.997   0.904   1.249
 8342SOL    HW225926   4.154   0.946   1.256
 8343SOL     OW25927   4.622   6.106   3.016
 8343SOL    HW125928   4.717   6.129   2.996
 8343SOL    HW225929   4.610   6.099   3.115
 8344SOL     OW25930   2.291   4.309   4.867
 8344SOL    HW125931   2.264   4.316   4.771
 8344SOL    HW225932   2.332   4.220   4.884
 8345SOL     OW25933   6.897   0.005   4.184
 8345SOL    HW125934   6.934   0.089   4.222
 8345SOL    HW225935   6.944   7.013   4.098
 8346SOL     OW25936   5.330   3.934   2.918
 8346SOL    HW125937   5.378   4.022   2.915
 8346SOL    HW225938   5.397   3.860   2.921
 8347SOL     OW25939   1.647   1.544   6.938
 8347SOL    HW125940   1.612   1.602   7.012
 8347SOL    HW225941   1.581   1.472   6.918
 8348SOL     OW25942   2.620   6.605   0.812
 8348SOL    HW125943   2.523   6.610   0.835
 8348SOL    HW225944   2.662   6.527   0.858
 8349SOL     OW25945   4.724   6.131   0.991
 8349SOL    HW125946   4.667   6.051   1.002
 8349SOL    HW225947   4.782   6.120   0.910
 8350SOL     OW25948   2.455   0.946   6.307
 8350SOL    HW125949   2.448   0.982   6.400
 8350SOL    HW225950   2.404   0.860   6.301
 8351SOL     OW25951   0.473   4.483   3.319
 8351SOL    HW125952   0.442   4.571   3.354
 8351SOL    HW225953   0.565   4.493   3.282
 8352SOL     OW25954   2.254   6.742   6.649
 8352SOL    HW125955   2.343   6.759   6.691
 8352SOL    HW225956   2.267   6.698   6.560
 8353SOL     OW25957   1.840   5.997   2.608
 8353SOL    HW125958   1.765   5.931   2.616
 8353SOL    HW225959   1.904   5.968   2.537
 8354SOL     OW25960   5.310   3.194   3.753
 8354SOL    HW125961   5.343   3.104   3.783
 8354SOL    HW225962   5.376   3.233   3.688
 8355SOL     OW25963   3.385   3.677   5.610
 8355SOL    HW125964   3.343   3.601   5.659
 8355SOL    HW225965   3.341   3.763   5.636
 8356SOL     OW25966   3.624   2.985   2.575
 8356SOL    HW125967   3.627   3.017   2.480
 8356SOL    HW225968   3.529   2.967   2.600
 8357SOL     OW25969   3.466   6.780   4.992
 8357SOL    HW125970   3.513   6.858   4.952
 8357SOL    HW225971   3.485   6.698   4.938
 8358SOL     OW25972   7.007   1.084   4.584
 8358SOL    HW125973   6.982   1.004   4.530
 8358SOL    HW225974   6.926   1.139   4.602
 8359SOL     OW25975   5.203   2.947   5.593
 8359SOL    HW125976   5.188   2.848   5.596
 8359SOL    HW225977   5.281   2.970   5.652
 8360SOL     OW25978   3.543   0.239   2.363
 8360SOL    HW125979   3.552   0.321   2.420
 8360SOL    HW225980   3.607   0.244   2.286
 8361SOL     OW25981   4.710   1.947   6.765
 8361SOL    HW125982   4.695   2.042   6.738
 8361SOL    HW225983   4.677   1.886   6.693
 8362SOL     OW25984   0.271   4.329   1.998
 8362SOL    HW125985   0.184   4.296   2.037
 8362SOL    HW225986   0.337   4.342   2.072
 8363SOL     OW25987   3.561   2.434   1.457
 8363SOL    HW125988   3.597   2.514   1.410
 8363SOL    HW225989   3.578   2.352   1.402
 8364SOL     OW25990   0.658   1.466   3.514
 8364SOL    HW125991   0.716   1.398   3.559
 8364SOL    HW225992   0.614   1.523   3.583
 8365SOL     OW25993   2.348   2.595   1.146
 8365SOL    HW125994   2.326   2.661   1.074
 8365SOL    HW225995   2.359   2.504   1.105
 8366SOL     OW25996   5.227   6.112   1.457
 8366SOL    HW125997   5.223   6.085   1.361
 8366SOL    HW225998   5.197   6.207   1.467
 8367SOL     OW25999   0.848   5.015   4.288
 8367SOL    HW126000   0.933   4.974   4.256
 8367SOL    HW226001   0.771   4.970   4.242
 8368SOL     OW26002   0.496   3.511   6.255
 8368SOL    HW126003   0.438   3.527   6.336
 8368SOL    HW226004   0.460   3.563   6.178
 8369SOL     OW26005   1.021   0.910   0.546
 8369SOL    HW126006   0.962   0.979   0.587
 8369SOL    HW226007   1.111   0.914   0.590
 8370SOL     OW26008   2.565   3.115   1.669
 8370SOL    HW126009   2.515   3.050   1.611
 8370SOL    HW226010   2.661   3.089   1.675
 8371SOL     OW26011   2.743   4.471   5.503
 8371SOL    HW126012   2.791   4.421   5.431
 8371SOL    HW226013   2.726   4.410   5.581
 8372SOL     OW26014   1.486   6.963   3.215
 8372SOL    HW126015   1.514   6.875   3.175
 8372SOL    HW226016   1.393   6.956   3.250
 8373SOL     OW26017   6.518   0.656   4.401
 8373SOL    HW126018   6.465   0.655   4.486
 8373SOL    HW226019   6.523   0.564   4.364
 8374SOL     OW26020   0.463   2.011   3.688
 8374SOL    HW126021   0.384   1.958   3.718
 8374SOL    HW226022   0.444   2.052   3.599
 8375SOL     OW26023   1.370   2.274   5.649
 8375SOL    HW126024   1.411   2.326   5.575
 8375SOL    HW226025   1.388   2.176   5.636
 8376SOL     OW26026   1.059   0.885   3.408
 8376SOL    HW126027   1.048   0.930   3.497
 8376SOL    HW226028   1.092   0.792   3.421
 8377SOL     OW26029   4.524   5.870   2.139
 8377SOL    HW126030   4.530   5.951   2.079
 8377SOL    HW226031   4.451   5.810   2.105
 8378SOL     OW26032   4.350   6.240   5.972
 8378SOL    HW126033   4.311   6.245   5.880
 8378SOL    HW226034   4.284   6.278   6.037
 8379SOL     OW26035   6.168   2.858   1.643
 8379SOL    HW126036   6.141   2.851   1.739
 8379SOL    HW226037   6.245   2.921   1.635
 8380SOL     OW26038   1.467   5.256   3.007
 8380SOL    HW126039   1.421   5.219   2.926
 8380SOL    HW226040   1.530   5.187   3.043
 8381SOL     OW26041   0.319   2.792   2.498
 8381SOL    HW126042   0.284   2.767   2.408
 8381SOL    HW226043   0.271   2.873   2.531
 8382SOL     OW26044   0.904   0.615   2.116
 8382SOL    HW126045   0.958   0.699   2.104
 8382SOL    HW226046   0.927   0.550   2.044
 8383SOL     OW26047   2.241   6.629   4.617
 8383SOL    HW126048   2.305   6.704   4.602
 8383SOL    HW226049   2.148   6.661   4.601
 8384SOL     OW26050   0.633   3.865   3.928
 8384SOL    HW126051   0.659   3.873   4.024
 8384SOL    HW226052   0.606   3.955   3.893
 8385SOL     OW26053   3.894   2.050   1.471
 8385SOL    HW126054   3.880   2.065   1.569
 8385SOL    HW226055   3.990   2.030   1.454
 8386SOL     OW26056   6.739   5.782   2.265
 8386SOL    HW126057   6.663   5.717   2.272
 8386SOL    HW226058   6.710   5.862   2.213
 8387SOL     OW26059   0.353   2.223   3.840
 8387SOL    HW126060   0.279   2.290   3.827
 8387SOL    HW226061   0.357   2.163   3.760
 8388SOL     OW26062   3.345   6.232   1.469
 8388SOL    HW126063   3.281   6.283   1.527
 8388SOL    HW226064   3.322   6.247   1.373
 8389SOL     OW26065   0.958   2.855   4.333
 8389SOL    HW126066   1.008   2.828   4.415
 8389SOL    HW226067   0.873   2.803   4.327
 8390SOL     OW26068   1.250   6.485   6.648
 8390SOL    HW126069   1.317   6.464   6.577
 8390SOL    HW226070   1.163   6.512   6.606
 8391SOL     OW26071   5.131   6.217   0.882
 8391SOL    HW126072   5.142   6.125   0.921
 8391SOL    HW226073   5.049   6.219   0.825
 8392SOL     OW26074   3.302   5.810   0.633
 8392SOL    HW126075   3.318   5.733   0.573
 8392SOL    HW226076   3.233   5.785   0.702
 8393SOL     OW26077   1.448   6.540   2.281
 8393SOL    HW126078   1.537   6.527   2.326
 8393SOL    HW226079   1.413   6.631   2.302
 8394SOL     OW26080   1.683   1.117   4.268
 8394SOL    HW126081   1.748   1.076   4.332
 8394SOL    HW226082   1.709   1.212   4.251
 8395SOL     OW26083   1.745   6.302   6.771
 8395SOL    HW126084   1.829   6.256   6.800
 8395SOL    HW226085   1.761   6.400   6.765
 8396SOL     OW26086   4.851   2.067   0.124
 8396SOL    HW126087   4.851   1.981   0.074
 8396SOL    HW226088   4.870   2.049   0.221
 8397SOL     OW26089   0.291   4.493   3.826
 8397SOL    HW126090   0.219   4.462   3.764
 8397SOL    HW226091   0.307   4.591   3.811
 8398SOL     OW26092   5.660   1.944   6.421
 8398SOL    HW126093   5.613   1.857   6.434
 8398SOL    HW226094   5.622   2.013   6.483
 8399SOL     OW26095   5.347   6.994   4.922
 8399SOL    HW126096   5.273   7.001   4.856
 8399SOL    HW226097   5.310   6.988   5.014
 8400SOL     OW26098   5.967   5.660   3.232
 8400SOL    HW126099   6.056   5.675   3.275
 8400SOL    HW226100   5.978   5.599   3.153
 8401SOL     OW26101   2.056   3.521   5.010
 8401SOL    HW126102   2.021   3.432   4.981
 8401SOL    HW226103   2.150   3.510   5.045
 8402SOL     OW26104   4.641   1.372   4.317
 8402SOL    HW126105   4.641   1.280   4.277
 8402SOL    HW226106   4.585   1.372   4.400
 8403SOL     OW26107   0.963   1.736   6.491
 8403SOL    HW126108   1.041   1.774   6.441
 8403SOL    HW226109   0.907   1.681   6.428
 8404SOL     OW26110   5.052   5.349   5.245
 8404SOL    HW126111   5.017   5.293   5.320
 8404SOL    HW226112   5.146   5.323   5.225
 8405SOL     OW26113   0.382   2.962   5.984
 8405SOL    HW126114   0.472   2.966   6.027
 8405SOL    HW226115   0.366   3.045   5.930
 8406SOL     OW26116   5.955   3.791   1.873
 8406SOL    HW126117   6.037   3.836   1.838
 8406SOL    HW226118   5.979   3.733   1.951
 8407SOL     OW26119   5.449   3.123   2.181
 8407SOL    HW126120   5.468   3.220   2.192
 8407SOL    HW226121   5.383   3.094   2.251
 8408SOL     OW26122   5.365   4.171   4.203
 8408SOL    HW126123   5.302   4.136   4.273
 8408SOL    HW226124   5.407   4.094   4.155
 8409SOL     OW26125   0.746   2.004   3.902
 8409SOL    HW126126   0.731   2.047   3.814
 8409SOL    HW226127   0.659   1.970   3.938
 8410SOL     OW26128   1.747   5.070   2.218
 8410SOL    HW126129   1.803   5.151   2.202
 8410SOL    HW226130   1.776   4.997   2.156
 8411SOL     OW26131   1.935   3.632   2.990
 8411SOL    HW126132   1.843   3.656   2.961
 8411SOL    HW226133   1.962   3.546   2.947
 8412SOL     OW26134   5.434   2.594   2.575
 8412SOL    HW126135   5.422   2.666   2.644
 8412SOL    HW226136   5.480   2.632   2.495
 8413SOL     OW26137   1.492   5.206   2.005
 8413SOL    HW126138   1.451   5.147   1.935
 8413SOL    HW226139   1.587   5.223   1.982
 8414SOL     OW26140   6.386   0.172   4.086
 8414SOL    HW126141   6.358   0.151   3.993
 8414SOL    HW226142   6.332   0.248   4.121
 8415SOL     OW26143   0.510   4.887   1.105
 8415SOL    HW126144   0.490   4.944   1.185
 8415SOL    HW226145   0.603   4.904   1.074
 8416SOL     OW26146   4.237   4.900   2.661
 8416SOL    HW126147   4.311   4.890   2.726
 8416SOL    HW226148   4.235   4.821   2.600
 8417SOL     OW26149   0.788   5.571   6.779
 8417SOL    HW126150   0.802   5.534   6.687
 8417SOL    HW226151   0.847   5.524   6.844
 8418SOL     OW26152   5.927   6.275   2.815
 8418SOL    HW126153   6.011   6.328   2.801
 8418SOL    HW226154   5.873   6.318   2.888
 8419SOL     OW26155   2.125   1.614   3.309
 8419SOL    HW126156   2.158   1.614   3.404
 8419SOL    HW226157   2.184   1.555   3.254
 8420SOL     OW26158   5.026   1.671   5.321
 8420SOL    HW126159   5.047   1.744   5.386
 8420SOL    HW226160   4.997   1.712   5.234
 8421SOL     OW26161   0.023   0.985   0.844
 8421SOL    HW126162   0.001   0.908   0.904
 8421SOL    HW226163   7.008   0.972   0.755
 8422SOL     OW26164   2.936   1.112   1.151
 8422SOL    HW126165   2.860   1.081   1.094
 8422SOL    HW226166   2.952   1.209   1.137
 8423SOL     OW26167   1.930   4.686   1.790
 8423SOL    HW126168   1.912   4.593   1.757
 8423SOL    HW226169   1.962   4.742   1.714
 8424SOL     OW26170   2.617   2.362   2.432
 8424SOL    HW126171   2.522   2.393   2.422
 8424SOL    HW226172   2.659   2.410   2.510
 8425SOL     OW26173   7.010   5.294   5.797
 8425SOL    HW126174   6.932   5.238   5.771
 8425SOL    HW226175   6.978   5.375   5.846
 8426SOL     OW26176   3.695   4.063   3.224
 8426SOL    HW126177   3.729   4.104   3.308
 8426SOL    HW226178   3.624   4.121   3.184
 8427SOL     OW26179   2.272   0.947   6.647
 8427SOL    HW126180   2.250   1.033   6.692
 8427SOL    HW226181   2.188   0.892   6.639
 8428SOL     OW26182   6.903   2.910   1.577
 8428SOL    HW126183   6.961   2.981   1.616
 8428SOL    HW226184   6.957   2.852   1.517
 8429SOL     OW26185   1.271   6.752   3.185
 8429SOL    HW126186   1.300   6.757   3.090
 8429SOL    HW226187   1.206   6.826   3.204
 8430SOL     OW26188   3.317   6.285   3.725
 8430SOL    HW126189   3.236   6.231   3.747
 8430SOL    HW226190   3.340   6.275   3.628
 8431SOL     OW26191   3.283   3.538   3.149
 8431SOL    HW126192   3.381   3.527   3.132
 8431SOL    HW226193   3.269   3.609   3.218
 8432SOL     OW26194   4.163   5.519   0.699
 8432SOL    HW126195   4.213   5.605   0.711
 8432SOL    HW226196   4.065   5.536   0.707
 8433SOL     OW26197   6.545   1.547   3.386
 8433SOL    HW126198   6.544   1.449   3.406
 8433SOL    HW226199   6.627   1.570   3.334
 8434SOL     OW26200   5.355   6.308   0.033
 8434SOL    HW126201   5.290   6.328   0.106
 8434SOL    HW226202   5.306   6.300   6.975
 8435SOL     OW26203   5.543   3.741   0.689
 8435SOL    HW126204   5.540   3.771   0.784
 8435SOL    HW226205   5.450   3.718   0.658
 8436SOL     OW26206   3.505   4.269   1.664
 8436SOL    HW126207   3.568   4.268   1.741
 8436SOL    HW226208   3.436   4.340   1.677
 8437SOL     OW26209   0.278   2.974   0.863
 8437SOL    HW126210   0.221   2.917   0.804
 8437SOL    HW226211   0.261   2.950   0.959
 8438SOL     OW26212   2.465   5.710   1.695
 8438SOL    HW126213   2.498   5.786   1.751
 8438SOL    HW226214   2.376   5.679   1.729
 8439SOL     OW26215   5.363   0.541   2.243
 8439SOL    HW126216   5.402   0.450   2.255
 8439SOL    HW226217   5.271   0.544   2.282
 8440SOL     OW26218   1.249   3.899   3.440
 8440SOL    HW126219   1.280   3.824   3.499
 8440SOL    HW226220   1.287   3.887   3.348
 8441SOL     OW26221   4.411   5.754   1.157
 8441SOL    HW126222   4.419   5.750   1.257
 8441SOL    HW226223   4.462   5.678   1.116
 8442SOL     OW26224   3.092   3.063   0.562
 8442SOL    HW126225   3.027   2.989   0.576
 8442SOL    HW226226   3.043   3.150   0.554
 8443SOL     OW26227   6.915   2.659   0.503
 8443SOL    HW126228   6.923   2.660   0.403
 8443SOL    HW226229   6.904   2.752   0.536
 8444SOL     OW26230   5.055   2.716   3.119
 8444SOL    HW126231   5.029   2.753   3.030
 8444SOL    HW226232   5.150   2.687   3.117
 8445SOL     OW26233   3.565   5.553   3.250
 8445SOL    HW126234   3.603   5.559   3.342
 8445SOL    HW226235   3.607   5.476   3.201
 8446SOL     OW26236   6.024   4.104   3.285
 8446SOL    HW126237   5.950   4.151   3.236
 8446SOL    HW226238   6.052   4.160   3.363
 8447SOL     OW26239   5.490   4.999   1.081
 8447SOL    HW126240   5.513   4.972   1.175
 8447SOL    HW226241   5.569   5.044   1.040
 8448SOL     OW26242   1.430   4.400   5.481
 8448SOL    HW126243   1.336   4.370   5.499
 8448SOL    HW226244   1.429   4.490   5.438
 8449SOL     OW26245   2.113   0.904   5.908
 8449SOL    HW126246   2.030   0.908   5.851
 8449SOL    HW226247   2.092   0.941   5.999
 8450SOL     OW26248   1.621   5.936   0.575
 8450SOL    HW126249   1.619   5.938   0.675
 8450SOL    HW226250   1.633   6.029   0.540
 8451SOL     OW26251   2.730   4.248   1.489
 8451SOL    HW126252   2.770   4.157   1.485
 8451SOL    HW226253   2.702   4.269   1.583
 8452SOL     OW26254   6.819   5.873   2.533
 8452SOL    HW126255   6.832   5.857   2.435
 8452SOL    HW226256   6.758   5.803   2.571
 8453SOL     OW26257   0.759   4.494   5.447
 8453SOL    HW126258   0.841   4.460   5.400
 8453SOL    HW226259   0.753   4.454   5.538
 8454SOL     OW26260   2.095   6.947   5.781
 8454SOL    HW126261   2.043   0.004   5.784
 8454SOL    HW226262   2.163   6.952   5.708
 8455SOL     OW26263   6.197   2.095   0.054
 8455SOL    HW126264   6.238   2.066   0.141
 8455SOL    HW226265   6.199   2.019   7.018
 8456SOL     OW26266   5.828   4.572   3.590
 8456SOL    HW126267   5.879   4.539   3.669
 8456SOL    HW226268   5.751   4.510   3.572
 8457SOL     OW26269   5.445   5.989   6.172
 8457SOL    HW126270   5.423   5.926   6.245
 8457SOL    HW226271   5.512   6.056   6.204
 8458SOL     OW26272   1.158   1.357   1.358
 8458SOL    HW126273   1.163   1.425   1.284
 8458SOL    HW226274   1.071   1.367   1.406
 8459SOL     OW26275   2.061   4.761   2.740
 8459SOL    HW126276   2.138   4.820   2.764
 8459SOL    HW226277   1.991   4.816   2.694
 8460SOL     OW26278   3.671   1.075   1.058
 8460SOL    HW126279   3.681   1.020   0.975
 8460SOL    HW226280   3.590   1.134   1.050
 8461SOL     OW26281   5.041   4.909   3.151
 8461SOL    HW126282   4.956   4.908   3.203
 8461SOL    HW226283   5.094   4.990   3.176
 8462SOL     OW26284   1.999   3.390   0.309
 8462SOL    HW126285   2.011   3.371   0.406
 8462SOL    HW226286   1.945   3.474   0.298
 8463SOL     OW26287   0.637   6.434   1.873
 8463SOL    HW126288   0.734   6.414   1.863
 8463SOL    HW226289   0.618   6.463   1.967
 8464SOL     OW26290   6.643   3.132   0.147
 8464SOL    HW126291   6.544   3.122   0.149
 8464SOL    HW226292   6.675   3.135   0.052
 8465SOL     OW26293   5.870   3.939   0.403
 8465SOL    HW126294   5.777   3.965   0.381
 8465SOL    HW226295   5.872   3.898   0.495
 8466SOL     OW26296   0.210   1.468   4.794
 8466SOL    HW126297   0.273   1.496   4.867
 8466SOL    HW226298   0.196   1.369   4.797
 8467SOL     OW26299   3.023   0.732   0.710
 8467SOL    HW126300   3.082   0.682   0.773
 8467SOL    HW226301   3.041   0.830   0.717
 8468SOL     OW26302   6.864   3.526   2.074
 8468SOL    HW126303   6.842   3.469   1.995
 8468SOL    HW226304   6.935   3.481   2.128
 8469SOL     OW26305   3.417   2.849   5.601
 8469SOL    HW126306   3.485   2.915   5.631
 8469SOL    HW226307   3.347   2.895   5.546
 8470SOL     OW26308   1.452   5.445   0.488
 8470SOL    HW126309   1.408   5.432   0.399
 8470SOL    HW226310   1.383   5.456   0.559
 8471SOL     OW26311   3.787   1.825   3.748
 8471SOL    HW126312   3.748   1.890   3.682
 8471SOL    HW226313   3.884   1.846   3.762
 8472SOL     OW26314   6.113   1.282   6.754
 8472SOL    HW126315   6.181   1.210   6.740
 8472SOL    HW226316   6.117   1.347   6.678
 8473SOL     OW26317   4.968   5.190   5.453
 8473SOL    HW126318   4.928   5.221   5.539
 8473SOL    HW226319   5.047   5.132   5.472
 8474SOL     OW26320   3.373   4.137   6.639
 8474SOL    HW126321   3.447   4.092   6.588
 8474SOL    HW226322   3.378   4.236   6.623
 8475SOL     OW26323   0.967   1.958   3.266
 8475SOL    HW126324   1.035   1.952   3.338
 8475SOL    HW226325   0.978   1.880   3.203
 8476SOL     OW26326   6.776   0.629   2.275
 8476SOL    HW126327   6.715   0.701   2.243
 8476SOL    HW226328   6.869   0.664   2.279
 8477SOL     OW26329   6.155   0.101   1.095
 8477SOL    HW126330   6.199   0.013   1.078
 8477SOL    HW226331   6.215   0.175   1.064
 8478SOL     OW26332   2.192   6.674   6.990
 8478SOL    HW126333   2.151   6.583   7.000
 8478SOL    HW226334   2.119   6.741   6.974
 8479SOL     OW26335   1.529   1.990   0.275
 8479SOL    HW126336   1.583   1.914   0.240
 8479SOL    HW226337   1.467   2.023   0.204
 8480SOL     OW26338   3.351   4.497   1.634
 8480SOL    HW126339   3.412   4.576   1.638
 8480SOL    HW226340   3.290   4.506   1.555
 8481SOL     OW26341   5.691   3.242   1.709
 8481SOL    HW126342   5.731   3.200   1.627
 8481SOL    HW226343   5.624   3.311   1.680
 8482SOL     OW26344   5.022   0.087   5.534
 8482SOL    HW126345   4.941   0.033   5.512
 8482SOL    HW226346   5.003   0.184   5.517
 8483SOL     OW26347   4.492   5.250   4.006
 8483SOL    HW126348   4.516   5.189   3.930
 8483SOL    HW226349   4.568   5.254   4.071
 8484SOL     OW26350   5.442   6.602   5.329
 8484SOL    HW126351   5.423   6.504   5.330
 8484SOL    HW226352   5.541   6.617   5.328
 8485SOL     OW26353   3.344   0.465   5.980
 8485SOL    HW126354   3.315   0.544   6.034
 8485SOL    HW226355   3.264   0.424   5.937
 8486SOL     OW26356   4.921   2.678   4.793
 8486SOL    HW126357   4.986   2.652   4.721
 8486SOL    HW226358   4.969   2.683   4.881
 8487SOL     OW26359   1.165   1.374   5.881
 8487SOL    HW126360   1.112   1.456   5.901
 8487SOL    HW226361   1.209   1.341   5.964
 8488SOL     OW26362   4.124   5.636   3.048
 8488SOL    HW126363   4.050   5.683   3.096
 8488SOL    HW226364   4.085   5.582   2.973
 8489SOL     OW26365   6.435   2.277   1.723
 8489SOL    HW126366   6.452   2.221   1.804
 8489SOL    HW226367   6.464   2.228   1.641
 8490SOL     OW26368   4.531   0.266   6.980
 8490SOL    HW126369   4.542   0.309   6.890
 8490SOL    HW226370   4.495   0.333   0.016
 8491SOL     OW26371   2.725   6.268   1.642
 8491SOL    HW126372   2.764   6.198   1.583
 8491SOL    HW226373   2.718   6.234   1.735
 8492SOL     OW26374   5.881   6.582   4.214
 8492SOL    HW126375   5.977   6.608   4.197
 8492SOL    HW226376   5.876   6.526   4.297
 8493SOL     OW26377   5.030   0.187   5.224
 8493SOL    HW126378   4.954   0.233   5.270
 8493SOL    HW226379   5.039   0.223   5.131
 8494SOL     OW26380   0.237   3.662   2.207
 8494SOL    HW126381   0.168   3.686   2.138
 8494SOL    HW226382   0.326   3.650   2.162
 8495SOL     OW26383   4.155   5.690   4.640
 8495SOL    HW126384   4.223   5.631   4.685
 8495SOL    HW226385   4.074   5.636   4.617
 8496SOL     OW26386   4.045   2.062   2.382
 8496SOL    HW126387   4.001   2.028   2.466
 8496SOL    HW226388   3.975   2.078   2.313
 8497SOL     OW26389   6.320   1.191   3.111
 8497SOL    HW126390   6.268   1.132   3.049
 8497SOL    HW226391   6.402   1.223   3.065
 8498SOL     OW26392   6.101   5.944   5.495
 8498SOL    HW126393   6.115   6.023   5.435
 8498SOL    HW226394   6.003   5.923   5.500
 8499SOL     OW26395   6.724   0.078   6.149
 8499SOL    HW126396   6.700   7.015   6.183
 8499SOL    HW226397   6.651   0.142   6.170
 8500SOL     OW26398   0.263   0.405   5.615
 8500SOL    HW126399   0.273   0.427   5.518
 8500SOL    HW226400   0.190   0.462   5.654
 8501SOL     OW26401   3.781   6.825   4.815
 8501SOL    HW126402   3.829   6.760   4.873
 8501SOL    HW226403   3.741   6.778   4.736
 8502SOL     OW26404   6.467   2.448   0.467
 8502SOL    HW126405   6.498   2.530   0.418
 8502SOL    HW226406   6.546   2.397   0.500
 8503SOL     OW26407   4.588   2.742   5.965
 8503SOL    HW126408   4.508   2.765   5.909
 8503SOL    HW226409   4.671   2.761   5.913
 8504SOL     OW26410   1.522   1.237   3.282
 8504SOL    HW126411   1.598   1.237   3.348
 8504SOL    HW226412   1.465   1.156   3.298
 8505SOL     OW26413   6.119   1.270   2.528
 8505SOL    HW126414   6.151   1.326   2.604
 8505SOL    HW226415   6.043   1.212   2.560
 8506SOL     OW26416   2.251   1.073   4.259
 8506SOL    HW126417   2.250   0.973   4.255
 8506SOL    HW226418   2.192   1.110   4.187
 8507SOL     OW26419   4.215   5.691   0.348
 8507SOL    HW126420   4.283   5.624   0.377
 8507SOL    HW226421   4.177   5.665   0.260
 8508SOL     OW26422   3.032   1.010   6.308
 8508SOL    HW126423   3.018   0.912   6.298
 8508SOL    HW226424   2.979   1.059   6.238
 8509SOL     OW26425   3.807   1.815   2.045
 8509SOL    HW126426   3.763   1.856   2.125
 8509SOL    HW226427   3.794   1.716   2.048
 8510SOL     OW26428   0.714   2.384   5.471
 8510SOL    HW126429   0.716   2.353   5.566
 8510SOL    HW226430   0.742   2.309   5.411
 8511SOL     OW26431   5.799   1.835   4.063
 8511SOL    HW126432   5.820   1.917   4.011
 8511SOL    HW226433   5.825   1.754   4.011
 8512SOL     OW26434   2.688   6.969   6.248
 8512SOL    HW126435   2.787   6.953   6.252
 8512SOL    HW226436   2.643   6.890   6.206
 8513SOL     OW26437   3.696   5.736   6.676
 8513SOL    HW126438   3.773   5.732   6.612
 8513SOL    HW226439   3.719   5.687   6.759
 8514SOL     OW26440   4.409   5.696   4.458
 8514SOL    HW126441   4.405   5.601   4.489
 8514SOL    HW226442   4.492   5.709   4.403
 8515SOL     OW26443   5.439   2.669   1.990
 8515SOL    HW126444   5.506   2.604   2.026
 8515SOL    HW226445   5.377   2.696   2.063
 8516SOL     OW26446   7.011   2.525   1.030
 8516SOL    HW126447   6.955   2.518   0.947
 8516SOL    HW226448   6.973   2.596   1.090
 8517SOL     OW26449   1.060   3.692   4.717
 8517SOL    HW126450   1.044   3.789   4.736
 8517SOL    HW226451   1.114   3.652   4.791
 8518SOL     OW26452   3.361   5.428   1.504
 8518SOL    HW126453   3.385   5.422   1.601
 8518SOL    HW226454   3.340   5.522   1.481
 8519SOL     OW26455   2.876   5.618   3.157
 8519SOL    HW126456   2.921   5.534   3.187
 8519SOL    HW226457   2.884   5.626   3.058
 8520SOL     OW26458   3.826   5.609   6.970
 8520SOL    HW126459   3.925   5.606   6.959
 8520SOL    HW226460   3.796   5.534   7.028
 8521SOL     OW26461   0.425   1.058   3.951
 8521SOL    HW126462   0.472   0.982   3.906
 8521SOL    HW226463   0.332   1.066   3.914
 8522SOL     OW26464   2.532   5.913   4.655
 8522SOL    HW126465   2.470   5.990   4.643
 8522SOL    HW226466   2.512   5.869   4.743
 8523SOL     OW26467   2.113   5.508   6.853
 8523SOL    HW126468   2.172   5.586   6.873
 8523SOL    HW226469   2.148   5.427   6.899
 8524SOL     OW26470   1.994   0.962   6.190
 8524SOL    HW126471   2.072   1.015   6.156
 8524SOL    HW226472   2.023   0.903   6.265
 8525SOL     OW26473   5.819   4.069   4.945
 8525SOL    HW126474   5.733   4.118   4.960
 8525SOL    HW226475   5.804   3.971   4.957
 8526SOL     OW26476   6.713   2.866   1.383
 8526SOL    HW126477   6.721   2.942   1.319
 8526SOL    HW226478   6.783   2.875   1.455
 8527SOL     OW26479   4.685   1.544   5.102
 8527SOL    HW126480   4.587   1.551   5.086
 8527SOL    HW226481   4.722   1.635   5.122
 8528SOL     OW26482   6.022   6.996   6.838
 8528SOL    HW126483   6.038   6.964   6.931
 8528SOL    HW226484   6.006   6.917   6.778
 8529SOL     OW26485   6.633   1.358   4.428
 8529SOL    HW126486   6.643   1.453   4.400
 8529SOL    HW226487   6.569   1.311   4.367
 8530SOL     OW26488   1.719   5.385   5.732
 8530SOL    HW126489   1.733   5.310   5.797
 8530SOL    HW226490   1.687   5.348   5.645
 8531SOL     OW26491   3.010   5.367   3.209
 8531SOL    HW126492   3.048   5.285   3.166
 8531SOL    HW226493   3.084   5.421   3.248
 8532SOL     OW26494   1.144   2.982   6.784
 8532SOL    HW126495   1.179   2.936   6.865
 8532SOL    HW226496   1.194   2.949   6.703
 8533SOL     OW26497   3.060   0.577   6.480
 8533SOL    HW126498   3.149   0.529   6.480
 8533SOL    HW226499   2.987   0.510   6.467
 8534SOL     OW26500   3.417   2.585   1.060
 8534SOL    HW126501   3.403   2.540   0.972
 8534SOL    HW226502   3.502   2.553   1.101
 8535SOL     OW26503   0.059   1.885   5.706
 8535SOL    HW126504   0.060   1.985   5.703
 8535SOL    HW226505   7.018   1.850   5.643
 8536SOL     OW26506   6.532   0.268   6.223
 8536SOL    HW126507   6.485   0.255   6.310
 8536SOL    HW226508   6.464   0.278   6.150
 8537SOL     OW26509   3.309   6.555   3.496
 8537SOL    HW126510   3.312   6.652   3.519
 8537SOL    HW226511   3.372   6.504   3.556
 8538SOL     OW26512   3.988   1.921   5.320
 8538SOL    HW126513   3.986   1.838   5.265
 8538SOL    HW226514   4.075   1.969   5.306
 8539SOL     OW26515   0.660   3.015   2.811
 8539SOL    HW126516   0.725   2.960   2.863
 8539SOL    HW226517   0.709   3.088   2.763
 8540SOL     OW26518   4.531   6.044   6.049
 8540SOL    HW126519   4.463   6.115   6.069
 8540SOL    HW226520   4.560   6.052   5.953
 8541SOL     OW26521   3.687   6.039   5.808
 8541SOL    HW126522   3.587   6.045   5.818
 8541SOL    HW226523   3.713   6.071   5.717
 8542SOL     OW26524   1.400   5.142   4.535
 8542SOL    HW126525   1.327   5.183   4.589
 8542SOL    HW226526   1.479   5.125   4.593
 8543SOL     OW26527   3.700   1.693   5.614
 8543SOL    HW126528   3.626   1.734   5.668
 8543SOL    HW226529   3.757   1.766   5.576
 8544SOL     OW26530   4.860   4.107   5.347
 8544SOL    HW126531   4.888   4.152   5.432
 8544SOL    HW226532   4.879   4.167   5.269
 8545SOL     OW26533   1.885   0.822   6.615
 8545SOL    HW126534   1.940   0.822   6.531
 8545SOL    HW226535   1.934   0.773   6.687
 8546SOL     OW26536   2.640   1.882   4.181
 8546SOL    HW126537   2.668   1.836   4.265
 8546SOL    HW226538   2.557   1.935   4.198
 8547SOL     OW26539   5.582   4.545   5.964
 8547SOL    HW126540   5.568   4.590   5.876
 8547SOL    HW226541   5.650   4.597   6.016
 8548SOL     OW26542   1.411   4.004   3.722
 8548SOL    HW126543   1.452   4.085   3.679
 8548SOL    HW226544   1.459   3.922   3.691
 8549SOL     OW26545   2.698   0.306   3.445
 8549SOL    HW126546   2.693   0.219   3.495
 8549SOL    HW226547   2.728   0.288   3.352
 8550SOL     OW26548   0.112   3.705   5.113
 8550SOL    HW126549   0.058   3.767   5.057
 8550SOL    HW226550   0.093   3.610   5.086
 8551SOL     OW26551   3.416   2.134   4.233
 8551SOL    HW126552   3.417   2.094   4.141
 8551SOL    HW226553   3.341   2.199   4.241
 8552SOL     OW26554   4.002   1.515   2.082
 8552SOL    HW126555   3.907   1.484   2.080
 8552SOL    HW226556   4.040   1.502   2.173
 8553SOL     OW26557   6.037   2.296   0.446
 8553SOL    HW126558   6.090   2.334   0.522
 8553SOL    HW226559   6.095   2.233   0.394
 8554SOL     OW26560   6.938   0.766   6.369
 8554SOL    HW126561   6.902   0.816   6.289
 8554SOL    HW226562   6.957   0.672   6.343
 8555SOL     OW26563   3.649   1.823   3.962
 8555SOL    HW126564   3.714   1.825   3.887
 8555SOL    HW226565   3.660   1.738   4.014
 8556SOL     OW26566   1.228   3.839   6.016
 8556SOL    HW126567   1.324   3.838   5.986
 8556SOL    HW226568   1.224   3.843   6.116
 8557SOL     OW26569   6.208   6.866   0.666
 8557SOL    HW126570   6.235   6.874   0.762
 8557SOL    HW226571   6.113   6.834   0.661
 8558SOL     OW26572   1.758   6.245   3.502
 8558SOL    HW126573   1.688   6.230   3.571
 8558SOL    HW226574   1.775   6.159   3.452
 8559SOL     OW26575   1.600   2.378   2.799
 8559SOL    HW126576   1.520   2.319   2.810
 8559SOL    HW226577   1.639   2.398   2.889
 8560SOL     OW26578   3.466   4.758   1.666
 8560SOL    HW126579   3.547   4.734   1.721
 8560SOL    HW226580   3.388   4.771   1.727
 8561SOL     OW26581   3.584   0.825   2.539
 8561SOL    HW126582   3.601   0.922   2.522
 8561SOL    HW226583   3.561   0.780   2.452
 8562SOL     OW26584   5.825   3.660   5.936
 8562SOL    HW126585   5.839   3.669   5.838
 8562SOL    HW226586   5.808   3.750   5.977
 8563SOL     OW26587   0.320   4.120   3.778
 8563SOL    HW126588   0.416   4.108   3.755
 8563SOL    HW226589   0.272   4.164   3.702
 8564SOL     OW26590   3.932   6.553   6.940
 8564SOL    HW126591   3.952   6.492   7.017
 8564SOL    HW226592   3.834   6.555   6.923
 8565SOL     OW26593   1.690   5.121   0.936
 8565SOL    HW126594   1.680   5.086   0.842
 8565SOL    HW226595   1.658   5.216   0.939
 8566SOL     OW26596   2.483   1.009   3.971
 8566SOL    HW126597   2.454   1.105   3.964
 8566SOL    HW226598   2.416   0.950   3.927
 8567SOL     OW26599   1.566   2.878   7.005
 8567SOL    HW126600   1.520   2.954   6.959
 8567SOL    HW226601   1.610   2.911   0.060
 8568SOL     OW26602   5.639   0.292   5.952
 8568SOL    HW126603   5.724   0.273   6.002
 8568SOL    HW226604   5.629   0.228   5.876
 8569SOL     OW26605   4.331   1.783   5.913
 8569SOL    HW126606   4.310   1.764   6.009
 8569SOL    HW226607   4.321   1.881   5.895
 8570SOL     OW26608   1.395   2.053   4.018
 8570SOL    HW126609   1.366   2.018   3.928
 8570SOL    HW226610   1.438   2.142   4.007
 8571SOL     OW26611   1.842   0.785   3.804
 8571SOL    HW126612   1.881   0.744   3.887
 8571SOL    HW226613   1.845   0.718   3.730
 8572SOL     OW26614   2.703   3.171   6.539
 8572SOL    HW126615   2.797   3.199   6.521
 8572SOL    HW226616   2.640   3.228   6.487
 8573SOL     OW26617   1.827   6.186   5.417
 8573SOL    HW126618   1.739   6.224   5.447
 8573SOL    HW226619   1.826   6.174   5.318
 8574SOL     OW26620   6.409   2.630   5.594
 8574SOL    HW126621   6.449   2.544   5.561
 8574SOL    HW226622   6.362   2.676   5.519
 8575SOL     OW26623   1.465   6.741   3.991
 8575SOL    HW126624   1.549   6.696   4.022
 8575SOL    HW226625   1.486   6.834   3.960
 8576SOL     OW26626   1.567   4.383   4.238
 8576SOL    HW126627   1.496   4.407   4.303
 8576SOL    HW226628   1.598   4.289   4.255
 8577SOL     OW26629   1.946   1.330   1.310
 8577SOL    HW126630   1.969   1.369   1.399
 8577SOL    HW226631   1.848   1.341   1.293
 8578SOL     OW26632   1.803   0.660   6.060
 8578SOL    HW126633   1.878   0.633   5.999
 8578SOL    HW226634   1.814   0.615   6.148
 8579SOL     OW26635   2.782   6.904   2.984
 8579SOL    HW126636   2.788   6.924   3.082
 8579SOL    HW226637   2.737   6.815   2.972
 8580SOL     OW26638   1.235   0.043   2.152
 8580SOL    HW126639   1.154   7.014   2.160
 8580SOL    HW226640   1.212   0.138   2.170
 8581SOL     OW26641   3.862   3.558   3.924
 8581SOL    HW126642   3.939   3.495   3.915
 8581SOL    HW226643   3.831   3.585   3.833
 8582SOL     OW26644   5.462   5.331   0.199
 8582SOL    HW126645   5.456   5.412   0.141
 8582SOL    HW226646   5.426   5.252   0.149
 8583SOL     OW26647   3.409   6.779   1.912
 8583SOL    HW126648   3.353   6.861   1.916
 8583SOL    HW226649   3.506   6.804   1.906
 8584SOL     OW26650   5.908   2.977   6.372
 8584SOL    HW126651   5.889   2.926   6.288
 8584SOL    HW226652   5.848   2.944   6.445
 8585SOL     OW26653   5.075   2.800   2.815
 8585SOL    HW126654   4.976   2.787   2.819
 8585SOL    HW226655   5.101   2.828   2.722
 8586SOL     OW26656   5.939   6.910   6.034
 8586SOL    HW126657   5.879   6.863   5.968
 8586SOL    HW226658   5.907   6.891   6.127
 8587SOL     OW26659   6.096   6.867   1.230
 8587SOL    HW126660   6.157   6.933   1.274
 8587SOL    HW226661   6.077   6.791   1.293
 8588SOL     OW26662   1.784   2.910   5.669
 8588SOL    HW126663   1.708   2.867   5.620
 8588SOL    HW226664   1.749   2.953   5.752
 8589SOL     OW26665   6.523   3.180   6.469
 8589SOL    HW126666   6.440   3.156   6.520
 8589SOL    HW226667   6.498   3.239   6.392
 8590SOL     OW26668   1.105   1.497   2.849
 8590SOL    HW126669   1.010   1.518   2.829
 8590SOL    HW226670   1.165   1.557   2.795
 8591SOL     OW26671   0.835   4.544   6.461
 8591SOL    HW126672   0.776   4.570   6.537
 8591SOL    HW226673   0.923   4.512   6.497
 8592SOL     OW26674   0.118   1.904   4.833
 8592SOL    HW126675   0.197   1.870   4.782
 8592SOL    HW226676   0.117   2.003   4.830
 8593SOL     OW26677   0.277   0.434   0.433
 8593SOL    HW126678   0.184   0.453   0.401
 8593SOL    HW226679   0.325   0.379   0.366
 8594SOL     OW26680   5.980   2.256   0.004
 8594SOL    HW126681   6.055   2.195   0.030
 8594SOL    HW226682   6.002   2.300   6.945
 8595SOL     OW26683   5.661   6.669   1.497
 8595SOL    HW126684   5.721   6.656   1.418
 8595SOL    HW226685   5.710   6.721   1.567
 8596SOL     OW26686   0.748   2.429   5.758
 8596SOL    HW126687   0.807   2.457   5.833
 8596SOL    HW226688   0.670   2.491   5.753
 8597SOL     OW26689   6.504   2.464   5.985
 8597SOL    HW126690   6.410   2.490   5.960
 8597SOL    HW226691   6.568   2.531   5.949
 8598SOL     OW26692   6.510   6.810   5.609
 8598SOL    HW126693   6.553   6.728   5.647
 8598SOL    HW226694   6.498   6.878   5.681
 8599SOL     OW26695   6.286   4.445   5.901
 8599SOL    HW126696   6.278   4.514   5.830
 8599SOL    HW226697   6.234   4.473   5.982
 8600SOL     OW26698   3.403   3.100   1.941
 8600SOL    HW126699   3.342   3.022   1.957
 8600SOL    HW226700   3.465   3.110   2.019
 8601SOL     OW26701   4.737   4.423   1.503
 8601SOL    HW126702   4.771   4.514   1.528
 8601SOL    HW226703   4.650   4.406   1.549
 8602SOL     OW26704   2.364   6.263   5.225
 8602SOL    HW126705   2.349   6.358   5.200
 8602SOL    HW226706   2.344   6.250   5.322
 8603SOL     OW26707   0.425   1.459   6.734
 8603SOL    HW126708   0.450   1.365   6.713
 8603SOL    HW226709   0.410   1.468   6.833
 8604SOL     OW26710   1.861   6.175   6.319
 8604SOL    HW126711   1.794   6.113   6.359
 8604SOL    HW226712   1.934   6.194   6.385
 8605SOL     OW26713   0.193   5.047   4.276
 8605SOL    HW126714   0.174   4.986   4.354
 8605SOL    HW226715   0.151   5.136   4.293
 8606SOL     OW26716   0.186   0.094   6.500
 8606SOL    HW126717   0.246   0.082   6.421
 8606SOL    HW226718   0.233   0.146   6.571
 8607SOL     OW26719   3.303   2.570   1.482
 8607SOL    HW126720   3.269   2.609   1.397
 8607SOL    HW226721   3.402   2.554   1.475
 8608SOL     OW26722   1.366   5.439   1.875
 8608SOL    HW126723   1.420   5.363   1.910
 8608SOL    HW226724   1.323   5.488   1.951
 8609SOL     OW26725   5.355   2.893   4.351
 8609SOL    HW126726   5.301   2.920   4.271
 8609SOL    HW226727   5.413   2.815   4.328
 8610SOL     OW26728   0.151   5.615   2.264
 8610SOL    HW126729   0.060   5.612   2.305
 8610SOL    HW226730   0.174   5.523   2.229
 8611SOL     OW26731   1.999   1.360   6.004
 8611SOL    HW126732   2.082   1.335   5.953
 8611SOL    HW226733   2.013   1.343   6.101
 8612SOL     OW26734   3.444   3.122   6.065
 8612SOL    HW126735   3.415   3.111   5.970
 8612SOL    HW226736   3.432   3.036   6.114
 8613SOL     OW26737   3.384   3.234   3.858
 8613SOL    HW126738   3.385   3.277   3.949
 8613SOL    HW226739   3.458   3.167   3.852
 8614SOL     OW26740   0.065   3.491   3.705
 8614SOL    HW126741   0.055   3.579   3.658
 8614SOL    HW226742   0.133   3.500   3.778
 8615SOL     OW26743   4.019   0.301   5.028
 8615SOL    HW126744   3.968   0.382   5.059
 8615SOL    HW226745   4.037   0.308   4.930
 8616SOL     OW26746   6.260   3.695   5.276
 8616SOL    HW126747   6.314   3.623   5.232
 8616SOL    HW226748   6.236   3.765   5.209
 8617SOL     OW26749   0.752   6.797   4.554
 8617SOL    HW126750   0.673   6.826   4.608
 8617SOL    HW226751   0.814   6.744   4.612
 8618SOL     OW26752   0.274   4.498   0.774
 8618SOL    HW126753   0.234   4.555   0.847
 8618SOL    HW226754   0.281   4.551   0.690
 8619SOL     OW26755   6.058   4.244   6.458
 8619SOL    HW126756   5.960   4.223   6.459
 8619SOL    HW226757   6.073   4.338   6.489
 8620SOL     OW26758   0.850   6.633   4.206
 8620SOL    HW126759   0.824   6.652   4.111
 8620SOL    HW226760   0.874   6.536   4.215
 8621SOL     OW26761   6.641   3.371   1.979
 8621SOL    HW126762   6.648   3.329   2.070
 8621SOL    HW226763   6.588   3.456   1.987
 8622SOL     OW26764   0.818   6.100   1.953
 8622SOL    HW126765   0.918   6.090   1.952
 8622SOL    HW226766   0.780   6.056   1.872
 8623SOL     OW26767   1.697   2.267   3.835
 8623SOL    HW126768   1.614   2.279   3.889
 8623SOL    HW226769   1.724   2.355   3.796
 8624SOL     OW26770   3.446   3.867   6.350
 8624SOL    HW126771   3.365   3.922   6.363
 8624SOL    HW226772   3.504   3.871   6.431
 8625SOL     OW26773   4.182   2.977   6.033
 8625SOL    HW126774   4.092   3.006   6.066
 8625SOL    HW226775   4.252   3.011   6.096
 8626SOL     OW26776   5.767   1.257   0.077
 8626SOL    HW126777   5.804   1.183   0.132
 8626SOL    HW226778   5.691   1.300   0.124
 8627SOL     OW26779   6.977   0.293   2.694
 8627SOL    HW126780   6.942   0.385   2.715
 8627SOL    HW226781   6.960   0.272   2.598
 8628SOL     OW26782   1.206   6.248   0.506
 8628SOL    HW126783   1.109   6.225   0.506
 8628SOL    HW226784   1.260   6.164   0.516
 8629SOL     OW26785   0.126   1.232   4.376
 8629SOL    HW126786   0.078   1.188   4.452
 8629SOL    HW226787   0.157   1.162   4.311
 8630SOL     OW26788   6.177   3.342   1.738
 8630SOL    HW126789   6.159   3.268   1.674
 8630SOL    HW226790   6.273   3.337   1.768
 8631SOL     OW26791   1.458   5.672   0.154
 8631SOL    HW126792   1.522   5.716   0.217
 8631SOL    HW226793   1.420   5.590   0.197
 8632SOL     OW26794   5.910   5.954   3.206
 8632SOL    HW126795   5.945   5.978   3.116
 8632SOL    HW226796   5.932   5.859   3.227
 8633SOL     OW26797   6.744   4.043   6.057
 8633SOL    HW126798   6.744   4.134   6.016
 8633SOL    HW226799   6.801   4.043   6.139
 8634SOL     OW26800   4.742   4.455   0.037
 8634SOL    HW126801   4.694   4.511   0.105
 8634SOL    HW226802   4.781   4.514   6.995
 8635SOL     OW26803   5.177   1.725   6.851
 8635SOL    HW126804   5.173   1.625   6.844
 8635SOL    HW226805   5.273   1.753   6.856
 8636SOL     OW26806   4.722   5.986   0.555
 8636SOL    HW126807   4.765   5.917   0.496
 8636SOL    HW226808   4.642   6.024   0.509
 8637SOL     OW26809   3.140   2.940   0.968
 8637SOL    HW126810   3.068   2.882   0.929
 8637SOL    HW226811   3.230   2.907   0.936
 8638SOL     OW26812   5.143   2.461   4.800
 8638SOL    HW126813   5.050   2.439   4.829
 8638SOL    HW226814   5.187   2.379   4.764
 8639SOL     OW26815   4.068   4.108   0.190
 8639SOL    HW126816   3.974   4.140   0.178
 8639SOL    HW226817   4.092   4.110   0.287
 8640SOL     OW26818   2.812   2.882   0.185
 8640SOL    HW126819   2.842   2.787   0.189
 8640SOL    HW226820   2.876   2.935   0.129
 8641SOL     OW26821   3.361   4.881   3.080
 8641SOL    HW126822   3.430   4.867   3.151
 8641SOL    HW226823   3.407   4.893   2.991
 8642SOL     OW26824   2.690   6.621   3.285
 8642SOL    HW126825   2.777   6.585   3.319
 8642SOL    HW226826   2.617   6.557   3.307
 8643SOL     OW26827   3.560   6.405   1.181
 8643SOL    HW126828   3.625   6.449   1.243
 8643SOL    HW226829   3.598   6.318   1.149
 8644SOL     OW26830   4.752   2.664   6.564
 8644SOL    HW126831   4.813   2.627   6.634
 8644SOL    HW226832   4.682   2.596   6.542
 8645SOL     OW26833   4.545   5.049   3.007
 8645SOL    HW126834   4.581   4.987   2.937
 8645SOL    HW226835   4.571   5.016   3.098
 8646SOL     OW26836   5.927   2.072   3.976
 8646SOL    HW126837   5.883   2.088   3.887
 8646SOL    HW226838   6.026   2.085   3.967
 8647SOL     OW26839   2.138   4.802   1.903
 8647SOL    HW126840   2.054   4.750   1.885
 8647SOL    HW226841   2.161   4.797   2.000
 8648SOL     OW26842   5.645   5.981   6.437
 8648SOL    HW126843   5.661   5.884   6.415
 8648SOL    HW226844   5.547   5.995   6.456
 8649SOL     OW26845   5.228   2.956   2.062
 8649SOL    HW126846   5.235   2.946   1.963
 8649SOL    HW226847   5.313   2.995   2.098
 8650SOL     OW26848   1.174   1.226   5.248
 8650SOL    HW126849   1.141   1.251   5.339
 8650SOL    HW226850   1.208   1.308   5.201
 8651SOL     OW26851   4.822   1.634   1.442
 8651SOL    HW126852   4.731   1.613   1.405
 8651SOL    HW226853   4.847   1.562   1.507
 8652SOL     OW26854   6.161   3.168   4.906
 8652SOL    HW126855   6.114   3.239   4.960
 8652SOL    HW226856   6.152   3.189   4.809
 8653SOL     OW26857   4.285   1.142   6.470
 8653SOL    HW126858   4.326   1.140   6.379
 8653SOL    HW226859   4.278   1.049   6.506
 8654SOL     OW26860   6.546   4.703   3.579
 8654SOL    HW126861   6.640   4.685   3.607
 8654SOL    HW226862   6.529   4.662   3.489
 8655SOL     OW26863   1.878   6.859   4.382
 8655SOL    HW126864   1.911   6.843   4.475
 8655SOL    HW226865   1.951   6.897   4.326
 8656SOL     OW26866   4.000   6.644   0.284
 8656SOL    HW126867   4.064   6.706   0.239
 8656SOL    HW226868   3.993   6.667   0.380
 8657SOL     OW26869   2.660   1.720   2.281
 8657SOL    HW126870   2.635   1.655   2.353
 8657SOL    HW226871   2.732   1.780   2.314
 8658SOL     OW26872   5.981   3.905   0.849
 8658SOL    HW126873   5.999   3.964   0.928
 8658SOL    HW226874   6.030   3.818   0.860
 8659SOL     OW26875   3.022   6.841   3.469
 8659SOL    HW126876   2.964   6.782   3.526
 8659SOL    HW226877   3.117   6.832   3.499
 8660SOL     OW26878   6.526   4.325   0.893
 8660SOL    HW126879   6.577   4.397   0.846
 8660SOL    HW226880   6.439   4.310   0.846
 8661SOL     OW26881   6.075   2.593   1.296
 8661SOL    HW126882   5.979   2.616   1.314
 8661SOL    HW226883   6.129   2.609   1.379
 8662SOL     OW26884   1.685   3.062   1.911
 8662SOL    HW126885   1.773   3.085   1.869
 8662SOL    HW226886   1.701   3.008   1.993
 8663SOL     OW26887   3.438   5.615   1.939
 8663SOL    HW126888   3.406   5.597   2.032
 8663SOL    HW226889   3.362   5.602   1.875
 8664SOL     OW26890   3.504   6.001   4.597
 8664SOL    HW126891   3.410   5.975   4.619
 8664SOL    HW226892   3.553   6.027   4.680
 8665SOL     OW26893   0.635   3.167   6.354
 8665SOL    HW126894   0.538   3.142   6.353
 8665SOL    HW226895   0.659   3.202   6.445
 8666SOL     OW26896   4.052   6.999   2.186
 8666SOL    HW126897   3.973   6.972   2.131
 8666SOL    HW226898   4.034   0.058   2.229
 8667SOL     OW26899   4.304   1.938   2.036
 8667SOL    HW126900   4.209   1.917   2.015
 8667SOL    HW226901   4.364   1.888   1.974
 8668SOL     OW26902   3.432   2.022   3.555
 8668SOL    HW126903   3.432   1.923   3.544
 8668SOL    HW226904   3.473   2.065   3.475
 8669SOL     OW26905   0.158   6.211   6.495
 8669SOL    HW126906   0.089   6.142   6.473
 8669SOL    HW226907   0.151   6.236   6.591
 8670SOL     OW26908   6.649   5.171   5.369
 8670SOL    HW126909   6.722   5.108   5.396
 8670SOL    HW226910   6.625   5.154   5.273
 8671SOL     OW26911   6.705   3.905   3.234
 8671SOL    HW126912   6.636   3.844   3.193
 8671SOL    HW226913   6.716   3.986   3.176
 8672SOL     OW26914   6.318   0.776   1.915
 8672SOL    HW126915   6.288   0.828   1.835
 8672SOL    HW226916   6.273   0.687   1.916
 8673SOL     OW26917   0.044   1.223   2.144
 8673SOL    HW126918   0.093   1.244   2.229
 8673SOL    HW226919   7.014   1.143   2.159
 8674SOL     OW26920   0.307   2.673   3.774
 8674SOL    HW126921   0.266   2.713   3.692
 8674SOL    HW226922   0.253   2.594   3.803
 8675SOL     OW26923   5.554   2.675   4.333
 8675SOL    HW126924   5.538   2.584   4.370
 8675SOL    HW226925   5.595   2.668   4.242
 8676SOL     OW26926   5.368   2.683   0.919
 8676SOL    HW126927   5.271   2.660   0.920
 8676SOL    HW226928   5.422   2.599   0.928
 8677SOL     OW26929   2.848   1.633   6.901
 8677SOL    HW126930   2.766   1.577   6.888
 8677SOL    HW226931   2.821   1.728   6.914
 8678SOL     OW26932   2.618   2.159   7.006
 8678SOL    HW126933   2.645   2.112   0.061
 8678SOL    HW226934   2.519   2.150   6.994
 8679SOL     OW26935   1.947   2.243   6.794
 8679SOL    HW126936   1.893   2.171   6.751
 8679SOL    HW226937   1.887   2.317   6.824
 8680SOL     OW26938   0.082   0.043   1.204
 8680SOL    HW126939   0.156   0.020   1.140
 8680SOL    HW226940   0.118   0.052   1.296
 8681SOL     OW26941   5.739   5.456   1.486
 8681SOL    HW126942   5.686   5.541   1.479
 8681SOL    HW226943   5.791   5.443   1.402
 8682SOL     OW26944   1.517   2.196   1.436
 8682SOL    HW126945   1.417   2.191   1.438
 8682SOL    HW226946   1.547   2.231   1.347
 8683SOL     OW26947   2.533   4.914   4.427
 8683SOL    HW126948   2.608   4.981   4.429
 8683SOL    HW226949   2.453   4.951   4.474
 8684SOL     OW26950   2.510   4.641   3.767
 8684SOL    HW126951   2.412   4.655   3.753
 8684SOL    HW226952   2.556   4.638   3.678
 8685SOL     OW26953   4.087   3.337   5.229
 8685SOL    HW126954   4.008   3.397   5.218
 8685SOL    HW226955   4.061   3.256   5.282
 8686SOL     OW26956   0.395   4.722   2.654
 8686SOL    HW126957   0.368   4.680   2.740
 8686SOL    HW226958   0.460   4.663   2.606
 8687SOL     OW26959   5.438   3.041   5.737
 8687SOL    HW126960   5.447   2.944   5.759
 8687SOL    HW226961   5.412   3.092   5.819
 8688SOL     OW26962   1.479   3.136   4.163
 8688SOL    HW126963   1.525   3.072   4.102
 8688SOL    HW226964   1.426   3.085   4.231
 8689SOL     OW26965   5.269   3.407   0.759
 8689SOL    HW126966   5.258   3.321   0.807
 8689SOL    HW226967   5.361   3.444   0.776
 8690SOL     OW26968   1.126   2.499   2.619
 8690SOL    HW126969   1.104   2.596   2.631
 8690SOL    HW226970   1.043   2.450   2.591
 8691SOL     OW26971   4.075   1.403   6.627
 8691SOL    HW126972   4.116   1.421   6.538
 8691SOL    HW226973   4.139   1.351   6.683
 8692SOL     OW26974   5.813   2.057   4.835
 8692SOL    HW126975   5.780   2.050   4.930
 8692SOL    HW226976   5.809   2.152   4.805
 8693SOL     OW26977   0.853   0.753   5.007
 8693SOL    HW126978   0.818   0.660   5.002
 8693SOL    HW226979   0.851   0.795   4.917
 8694SOL     OW26980   2.859   3.369   6.232
 8694SOL    HW126981   2.891   3.274   6.241
 8694SOL    HW226982   2.775   3.370   6.177
 8695SOL     OW26983   4.107   4.053   1.451
 8695SOL    HW126984   4.172   4.047   1.527
 8695SOL    HW226985   4.075   3.962   1.427
 8696SOL     OW26986   2.522   4.256   6.559
 8696SOL    HW126987   2.599   4.221   6.612
 8696SOL    HW226988   2.542   4.350   6.529
 8697SOL     OW26989   0.693   3.080   4.678
 8697SOL    HW126990   0.651   3.140   4.745
 8697SOL    HW226991   0.681   3.119   4.586
 8698SOL     OW26992   5.239   4.371   6.579
 8698SOL    HW126993   5.294   4.326   6.509
 8698SOL    HW226994   5.277   4.462   6.598
 8699SOL     OW26995   2.125   1.799   1.555
 8699SOL    HW126996   2.225   1.801   1.545
 8699SOL    HW226997   2.084   1.859   1.487
 8700SOL     OW26998   0.563   2.508   5.035
 8700SOL    HW126999   0.579   2.525   4.938
 8700SOL    HW227000   0.526   2.416   5.047
 8701SOL     OW27001   2.626   3.174   0.443
 8701SOL    HW127002   2.675   3.220   0.518
 8701SOL    HW227003   2.556   3.114   0.481
 8702SOL     OW27004   5.030   4.418   0.480
 8702SOL    HW127005   5.038   4.360   0.400
 8702SOL    HW227006   4.947   4.392   0.531
 8703SOL     OW27007   2.338   5.284   0.618
 8703SOL    HW127008   2.268   5.248   0.679
 8703SOL    HW227009   2.295   5.316   0.533
 8704SOL     OW27010   6.607   1.698   3.833
 8704SOL    HW127011   6.570   1.773   3.779
 8704SOL    HW227012   6.568   1.700   3.925
 8705SOL     OW27013   3.469   2.229   0.588
 8705SOL    HW127014   3.383   2.235   0.537
 8705SOL    HW227015   3.449   2.218   0.685
 8706SOL     OW27016   5.088   3.402   5.268
 8706SOL    HW127017   5.048   3.492   5.250
 8706SOL    HW227018   5.050   3.335   5.204
 8707SOL     OW27019   1.584   0.648   3.287
 8707SOL    HW127020   1.655   0.596   3.239
 8707SOL    HW227021   1.627   0.721   3.340
 8708SOL     OW27022   5.215   1.891   0.356
 8708SOL    HW127023   5.292   1.893   0.291
 8708SOL    HW227024   5.133   1.926   0.310
 8709SOL     OW27025   6.208   6.140   4.150
 8709SOL    HW127026   6.204   6.218   4.088
 8709SOL    HW227027   6.159   6.063   4.109
 8710SOL     OW27028   2.000   2.784   3.405
 8710SOL    HW127029   1.938   2.744   3.473
 8710SOL    HW227030   2.030   2.713   3.342
 8711SOL     OW27031   0.547   2.207   2.347
 8711SOL    HW127032   0.473   2.141   2.359
 8711SOL    HW227033   0.515   2.283   2.291
 8712SOL     OW27034   1.425   3.974   4.271
 8712SOL    HW127035   1.390   3.907   4.206
 8712SOL    HW227036   1.361   3.982   4.348
 8713SOL     OW27037   0.699   4.248   4.564
 8713SOL    HW127038   0.783   4.256   4.617
 8713SOL    HW227039   0.620   4.250   4.626
 8714SOL     OW27040   1.422   3.484   6.277
 8714SOL    HW127041   1.491   3.551   6.251
 8714SOL    HW227042   1.346   3.487   6.213
 8715SOL     OW27043   2.394   4.820   1.559
 8715SOL    HW127044   2.408   4.769   1.643
 8715SOL    HW227045   2.424   4.915   1.572
 8716SOL     OW27046   5.561   6.900   2.685
 8716SOL    HW127047   5.625   6.886   2.610
 8716SOL    HW227048   5.495   6.825   2.688
 8717SOL     OW27049   4.857   1.579   6.551
 8717SOL    HW127050   4.785   1.626   6.501
 8717SOL    HW227051   4.918   1.646   6.594
 8718SOL     OW27052   2.659   5.168   6.153
 8718SOL    HW127053   2.713   5.218   6.221
 8718SOL    HW227054   2.568   5.209   6.147
 8719SOL     OW27055   3.037   1.901   4.310
 8719SOL    HW127056   3.098   1.822   4.323
 8719SOL    HW227057   3.004   1.902   4.215
 8720SOL     OW27058   0.208   6.762   4.928
 8720SOL    HW127059   0.241   6.821   5.002
 8720SOL    HW227060   0.198   6.816   4.844
 8721SOL     OW27061   0.477   0.654   1.775
 8721SOL    HW127062   0.463   0.746   1.813
 8721SOL    HW227063   0.524   0.662   1.687
 8722SOL     OW27064   3.693   1.248   0.629
 8722SOL    HW127065   3.629   1.320   0.603
 8722SOL    HW227066   3.642   1.170   0.666
 8723SOL     OW27067   2.830   6.301   3.578
 8723SOL    HW127068   2.777   6.217   3.573
 8723SOL    HW227069   2.834   6.344   3.487
 8724SOL     OW27070   5.725   6.789   5.046
 8724SOL    HW127071   5.708   6.761   5.140
 8724SOL    HW227072   5.638   6.796   4.997
 8725SOL     OW27073   6.700   1.160   2.643
 8725SOL    HW127074   6.793   1.125   2.653
 8725SOL    HW227075   6.639   1.086   2.613
 8726SOL     OW27076   6.604   6.897   1.178
 8726SOL    HW127077   6.670   6.968   1.156
 8726SOL    HW227078   6.579   6.847   1.095
 8727SOL     OW27079   4.904   5.093   6.404
 8727SOL    HW127080   4.826   5.139   6.447
 8727SOL    HW227081   4.871   5.030   6.335
 8728SOL     OW27082   4.826   0.255   3.933
 8728SOL    HW127083   4.812   0.238   4.030
 8728SOL    HW227084   4.921   0.281   3.917
 8729SOL     OW27085   5.563   5.679   6.128
 8729SOL    HW127086   5.505   5.733   6.067
 8729SOL    HW227087   5.563   5.583   6.098
 8730SOL     OW27088   4.094   4.609   1.739
 8730SOL    HW127089   4.144   4.526   1.717
 8730SOL    HW227090   4.156   4.675   1.783
 8731SOL     OW27091   0.167   2.847   3.604
 8731SOL    HW127092   0.113   2.930   3.597
 8731SOL    HW227093   0.201   2.821   3.513
 8732SOL     OW27094   5.463   6.431   5.570
 8732SOL    HW127095   5.502   6.516   5.605
 8732SOL    HW227096   5.532   6.359   5.571
 8733SOL     OW27097   5.885   4.073   1.978
 8733SOL    HW127098   5.800   4.023   1.964
 8733SOL    HW227099   5.871   4.170   1.955
 8734SOL     OW27100   6.887   6.559   1.192
 8734SOL    HW127101   6.791   6.572   1.217
 8734SOL    HW227102   6.893   6.526   1.098
 8735SOL     OW27103   1.596   1.790   6.657
 8735SOL    HW127104   1.525   1.784   6.587
 8735SOL    HW227105   1.575   1.728   6.732
 8736SOL     OW27106   0.362   6.037   3.949
 8736SOL    HW127107   0.268   6.033   3.983
 8736SOL    HW227108   0.425   6.011   4.022
 8737SOL     OW27109   0.657   5.783   6.386
 8737SOL    HW127110   0.668   5.875   6.348
 8737SOL    HW227111   0.621   5.723   6.314
 8738SOL     OW27112   1.514   2.132   2.224
 8738SOL    HW127113   1.559   2.043   2.231
 8738SOL    HW227114   1.502   2.156   2.128
 8739SOL     OW27115   5.006   5.014   3.439
 8739SOL    HW127116   4.954   4.929   3.446
 8739SOL    HW227117   4.966   5.083   3.500
 8740SOL     OW27118   2.031   0.666   3.267
 8740SOL    HW127119   2.053   0.743   3.206
 8740SOL    HW227120   2.113   0.611   3.280
 8741SOL     OW27121   1.989   2.556   2.575
 8741SOL    HW127122   1.972   2.654   2.586
 8741SOL    HW227123   2.010   2.516   2.664
 8742SOL     OW27124   1.399   3.609   0.354
 8742SOL    HW127125   1.332   3.603   0.428
 8742SOL    HW227126   1.428   3.704   0.343
 8743SOL     OW27127   2.005   2.911   0.313
 8743SOL    HW127128   1.990   2.920   0.214
 8743SOL    HW227129   1.933   2.854   0.352
 8744SOL     OW27130   2.779   4.176   5.685
 8744SOL    HW127131   2.750   4.099   5.742
 8744SOL    HW227132   2.851   4.146   5.623
 8745SOL     OW27133   5.497   1.012   6.982
 8745SOL    HW127134   5.447   1.022   0.039
 8745SOL    HW227135   5.515   1.103   6.943
 8746SOL     OW27136   4.371   4.743   4.527
 8746SOL    HW127137   4.465   4.716   4.547
 8746SOL    HW227138   4.318   4.744   4.613
 8747SOL     OW27139   6.939   6.737   1.450
 8747SOL    HW127140   6.852   6.702   1.418
 8747SOL    HW227141   6.938   6.837   1.450
 8748SOL     OW27142   5.902   2.463   5.137
 8748SOL    HW127143   5.943   2.372   5.149
 8748SOL    HW227144   5.939   2.525   5.206
 8749SOL     OW27145   1.679   1.317   4.085
 8749SOL    HW127146   1.708   1.357   4.172
 8749SOL    HW227147   1.713   1.373   4.009
 8750SOL     OW27148   3.583   3.951   2.301
 8750SOL    HW127149   3.599   4.026   2.237
 8750SOL    HW227150   3.666   3.896   2.309
 8751SOL     OW27151   1.428   6.779   6.919
 8751SOL    HW127152   1.451   6.731   7.004
 8751SOL    HW227153   1.341   6.745   6.884
 8752SOL     OW27154   1.102   2.348   6.657
 8752SOL    HW127155   1.063   2.412   6.590
 8752SOL    HW227156   1.185   2.388   6.696
 8753SOL     OW27157   2.305   1.944   1.182
 8753SOL    HW127158   2.298   2.038   1.216
 8753SOL    HW227159   2.226   1.923   1.125
 8754SOL     OW27160   1.687   6.247   0.032
 8754SOL    HW127161   1.743   6.192   0.095
 8754SOL    HW227162   1.731   6.250   6.972
 8755SOL     OW27163   6.334   1.363   1.759
 8755SOL    HW127164   6.310   1.275   1.720
 8755SOL    HW227165   6.433   1.366   1.777
 8756SOL     OW27166   1.806   1.311   2.048
 8756SOL    HW127167   1.765   1.274   1.965
 8756SOL    HW227168   1.740   1.309   2.123
 8757SOL     OW27169   5.345   5.506   5.791
 8757SOL    HW127170   5.248   5.480   5.791
 8757SOL    HW227171   5.392   5.459   5.716
 8758SOL     OW27172   3.770   5.283   6.375
 8758SOL    HW127173   3.778   5.190   6.413
 8758SOL    HW227174   3.680   5.320   6.398
 8759SOL     OW27175   6.707   0.677   1.516
 8759SOL    HW127176   6.647   0.646   1.590
 8759SOL    HW227177   6.674   0.639   1.429
 8760SOL     OW27178   1.360   2.349   4.268
 8760SOL    HW127179   1.318   2.264   4.299
 8760SOL    HW227180   1.290   2.410   4.231
 8761SOL     OW27181   5.189   2.534   4.226
 8761SOL    HW127182   5.123   2.605   4.201
 8761SOL    HW227183   5.186   2.518   4.325
 8762SOL     OW27184   3.771   6.464   2.442
 8762SOL    HW127185   3.807   6.480   2.534
 8762SOL    HW227186   3.823   6.391   2.398
 8763SOL     OW27187   6.563   1.761   5.438
 8763SOL    HW127188   6.465   1.746   5.443
 8763SOL    HW227189   6.588   1.839   5.496
 8764SOL     OW27190   2.286   5.463   5.753
 8764SOL    HW127191   2.215   5.404   5.714
 8764SOL    HW227192   2.338   5.506   5.679
 8765SOL     OW27193   4.765   0.165   3.309
 8765SOL    HW127194   4.693   0.159   3.240
 8765SOL    HW227195   4.773   0.077   3.356
 8766SOL     OW27196   6.501   0.580   4.974
 8766SOL    HW127197   6.597   0.553   4.964
 8766SOL    HW227198   6.449   0.548   4.894
 8767SOL     OW27199   1.960   1.146   4.967
 8767SOL    HW127200   2.025   1.169   4.895
 8767SOL    HW227201   1.985   1.059   5.009
 8768SOL     OW27202   0.297   2.308   6.940
 8768SOL    HW127203   0.389   2.268   6.936
 8768SOL    HW227204   0.231   2.237   6.966
 8769SOL     OW27205   0.353   0.604   6.932
 8769SOL    HW127206   0.394   0.650   6.854
 8769SOL    HW227207   0.310   0.519   6.902
 8770SOL     OW27208   4.555   1.675   0.880
 8770SOL    HW127209   4.572   1.774   0.886
 8770SOL    HW227210   4.457   1.659   0.870
 8771SOL     OW27211   0.787   2.577   0.097
 8771SOL    HW127212   0.831   2.550   0.183
 8771SOL    HW227213   0.698   2.618   0.117
 8772SOL     OW27214   6.743   0.107   3.609
 8772SOL    HW127215   6.646   0.085   3.623
 8772SOL    HW227216   6.767   0.187   3.664
 8773SOL     OW27217   6.206   1.608   4.237
 8773SOL    HW127218   6.134   1.676   4.252
 8773SOL    HW227219   6.202   1.576   4.143
 8774SOL     OW27220   0.901   2.164   6.627
 8774SOL    HW127221   0.990   2.211   6.626
 8774SOL    HW227222   0.916   2.065   6.633
 8775SOL     OW27223   4.540   2.065   2.413
 8775SOL    HW127224   4.554   2.060   2.314
 8775SOL    HW227225   4.447   2.034   2.435
 8776SOL     OW27226   6.011   3.326   0.808
 8776SOL    HW127227   6.019   3.261   0.883
 8776SOL    HW227228   6.097   3.330   0.758
 8777SOL     OW27229   6.780   2.544   4.505
 8777SOL    HW127230   6.801   2.520   4.600
 8777SOL    HW227231   6.681   2.549   4.492
 8778SOL     OW27232   1.831   4.605   5.495
 8778SOL    HW127233   1.770   4.643   5.425
 8778SOL    HW227234   1.900   4.549   5.451
 8779SOL     OW27235   2.897   6.645   3.613
 8779SOL    HW127236   2.801   6.651   3.641
 8779SOL    HW227237   2.952   6.615   3.690
 8780SOL     OW27238   1.268   3.310   4.159
 8780SOL    HW127239   1.292   3.404   4.183
 8780SOL    HW227240   1.352   3.258   4.141
 8781SOL     OW27241   3.929   0.715   2.453
 8781SOL    HW127242   3.887   0.732   2.363
 8781SOL    HW227243   3.924   0.797   2.509
 8782SOL     OW27244   0.492   2.812   6.954
 8782SOL    HW127245   0.480   2.721   6.995
 8782SOL    HW227246   0.405   2.861   6.958
 8783SOL     OW27247   3.339   4.199   6.938
 8783SOL    HW127248   3.423   4.247   6.911
 8783SOL    HW227249   3.336   4.109   6.894
 8784SOL     OW27250   4.608   2.243   5.497
 8784SOL    HW127251   4.536   2.302   5.461
 8784SOL    HW227252   4.609   2.249   5.597
 8785SOL     OW27253   6.904   6.994   5.898
 8785SOL    HW127254   6.879   6.961   5.989
 8785SOL    HW227255   6.924   0.063   5.902
 8786SOL     OW27256   4.277   2.319   3.258
 8786SOL    HW127257   4.329   2.234   3.266
 8786SOL    HW227258   4.258   2.338   3.162
 8787SOL     OW27259   2.890   5.907   2.161
 8787SOL    HW127260   2.921   5.814   2.141
 8787SOL    HW227261   2.928   5.937   2.248
 8788SOL     OW27262   6.301   0.374   3.233
 8788SOL    HW127263   6.372   0.436   3.200
 8788SOL    HW227264   6.344   0.296   3.279
 8789SOL     OW27265   2.101   4.130   0.112
 8789SOL    HW127266   2.096   4.201   0.182
 8789SOL    HW227267   2.012   4.085   0.103
 8790SOL     OW27268   4.996   3.697   5.200
 8790SOL    HW127269   5.063   3.731   5.134
 8790SOL    HW227270   4.912   3.671   5.152
 8791SOL     OW27271   3.608   6.789   5.240
 8791SOL    HW127272   3.548   6.784   5.160
 8791SOL    HW227273   3.698   6.751   5.216
 8792SOL     OW27274   4.952   4.032   0.650
 8792SOL    HW127275   4.883   4.100   0.676
 8792SOL    HW227276   4.913   3.941   0.659
 8793SOL     OW27277   6.686   0.863   4.787
 8793SOL    HW127278   6.663   0.882   4.691
 8793SOL    HW227279   6.736   0.777   4.792
 8794SOL     OW27280   1.285   3.026   2.729
 8794SOL    HW127281   1.308   3.021   2.826
 8794SOL    HW227282   1.366   3.052   2.677
 8795SOL     OW27283   1.306   0.484   6.742
 8795SOL    HW127284   1.220   0.434   6.728
 8795SOL    HW227285   1.316   0.553   6.671
 8796SOL     OW27286   6.298   5.216   3.932
 8796SOL    HW127287   6.316   5.284   4.004
 8796SOL    HW227288   6.235   5.147   3.967
 8797SOL     OW27289   5.751   5.366   6.077
 8797SOL    HW127290   5.656   5.396   6.075
 8797SOL    HW227291   5.809   5.441   6.109
 8798SOL     OW27292   2.226   4.806   0.324
 8798SOL    HW127293   2.264   4.887   0.280
 8798SOL    HW227294   2.253   4.724   0.274
 8799SOL     OW27295   0.721   5.856   2.412
 8799SOL    HW127296   0.700   5.770   2.459
 8799SOL    HW227297   0.643   5.918   2.420
 8800SOL     OW27298   6.792   6.784   4.708
 8800SOL    HW127299   6.870   6.734   4.671
 8800SOL    HW227300   6.813   6.814   4.801
 8801SOL     OW27301   6.009   3.027   5.885
 8801SOL    HW127302   5.984   3.120   5.912
 8801SOL    HW227303   5.993   2.965   5.961
 8802SOL     OW27304   1.201   6.385   6.897
 8802SOL    HW127305   1.264   6.325   6.946
 8802SOL    HW227306   1.239   6.407   6.807
 8803SOL     OW27307   4.661   4.907   4.844
 8803SOL    HW127308   4.591   4.977   4.834
 8803SOL    HW227309   4.749   4.950   4.861
 8804SOL     OW27310   2.067   6.015   1.223
 8804SOL    HW127311   2.070   5.934   1.281
 8804SOL    HW227312   2.132   6.005   1.148
 8805SOL     OW27313   4.849   5.350   0.581
 8805SOL    HW127314   4.803   5.279   0.635
 8805SOL    HW227315   4.943   5.322   0.563
 8806SOL     OW27316   1.747   1.166   1.807
 8806SOL    HW127317   1.687   1.086   1.807
 8806SOL    HW227318   1.701   1.242   1.763
 8807SOL     OW27319   5.267   1.246   1.496
 8807SOL    HW127320   5.213   1.329   1.512
 8807SOL    HW227321   5.317   1.255   1.410
 8808SOL     OW27322   1.973   1.639   0.769
 8808SOL    HW127323   1.952   1.727   0.727
 8808SOL    HW227324   1.897   1.576   0.753
 8809SOL     OW27325   1.400   3.390   2.587
 8809SOL    HW127326   1.412   3.332   2.506
 8809SOL    HW227327   1.489   3.412   2.626
 8810SOL     OW27328   6.593   2.452   3.406
 8810SOL    HW127329   6.578   2.465   3.504
 8810SOL    HW227330   6.527   2.508   3.354
 8811SOL     OW27331   3.388   5.849   2.437
 8811SOL    HW127332   3.344   5.898   2.512
 8811SOL    HW227333   3.487   5.858   2.444
 8812SOL     OW27334   5.630   0.473   0.010
 8812SOL    HW127335   5.640   0.547   6.973
 8812SOL    HW227336   5.636   0.509   0.103
 8813SOL     OW27337   1.727   2.494   1.145
 8813SOL    HW127338   1.820   2.461   1.163
 8813SOL    HW227339   1.719   2.519   1.048
 8814SOL     OW27340   6.005   0.838   4.227
 8814SOL    HW127341   5.930   0.786   4.269
 8814SOL    HW227342   6.061   0.776   4.172
 8815SOL     OW27343   4.986   0.853   1.244
 8815SOL    HW127344   4.905   0.836   1.301
 8815SOL    HW227345   5.004   0.952   1.242
 8816SOL     OW27346   6.422   1.594   2.807
 8816SOL    HW127347   6.447   1.626   2.898
 8816SOL    HW227348   6.496   1.539   2.770
 8817SOL     OW27349   0.941   2.025   4.313
 8817SOL    HW127350   0.975   1.962   4.382
 8817SOL    HW227351   0.976   2.117   4.331
 8818SOL     OW27352   1.455   5.543   6.280
 8818SOL    HW127353   1.547   5.555   6.318
 8818SOL    HW227354   1.387   5.554   6.352
 8819SOL     OW27355   5.211   5.957   6.950
 8819SOL    HW127356   5.213   5.863   6.916
 8819SOL    HW227357   5.295   5.977   7.000
 8820SOL     OW27358   3.734   6.484   5.471
 8820SOL    HW127359   3.650   6.443   5.434
 8820SOL    HW227360   3.709   6.556   5.536
 8821SOL     OW27361   1.672   5.203   5.530
 8821SOL    HW127362   1.695   5.141   5.605
 8821SOL    HW227363   1.585   5.175   5.489
 8822SOL     OW27364   0.181   0.856   5.177
 8822SOL    HW127365   0.185   0.788   5.250
 8822SOL    HW227366   0.087   0.862   5.142
 8823SOL     OW27367   4.502   2.456   3.333
 8823SOL    HW127368   4.527   2.499   3.246
 8823SOL    HW227369   4.416   2.406   3.322
 8824SOL     OW27370   1.306   0.575   3.289
 8824SOL    HW127371   1.271   0.551   3.198
 8824SOL    HW227372   1.397   0.614   3.281
 8825SOL     OW27373   1.656   6.407   6.452
 8825SOL    HW127374   1.756   6.417   6.453
 8825SOL    HW227375   1.615   6.467   6.520
 8826SOL     OW27376   0.984   2.740   6.983
 8826SOL    HW127377   0.918   2.683   0.003
 8826SOL    HW227378   0.972   2.836   7.010
 8827SOL     OW27379   5.061   6.395   4.131
 8827SOL    HW127380   5.090   6.428   4.041
 8827SOL    HW227381   5.133   6.413   4.198
 8828SOL     OW27382   4.804   2.765   5.779
 8828SOL    HW127383   4.764   2.809   5.699
 8828SOL    HW227384   4.902   2.784   5.783
 8829SOL     OW27385   6.317   0.570   2.924
 8829SOL    HW127386   6.298   0.668   2.933
 8829SOL    HW227387   6.392   0.546   2.985
 8830SOL     OW27388   2.654   2.275   2.768
 8830SOL    HW127389   2.580   2.210   2.755
 8830SOL    HW227390   2.687   2.271   2.862
 8831SOL     OW27391   0.322   2.530   2.473
 8831SOL    HW127392   0.341   2.620   2.514
 8831SOL    HW227393   0.245   2.488   2.520
 8832SOL     OW27394   6.136   7.018   4.991
 8832SOL    HW127395   6.089   0.071   5.025
 8832SOL    HW227396   6.180   6.970   5.067
 8833SOL     OW27397   4.963   2.542   1.212
 8833SOL    HW127398   4.880   2.586   1.176
 8833SOL    HW227399   5.042   2.573   1.158
 8834SOL     OW27400   6.490   4.211   5.688
 8834SOL    HW127401   6.445   4.204   5.777
 8834SOL    HW227402   6.554   4.288   5.689
 8835SOL     OW27403   6.116   1.490   5.330
 8835SOL    HW127404   6.196   1.483   5.271
 8835SOL    HW227405   6.041   1.534   5.280
 8836SOL     OW27406   4.257   1.319   0.054
 8836SOL    HW127407   4.307   1.315   0.140
 8836SOL    HW227408   4.302   1.384   7.021
 8837SOL     OW27409   5.835   5.508   1.220
 8837SOL    HW127410   5.863   5.428   1.167
 8837SOL    HW227411   5.866   5.591   1.174
 8838SOL     OW27412   0.724   2.612   2.031
 8838SOL    HW127413   0.676   2.628   1.945
 8838SOL    HW227414   0.738   2.514   2.043
 8839SOL     OW27415   4.752   4.276   1.851
 8839SOL    HW127416   4.656   4.297   1.870
 8839SOL    HW227417   4.757   4.186   1.806
 8840SOL     OW27418   0.379   6.647   1.044
 8840SOL    HW127419   0.360   6.693   1.130
 8840SOL    HW227420   0.374   6.548   1.057
 8841SOL     OW27421   4.953   2.044   0.416
 8841SOL    HW127422   4.996   2.133   0.430
 8841SOL    HW227423   4.883   2.030   0.486
 8842SOL     OW27424   3.129   3.017   3.309
 8842SOL    HW127425   3.080   3.104   3.309
 8842SOL    HW227426   3.119   2.973   3.398
 8843SOL     OW27427   2.599   6.441   5.041
 8843SOL    HW127428   2.538   6.369   5.008
 8843SOL    HW227429   2.602   6.437   5.141
 8844SOL     OW27430   4.025   2.472   5.359
 8844SOL    HW127431   4.100   2.495   5.297
 8844SOL    HW227432   4.012   2.546   5.424
 8845SOL     OW27433   0.149   3.678   2.467
 8845SOL    HW127434   0.175   3.645   2.376
 8845SOL    HW227435   0.170   3.608   2.535
 8846SOL     OW27436   5.160   5.588   4.217
 8846SOL    HW127437   5.119   5.516   4.273
 8846SOL    HW227438   5.173   5.670   4.273
 8847SOL     OW27439   1.188   3.246   3.460
 8847SOL    HW127440   1.167   3.332   3.412
 8847SOL    HW227441   1.160   3.169   3.403
 8848SOL     OW27442   6.046   2.920   1.395
 8848SOL    HW127443   6.080   2.902   1.487
 8848SOL    HW227444   5.965   2.979   1.400
 8849SOL     OW27445   3.801   5.348   4.334
 8849SOL    HW127446   3.754   5.350   4.246
 8849SOL    HW227447   3.735   5.365   4.408
 8850SOL     OW27448   4.559   1.593   1.373
 8850SOL    HW127449   4.554   1.497   1.348
 8850SOL    HW227450   4.555   1.649   1.291
 8851SOL     OW27451   6.614   4.846   3.298
 8851SOL    HW127452   6.669   4.763   3.301
 8851SOL    HW227453   6.559   4.853   3.381
 8852SOL     OW27454   5.865   4.676   4.505
 8852SOL    HW127455   5.950   4.709   4.546
 8852SOL    HW227456   5.831   4.598   4.557
 8853SOL     OW27457   4.424   1.337   4.492
 8853SOL    HW127458   4.404   1.431   4.462
 8853SOL    HW227459   4.463   1.339   4.585
 8854SOL     OW27460   2.458   0.589   6.552
 8854SOL    HW127461   2.522   0.524   6.593
 8854SOL    HW227462   2.508   0.667   6.515
 8855SOL     OW27463   6.708   4.506   6.244
 8855SOL    HW127464   6.730   4.443   6.170
 8855SOL    HW227465   6.770   4.584   6.241
 8856SOL     OW27466   5.259   1.768   5.988
 8856SOL    HW127467   5.230   1.675   5.964
 8856SOL    HW227468   5.327   1.800   5.922
 8857SOL     OW27469   1.659   3.275   4.409
 8857SOL    HW127470   1.611   3.351   4.451
 8857SOL    HW227471   1.748   3.262   4.452
 8858SOL     OW27472   1.527   3.214   5.635
 8858SOL    HW127473   1.602   3.279   5.647
 8858SOL    HW227474   1.470   3.244   5.558
 8859SOL     OW27475   2.930   5.346   4.655
 8859SOL    HW127476   2.840   5.344   4.612
 8859SOL    HW227477   2.922   5.322   4.751
 8860SOL     OW27478   2.684   1.144   1.691
 8860SOL    HW127479   2.603   1.175   1.641
 8860SOL    HW227480   2.698   1.202   1.771
 8861SOL     OW27481   2.411   1.189   0.081
 8861SOL    HW127482   2.373   1.107   0.038
 8861SOL    HW227483   2.406   1.265   0.016
 8862SOL     OW27484   0.723   3.735   3.722
 8862SOL    HW127485   0.705   3.640   3.747
 8862SOL    HW227486   0.687   3.795   3.794
 8863SOL     OW27487   1.752   5.722   5.159
 8863SOL    HW127488   1.676   5.740   5.222
 8863SOL    HW227489   1.715   5.696   5.070
 8864SOL     OW27490   2.204   3.853   5.191
 8864SOL    HW127491   2.163   3.864   5.100
 8864SOL    HW227492   2.277   3.920   5.203
 8865SOL     OW27493   3.189   1.820   5.667
 8865SOL    HW127494   3.274   1.813   5.719
 8865SOL    HW227495   3.147   1.910   5.683
 8866SOL     OW27496   5.676   0.072   5.189
 8866SOL    HW127497   5.718   7.016   5.155
 8866SOL    HW227498   5.583   0.051   5.221
 8867SOL     OW27499   5.379   1.236   2.977
 8867SOL    HW127500   5.425   1.325   2.979
 8867SOL    HW227501   5.346   1.217   2.885
 8868SOL     OW27502   6.286   2.698   0.522
 8868SOL    HW127503   6.197   2.677   0.563
 8868SOL    HW227504   6.353   2.714   0.595
 8869SOL     OW27505   1.442   1.263   3.990
 8869SOL    HW127506   1.523   1.291   4.042
 8869SOL    HW227507   1.361   1.309   4.027
 8870SOL     OW27508   3.380   6.767   1.504
 8870SOL    HW127509   3.381   6.712   1.588
 8870SOL    HW227510   3.414   6.713   1.428
 8871SOL     OW27511   0.902   2.345   3.803
 8871SOL    HW127512   0.982   2.286   3.798
 8871SOL    HW227513   0.822   2.297   3.766
 8872SOL     OW27514   0.817   1.092   2.409
 8872SOL    HW127515   0.830   1.062   2.314
 8872SOL    HW227516   0.843   1.017   2.471
 8873SOL     OW27517   0.041   5.897   4.611
 8873SOL    HW127518   7.014   5.872   4.690
 8873SOL    HW227519   0.051   5.818   4.551
 8874SOL     OW27520   0.727   1.198   5.985
 8874SOL    HW127521   0.631   1.214   6.010
 8874SOL    HW227522   0.763   1.279   5.939
 8875SOL     OW27523   1.397   0.934   4.188
 8875SOL    HW127524   1.475   0.931   4.127
 8875SOL    HW227525   1.357   0.843   4.198
 8876SOL     OW27526   3.331   1.091   4.188
 8876SOL    HW127527   3.335   1.180   4.233
 8876SOL    HW227528   3.294   1.101   4.096
 8877SOL     OW27529   2.468   6.650   5.904
 8877SOL    HW127530   2.385   6.668   5.851
 8877SOL    HW227531   2.460   6.562   5.951
 8878SOL     OW27532   5.746   4.221   5.377
 8878SOL    HW127533   5.751   4.230   5.476
 8878SOL    HW227534   5.824   4.167   5.344
 8879SOL     OW27535   6.302   6.063   4.837
 8879SOL    HW127536   6.281   6.137   4.773
 8879SOL    HW227537   6.223   6.048   4.896
 8880SOL     OW27538   1.357   0.112   5.165
 8880SOL    HW127539   1.274   0.161   5.142
 8880SOL    HW227540   1.432   0.177   5.178
 8881SOL     OW27541   6.240   1.106   1.677
 8881SOL    HW127542   6.311   1.049   1.637
 8881SOL    HW227543   6.176   1.049   1.729
 8882SOL     OW27544   5.105   1.911   0.057
 8882SOL    HW127545   5.055   1.992   0.024
 8882SOL    HW227546   5.151   1.867   7.009
 8883SOL     OW27547   5.879   1.393   5.807
 8883SOL    HW127548   5.849   1.411   5.901
 8883SOL    HW227549   5.802   1.406   5.744
 8884SOL     OW27550   0.758   1.259   6.529
 8884SOL    HW127551   0.785   1.165   6.507
 8884SOL    HW227552   0.839   1.315   6.542
 8885SOL     OW27553   5.722   3.701   1.749
 8885SOL    HW127554   5.805   3.730   1.796
 8885SOL    HW227555   5.746   3.652   1.665
 8886SOL     OW27556   3.179   6.409   6.029
 8886SOL    HW127557   3.094   6.357   6.036
 8886SOL    HW227558   3.223   6.414   6.119
 8887SOL     OW27559   1.618   1.167   0.032
 8887SOL    HW127560   1.681   1.103   7.018
 8887SOL    HW227561   1.569   1.218   6.990
 8888SOL     OW27562   1.724   1.773   3.142
 8888SOL    HW127563   1.648   1.839   3.139
 8888SOL    HW227564   1.690   1.682   3.116
 8889SOL     OW27565   3.433   0.853   5.796
 8889SOL    HW127566   3.424   0.820   5.890
 8889SOL    HW227567   3.427   0.776   5.732
 8890SOL     OW27568   6.201   5.661   3.020
 8890SOL    HW127569   6.229   5.577   3.066
 8890SOL    HW227570   6.112   5.648   2.976
 8891SOL     OW27571   3.528   2.423   6.449
 8891SOL    HW127572   3.518   2.498   6.385
 8891SOL    HW227573   3.450   2.361   6.440
 8892SOL     OW27574   0.884   0.634   3.623
 8892SOL    HW127575   0.849   0.542   3.640
 8892SOL    HW227576   0.979   0.629   3.592
 8893SOL     OW27577   0.156   0.327   0.735
 8893SOL    HW127578   0.253   0.306   0.731
 8893SOL    HW227579   0.141   0.406   0.795
 8894SOL     OW27580   5.060   2.988   5.342
 8894SOL    HW127581   5.120   3.034   5.408
 8894SOL    HW227582   5.080   2.890   5.343
 8895SOL     OW27583   1.063   1.331   3.500
 8895SOL    HW127584   1.099   1.424   3.498
 8895SOL    HW227585   0.969   1.332   3.535
 8896SOL     OW27586   1.658   3.850   4.243
 8896SOL    HW127587   1.591   3.921   4.265
 8896SOL    HW227588   1.721   3.883   4.173
 8897SOL     OW27589   0.440   1.803   2.203
 8897SOL    HW127590   0.539   1.808   2.214
 8897SOL    HW227591   0.417   1.800   2.106
 8898SOL     OW27592   1.426   2.097   5.289
 8898SOL    HW127593   1.487   2.110   5.210
 8898SOL    HW227594   1.360   2.173   5.292
 8899SOL     OW27595   3.929   6.844   3.218
 8899SOL    HW127596   4.009   6.899   3.196
 8899SOL    HW227597   3.846   6.895   3.197
 8900SOL     OW27598   5.986   1.778   3.441
 8900SOL    HW127599   5.963   1.688   3.479
 8900SOL    HW227600   6.069   1.812   3.484
 8901SOL     OW27601   0.968   6.974   2.182
 8901SOL    HW127602   0.968   6.878   2.155
 8901SOL    HW227603   0.980   6.980   2.281
 8902SOL     OW27604   4.411   6.757   5.695
 8902SOL    HW127605   4.323   6.712   5.681
 8902SOL    HW227606   4.399   6.856   5.693
 8903SOL     OW27607   5.904   1.449   2.963
 8903SOL    HW127608   5.995   1.443   3.005
 8903SOL    HW227609   5.874   1.359   2.935
 8904SOL     OW27610   2.372   4.392   4.096
 8904SOL    HW127611   2.384   4.473   4.153
 8904SOL    HW227612   2.317   4.324   4.145
 8905SOL     OW27613   2.130   4.493   5.013
 8905SOL    HW127614   2.211   4.516   4.959
 8905SOL    HW227615   2.146   4.408   5.062
 8906SOL     OW27616   1.501   4.969   4.136
 8906SOL    HW127617   1.589   5.015   4.126
 8906SOL    HW227618   1.508   4.875   4.104
 8907SOL     OW27619   4.001   2.967   6.821
 8907SOL    HW127620   4.067   2.998   6.752
 8907SOL    HW227621   3.975   3.045   6.878
 8908SOL     OW27622   1.056   2.950   2.917
 8908SOL    HW127623   1.042   3.048   2.906
 8908SOL    HW227624   1.122   2.918   2.849
 8909SOL     OW27625   3.455   0.070   4.609
 8909SOL    HW127626   3.401   7.015   4.598
 8909SOL    HW227627   3.394   0.148   4.623
 8910SOL     OW27628   4.378   3.028   6.978
 8910SOL    HW127629   4.328   2.943   6.997
 8910SOL    HW227630   4.410   3.068   0.035
 8911SOL     OW27631   5.206   3.765   4.821
 8911SOL    HW127632   5.228   3.820   4.740
 8911SOL    HW227633   5.130   3.704   4.800
 8912SOL     OW27634   3.667   0.984   0.330
 8912SOL    HW127635   3.686   1.071   0.285
 8912SOL    HW227636   3.754   0.939   0.354
 8913SOL     OW27637   3.712   3.549   1.808
 8913SOL    HW127638   3.733   3.482   1.879
 8913SOL    HW227639   3.616   3.544   1.784
 8914SOL     OW27640   5.603   4.385   3.110
 8914SOL    HW127641   5.636   4.458   3.051
 8914SOL    HW227642   5.548   4.424   3.184
 8915SOL     OW27643   1.151   5.470   1.700
 8915SOL    HW127644   1.225   5.474   1.767
 8915SOL    HW227645   1.096   5.388   1.715
 8916SOL     OW27646   5.391   2.219   1.007
 8916SOL    HW127647   5.320   2.227   1.077
 8916SOL    HW227648   5.430   2.309   0.988
 8917SOL     OW27649   5.689   3.881   6.038
 8917SOL    HW127650   5.708   3.971   6.078
 8917SOL    HW227651   5.592   3.860   6.046
 8918SOL     OW27652   5.192   4.916   5.444
 8918SOL    HW127653   5.096   4.890   5.433
 8918SOL    HW227654   5.200   4.985   5.515
 8919SOL     OW27655   1.954   3.136   1.055
 8919SOL    HW127656   1.916   3.086   1.133
 8919SOL    HW227657   2.029   3.194   1.086
 8920SOL     OW27658   5.890   5.491   5.589
 8920SOL    HW127659   5.918   5.403   5.629
 8920SOL    HW227660   5.925   5.566   5.645
 8921SOL     OW27661   0.452   5.384   3.200
 8921SOL    HW127662   0.503   5.453   3.251
 8921SOL    HW227663   0.367   5.425   3.165
 8922SOL     OW27664   1.263   2.938   0.686
 8922SOL    HW127665   1.184   2.994   0.659
 8922SOL    HW227666   1.236   2.876   0.759
 8923SOL     OW27667   2.125   5.398   4.192
 8923SOL    HW127668   2.110   5.497   4.197
 8923SOL    HW227669   2.041   5.350   4.215
 8924SOL     OW27670   1.821   6.408   4.359
 8924SOL    HW127671   1.909   6.378   4.322
 8924SOL    HW227672   1.747   6.367   4.306
 8925SOL     OW27673   4.610   5.532   1.380
 8925SOL    HW127674   4.673   5.508   1.454
 8925SOL    HW227675   4.663   5.566   1.302
 8926SOL     OW27676   5.576   6.722   0.244
 8926SOL    HW127677   5.557   6.625   0.259
 8926SOL    HW227678   5.494   6.775   0.266
 8927SOL     OW27679   2.911   1.969   5.045
 8927SOL    HW127680   2.978   2.025   5.095
 8927SOL    HW227681   2.957   1.918   4.973
 8928SOL     OW27682   1.912   0.131   5.880
 8928SOL    HW127683   1.952   0.169   5.964
 8928SOL    HW227684   1.842   0.063   5.905
 8929SOL     OW27685   4.661   4.274   2.982
 8929SOL    HW127686   4.706   4.258   3.070
 8929SOL    HW227687   4.715   4.232   2.909
 8930SOL     OW27688   0.587   5.594   5.199
 8930SOL    HW127689   0.494   5.624   5.219
 8930SOL    HW227690   0.653   5.652   5.248
 8931SOL     OW27691   5.710   0.931   1.965
 8931SOL    HW127692   5.675   0.881   2.044
 8931SOL    HW227693   5.644   0.926   1.890
 8932SOL     OW27694   3.500   0.285   6.365
 8932SOL    HW127695   3.412   0.331   6.377
 8932SOL    HW227696   3.486   0.186   6.362
 8933SOL     OW27697   1.404   0.687   5.483
 8933SOL    HW127698   1.355   0.772   5.463
 8933SOL    HW227699   1.497   0.694   5.447
 8934SOL     OW27700   2.409   6.234   3.163
 8934SOL    HW127701   2.344   6.307   3.185
 8934SOL    HW227702   2.430   6.237   3.065
 8935SOL     OW27703   4.907   2.263   1.980
 8935SOL    HW127704   4.852   2.183   2.001
 8935SOL    HW227705   4.911   2.324   2.060
 8936SOL     OW27706   0.999   3.726   2.521
 8936SOL    HW127707   1.059   3.793   2.476
 8936SOL    HW227708   1.039   3.635   2.512
 8937SOL     OW27709   3.588   6.091   5.157
 8937SOL    HW127710   3.495   6.102   5.191
 8937SOL    HW227711   3.652   6.086   5.234
 8938SOL     OW27712   4.400   6.406   2.480
 8938SOL    HW127713   4.500   6.406   2.487
 8938SOL    HW227714   4.365   6.316   2.506
 8939SOL     OW27715   0.011   3.278   5.640
 8939SOL    HW127716   6.975   3.226   5.585
 8939SOL    HW227717   7.025   3.257   5.737
 8940SOL     OW27718   6.024   3.855   2.739
 8940SOL    HW127719   5.932   3.884   2.762
 8940SOL    HW227720   6.045   3.769   2.784
 8941SOL     OW27721   5.985   2.667   4.056
 8941SOL    HW127722   6.016   2.634   3.967
 8941SOL    HW227723   5.917   2.739   4.044
 8942SOL     OW27724   5.095   6.258   4.450
 8942SOL    HW127725   4.998   6.284   4.448
 8942SOL    HW227726   5.150   6.332   4.410
 8943SOL     OW27727   4.245   3.400   0.714
 8943SOL    HW127728   4.209   3.307   0.725
 8943SOL    HW227729   4.315   3.401   0.643
 8944SOL     OW27730   4.404   5.697   5.848
 8944SOL    HW127731   4.345   5.691   5.767
 8944SOL    HW227732   4.352   5.739   5.923
 8945SOL     OW27733   6.581   4.101   1.964
 8945SOL    HW127734   6.570   4.118   1.867
 8945SOL    HW227735   6.517   4.030   1.993
 8946SOL     OW27736   4.030   1.906   3.795
 8946SOL    HW127737   4.005   2.003   3.799
 8946SOL    HW227738   4.013   1.864   3.885
 8947SOL     OW27739   3.371   5.498   0.580
 8947SOL    HW127740   3.442   5.551   0.533
 8947SOL    HW227741   3.410   5.456   0.662
 8948SOL     OW27742   5.786   6.784   2.941
 8948SOL    HW127743   5.832   6.738   2.865
 8948SOL    HW227744   5.810   6.881   2.940
 8949SOL     OW27745   3.838   6.046   0.897
 8949SOL    HW127746   3.839   6.073   0.801
 8949SOL    HW227747   3.899   5.967   0.910
 8950SOL     OW27748   3.392   3.385   3.607
 8950SOL    HW127749   3.370   3.357   3.700
 8950SOL    HW227750   3.340   3.329   3.542
 8951SOL     OW27751   0.694   0.768   4.135
 8951SOL    HW127752   0.613   0.770   4.195
 8951SOL    HW227753   0.735   0.678   4.139
 8952SOL     OW27754   1.893   4.205   4.757
 8952SOL    HW127755   1.966   4.137   4.757
 8952SOL    HW227756   1.829   4.186   4.683
 8953SOL     OW27757   2.065   5.198   0.766
 8953SOL    HW127758   2.019   5.275   0.723
 8953SOL    HW227759   2.075   5.123   0.701
 8954SOL     OW27760   2.037   3.765   5.723
 8954SOL    HW127761   2.083   3.841   5.770
 8954SOL    HW227762   2.053   3.773   5.625
 8955SOL     OW27763   6.658   2.524   6.499
 8955SOL    HW127764   6.744   2.576   6.501
 8955SOL    HW227765   6.646   2.485   6.408
 8956SOL     OW27766   0.971   6.324   0.854
 8956SOL    HW127767   0.970   6.293   0.758
 8956SOL    HW227768   1.030   6.264   0.907
 8957SOL     OW27769   0.415   0.231   3.975
 8957SOL    HW127770   0.361   0.307   3.940
 8957SOL    HW227771   0.358   0.175   4.035
 8958SOL     OW27772   0.169   2.814   4.348
 8958SOL    HW127773   0.199   2.813   4.443
 8958SOL    HW227774   0.190   2.902   4.306
 8959SOL     OW27775   5.505   1.277   3.576
 8959SOL    HW127776   5.508   1.345   3.650
 8959SOL    HW227777   5.419   1.287   3.526
 8960SOL     OW27778   3.359   6.589   1.706
 8960SOL    HW127779   3.368   6.654   1.781
 8960SOL    HW227780   3.437   6.526   1.707
 8961SOL     OW27781   2.496   2.424   5.484
 8961SOL    HW127782   2.422   2.361   5.461
 8961SOL    HW227783   2.575   2.406   5.425
 8962SOL     OW27784   6.734   5.655   0.680
 8962SOL    HW127785   6.766   5.561   0.694
 8962SOL    HW227786   6.745   5.680   0.583
 8963SOL     OW27787   2.191   5.362   5.396
 8963SOL    HW127788   2.099   5.363   5.435
 8963SOL    HW227789   2.236   5.276   5.420
 8964SOL     OW27790   1.675   3.695   3.883
 8964SOL    HW127791   1.734   3.776   3.886
 8964SOL    HW227792   1.690   3.640   3.965
 8965SOL     OW27793   2.974   6.936   6.233
 8965SOL    HW127794   3.004   6.948   6.138
 8965SOL    HW227795   3.052   6.949   6.294
 8966SOL     OW27796   4.144   6.631   5.368
 8966SOL    HW127797   4.184   6.540   5.354
 8966SOL    HW227798   4.176   6.693   5.297
 8967SOL     OW27799   2.090   0.090   3.108
 8967SOL    HW127800   2.121   7.024   3.108
 8967SOL    HW227801   2.168   0.150   3.087
 8968SOL     OW27802   2.691   5.731   2.578
 8968SOL    HW127803   2.781   5.693   2.600
 8968SOL    HW227804   2.623   5.658   2.582
 8969SOL     OW27805   6.612   0.601   1.173
 8969SOL    HW127806   6.583   0.687   1.133
 8969SOL    HW227807   6.712   0.598   1.179
 8970SOL     OW27808   2.650   2.039   4.691
 8970SOL    HW127809   2.744   2.006   4.680
 8970SOL    HW227810   2.649   2.118   4.751
 8971SOL     OW27811   2.966   6.028   1.144
 8971SOL    HW127812   2.969   6.110   1.201
 8971SOL    HW227813   2.887   5.972   1.170
 8972SOL     OW27814   6.950   4.103   0.182
 8972SOL    HW127815   6.985   4.141   0.268
 8972SOL    HW227816   6.950   4.174   0.111
 8973SOL     OW27817   2.725   1.902   3.201
 8973SOL    HW127818   2.817   1.926   3.170
 8973SOL    HW227819   2.685   1.835   3.138
 8974SOL     OW27820   0.668   4.784   5.411
 8974SOL    HW127821   0.661   4.850   5.336
 8974SOL    HW227822   0.730   4.710   5.385
 8975SOL     OW27823   1.249   3.792   6.295
 8975SOL    HW127824   1.265   3.697   6.322
 8975SOL    HW227825   1.330   3.847   6.317
 8976SOL     OW27826   5.142   6.882   1.360
 8976SOL    HW127827   5.214   6.929   1.410
 8976SOL    HW227828   5.056   6.892   1.409
 8977SOL     OW27829   0.911   5.324   6.291
 8977SOL    HW127830   0.910   5.343   6.389
 8977SOL    HW227831   0.826   5.357   6.250
 8978SOL     OW27832   6.697   5.240   4.592
 8978SOL    HW127833   6.598   5.230   4.582
 8978SOL    HW227834   6.725   5.205   4.682
 8979SOL     OW27835   1.788   4.884   3.147
 8979SOL    HW127836   1.878   4.925   3.137
 8979SOL    HW227837   1.784   4.830   3.231
 8980SOL     OW27838   4.772   1.332   6.638
 8980SOL    HW127839   4.681   1.311   6.603
 8980SOL    HW227840   4.804   1.419   6.600
 8981SOL     OW27841   3.922   2.360   6.672
 8981SOL    HW127842   3.863   2.424   6.721
 8981SOL    HW227843   3.933   2.277   6.726
 8982SOL     OW27844   0.206   0.802   3.639
 8982SOL    HW127845   0.243   0.815   3.547
 8982SOL    HW227846   0.107   0.806   3.636
 8983SOL     OW27847   1.335   6.823   2.335
 8983SOL    HW127848   1.308   6.843   2.430
 8983SOL    HW227849   1.330   6.908   2.281
 8984SOL     OW27850   6.554   0.910   3.546
 8984SOL    HW127851   6.521   0.820   3.517
 8984SOL    HW227852   6.591   0.903   3.639
 8985SOL     OW27853   5.278   0.311   0.199
 8985SOL    HW127854   5.228   0.395   0.177
 8985SOL    HW227855   5.343   0.291   0.127
 8986SOL     OW27856   1.334   0.088   6.261
 8986SOL    HW127857   1.314   0.154   6.333
 8986SOL    HW227858   1.268   0.012   6.266
 8987SOL     OW27859   3.185   6.405   3.290
 8987SOL    HW127860   3.183   6.451   3.201
 8987SOL    HW227861   3.237   6.460   3.355
 8988SOL     OW27862   1.693   6.268   1.382
 8988SOL    HW127863   1.767   6.285   1.316
 8988SOL    HW227864   1.727   6.209   1.455
 8989SOL     OW27865   6.111   1.523   2.379
 8989SOL    HW127866   6.178   1.491   2.313
 8989SOL    HW227867   6.076   1.445   2.432
 8990SOL     OW27868   3.777   1.904   3.467
 8990SOL    HW127869   3.695   1.897   3.411
 8990SOL    HW227870   3.830   1.819   3.459
 8991SOL     OW27871   1.872   2.212   0.997
 8991SOL    HW127872   1.847   2.134   1.054
 8991SOL    HW227873   1.801   2.228   0.928
 8992SOL     OW27874   0.911   5.427   5.180
 8992SOL    HW127875   0.819   5.390   5.165
 8992SOL    HW227876   0.908   5.527   5.179
 8993SOL     OW27877   5.320   4.334   3.739
 8993SOL    HW127878   5.335   4.353   3.836
 8993SOL    HW227879   5.364   4.247   3.715
 8994SOL     OW27880   1.177   6.122   3.045
 8994SOL    HW127881   1.124   6.081   3.118
 8994SOL    HW227882   1.176   6.061   2.965
 8995SOL     OW27883   1.635   3.908   3.126
 8995SOL    HW127884   1.704   3.935   3.193
 8995SOL    HW227885   1.627   3.808   3.124
 8996SOL     OW27886   3.265   4.181   1.391
 8996SOL    HW127887   3.325   4.246   1.344
 8996SOL    HW227888   3.320   4.107   1.429
 8997SOL     OW27889   4.365   1.269   4.850
 8997SOL    HW127890   4.331   1.268   4.945
 8997SOL    HW227891   4.298   1.316   4.792
 8998SOL     OW27892   0.799   1.538   5.909
 8998SOL    HW127893   0.707   1.515   5.942
 8998SOL    HW227894   0.856   1.566   5.987
 8999SOL     OW27895   6.882   2.845   5.027
 8999SOL    HW127896   6.966   2.885   4.992
 8999SOL    HW227897   6.846   2.780   4.960
 9000SOL     OW27898   4.214   5.187   1.534
 9000SOL    HW127899   4.244   5.094   1.513
 9000SOL    HW227900   4.282   5.252   1.500
 9001SOL     OW27901   1.336   3.462   3.803
 9001SOL    HW127902   1.286   3.494   3.884
 9001SOL    HW227903   1.292   3.379   3.768
 9002SOL     OW27904   4.773   3.058   6.578
 9002SOL    HW127905   4.826   2.977   6.552
 9002SOL    HW227906   4.743   3.049   6.673
 9003SOL     OW27907   0.346   3.518   0.418
 9003SOL    HW127908   0.375   3.609   0.446
 9003SOL    HW227909   0.398   3.449   0.469
 9004SOL     OW27910   5.655   5.807   1.104
 9004SOL    HW127911   5.699   5.799   1.014
 9004SOL    HW227912   5.565   5.764   1.100
 9005SOL     OW27913   4.684   4.304   3.878
 9005SOL    HW127914   4.707   4.246   3.956
 9005SOL    HW227915   4.763   4.311   3.818
 9006SOL     OW27916   3.127   6.385   2.549
 9006SOL    HW127917   3.044   6.401   2.495
 9006SOL    HW227918   3.192   6.332   2.495
 9007SOL     OW27919   1.896   0.488   5.497
 9007SOL    HW127920   1.957   0.549   5.446
 9007SOL    HW227921   1.946   0.451   5.576
 9008SOL     OW27922   6.779   5.174   1.570
 9008SOL    HW127923   6.795   5.208   1.662
 9008SOL    HW227924   6.854   5.112   1.544
 9009SOL     OW27925   4.167   6.638   6.740
 9009SOL    HW127926   4.237   6.699   6.777
 9009SOL    HW227927   4.077   6.666   6.773
 9010SOL     OW27928   6.636   6.378   4.660
 9010SOL    HW127929   6.723   6.408   4.622
 9010SOL    HW227930   6.607   6.293   4.614
 9011SOL     OW27931   4.422   2.434   2.476
 9011SOL    HW127932   4.333   2.431   2.429
 9011SOL    HW227933   4.494   2.408   2.412
 9012SOL     OW27934   4.115   4.811   2.104
 9012SOL    HW127935   4.203   4.807   2.150
 9012SOL    HW227936   4.126   4.853   2.013
 9013SOL     OW27937   2.955   6.409   0.820
 9013SOL    HW127938   2.865   6.396   0.862
 9013SOL    HW227939   3.025   6.407   0.890
 9014SOL     OW27940   1.988   1.465   2.485
 9014SOL    HW127941   1.992   1.389   2.420
 9014SOL    HW227942   2.043   1.443   2.566
 9015SOL     OW27943   6.478   2.314   4.780
 9015SOL    HW127944   6.384   2.280   4.782
 9015SOL    HW227945   6.507   2.333   4.874
 9016SOL     OW27946   0.078   4.846   0.150
 9016SOL    HW127947   0.064   4.756   0.108
 9016SOL    HW227948   0.027   4.851   0.236
 9017SOL     OW27949   6.102   2.852   1.929
 9017SOL    HW127950   6.027   2.861   1.995
 9017SOL    HW227951   6.179   2.806   1.972
 9018SOL     OW27952   5.592   2.400   6.490
 9018SOL    HW127953   5.538   2.456   6.552
 9018SOL    HW227954   5.679   2.446   6.470
 9019SOL     OW27955   2.007   5.791   0.276
 9019SOL    HW127956   1.911   5.781   0.301
 9019SOL    HW227957   2.064   5.781   0.357
 9020SOL     OW27958   0.782   5.266   4.715
 9020SOL    HW127959   0.718   5.201   4.755
 9020SOL    HW227960   0.798   5.243   4.619
 9021SOL     OW27961   6.666   5.552   4.876
 9021SOL    HW127962   6.694   5.626   4.937
 9021SOL    HW227963   6.737   5.540   4.806
 9022SOL     OW27964   1.053   6.824   5.591
 9022SOL    HW127965   1.125   6.890   5.611
 9022SOL    HW227966   1.082   6.764   5.517
 9023SOL     OW27967   3.573   3.737   4.217
 9023SOL    HW127968   3.500   3.733   4.285
 9023SOL    HW227969   3.639   3.664   4.234
 9024SOL     OW27970   1.673   0.227   0.537
 9024SOL    HW127971   1.771   0.207   0.531
 9024SOL    HW227972   1.623   0.165   0.478
 9025SOL     OW27973   0.256   2.601   0.613
 9025SOL    HW127974   0.187   2.673   0.626
 9025SOL    HW227975   0.307   2.589   0.698
 9026SOL     OW27976   2.622   4.683   6.382
 9026SOL    HW127977   2.618   4.759   6.317
 9026SOL    HW227978   2.584   4.601   6.341
 9027SOL     OW27979   1.041   3.463   1.844
 9027SOL    HW127980   1.055   3.368   1.818
 9027SOL    HW227981   1.089   3.523   1.780
 9028SOL     OW27982   2.057   3.912   5.475
 9028SOL    HW127983   2.155   3.909   5.454
 9028SOL    HW227984   2.005   3.910   5.390
 9029SOL     OW27985   5.010   5.564   2.994
 9029SOL    HW127986   4.946   5.504   2.947
 9029SOL    HW227987   5.096   5.516   3.011
 9030SOL     OW27988   5.097   2.515   2.190
 9030SOL    HW127989   5.038   2.552   2.262
 9030SOL    HW227990   5.090   2.574   2.109
 9031SOL     OW27991   2.458   0.663   2.233
 9031SOL    HW127992   2.552   0.637   2.212
 9031SOL    HW227993   2.454   0.760   2.255
 9032SOL     OW27994   0.500   3.983   2.829
 9032SOL    HW127995   0.477   3.893   2.793
 9032SOL    HW227996   0.534   3.973   2.923
 9033SOL     OW27997   0.598   2.842   2.396
 9033SOL    HW127998   0.626   2.747   2.390
 9033SOL    HW227999   0.513   2.849   2.448
 9034SOL     OW28000   1.247   6.651   0.997
 9034SOL    HW128001   1.155   6.614   0.984
 9034SOL    HW228002   1.304   6.628   0.918
 9035SOL     OW28003   5.924   1.339   4.343
 9035SOL    HW128004   5.853   1.408   4.353
 9035SOL    HW228005   5.935   1.316   4.246
 9036SOL     OW28006   6.805   1.878   4.082
 9036SOL    HW128007   6.834   1.783   4.092
 9036SOL    HW228008   6.852   1.935   4.149
 9037SOL     OW28009   2.819   4.380   6.254
 9037SOL    HW128010   2.848   4.465   6.208
 9037SOL    HW228011   2.724   4.389   6.282
 9038SOL     OW28012   3.943   5.869   5.548
 9038SOL    HW128013   3.937   5.896   5.452
 9038SOL    HW228014   3.863   5.814   5.572
 9039SOL     OW28015   2.790   5.074   0.226
 9039SOL    HW128016   2.870   5.034   0.270
 9039SOL    HW228017   2.736   5.002   0.183
 9040SOL     OW28018   3.385   1.484   2.642
 9040SOL    HW128019   3.327   1.510   2.565
 9040SOL    HW228020   3.347   1.403   2.686
 9041SOL     OW28021   2.472   2.781   5.273
 9041SOL    HW128022   2.486   2.725   5.191
 9041SOL    HW228023   2.465   2.877   5.247
 9042SOL     OW28024   1.463   5.238   2.543
 9042SOL    HW128025   1.494   5.145   2.523
 9042SOL    HW228026   1.417   5.239   2.631
 9043SOL     OW28027   0.688   1.584   6.708
 9043SOL    HW128028   0.608   1.531   6.738
 9043SOL    HW228029   0.712   1.651   6.778
 9044SOL     OW28030   0.652   4.222   1.391
 9044SOL    HW128031   0.654   4.312   1.347
 9044SOL    HW228032   0.558   4.201   1.419
 9045SOL     OW28033   1.657   4.723   5.283
 9045SOL    HW128034   1.660   4.811   5.235
 9045SOL    HW228035   1.652   4.649   5.216
 9046SOL     OW28036   4.246   4.634   6.226
 9046SOL    HW128037   4.312   4.701   6.261
 9046SOL    HW228038   4.153   4.671   6.235
 9047SOL     OW28039   0.773   5.009   3.906
 9047SOL    HW128040   0.860   5.057   3.919
 9047SOL    HW228041   0.739   4.977   3.995
 9048SOL     OW28042   1.287   2.023   5.957
 9048SOL    HW128043   1.314   1.951   6.021
 9048SOL    HW228044   1.337   2.013   5.871
 9049SOL     OW28045   4.383   5.589   5.481
 9049SOL    HW128046   4.465   5.641   5.455
 9049SOL    HW228047   4.325   5.577   5.401
 9050SOL     OW28048   0.711   3.527   0.125
 9050SOL    HW128049   0.775   3.571   0.062
 9050SOL    HW228050   0.649   3.596   0.164
 9051SOL     OW28051   0.042   5.754   6.534
 9051SOL    HW128052   6.985   5.771   6.486
 9051SOL    HW228053   0.119   5.770   6.473
 9052SOL     OW28054   2.079   4.439   4.416
 9052SOL    HW128055   2.031   4.472   4.497
 9052SOL    HW228056   2.045   4.487   4.335
 9053SOL     OW28057   0.902   0.562   2.831
 9053SOL    HW128058   0.813   0.537   2.869
 9053SOL    HW228059   0.905   0.538   2.734
 9054SOL     OW28060   1.395   0.096   1.955
 9054SOL    HW128061   1.384   0.029   1.882
 9054SOL    HW228062   1.347   0.065   2.037
 9055SOL     OW28063   1.196   3.234   5.234
 9055SOL    HW128064   1.134   3.156   5.223
 9055SOL    HW228065   1.281   3.203   5.278
 9056SOL     OW28066   5.385   2.164   1.960
 9056SOL    HW128067   5.398   2.254   1.919
 9056SOL    HW228068   5.288   2.151   1.982
 9057SOL     OW28069   3.709   0.107   6.000
 9057SOL    HW128070   3.618   0.067   5.985
 9057SOL    HW228071   3.755   0.118   5.912
 9058SOL     OW28072   2.342   2.880   3.699
 9058SOL    HW128073   2.394   2.794   3.700
 9058SOL    HW228074   2.309   2.898   3.606
 9059SOL     OW28075   0.672   6.766   2.294
 9059SOL    HW128076   0.747   6.821   2.330
 9059SOL    HW228077   0.602   6.826   2.256
 9060SOL     OW28078   0.420   4.910   0.466
 9060SOL    HW128079   0.422   4.868   0.375
 9060SOL    HW228080   0.508   4.895   0.511
 9061SOL     OW28081   3.928   4.790   2.591
 9061SOL    HW128082   4.008   4.760   2.539
 9061SOL    HW228083   3.958   4.847   2.668
 9062SOL     OW28084   6.747   6.150   2.965
 9062SOL    HW128085   6.838   6.156   3.005
 9062SOL    HW228086   6.747   6.082   2.892
 9063SOL     OW28087   5.988   6.709   0.759
 9063SOL    HW128088   5.969   6.611   0.756
 9063SOL    HW228089   5.950   6.753   0.677
 9064SOL     OW28090   1.388   6.217   3.452
 9064SOL    HW128091   1.397   6.175   3.542
 9064SOL    HW228092   1.297   6.200   3.416
 9065SOL     OW28093   3.139   4.043   0.122
 9065SOL    HW128094   3.044   4.021   0.100
 9065SOL    HW228095   3.172   4.114   0.061
 9066SOL     OW28096   5.316   5.443   3.872
 9066SOL    HW128097   5.296   5.540   3.881
 9066SOL    HW228098   5.387   5.429   3.803
 9067SOL     OW28099   2.067   0.265   3.777
 9067SOL    HW128100   1.993   0.332   3.765
 9067SOL    HW228101   2.149   0.312   3.809
 9068SOL     OW28102   5.491   0.802   4.655
 9068SOL    HW128103   5.459   0.873   4.718
 9068SOL    HW228104   5.553   0.741   4.704
 9069SOL     OW28105   4.512   2.580   1.103
 9069SOL    HW128106   4.576   2.645   1.061
 9069SOL    HW228107   4.564   2.511   1.153
 9070SOL     OW28108   0.861   0.553   6.277
 9070SOL    HW128109   0.810   0.478   6.233
 9070SOL    HW228110   0.821   0.640   6.249
 9071SOL     OW28111   5.768   2.439   0.373
 9071SOL    HW128112   5.847   2.381   0.394
 9071SOL    HW228113   5.746   2.496   0.452
 9072SOL     OW28114   5.957   0.594   1.495
 9072SOL    HW128115   6.041   0.594   1.550
 9072SOL    HW228116   5.967   0.658   1.418
 9073SOL     OW28117   4.769   3.199   6.128
 9073SOL    HW128118   4.710   3.183   6.049
 9073SOL    HW228119   4.837   3.126   6.135
 9074SOL     OW28120   2.239   0.475   3.246
 9074SOL    HW128121   2.184   0.450   3.167
 9074SOL    HW228122   2.326   0.425   3.244
 9075SOL     OW28123   5.046   5.757   1.508
 9075SOL    HW128124   5.040   5.658   1.510
 9075SOL    HW228125   5.047   5.792   1.601
 9076SOL     OW28126   0.901   6.730   2.482
 9076SOL    HW128127   0.920   6.828   2.475
 9076SOL    HW228128   0.833   6.714   2.553
 9077SOL     OW28129   6.455   0.431   6.882
 9077SOL    HW128130   6.424   0.497   6.950
 9077SOL    HW228131   6.388   0.428   6.807
 9078SOL     OW28132   5.188   6.322   6.845
 9078SOL    HW128133   5.120   6.334   6.917
 9078SOL    HW228134   5.176   6.232   6.803
 9079SOL     OW28135   3.068   1.370   6.337
 9079SOL    HW128136   3.129   1.295   6.365
 9079SOL    HW228137   3.122   1.441   6.291
 9080SOL     OW28138   6.752   4.930   0.879
 9080SOL    HW128139   6.840   4.910   0.922
 9080SOL    HW228140   6.733   4.861   0.809
 9081SOL     OW28141   5.122   2.061   6.097
 9081SOL    HW128142   5.120   1.962   6.107
 9081SOL    HW228143   5.217   2.092   6.094
 9082SOL     OW28144   2.813   4.695   6.871
 9082SOL    HW128145   2.778   4.699   6.777
 9082SOL    HW228146   2.861   4.780   6.892
 9083SOL     OW28147   3.438   0.296   0.764
 9083SOL    HW128148   3.451   0.395   0.765
 9083SOL    HW228149   3.389   0.267   0.846
 9084SOL     OW28150   0.342   4.318   4.458
 9084SOL    HW128151   0.321   4.294   4.553
 9084SOL    HW228152   0.420   4.263   4.427
 9085SOL     OW28153   3.537   4.959   2.326
 9085SOL    HW128154   3.541   4.898   2.247
 9085SOL    HW228155   3.471   4.923   2.393
 9086SOL     OW28156   0.425   1.528   0.279
 9086SOL    HW128157   0.376   1.450   0.239
 9086SOL    HW228158   0.371   1.567   0.353
 9087SOL     OW28159   4.755   1.823   0.002
 9087SOL    HW128160   4.764   1.744   0.063
 9087SOL    HW228161   4.692   1.801   6.957
 9088SOL     OW28162   5.800   6.495   0.473
 9088SOL    HW128163   5.746   6.536   0.547
 9088SOL    HW228164   5.742   6.483   0.392
 9089SOL     OW28165   4.500   5.512   3.125
 9089SOL    HW128166   4.455   5.592   3.084
 9089SOL    HW228167   4.525   5.533   3.219
 9090SOL     OW28168   6.494   4.912   4.826
 9090SOL    HW128169   6.445   4.958   4.899
 9090SOL    HW228170   6.551   4.839   4.864
 9091SOL     OW28171   1.685   1.611   2.288
 9091SOL    HW128172   1.723   1.646   2.202
 9091SOL    HW228173   1.639   1.523   2.270
 9092SOL     OW28174   3.647   1.677   5.180
 9092SOL    HW128175   3.598   1.612   5.238
 9092SOL    HW228176   3.596   1.763   5.176
 9093SOL     OW28177   1.568   4.172   0.901
 9093SOL    HW128178   1.555   4.077   0.874
 9093SOL    HW228179   1.624   4.177   0.983
 9094SOL     OW28180   0.776   2.612   6.818
 9094SOL    HW128181   0.818   2.551   6.750
 9094SOL    HW228182   0.840   2.625   6.894
 9095SOL     OW28183   2.831   2.372   0.868
 9095SOL    HW128184   2.817   2.399   0.963
 9095SOL    HW228185   2.791   2.282   0.853
 9096SOL     OW28186   0.003   4.147   3.247
 9096SOL    HW128187   7.016   4.085   3.170
 9096SOL    HW228188   0.075   4.109   3.306
 9097SOL     OW28189   6.779   5.807   5.744
 9097SOL    HW128190   6.687   5.783   5.774
 9097SOL    HW228191   6.845   5.780   5.813
 9098SOL     OW28192   3.283   3.461   5.452
 9098SOL    HW128193   3.327   3.528   5.511
 9098SOL    HW228194   3.267   3.377   5.504
 9099SOL     OW28195   2.282   2.605   6.062
 9099SOL    HW128196   2.302   2.602   6.160
 9099SOL    HW228197   2.355   2.559   6.012
 9100SOL     OW28198   1.675   1.831   0.742
 9100SOL    HW128199   1.767   1.828   0.702
 9100SOL    HW228200   1.607   1.843   0.669
 9101SOL     OW28201   2.587   1.893   0.552
 9101SOL    HW128202   2.541   1.838   0.483
 9101SOL    HW228203   2.543   1.983   0.557
 9102SOL     OW28204   4.341   6.155   2.563
 9102SOL    HW128205   4.438   6.141   2.585
 9102SOL    HW228206   4.297   6.204   2.638
 9103SOL     OW28207   1.485   3.871   6.412
 9103SOL    HW128208   1.572   3.881   6.364
 9103SOL    HW228209   1.482   3.935   6.489
 9104SOL     OW28210   4.915   6.927   3.086
 9104SOL    HW128211   4.882   6.843   3.130
 9104SOL    HW228212   4.920   6.912   2.987
 9105SOL     OW28213   3.351   2.343   6.033
 9105SOL    HW128214   3.261   2.302   6.048
 9105SOL    HW228215   3.419   2.271   6.024
 9106SOL     OW28216   6.626   5.581   1.361
 9106SOL    HW128217   6.575   5.611   1.442
 9106SOL    HW228218   6.706   5.529   1.389
 9107SOL     OW28219   4.640   6.913   6.822
 9107SOL    HW128220   4.606   6.929   6.915
 9107SOL    HW228221   4.588   6.968   6.757
 9108SOL     OW28222   3.660   5.645   0.812
 9108SOL    HW128223   3.675   5.713   0.884
 9108SOL    HW228224   3.645   5.691   0.725
 9109SOL     OW28225   3.388   1.639   4.248
 9109SOL    HW128226   3.434   1.627   4.336
 9109SOL    HW228227   3.290   1.650   4.262
 9110SOL     OW28228   0.446   4.010   3.389
 9110SOL    HW128229   0.525   3.986   3.445
 9110SOL    HW228230   0.444   3.952   3.307
 9111SOL     OW28231   3.766   4.564   1.663
 9111SOL    HW128232   3.736   4.594   1.753
 9111SOL    HW228233   3.748   4.636   1.596
 9112SOL     OW28234   0.857   6.457   2.400
 9112SOL    HW128235   0.926   6.385   2.394
 9112SOL    HW228236   0.893   6.534   2.454
 9113SOL     OW28237   2.171   6.730   1.124
 9113SOL    HW128238   2.137   6.720   1.030
 9113SOL    HW228239   2.265   6.694   1.129
 9114SOL     OW28240   3.066   3.771   2.123
 9114SOL    HW128241   3.149   3.790   2.176
 9114SOL    HW228242   3.067   3.824   2.039
 9115SOL     OW28243   1.283   4.771   3.880
 9115SOL    HW128244   1.275   4.757   3.978
 9115SOL    HW228245   1.380   4.765   3.853
 9116SOL     OW28246   3.750   2.671   0.178
 9116SOL    HW128247   3.700   2.725   0.110
 9116SOL    HW228248   3.817   2.614   0.132
 9117SOL     OW28249   1.356   2.529   0.432
 9117SOL    HW128250   1.345   2.451   0.371
 9117SOL    HW228251   1.364   2.613   0.377
 9118SOL     OW28252   0.732   6.712   1.607
 9118SOL    HW128253   0.801   6.639   1.599
 9118SOL    HW228254   0.655   6.679   1.661
 9119SOL     OW28255   6.137   0.178   0.385
 9119SOL    HW128256   6.093   0.165   0.473
 9119SOL    HW228257   6.234   0.155   0.391
 9120SOL     OW28258   6.179   6.728   6.440
 9120SOL    HW128259   6.110   6.791   6.405
 9120SOL    HW228260   6.141   6.636   6.443
 9121SOL     OW28261   1.115   0.473   6.220
 9121SOL    HW128262   1.161   0.520   6.144
 9121SOL    HW228263   1.020   0.503   6.225
 9122SOL     OW28264   6.901   3.597   1.142
 9122SOL    HW128265   6.832   3.572   1.074
 9122SOL    HW228266   6.925   3.516   1.196
 9123SOL     OW28267   1.499   7.009   5.562
 9123SOL    HW128268   1.483   6.952   5.481
 9123SOL    HW228269   1.585   0.029   5.552
 9124SOL     OW28270   0.438   4.236   5.091
 9124SOL    HW128271   0.356   4.186   5.121
 9124SOL    HW228272   0.473   4.291   5.167
 9125SOL     OW28273   4.859   6.020   1.683
 9125SOL    HW128274   4.907   6.101   1.648
 9125SOL    HW228275   4.896   5.938   1.639
 9126SOL     OW28276   5.164   0.839   3.473
 9126SOL    HW128277   5.191   0.753   3.429
 9126SOL    HW228278   5.167   0.828   3.573
 9127SOL     OW28279   5.831   4.849   5.745
 9127SOL    HW128280   5.748   4.884   5.786
 9127SOL    HW228281   5.821   4.751   5.727
 9128SOL     OW28282   4.801   2.898   5.034
 9128SOL    HW128283   4.886   2.863   4.994
 9128SOL    HW228284   4.822   2.971   5.099
 9129SOL     OW28285   3.343   0.982   0.874
 9129SOL    HW128286   3.402   0.963   0.953
 9129SOL    HW228287   3.248   0.968   0.900
 9130SOL     OW28288   5.984   5.503   1.726
 9130SOL    HW128289   5.985   5.557   1.641
 9130SOL    HW228290   5.923   5.547   1.792
 9131SOL     OW28291   0.626   4.806   3.838
 9131SOL    HW128292   0.661   4.899   3.828
 9131SOL    HW228293   0.676   4.760   3.912
 9132SOL     OW28294   1.120   2.854   4.068
 9132SOL    HW128295   1.090   2.783   4.004
 9132SOL    HW228296   1.054   2.862   4.143
 9133SOL     OW28297   1.991   5.076   1.025
 9133SOL    HW128298   1.983   5.111   0.931
 9133SOL    HW228299   1.900   5.055   1.061
 9134SOL     OW28300   3.279   5.206   6.281
 9134SOL    HW128301   3.243   5.197   6.374
 9134SOL    HW228302   3.219   5.264   6.227
 9135SOL     OW28303   1.182   0.255   2.621
 9135SOL    HW128304   1.258   0.319   2.634
 9135SOL    HW228305   1.101   0.305   2.592
 9136SOL     OW28306   3.715   5.411   6.101
 9136SOL    HW128307   3.798   5.367   6.068
 9136SOL    HW228308   3.738   5.476   6.173
 9137SOL     OW28309   3.102   0.373   2.576
 9137SOL    HW128310   3.165   0.306   2.538
 9137SOL    HW228311   3.154   0.453   2.608
 9138SOL     OW28312   3.784   4.537   1.245
 9138SOL    HW128313   3.827   4.446   1.251
 9138SOL    HW228314   3.704   4.531   1.185
 9139SOL     OW28315   4.493   0.740   5.274
 9139SOL    HW128316   4.583   0.780   5.289
 9139SOL    HW228317   4.495   0.643   5.296
 9140SOL     OW28318   6.538   2.167   4.213
 9140SOL    HW128319   6.454   2.201   4.170
 9140SOL    HW228320   6.567   2.230   4.284
 9141SOL     OW28321   5.363   1.427   5.081
 9141SOL    HW128322   5.439   1.362   5.088
 9141SOL    HW228323   5.302   1.416   5.159
 9142SOL     OW28324   1.874   2.741   6.457
 9142SOL    HW128325   1.884   2.838   6.436
 9142SOL    HW228326   1.932   2.687   6.396
 9143SOL     OW28327   6.838   3.904   0.853
 9143SOL    HW128328   6.847   3.809   0.821
 9143SOL    HW228329   6.928   3.939   0.879
 9144SOL     OW28330   1.178   5.913   4.095
 9144SOL    HW128331   1.102   5.922   4.030
 9144SOL    HW228332   1.223   5.825   4.081
 9145SOL     OW28333   1.591   3.202   6.953
 9145SOL    HW128334   1.661   3.243   7.011
 9145SOL    HW228335   1.614   3.218   6.857
 9146SOL     OW28336   0.776   1.569   1.853
 9146SOL    HW128337   0.861   1.559   1.800
 9146SOL    HW228338   0.704   1.516   1.809
 9147SOL     OW28339   4.238   5.391   6.562
 9147SOL    HW128340   4.284   5.475   6.589
 9147SOL    HW228341   4.285   5.313   6.601
 9148SOL     OW28342   3.747   5.090   2.957
 9148SOL    HW128343   3.753   5.116   3.054
 9148SOL    HW228344   3.814   5.018   2.937
 9149SOL     OW28345   6.354   3.512   4.756
 9149SOL    HW128346   6.271   3.548   4.799
 9149SOL    HW228347   6.427   3.507   4.823
 9150SOL     OW28348   3.511   1.255   3.223
 9150SOL    HW128349   3.592   1.251   3.164
 9150SOL    HW228350   3.428   1.259   3.167
 9151SOL     OW28351   6.187   3.526   1.933
 9151SOL    HW128352   6.160   3.473   1.853
 9151SOL    HW228353   6.106   3.559   1.981
 9152SOL     OW28354   1.806   4.519   2.463
 9152SOL    HW128355   1.760   4.573   2.393
 9152SOL    HW228356   1.899   4.554   2.478
 9153SOL     OW28357   2.287   2.661   0.684
 9153SOL    HW128358   2.345   2.630   0.608
 9153SOL    HW228359   2.282   2.761   0.684
 9154SOL     OW28360   0.736   5.027   0.744
 9154SOL    HW128361   0.720   4.943   0.693
 9154SOL    HW228362   0.831   5.030   0.774
 9155SOL     OW28363   2.004   4.949   6.922
 9155SOL    HW128364   2.061   4.890   6.864
 9155SOL    HW228365   2.016   4.922   7.018
 9156SOL     OW28366   4.749   2.596   1.920
 9156SOL    HW128367   4.672   2.565   1.975
 9156SOL    HW228368   4.783   2.684   1.956
 9157SOL     OW28369   5.494   3.932   5.546
 9157SOL    HW128370   5.410   3.908   5.498
 9157SOL    HW228371   5.474   3.996   5.620
 9158SOL     OW28372   0.801   4.489   3.801
 9158SOL    HW128373   0.801   4.430   3.721
 9158SOL    HW228374   0.889   4.535   3.809
 9159SOL     OW28375   0.224   5.904   1.825
 9159SOL    HW128376   0.255   5.827   1.881
 9159SOL    HW228377   0.160   5.960   1.877
 9160SOL     OW28378   0.957   6.161   0.235
 9160SOL    HW128379   0.961   6.258   0.259
 9160SOL    HW228380   0.911   6.150   0.147
 9161SOL     OW28381   5.077   2.675   1.949
 9161SOL    HW128382   5.113   2.764   1.975
 9161SOL    HW228383   4.992   2.686   1.898
 9162SOL     OW28384   5.611   2.948   3.542
 9162SOL    HW128385   5.640   2.854   3.525
 9162SOL    HW228386   5.514   2.949   3.567
 9163SOL     OW28387   3.929   0.824   4.995
 9163SOL    HW128388   3.843   0.792   5.033
 9163SOL    HW228389   3.989   0.856   5.068
 9164SOL     OW28390   2.584   0.534   1.097
 9164SOL    HW128391   2.556   0.439   1.105
 9164SOL    HW228392   2.603   0.556   1.002
 9165SOL     OW28393   5.427   5.946   1.488
 9165SOL    HW128394   5.413   5.886   1.410
 9165SOL    HW228395   5.349   6.008   1.497
 9166SOL     OW28396   3.751   4.943   1.246
 9166SOL    HW128397   3.819   5.017   1.244
 9166SOL    HW228398   3.673   4.969   1.189
 9167SOL     OW28399   0.987   3.621   4.480
 9167SOL    HW128400   0.967   3.523   4.474
 9167SOL    HW228401   0.979   3.651   4.575
 9168SOL     OW28402   4.266   0.971   0.165
 9168SOL    HW128403   4.270   1.064   0.129
 9168SOL    HW228404   4.225   0.971   0.256
 9169SOL     OW28405   0.824   0.234   3.982
 9169SOL    HW128406   0.831   0.196   3.890
 9169SOL    HW228407   0.812   0.160   4.048
 9170SOL     OW28408   6.340   5.294   0.630
 9170SOL    HW128409   6.249   5.324   0.660
 9170SOL    HW228410   6.406   5.309   0.703
 9171SOL     OW28411   4.152   5.748   4.342
 9171SOL    HW128412   4.240   5.727   4.386
 9171SOL    HW228413   4.102   5.663   4.327
 9172SOL     OW28414   1.763   2.088   4.012
 9172SOL    HW128415   1.725   2.149   3.942
 9172SOL    HW228416   1.818   2.141   4.076
 9173SOL     OW28417   6.522   5.380   5.036
 9173SOL    HW128418   6.584   5.312   5.075
 9173SOL    HW228419   6.570   5.432   4.965
 9174SOL     OW28420   0.191   5.373   6.084
 9174SOL    HW128421   0.096   5.399   6.062
 9174SOL    HW228422   0.191   5.311   6.163
 9175SOL     OW28423   1.937   6.538   6.426
 9175SOL    HW128424   2.020   6.485   6.413
 9175SOL    HW228425   1.942   6.622   6.371
 9176SOL     OW28426   1.462   2.639   6.025
 9176SOL    HW128427   1.429   2.718   5.974
 9176SOL    HW228428   1.404   2.625   6.106
 9177SOL     OW28429   1.769   4.492   2.751
 9177SOL    HW128430   1.771   4.590   2.772
 9177SOL    HW228431   1.766   4.480   2.651
 9178SOL     OW28432   1.585   3.735   7.005
 9178SOL    HW128433   1.505   3.699   0.023
 9178SOL    HW228434   1.664   3.676   7.024
 9179SOL     OW28435   3.057   4.442   5.397
 9179SOL    HW128436   3.015   4.354   5.374
 9179SOL    HW228437   3.029   4.510   5.329
 9180SOL     OW28438   5.032   1.377   2.064
 9180SOL    HW128439   5.076   1.359   1.976
 9180SOL    HW228440   5.096   1.357   2.138
 9181SOL     OW28441   3.749   1.058   2.465
 9181SOL    HW128442   3.702   1.068   2.377
 9181SOL    HW228443   3.740   1.143   2.518
 9182SOL     OW28444   2.358   6.889   1.453
 9182SOL    HW128445   2.415   6.807   1.445
 9182SOL    HW228446   2.262   6.863   1.463
 9183SOL     OW28447   5.325   4.856   5.151
 9183SOL    HW128448   5.401   4.841   5.089
 9183SOL    HW228449   5.296   4.768   5.190
 9184SOL     OW28450   5.420   6.998   0.084
 9184SOL    HW128451   5.373   7.027   0.001
 9184SOL    HW228452   5.452   6.904   0.074
 9185SOL     OW28453   5.270   1.336   4.833
 9185SOL    HW128454   5.250   1.427   4.796
 9185SOL    HW228455   5.293   1.344   4.930
 9186SOL     OW28456   5.075   0.924   5.732
 9186SOL    HW128457   5.145   0.936   5.802
 9186SOL    HW228458   5.056   1.012   5.688
 9187SOL     OW28459   1.946   6.575   2.975
 9187SOL    HW128460   2.000   6.561   2.892
 9187SOL    HW228461   1.849   6.567   2.952
 9188SOL     OW28462   3.155   5.606   0.470
 9188SOL    HW128463   3.063   5.611   0.509
 9188SOL    HW228464   3.205   5.531   0.513
 9189SOL     OW28465   5.662   4.668   1.778
 9189SOL    HW128466   5.697   4.743   1.722
 9189SOL    HW228467   5.620   4.600   1.719
 9190SOL     OW28468   1.570   6.018   0.264
 9190SOL    HW128469   1.471   6.008   0.276
 9190SOL    HW228470   1.594   5.995   0.169
 9191SOL     OW28471   6.429   0.242   6.478
 9191SOL    HW128472   6.386   0.192   6.553
 9191SOL    HW228473   6.411   0.340   6.489
 9192SOL     OW28474   1.260   3.369   4.744
 9192SOL    HW128475   1.222   3.349   4.654
 9192SOL    HW228476   1.259   3.286   4.799
 9193SOL     OW28477   4.424   3.902   0.345
 9193SOL    HW128478   4.383   3.991   0.365
 9193SOL    HW228479   4.422   3.845   0.427
 9194SOL     OW28480   3.111   0.433   4.344
 9194SOL    HW128481   3.073   0.477   4.262
 9194SOL    HW228482   3.169   0.357   4.316
 9195SOL     OW28483   1.820   1.547   3.940
 9195SOL    HW128484   1.798   1.573   4.034
 9195SOL    HW228485   1.772   1.608   3.877
 9196SOL     OW28486   5.413   1.185   5.468
 9196SOL    HW128487   5.327   1.174   5.418
 9196SOL    HW228488   5.395   1.183   5.567
 9197SOL     OW28489   3.058   3.599   0.311
 9197SOL    HW128490   3.001   3.671   0.350
 9197SOL    HW228491   3.001   3.521   0.284
 9198SOL     OW28492   1.324   4.093   4.986
 9198SOL    HW128493   1.423   4.096   4.979
 9198SOL    HW228494   1.283   4.115   4.898
 9199SOL     OW28495   6.276   5.184   4.736
 9199SOL    HW128496   6.303   5.274   4.700
 9199SOL    HW228497   6.251   5.193   4.833
 9200SOL     OW28498   3.312   6.292   1.161
 9200SOL    HW128499   3.406   6.324   1.171
 9200SOL    HW228500   3.312   6.195   1.138
 9201SOL     OW28501   2.394   4.801   1.275
 9201SOL    HW128502   2.344   4.716   1.259
 9201SOL    HW228503   2.411   4.813   1.373
 9202SOL     OW28504   2.437   1.287   3.964
 9202SOL    HW128505   2.535   1.300   3.957
 9202SOL    HW228506   2.396   1.365   4.011
 9203SOL     OW28507   6.439   6.448   1.068
 9203SOL    HW128508   6.397   6.530   1.028
 9203SOL    HW228509   6.505   6.475   1.138
 9204SOL     OW28510   5.804   0.236   4.982
 9204SOL    HW128511   5.777   0.161   5.042
 9204SOL    HW228512   5.741   0.313   4.995
 9205SOL     OW28513   6.985   5.269   2.820
 9205SOL    HW128514   0.002   5.180   2.827
 9205SOL    HW228515   6.887   5.256   2.830
 9206SOL     OW28516   4.263   0.293   6.805
 9206SOL    HW128517   4.243   0.386   6.835
 9206SOL    HW228518   4.182   0.254   6.761
 9207SOL     OW28519   4.917   5.451   6.357
 9207SOL    HW128520   4.944   5.431   6.451
 9207SOL    HW228521   4.819   5.471   6.354
 9208SOL     OW28522   1.269   3.687   2.227
 9208SOL    HW128523   1.307   3.669   2.136
 9208SOL    HW228524   1.343   3.716   2.288
 9209SOL     OW28525   2.233   6.472   6.764
 9209SOL    HW128526   2.208   6.430   6.852
 9209SOL    HW228527   2.226   6.571   6.772
 9210SOL     OW28528   6.229   0.179   3.845
 9210SOL    HW128529   6.267   0.259   3.798
 9210SOL    HW228530   6.140   0.202   3.883
 9211SOL     OW28531   0.873   1.507   3.342
 9211SOL    HW128532   0.902   1.417   3.310
 9211SOL    HW228533   0.779   1.502   3.375
 9212SOL     OW28534   4.745   4.671   4.783
 9212SOL    HW128535   4.667   4.611   4.769
 9212SOL    HW228536   4.713   4.764   4.802
 9213SOL     OW28537   6.109   3.592   0.807
 9213SOL    HW128538   6.194   3.549   0.838
 9213SOL    HW228539   6.116   3.617   0.711
 9214SOL     OW28540   7.001   5.305   0.878
 9214SOL    HW128541   0.038   5.229   0.877
 9214SOL    HW228542   0.020   5.389   0.904
 9215SOL     OW28543   0.903   1.315   1.144
 9215SOL    HW128544   0.960   1.397   1.150
 9215SOL    HW228545   0.826   1.332   1.082
 9216SOL     OW28546   1.520   6.967   3.881
 9216SOL    HW128547   1.467   6.926   3.806
 9216SOL    HW228548   1.597   7.017   3.842
 9217SOL     OW28549   0.474   2.064   1.001
 9217SOL    HW128550   0.493   2.157   0.970
 9217SOL    HW228551   0.513   1.999   0.936
 9218SOL     OW28552   2.745   0.864   1.063
 9218SOL    HW128553   2.673   0.841   1.128
 9218SOL    HW228554   2.799   0.782   1.043
 9219SOL     OW28555   5.605   1.048   0.626
 9219SOL    HW128556   5.568   1.024   0.716
 9219SOL    HW228557   5.701   1.022   0.622
 9220SOL     OW28558   3.760   6.274   0.405
 9220SOL    HW128559   3.687   6.343   0.410
 9220SOL    HW228560   3.741   6.212   0.329
 9221SOL     OW28561   3.005   5.035   4.930
 9221SOL    HW128562   3.094   5.012   4.969
 9221SOL    HW228563   2.934   4.982   4.975
 9222SOL     OW28564   3.091   2.535   6.896
 9222SOL    HW128565   3.120   2.501   6.806
 9222SOL    HW228566   3.047   2.624   6.885
 9223SOL     OW28567   2.886   3.151   5.171
 9223SOL    HW128568   2.853   3.212   5.244
 9223SOL    HW228569   2.820   3.077   5.159
 9224SOL     OW28570   2.419   4.649   5.216
 9224SOL    HW128571   2.393   4.579   5.283
 9224SOL    HW228572   2.517   4.642   5.197
 9225SOL     OW28573   1.119   5.611   6.794
 9225SOL    HW128574   1.173   5.624   6.877
 9225SOL    HW228575   1.058   5.689   6.781
 9226SOL     OW28576   4.882   6.335   0.588
 9226SOL    HW128577   4.965   6.372   0.547
 9226SOL    HW228578   4.824   6.296   0.516
 9227SOL     OW28579   1.217   6.229   1.742
 9227SOL    HW128580   1.166   6.159   1.692
 9227SOL    HW228581   1.294   6.187   1.789
 9228SOL     OW28582   1.063   5.908   6.652
 9228SOL    HW128583   1.028   5.946   6.737
 9228SOL    HW228584   1.095   5.981   6.592
 9229SOL     OW28585   1.132   6.040   5.179
 9229SOL    HW128586   1.087   6.080   5.099
 9229SOL    HW228587   1.222   6.081   5.190
 9230SOL     OW28588   4.983   1.285   3.273
 9230SOL    HW128589   5.001   1.190   3.299
 9230SOL    HW228590   5.011   1.299   3.178
 9231SOL     OW28591   2.160   3.171   3.452
 9231SOL    HW128592   2.084   3.107   3.452
 9231SOL    HW228593   2.246   3.121   3.463
 9232SOL     OW28594   4.301   5.392   0.911
 9232SOL    HW128595   4.271   5.438   0.827
 9232SOL    HW228596   4.281   5.450   0.990
 9233SOL     OW28597   6.459   4.233   0.587
 9233SOL    HW128598   6.432   4.315   0.536
 9233SOL    HW228599   6.391   4.214   0.658
 9234SOL     OW28600   1.255   6.213   3.896
 9234SOL    HW128601   1.299   6.302   3.882
 9234SOL    HW228602   1.310   6.141   3.855
 9235SOL     OW28603   1.083   2.631   3.246
 9235SOL    HW128604   0.994   2.652   3.206
 9235SOL    HW228605   1.070   2.587   3.335
 9236SOL     OW28606   3.473   2.715   6.567
 9236SOL    HW128607   3.523   2.774   6.504
 9236SOL    HW228608   3.398   2.671   6.519
 9237SOL     OW28609   1.597   3.645   2.708
 9237SOL    HW128610   1.659   3.712   2.667
 9237SOL    HW228611   1.504   3.680   2.705
 9238SOL     OW28612   4.436   4.298   6.768
 9238SOL    HW128613   4.400   4.215   6.726
 9238SOL    HW228614   4.420   4.296   6.866
 9239SOL     OW28615   2.053   3.277   6.931
 9239SOL    HW128616   1.956   3.293   6.950
 9239SOL    HW228617   2.092   3.221   7.004
 9240SOL     OW28618   4.590   0.599   2.352
 9240SOL    HW128619   4.492   0.591   2.369
 9240SOL    HW228620   4.634   0.640   2.431
 9241SOL     OW28621   0.845   5.696   5.282
 9241SOL    HW128622   0.940   5.710   5.311
 9241SOL    HW228623   0.835   5.726   5.187
 9242SOL     OW28624   4.914   6.885   1.552
 9242SOL    HW128625   4.980   6.930   1.612
 9242SOL    HW228626   4.863   6.816   1.605
 9243SOL     OW28627   5.701   0.420   4.332
 9243SOL    HW128628   5.601   0.421   4.334
 9243SOL    HW228629   5.734   0.363   4.257
 9244SOL     OW28630   3.399   6.358   0.495
 9244SOL    HW128631   3.362   6.322   0.581
 9244SOL    HW228632   3.433   6.451   0.510
 9245SOL     OW28633   0.284   6.771   2.438
 9245SOL    HW128634   0.323   6.680   2.448
 9245SOL    HW228635   0.329   6.819   2.363
 9246SOL     OW28636   6.664   5.595   3.595
 9246SOL    HW128637   6.696   5.683   3.560
 9246SOL    HW228638   6.741   5.545   3.636
 9247SOL     OW28639   0.596   0.796   3.009
 9247SOL    HW128640   0.595   0.885   3.056
 9247SOL    HW228641   0.610   0.810   2.911
 9248SOL     OW28642   4.427   1.628   6.229
 9248SOL    HW128643   4.340   1.619   6.181
 9248SOL    HW228644   4.492   1.561   6.193
 9249SOL     OW28645   3.947   6.417   3.908
 9249SOL    HW128646   3.911   6.508   3.888
 9249SOL    HW228647   4.018   6.425   3.979
 9250SOL     OW28648   4.888   3.674   3.424
 9250SOL    HW128649   4.829   3.707   3.350
 9250SOL    HW228650   4.976   3.723   3.421
 9251SOL     OW28651   4.295   2.016   2.498
 9251SOL    HW128652   4.214   2.043   2.446
 9251SOL    HW228653   4.281   1.925   2.536
 9252SOL     OW28654   1.476   6.804   4.957
 9252SOL    HW128655   1.494   6.903   4.952
 9252SOL    HW228656   1.561   6.756   4.975
 9253SOL     OW28657   1.095   6.639   5.854
 9253SOL    HW128658   1.090   6.712   5.786
 9253SOL    HW228659   1.177   6.583   5.837
 9254SOL     OW28660   4.547   2.490   0.501
 9254SOL    HW128661   4.561   2.469   0.598
 9254SOL    HW228662   4.635   2.498   0.456
 9255SOL     OW28663   6.959   4.834   0.414
 9255SOL    HW128664   7.014   4.832   0.498
 9255SOL    HW228665   6.890   4.763   0.418
 9256SOL     OW28666   3.851   5.379   2.759
 9256SOL    HW128667   3.814   5.421   2.842
 9256SOL    HW228668   3.777   5.339   2.706
 9257SOL     OW28669   0.877   3.768   0.768
 9257SOL    HW128670   0.806   3.787   0.835
 9257SOL    HW228671   0.925   3.853   0.746
 9258SOL     OW28672   3.263   2.819   5.167
 9258SOL    HW128673   3.173   2.846   5.133
 9258SOL    HW228674   3.256   2.731   5.215
 9259SOL     OW28675   1.860   2.754   0.855
 9259SOL    HW128676   1.921   2.690   0.808
 9259SOL    HW228677   1.890   2.847   0.838
 9260SOL     OW28678   6.621   3.939   0.661
 9260SOL    HW128679   6.673   3.960   0.744
 9260SOL    HW228680   6.658   3.856   0.619
 9261SOL     OW28681   2.015   6.796   5.414
 9261SOL    HW128682   1.955   6.818   5.491
 9261SOL    HW228683   2.044   6.881   5.369
 9262SOL     OW28684   6.235   6.790   6.841
 9262SOL    HW128685   6.189   6.706   6.813
 9262SOL    HW228686   6.334   6.779   6.828
 9263SOL     OW28687   5.644   3.793   2.540
 9263SOL    HW128688   5.648   3.883   2.498
 9263SOL    HW228689   5.693   3.796   2.628
 9264SOL     OW28690   5.358   2.188   0.497
 9264SOL    HW128691   5.380   2.222   0.405
 9264SOL    HW228692   5.291   2.114   0.490
 9265SOL     OW28693   1.556   1.178   5.804
 9265SOL    HW128694   1.639   1.233   5.820
 9265SOL    HW228695   1.504   1.218   5.728
 9266SOL     OW28696   3.129   6.768   3.180
 9266SOL    HW128697   3.069   6.780   3.259
 9266SOL    HW228698   3.093   6.695   3.122
 9267SOL     OW28699   3.156   4.659   6.223
 9267SOL    HW128700   3.127   4.638   6.317
 9267SOL    HW228701   3.105   4.739   6.191
 9268SOL     OW28702   0.931   1.272   3.178
 9268SOL    HW128703   0.892   1.212   3.108
 9268SOL    HW228704   0.998   1.220   3.231
 9269SOL     OW28705   4.433   1.433   5.064
 9269SOL    HW128706   4.341   1.458   5.036
 9269SOL    HW228707   4.429   1.378   5.147
 9270SOL     OW28708   1.496   0.545   5.135
 9270SOL    HW128709   1.553   0.557   5.217
 9270SOL    HW228710   1.551   0.561   5.054
 9271SOL     OW28711   0.094   5.509   5.658
 9271SOL    HW128712   0.092   5.443   5.733
 9271SOL    HW228713   0.045   5.472   5.579
 9272SOL     OW28714   2.182   5.241   6.936
 9272SOL    HW128715   2.131   5.157   6.918
 9272SOL    HW228716   2.254   5.251   6.866
 9273SOL     OW28717   3.200   5.310   5.938
 9273SOL    HW128718   3.293   5.325   5.971
 9273SOL    HW228719   3.202   5.246   5.861
 9274SOL     OW28720   4.889   1.426   1.593
 9274SOL    HW128721   4.803   1.407   1.639
 9274SOL    HW228722   4.926   1.341   1.555
 9275SOL     OW28723   6.716   0.413   6.357
 9275SOL    HW128724   6.756   0.337   6.407
 9275SOL    HW228725   6.651   0.379   6.289
 9276SOL     OW28726   5.300   0.548   3.903
 9276SOL    HW128727   5.246   0.612   3.848
 9276SOL    HW228728   5.361   0.496   3.843
 9277SOL     OW28729   5.062   2.551   6.699
 9277SOL    HW128730   5.034   2.479   6.635
 9277SOL    HW228731   5.150   2.528   6.740
 9278SOL     OW28732   1.275   2.150   1.130
 9278SOL    HW128733   1.209   2.076   1.126
 9278SOL    HW228734   1.255   2.217   1.058
 9279SOL     OW28735   2.401   0.225   0.819
 9279SOL    HW128736   2.447   0.207   0.906
 9279SOL    HW228737   2.469   0.248   0.749
 9280SOL     OW28738   1.919   0.707   2.129
 9280SOL    HW128739   1.855   0.663   2.192
 9280SOL    HW228740   1.887   0.800   2.109
 9281SOL     OW28741   1.544   2.357   0.580
 9281SOL    HW128742   1.496   2.442   0.556
 9281SOL    HW228743   1.584   2.316   0.498
 9282SOL     OW28744   4.000   0.544   5.925
 9282SOL    HW128745   3.922   0.597   5.958
 9282SOL    HW228746   4.079   0.603   5.916
 9283SOL     OW28747   5.760   2.741   3.371
 9283SOL    HW128748   5.856   2.724   3.394
 9283SOL    HW228749   5.750   2.751   3.272
 9284SOL     OW28750   3.782   3.762   2.309
 9284SOL    HW128751   3.874   3.799   2.295
 9284SOL    HW228752   3.747   3.724   2.223
 9285SOL     OW28753   6.592   2.798   0.024
 9285SOL    HW128754   6.534   2.858   6.997
 9285SOL    HW228755   6.682   2.789   7.010
 9286SOL     OW28756   5.518   5.617   4.613
 9286SOL    HW128757   5.569   5.631   4.528
 9286SOL    HW228758   5.442   5.555   4.596
 9287SOL     OW28759   3.716   6.930   2.600
 9287SOL    HW128760   3.814   6.941   2.620
 9287SOL    HW228761   3.703   6.926   2.501
 9288SOL     OW28762   4.391   1.787   0.055
 9288SOL    HW128763   4.432   1.866   0.010
 9288SOL    HW228764   4.303   1.813   0.094
 9289SOL     OW28765   5.477   3.493   3.460
 9289SOL    HW128766   5.568   3.462   3.433
 9289SOL    HW228767   5.468   3.489   3.559
 9290SOL     OW28768   4.080   2.187   4.330
 9290SOL    HW128769   3.982   2.204   4.341
 9290SOL    HW228770   4.111   2.222   4.241
 9291SOL     OW28771   0.463   3.218   4.816
 9291SOL    HW128772   0.487   3.267   4.900
 9291SOL    HW228773   0.445   3.122   4.838
 9292SOL     OW28774   1.459   4.248   6.961
 9292SOL    HW128775   1.388   4.282   6.901
 9292SOL    HW228776   1.549   4.266   6.921
 9293SOL     OW28777   5.327   3.358   6.316
 9293SOL    HW128778   5.231   3.329   6.309
 9293SOL    HW228779   5.381   3.312   6.245
 9294SOL     OW28780   5.525   5.726   0.047
 9294SOL    HW128781   5.524   5.824   0.028
 9294SOL    HW228782   5.567   5.709   0.136
 9295SOL     OW28783   4.774   2.954   3.237
 9295SOL    HW128784   4.851   2.969   3.176
 9295SOL    HW228785   4.792   2.998   3.325
 9296SOL     OW28786   6.034   0.443   4.730
 9296SOL    HW128787   5.946   0.406   4.702
 9296SOL    HW228788   6.036   0.451   4.830
 9297SOL     OW28789   0.360   6.741   1.759
 9297SOL    HW128790   0.303   6.719   1.838
 9297SOL    HW228791   0.378   6.658   1.706
 9298SOL     OW28792   7.003   6.762   4.239
 9298SOL    HW128793   6.959   6.695   4.179
 9298SOL    HW228794   6.952   6.848   4.234
 9299SOL     OW28795   1.750   2.383   4.552
 9299SOL    HW128796   1.669   2.410   4.499
 9299SOL    HW228797   1.822   2.452   4.540
 9300SOL     OW28798   5.883   4.796   4.013
 9300SOL    HW128799   5.886   4.723   4.082
 9300SOL    HW228800   5.788   4.817   3.990
 9301SOL     OW28801   6.532   4.821   1.409
 9301SOL    HW128802   6.439   4.784   1.407
 9301SOL    HW228803   6.564   4.834   1.315
 9302SOL     OW28804   1.177   2.018   2.826
 9302SOL    HW128805   1.170   2.079   2.746
 9302SOL    HW228806   1.271   1.987   2.836
 9303SOL     OW28807   4.549   4.322   0.303
 9303SOL    HW128808   4.523   4.415   0.281
 9303SOL    HW228809   4.592   4.279   0.223
 9304SOL     OW28810   5.058   3.674   0.791
 9304SOL    HW128811   5.145   3.628   0.778
 9304SOL    HW228812   5.072   3.759   0.842
 9305SOL     OW28813   4.600   4.031   1.710
 9305SOL    HW128814   4.563   3.953   1.659
 9305SOL    HW228815   4.525   4.081   1.752
 9306SOL     OW28816   0.167   6.220   2.730
 9306SOL    HW128817   0.258   6.238   2.692
 9306SOL    HW228818   0.172   6.224   2.830
 9307SOL     OW28819   2.055   0.768   6.398
 9307SOL    HW128820   2.111   0.705   6.451
 9307SOL    HW228821   1.993   0.717   6.339
 9308SOL     OW28822   0.462   1.972   0.294
 9308SOL    HW128823   0.416   1.919   0.365
 9308SOL    HW228824   0.483   2.064   0.329
 9309SOL     OW28825   4.176   2.823   7.022
 9309SOL    HW128826   4.140   2.868   6.941
 9309SOL    HW228827   4.112   2.834   0.069
 9310SOL     OW28828   3.867   5.981   1.282
 9310SOL    HW128829   3.923   6.055   1.245
 9310SOL    HW228830   3.914   5.894   1.266
 9311SOL     OW28831   0.445   3.143   1.181
 9311SOL    HW128832   0.383   3.155   1.258
 9311SOL    HW228833   0.509   3.069   1.201
 9312SOL     OW28834   2.031   3.719   4.847
 9312SOL    HW128835   2.044   3.647   4.914
 9312SOL    HW228836   2.082   3.697   4.764
 9313SOL     OW28837   6.538   0.487   3.065
 9313SOL    HW128838   6.564   0.393   3.041
 9313SOL    HW228839   6.620   0.545   3.064
 9314SOL     OW28840   0.067   3.780   0.283
 9314SOL    HW128841   0.055   3.682   0.296
 9314SOL    HW228842   0.031   3.807   0.193
 9315SOL     OW28843   0.530   6.058   6.030
 9315SOL    HW128844   0.495   6.102   5.948
 9315SOL    HW228845   0.480   6.091   6.110
 9316SOL     OW28846   2.912   4.979   4.668
 9316SOL    HW128847   2.831   5.017   4.712
 9316SOL    HW228848   2.994   5.013   4.714
 9317SOL     OW28849   3.823   4.473   5.807
 9317SOL    HW128850   3.821   4.374   5.819
 9317SOL    HW228851   3.839   4.517   5.895
 9318SOL     OW28852   0.174   6.919   5.834
 9318SOL    HW128853   0.184   7.001   5.779
 9318SOL    HW228854   0.084   6.878   5.818
 9319SOL     OW28855   6.857   3.865   4.265
 9319SOL    HW128856   6.777   3.813   4.235
 9319SOL    HW228857   6.828   3.957   4.292
 9320SOL     OW28858   3.836   3.312   5.417
 9320SOL    HW128859   3.858   3.218   5.391
 9320SOL    HW228860   3.786   3.357   5.343
 9321SOL     OW28861   5.480   0.101   4.262
 9321SOL    HW128862   5.491   0.106   4.361
 9321SOL    HW228863   5.397   0.150   4.235
 9322SOL     OW28864   0.626   5.912   1.077
 9322SOL    HW128865   0.551   5.978   1.076
 9322SOL    HW228866   0.711   5.958   1.051
 9323SOL     OW28867   0.862   1.351   5.748
 9323SOL    HW128868   0.961   1.338   5.740
 9323SOL    HW228869   0.844   1.433   5.801
 9324SOL     OW28870   1.237   5.389   6.920
 9324SOL    HW128871   1.164   5.452   6.892
 9324SOL    HW228872   1.234   5.307   6.864
 9325SOL     OW28873   0.275   3.237   6.772
 9325SOL    HW128874   0.263   3.205   6.678
 9325SOL    HW228875   0.205   3.306   6.793
 9326SOL     OW28876   2.353   6.079   1.656
 9326SOL    HW128877   2.416   6.014   1.697
 9326SOL    HW228878   2.395   6.170   1.654
 9327SOL     OW28879   2.063   1.780   4.545
 9327SOL    HW128880   2.002   1.849   4.506
 9327SOL    HW228881   2.154   1.821   4.560
 9328SOL     OW28882   2.340   1.703   2.067
 9328SOL    HW128883   2.371   1.709   1.972
 9328SOL    HW228884   2.372   1.783   2.117
 9329SOL     OW28885   0.836   3.854   1.526
 9329SOL    HW128886   0.818   3.947   1.493
 9329SOL    HW228887   0.892   3.805   1.459
 9330SOL     OW28888   5.419   5.820   6.671
 9330SOL    HW128889   5.366   5.773   6.741
 9330SOL    HW228890   5.475   5.753   6.622
 9331SOL     OW28891   0.888   0.747   0.374
 9331SOL    HW128892   0.805   0.722   0.422
 9331SOL    HW228893   0.944   0.806   0.432
 9332SOL     OW28894   3.783   4.061   4.876
 9332SOL    HW128895   3.849   4.101   4.940
 9332SOL    HW228896   3.832   4.003   4.811
 9333SOL     OW28897   5.032   6.451   1.087
 9333SOL    HW128898   5.095   6.376   1.067
 9333SOL    HW228899   5.011   6.500   1.003
 9334SOL     OW28900   2.200   6.452   5.120
 9334SOL    HW128901   2.132   6.453   5.047
 9334SOL    HW228902   2.157   6.481   5.206
 9335SOL     OW28903   0.522   1.663   2.621
 9335SOL    HW128904   0.587   1.719   2.672
 9335SOL    HW228905   0.445   1.719   2.591
 9336SOL     OW28906   3.374   0.364   5.286
 9336SOL    HW128907   3.416   0.453   5.268
 9336SOL    HW228908   3.397   0.301   5.211
 9337SOL     OW28909   5.300   6.635   3.381
 9337SOL    HW128910   5.230   6.657   3.313
 9337SOL    HW228911   5.383   6.602   3.336
 9338SOL     OW28912   1.859   6.692   2.667
 9338SOL    HW128913   1.759   6.683   2.660
 9338SOL    HW228914   1.898   6.604   2.694
 9339SOL     OW28915   3.839   5.645   1.468
 9339SOL    HW128916   3.889   5.559   1.470
 9339SOL    HW228917   3.743   5.628   1.446
 9340SOL     OW28918   0.040   2.829   6.767
 9340SOL    HW128919   0.129   2.806   6.729
 9340SOL    HW228920   0.037   2.928   6.784
 9341SOL     OW28921   0.802   4.123   6.041
 9341SOL    HW128922   0.873   4.182   6.003
 9341SOL    HW228923   0.832   4.028   6.036
 9342SOL     OW28924   1.279   0.316   0.471
 9342SOL    HW128925   1.333   0.233   0.488
 9342SOL    HW228926   1.291   0.344   0.376
 9343SOL     OW28927   6.331   6.505   3.124
 9343SOL    HW128928   6.347   6.567   3.047
 9343SOL    HW228929   6.254   6.539   3.178
 9344SOL     OW28930   5.381   6.326   0.837
 9344SOL    HW128931   5.293   6.278   0.837
 9344SOL    HW228932   5.372   6.413   0.886
 9345SOL     OW28933   0.789   2.201   0.598
 9345SOL    HW128934   0.880   2.164   0.577
 9345SOL    HW228935   0.796   2.267   0.672
 9346SOL     OW28936   6.081   0.488   1.129
 9346SOL    HW128937   5.986   0.514   1.145
 9346SOL    HW228938   6.114   0.435   1.207
 9347SOL     OW28939   1.636   6.283   3.097
 9347SOL    HW128940   1.621   6.204   3.038
 9347SOL    HW228941   1.733   6.290   3.120
 9348SOL     OW28942   2.716   4.944   0.505
 9348SOL    HW128943   2.809   4.979   0.493
 9348SOL    HW228944   2.663   5.008   0.561
 9349SOL     OW28945   1.205   6.370   2.933
 9349SOL    HW128946   1.190   6.432   3.010
 9349SOL    HW228947   1.225   6.279   2.967
 9350SOL     OW28948   0.415   3.096   5.240
 9350SOL    HW128949   0.394   3.023   5.305
 9350SOL    HW228950   0.497   3.073   5.188
 9351SOL     OW28951   3.054   6.591   0.009
 9351SOL    HW128952   2.988   6.647   0.060
 9351SOL    HW228953   3.086   6.517   0.068
 9352SOL     OW28954   2.607   4.872   6.188
 9352SOL    HW128955   2.646   4.965   6.192
 9352SOL    HW228956   2.594   4.846   6.093
 9353SOL     OW28957   6.986   0.021   0.833
 9353SOL    HW128958   0.027   6.986   0.801
 9353SOL    HW228959   6.916   0.033   0.763
 9354SOL     OW28960   1.107   1.306   5.485
 9354SOL    HW128961   1.100   1.254   5.569
 9354SOL    HW228962   1.072   1.399   5.500
 9355SOL     OW28963   0.933   1.502   5.511
 9355SOL    HW128964   0.866   1.473   5.579
 9355SOL    HW228965   0.899   1.584   5.465
 9356SOL     OW28966   3.828   0.552   3.313
 9356SOL    HW128967   3.921   0.577   3.286
 9356SOL    HW228968   3.832   0.482   3.385
 9357SOL     OW28969   2.035   2.552   0.735
 9357SOL    HW128970   2.130   2.575   0.713
 9357SOL    HW228971   2.033   2.486   0.810
 9358SOL     OW28972   1.147   1.720   0.283
 9358SOL    HW128973   1.216   1.648   0.287
 9358SOL    HW228974   1.134   1.759   0.374
 9359SOL     OW28975   0.455   0.894   5.893
 9359SOL    HW128976   0.515   0.957   5.844
 9359SOL    HW228977   0.437   0.929   5.985
 9360SOL     OW28978   6.616   6.696   5.952
 9360SOL    HW128979   6.586   6.680   5.858
 9360SOL    HW228980   6.696   6.639   5.972
 9361SOL     OW28981   2.278   5.610   4.628
 9361SOL    HW128982   2.196   5.557   4.646
 9361SOL    HW228983   2.300   5.605   4.530
 9362SOL     OW28984   1.765   0.684   2.569
 9362SOL    HW128985   1.816   0.749   2.513
 9362SOL    HW228986   1.788   0.591   2.543
 9363SOL     OW28987   1.095   2.820   2.245
 9363SOL    HW128988   1.064   2.729   2.271
 9363SOL    HW228989   1.098   2.828   2.145
 9364SOL     OW28990   0.945   1.904   6.676
 9364SOL    HW128991   0.936   1.831   6.608
 9364SOL    HW228992   0.879   1.890   6.749
 9365SOL     OW28993   2.868   0.822   5.298
 9365SOL    HW128994   2.807   0.902   5.307
 9365SOL    HW228995   2.862   0.787   5.205
 9366SOL     OW28996   3.304   5.875   2.167
 9366SOL    HW128997   3.244   5.954   2.158
 9366SOL    HW228998   3.331   5.864   2.262
 9367SOL     OW28999   6.798   0.070   1.714
 9367SOL    HW129000   6.863   0.111   1.650
 9367SOL    HW229001   6.837   7.013   1.748
 9368SOL     OW29002   2.304   1.027   3.366
 9368SOL    HW129003   2.303   0.928   3.378
 9368SOL    HW229004   2.244   1.053   3.290
 9369SOL     OW29005   3.506   5.136   0.755
 9369SOL    HW129006   3.557   5.070   0.810
 9369SOL    HW229007   3.507   5.225   0.800
 9370SOL     OW29008   4.891   2.459   5.450
 9370SOL    HW129009   4.922   2.398   5.523
 9370SOL    HW229010   4.843   2.406   5.381
 9371SOL     OW29011   3.972   5.035   0.461
 9371SOL    HW129012   4.017   5.111   0.507
 9371SOL    HW229013   3.957   4.961   0.526
 9372SOL     OW29014   5.555   6.885   0.734
 9372SOL    HW129015   5.583   6.950   0.805
 9372SOL    HW229016   5.540   6.933   0.648
 9373SOL     OW29017   0.016   1.226   1.462
 9373SOL    HW129018   0.114   1.223   1.445
 9373SOL    HW229019   6.995   1.216   1.376
 9374SOL     OW29020   6.945   5.417   6.034
 9374SOL    HW129021   6.872   5.430   5.967
 9374SOL    HW229022   6.938   5.487   6.105
 9375SOL     OW29023   1.919   1.441   6.959
 9375SOL    HW129024   1.971   1.436   0.015
 9375SOL    HW229025   1.836   1.494   6.975
 9376SOL     OW29026   3.220   4.104   0.613
 9376SOL    HW129027   3.180   4.074   0.526
 9376SOL    HW229028   3.154   4.160   0.663
 9377SOL     OW29029   0.576   0.940   3.307
 9377SOL    HW129030   0.609   0.891   3.388
 9377SOL    HW229031   0.531   1.025   3.336
 9378SOL     OW29032   4.263   1.186   5.159
 9378SOL    HW129033   4.307   1.100   5.133
 9378SOL    HW229034   4.205   1.171   5.240
 9379SOL     OW29035   3.534   0.338   4.427
 9379SOL    HW129036   3.626   0.350   4.464
 9379SOL    HW229037   3.524   0.246   4.392
 9380SOL     OW29038   5.299   6.442   1.508
 9380SOL    HW129039   5.225   6.488   1.460
 9380SOL    HW229040   5.310   6.483   1.599
 9381SOL     OW29041   4.527   1.460   4.747
 9381SOL    HW129042   4.627   1.459   4.741
 9381SOL    HW229043   4.497   1.387   4.809
 9382SOL     OW29044   2.511   5.982   6.281
 9382SOL    HW129045   2.457   5.924   6.342
 9382SOL    HW229046   2.492   5.957   6.186
 9383SOL     OW29047   5.689   3.888   1.145
 9383SOL    HW129048   5.654   3.884   1.239
 9383SOL    HW229049   5.734   3.802   1.123
 9384SOL     OW29050   4.563   0.672   0.392
 9384SOL    HW129051   4.633   0.723   0.441
 9384SOL    HW229052   4.582   0.676   0.294
 9385SOL     OW29053   4.368   2.245   4.393
 9385SOL    HW129054   4.270   2.226   4.389
 9385SOL    HW229055   4.419   2.161   4.373
 9386SOL     OW29056   5.561   0.446   0.813
 9386SOL    HW129057   5.556   0.488   0.904
 9386SOL    HW229058   5.493   0.374   0.805
 9387SOL     OW29059   3.213   2.414   6.679
 9387SOL    HW129060   3.222   2.347   6.605
 9387SOL    HW229061   3.193   2.504   6.640
 9388SOL     OW29062   2.396   6.415   5.514
 9388SOL    HW129063   2.317   6.468   5.544
 9388SOL    HW229064   2.470   6.424   5.581
 9389SOL     OW29065   2.208   3.764   1.864
 9389SOL    HW129066   2.233   3.679   1.910
 9389SOL    HW229067   2.175   3.830   1.932
 9390SOL     OW29068   5.599   5.247   4.019
 9390SOL    HW129069   5.618   5.173   4.085
 9390SOL    HW229070   5.609   5.211   3.926
 9391SOL     OW29071   0.507   5.164   4.470
 9391SOL    HW129072   0.450   5.103   4.416
 9391SOL    HW229073   0.463   5.254   4.475
 9392SOL     OW29074   3.342   5.199   2.809
 9392SOL    HW129075   3.421   5.161   2.761
 9392SOL    HW229076   3.288   5.125   2.848
 9393SOL     OW29077   2.139   5.037   0.533
 9393SOL    HW129078   2.089   5.036   0.447
 9393SOL    HW229079   2.191   4.952   0.542
 9394SOL     OW29080   4.990   0.093   7.003
 9394SOL    HW129081   4.925   0.116   6.931
 9394SOL    HW229082   4.984   7.024   7.024
 9395SOL     OW29083   0.409   0.584   1.242
 9395SOL    HW129084   0.340   0.543   1.182
 9395SOL    HW229085   0.493   0.530   1.238
 9396SOL     OW29086   0.970   0.652   6.509
 9396SOL    HW129087   0.908   0.613   6.441
 9396SOL    HW229088   0.923   0.658   6.597
 9397SOL     OW29089   3.493   1.751   5.798
 9397SOL    HW129090   3.512   1.666   5.846
 9397SOL    HW229091   3.481   1.825   5.864
 9398SOL     OW29092   0.016   3.083   6.860
 9398SOL    HW129093   0.099   3.136   6.875
 9398SOL    HW229094   6.986   3.090   6.941
 9399SOL     OW29095   1.483   2.650   4.590
 9399SOL    HW129096   1.571   2.655   4.638
 9399SOL    HW229097   1.422   2.720   4.626
 9400SOL     OW29098   5.486   1.365   0.763
 9400SOL    HW129099   5.526   1.423   0.693
 9400SOL    HW229100   5.504   1.404   0.853
 9401SOL     OW29101   6.465   1.951   3.813
 9401SOL    HW129102   6.526   1.976   3.888
 9401SOL    HW229103   6.487   2.006   3.732
 9402SOL     OW29104   3.870   5.393   5.445
 9402SOL    HW129105   3.920   5.462   5.497
 9402SOL    HW229106   3.809   5.343   5.507
 9403SOL     OW29107   5.795   2.459   1.069
 9403SOL    HW129108   5.859   2.402   1.017
 9403SOL    HW229109   5.834   2.551   1.081
 9404SOL     OW29110   2.498   2.168   0.645
 9404SOL    HW129111   2.400   2.150   0.643
 9404SOL    HW229112   2.517   2.258   0.605
 9405SOL     OW29113   5.602   5.586   4.902
 9405SOL    HW129114   5.688   5.604   4.855
 9405SOL    HW229115   5.526   5.613   4.843
 9406SOL     OW29116   1.196   0.855   0.773
 9406SOL    HW129117   1.105   0.891   0.791
 9406SOL    HW229118   1.193   0.755   0.771
 9407SOL     OW29119   1.659   4.557   4.814
 9407SOL    HW129120   1.748   4.512   4.814
 9407SOL    HW229121   1.654   4.622   4.738
 9408SOL     OW29122   5.674   5.495   4.004
 9408SOL    HW129123   5.652   5.399   3.985
 9408SOL    HW229124   5.770   5.502   4.031
 9409SOL     OW29125   5.843   5.107   1.964
 9409SOL    HW129126   5.842   5.192   2.016
 9409SOL    HW229127   5.834   5.030   2.027
 9410SOL     OW29128   4.872   0.480   0.645
 9410SOL    HW129129   4.854   0.398   0.591
 9410SOL    HW229130   4.788   0.533   0.656
 9411SOL     OW29131   3.564   3.691   5.151
 9411SOL    HW129132   3.525   3.780   5.125
 9411SOL    HW229133   3.528   3.664   5.240
 9412SOL     OW29134   3.907   6.726   1.627
 9412SOL    HW129135   3.973   6.734   1.702
 9412SOL    HW229136   3.909   6.633   1.591
 9413SOL     OW29137   4.022   4.851   3.015
 9413SOL    HW129138   4.095   4.920   3.019
 9413SOL    HW229139   3.988   4.844   2.922
 9414SOL     OW29140   2.277   0.963   2.056
 9414SOL    HW129141   2.375   0.965   2.035
 9414SOL    HW229142   2.232   0.893   2.001
 9415SOL     OW29143   4.653   0.623   0.682
 9415SOL    HW129144   4.562   0.627   0.640
 9415SOL    HW229145   4.650   0.663   0.773
 9416SOL     OW29146   6.739   4.947   6.158
 9416SOL    HW129147   6.769   4.854   6.139
 9416SOL    HW229148   6.816   5.009   6.151
 9417SOL     OW29149   4.269   6.398   3.159
 9417SOL    HW129150   4.347   6.430   3.212
 9417SOL    HW229151   4.299   6.377   3.066
 9418SOL     OW29152   2.488   2.113   5.002
 9418SOL    HW129153   2.435   2.086   5.083
 9418SOL    HW229154   2.432   2.171   4.943
 9419SOL     OW29155   3.157   2.145   5.775
 9419SOL    HW129156   3.059   2.154   5.791
 9419SOL    HW229157   3.204   2.228   5.806
 9420SOL     OW29158   4.702   3.570   5.575
 9420SOL    HW129159   4.646   3.577   5.492
 9420SOL    HW229160   4.668   3.496   5.633
 9421SOL     OW29161   3.556   6.929   6.952
 9421SOL    HW129162   3.646   6.886   6.946
 9421SOL    HW229163   3.505   6.912   6.868
 9422SOL     OW29164   1.868   6.325   6.094
 9422SOL    HW129165   1.772   6.332   6.068
 9422SOL    HW229166   1.875   6.276   6.181
 9423SOL     OW29167   5.284   4.618   1.138
 9423SOL    HW129168   5.269   4.522   1.114
 9423SOL    HW229169   5.368   4.651   1.094
 9424SOL     OW29170   5.642   6.683   4.153
 9424SOL    HW129171   5.655   6.759   4.088
 9424SOL    HW229172   5.731   6.645   4.178
 9425SOL     OW29173   0.363   5.741   1.081
 9425SOL    HW129174   0.325   5.658   1.041
 9425SOL    HW229175   0.460   5.747   1.058
 9426SOL     OW29176   5.022   1.229   6.048
 9426SOL    HW129177   4.985   1.140   6.076
 9426SOL    HW229178   5.121   1.229   6.062
 9427SOL     OW29179   3.058   5.699   2.044
 9427SOL    HW129180   3.132   5.765   2.041
 9427SOL    HW229181   3.080   5.628   2.111
 9428SOL     OW29182   6.567   6.578   4.462
 9428SOL    HW129183   6.538   6.674   4.462
 9428SOL    HW229184   6.551   6.539   4.552
 9429SOL     OW29185   2.977   2.197   4.198
 9429SOL    HW129186   3.065   2.182   4.153
 9429SOL    HW229187   2.982   2.169   4.293
 9430SOL     OW29188   1.267   0.329   3.968
 9430SOL    HW129189   1.339   0.260   3.977
 9430SOL    HW229190   1.203   0.301   3.896
 9431SOL     OW29191   1.341   4.661   5.415
 9431SOL    HW129192   1.270   4.717   5.458
 9431SOL    HW229193   1.316   4.641   5.320
 9432SOL     OW29194   6.727   2.309   2.942
 9432SOL    HW129195   6.787   2.315   3.022
 9432SOL    HW229196   6.665   2.387   2.941
 9433SOL     OW29197   4.459   5.758   1.420
 9433SOL    HW129198   4.378   5.798   1.462
 9433SOL    HW229199   4.471   5.664   1.450
 9434SOL     OW29200   5.094   6.169   4.710
 9434SOL    HW129201   5.127   6.199   4.620
 9434SOL    HW229202   5.141   6.084   4.736
 9435SOL     OW29203   6.947   3.796   0.025
 9435SOL    HW129204   6.881   3.870   0.024
 9435SOL    HW229205   6.900   3.708   0.013
 9436SOL     OW29206   2.776   2.001   2.355
 9436SOL    HW129207   2.822   1.975   2.439
 9436SOL    HW229208   2.797   2.097   2.334
 9437SOL     OW29209   4.590   1.211   3.719
 9437SOL    HW129210   4.573   1.207   3.620
 9437SOL    HW229211   4.674   1.163   3.740
 9438SOL     OW29212   4.301   0.527   2.650
 9438SOL    HW129213   4.281   0.438   2.689
 9438SOL    HW229214   4.308   0.520   2.551
 9439SOL     OW29215   1.626   5.027   0.629
 9439SOL    HW129216   1.689   5.103   0.616
 9439SOL    HW229217   1.662   4.945   0.586
 9440SOL     OW29218   1.722   5.124   4.112
 9440SOL    HW129219   1.748   5.129   4.016
 9440SOL    HW229220   1.795   5.163   4.169
 9441SOL     OW29221   6.976   6.396   4.527
 9441SOL    HW129222   6.984   6.482   4.477
 9441SOL    HW229223   6.933   6.327   4.469
 9442SOL     OW29224   6.367   2.542   0.836
 9442SOL    HW129225   6.343   2.464   0.779
 9442SOL    HW229226   6.294   2.557   0.903
 9443SOL     OW29227   0.924   5.065   1.504
 9443SOL    HW129228   0.918   5.019   1.416
 9443SOL    HW229229   0.891   5.159   1.495
 9444SOL     OW29230   1.976   5.982   6.158
 9444SOL    HW129231   1.914   5.951   6.086
 9444SOL    HW229232   1.931   6.054   6.212
 9445SOL     OW29233   1.151   1.114   4.176
 9445SOL    HW129234   1.078   1.091   4.112
 9445SOL    HW229235   1.227   1.051   4.164
 9446SOL     OW29236   5.011   5.914   3.432
 9446SOL    HW129237   4.991   5.828   3.480
 9446SOL    HW229238   4.934   5.977   3.445
 9447SOL     OW29239   5.915   5.254   2.572
 9447SOL    HW129240   5.914   5.176   2.509
 9447SOL    HW229241   6.005   5.260   2.616
 9448SOL     OW29242   4.781   3.252   0.440
 9448SOL    HW129243   4.804   3.298   0.526
 9448SOL    HW229244   4.838   3.290   0.367
 9449SOL     OW29245   4.159   0.392   2.998
 9449SOL    HW129246   4.159   0.329   3.076
 9449SOL    HW229247   4.123   0.481   3.027
 9450SOL     OW29248   0.794   0.378   1.953
 9450SOL    HW129249   0.802   0.281   1.977
 9450SOL    HW229250   0.700   0.398   1.926
 9451SOL     OW29251   4.190   5.006   0.306
 9451SOL    HW129252   4.203   4.918   0.260
 9451SOL    HW229253   4.110   5.002   0.365
 9452SOL     OW29254   6.190   3.052   5.396
 9452SOL    HW129255   6.257   3.097   5.337
 9452SOL    HW229256   6.169   3.111   5.474
 9453SOL     OW29257   6.270   4.784   3.040
 9453SOL    HW129258   6.257   4.710   2.974
 9453SOL    HW229259   6.366   4.812   3.041
 9454SOL     OW29260   5.557   5.405   1.206
 9454SOL    HW129261   5.500   5.366   1.278
 9454SOL    HW229262   5.610   5.481   1.243
 9455SOL     OW29263   4.687   0.802   1.342
 9455SOL    HW129264   4.615   0.749   1.387
 9455SOL    HW229265   4.644   0.869   1.281
 9456SOL     OW29266   6.552   2.671   1.451
 9456SOL    HW129267   6.513   2.633   1.367
 9456SOL    HW229268   6.611   2.749   1.428
 9457SOL     OW29269   6.728   6.467   4.248
 9457SOL    HW129270   6.698   6.524   4.324
 9457SOL    HW229271   6.694   6.374   4.261
 9458SOL     OW29272   0.273   4.342   6.915
 9458SOL    HW129273   0.223   4.420   6.878
 9458SOL    HW229274   0.285   4.272   6.844
 9459SOL     OW29275   6.453   4.511   4.960
 9459SOL    HW129276   6.481   4.419   4.932
 9459SOL    HW229277   6.503   4.578   4.906
 9460SOL     OW29278   2.175   2.962   2.807
 9460SOL    HW129279   2.206   2.998   2.895
 9460SOL    HW229280   2.254   2.945   2.749
 9461SOL     OW29281   1.286   1.360   1.059
 9461SOL    HW129282   1.207   1.337   1.003
 9461SOL    HW229283   1.304   1.458   1.053
 9462SOL     OW29284   0.008   1.054   5.339
 9462SOL    HW129285   7.020   0.956   5.327
 9462SOL    HW229286   0.095   1.078   5.296
 9463SOL     OW29287   0.782   4.954   1.053
 9463SOL    HW129288   0.826   4.946   0.964
 9463SOL    HW229289   0.801   5.044   1.092
 9464SOL     OW29290   1.573   0.975   2.214
 9464SOL    HW129291   1.548   0.959   2.310
 9464SOL    HW229292   1.501   1.029   2.171
 9465SOL     OW29293   1.633   5.590   6.983
 9465SOL    HW129294   1.561   5.602   0.022
 9465SOL    HW229295   1.614   5.647   6.903
 9466SOL     OW29296   3.710   4.251   5.455
 9466SOL    HW129297   3.620   4.290   5.471
 9466SOL    HW229298   3.753   4.298   5.377
 9467SOL     OW29299   1.440   3.569   1.600
 9467SOL    HW129300   1.434   3.469   1.590
 9467SOL    HW229301   1.499   3.606   1.528
 9468SOL     OW29302   0.043   2.103   1.015
 9468SOL    HW129303   0.060   2.172   0.944
 9468SOL    HW229304   0.130   2.077   1.057
 9469SOL     OW29305   5.785   6.860   1.901
 9469SOL    HW129306   5.708   6.900   1.951
 9469SOL    HW229307   5.871   6.894   1.939
 9470SOL     OW29308   3.254   3.407   1.256
 9470SOL    HW129309   3.335   3.438   1.207
 9470SOL    HW229310   3.261   3.432   1.352
 9471SOL     OW29311   0.117   3.428   5.055
 9471SOL    HW129312   0.086   3.443   4.961
 9471SOL    HW229313   0.063   3.355   5.096
 9472SOL     OW29314   2.352   4.449   6.093
 9472SOL    HW129315   2.390   4.423   6.004
 9472SOL    HW229316   2.293   4.375   6.126
 9473SOL     OW29317   2.861   3.309   2.202
 9473SOL    HW129318   2.867   3.408   2.185
 9473SOL    HW229319   2.793   3.269   2.141
 9474SOL     OW29320   5.625   4.400   0.816
 9474SOL    HW129321   5.575   4.358   0.892
 9474SOL    HW229322   5.571   4.392   0.732
 9475SOL     OW29323   6.204   3.411   6.722
 9475SOL    HW129324   6.262   3.474   6.671
 9475SOL    HW229325   6.108   3.436   6.708
 9476SOL     OW29326   4.269   3.452   1.244
 9476SOL    HW129327   4.297   3.431   1.151
 9476SOL    HW229328   4.171   3.472   1.246
 9477SOL     OW29329   0.604   5.679   1.261
 9477SOL    HW129330   0.634   5.703   1.353
 9477SOL    HW229331   0.600   5.761   1.204
 9478SOL     OW29332   0.312   3.569   5.355
 9478SOL    HW129333   0.350   3.569   5.262
 9478SOL    HW229334   0.322   3.660   5.395
 9479SOL     OW29335   4.302   0.600   1.963
 9479SOL    HW129336   4.380   0.661   1.978
 9479SOL    HW229337   4.322   0.538   1.887
 9480SOL     OW29338   5.390   1.250   1.274
 9480SOL    HW129339   5.458   1.322   1.293
 9480SOL    HW229340   5.378   1.241   1.175
 9481SOL     OW29341   4.700   6.950   3.476
 9481SOL    HW129342   4.601   6.958   3.473
 9481SOL    HW229343   4.728   6.856   3.458
 9482SOL     OW29344   5.741   4.088   6.466
 9482SOL    HW129345   5.802   4.016   6.500
 9482SOL    HW229346   5.662   4.097   6.527
 9483SOL     OW29347   5.826   4.975   0.543
 9483SOL    HW129348   5.878   4.964   0.459
 9483SOL    HW229349   5.791   5.068   0.550
 9484SOL     OW29350   1.331   5.697   4.058
 9484SOL    HW129351   1.429   5.711   4.065
 9484SOL    HW229352   1.310   5.649   3.972
 9485SOL     OW29353   6.608   1.691   5.868
 9485SOL    HW129354   6.596   1.666   5.965
 9485SOL    HW229355   6.520   1.686   5.822
 9486SOL     OW29356   6.155   5.351   6.288
 9486SOL    HW129357   6.138   5.423   6.355
 9486SOL    HW229358   6.254   5.341   6.274
 9487SOL     OW29359   2.939   3.811   3.692
 9487SOL    HW129360   2.848   3.796   3.730
 9487SOL    HW229361   3.003   3.745   3.733
 9488SOL     OW29362   0.873   1.528   2.674
 9488SOL    HW129363   0.790   1.549   2.623
 9488SOL    HW229364   0.930   1.610   2.680
 9489SOL     OW29365   0.560   4.422   7.013
 9489SOL    HW129366   0.584   4.377   0.071
 9489SOL    HW229367   0.470   4.389   6.984
 9490SOL     OW29368   5.526   3.854   5.034
 9490SOL    HW129369   5.538   3.874   5.131
 9490SOL    HW229370   5.455   3.784   5.023
 9491SOL     OW29371   5.171   0.245   2.158
 9491SOL    HW129372   5.140   0.191   2.080
 9491SOL    HW229373   5.093   0.290   2.201
 9492SOL     OW29374   4.779   2.962   4.109
 9492SOL    HW129375   4.751   2.948   4.014
 9492SOL    HW229376   4.730   2.898   4.169
 9493SOL     OW29377   2.659   0.105   3.631
 9493SOL    HW129378   2.586   0.163   3.667
 9493SOL    HW229379   2.720   0.078   3.706
 9494SOL     OW29380   4.897   2.491   2.661
 9494SOL    HW129381   4.800   2.514   2.661
 9494SOL    HW229382   4.921   2.448   2.574
 9495SOL     OW29383   6.283   2.355   0.627
 9495SOL    HW129384   6.271   2.257   0.614
 9495SOL    HW229385   6.339   2.392   0.553
 9496SOL     OW29386   6.366   3.290   0.625
 9496SOL    HW129387   6.338   3.205   0.581
 9496SOL    HW229388   6.372   3.276   0.724
 9497SOL     OW29389   6.088   4.774   4.991
 9497SOL    HW129390   6.101   4.872   5.002
 9497SOL    HW229391   6.124   4.726   5.070
 9498SOL     OW29392   1.013   5.841   5.689
 9498SOL    HW129393   0.933   5.885   5.728
 9498SOL    HW229394   1.030   5.876   5.597
 9499SOL     OW29395   5.438   6.273   3.291
 9499SOL    HW129396   5.507   6.201   3.286
 9499SOL    HW229397   5.444   6.320   3.379
 9500SOL     OW29398   2.237   1.883   0.543
 9500SOL    HW129399   2.186   1.873   0.628
 9500SOL    HW229400   2.176   1.920   0.473
 9501SOL     OW29401   1.483   3.132   4.743
 9501SOL    HW129402   1.392   3.101   4.771
 9501SOL    HW229403   1.552   3.083   4.797
 9502SOL     OW29404   5.512   4.644   3.725
 9502SOL    HW129405   5.514   4.551   3.688
 9502SOL    HW229406   5.429   4.655   3.781
 9503SOL     OW29407   6.767   0.568   0.519
 9503SOL    HW129408   6.770   0.599   0.424
 9503SOL    HW229409   6.677   0.587   0.558
 9504SOL     OW29410   5.955   4.648   2.956
 9504SOL    HW129411   5.957   4.733   3.010
 9504SOL    HW229412   6.037   4.643   2.899
 9505SOL     OW29413   4.950   2.921   0.103
 9505SOL    HW129414   4.978   2.966   0.188
 9505SOL    HW229415   4.984   2.973   0.025
 9506SOL     OW29416   3.929   0.502   1.798
 9506SOL    HW129417   3.945   0.600   1.786
 9506SOL    HW229418   3.831   0.483   1.791
 9507SOL     OW29419   6.801   6.265   1.104
 9507SOL    HW129420   6.750   6.198   1.158
 9507SOL    HW229421   6.869   6.310   1.162
 9508SOL     OW29422   4.851   1.880   2.347
 9508SOL    HW129423   4.815   1.851   2.435
 9508SOL    HW229424   4.934   1.827   2.326
 9509SOL     OW29425   5.410   1.430   4.130
 9509SOL    HW129426   5.382   1.515   4.175
 9509SOL    HW229427   5.490   1.393   4.176
 9510SOL     OW29428   1.816   3.400   2.465
 9510SOL    HW129429   1.759   3.477   2.438
 9510SOL    HW229430   1.878   3.428   2.538
 9511SOL     OW29431   0.741   1.191   0.890
 9511SOL    HW129432   0.705   1.165   0.979
 9511SOL    HW229433   0.805   1.120   0.859
 9512SOL     OW29434   6.166   2.337   1.579
 9512SOL    HW129435   6.197   2.432   1.580
 9512SOL    HW229436   6.240   2.278   1.612
 9513SOL     OW29437   5.110   3.558   4.481
 9513SOL    HW129438   5.171   3.630   4.446
 9513SOL    HW229439   5.033   3.547   4.419
 9514SOL     OW29440   3.965   3.291   1.120
 9514SOL    HW129441   4.034   3.234   1.076
 9514SOL    HW229442   3.898   3.233   1.167
 9515SOL     OW29443   6.382   6.733   2.955
 9515SOL    HW129444   6.472   6.754   2.993
 9515SOL    HW229445   6.385   6.742   2.855
 9516SOL     OW29446   1.285   2.486   0.021
 9516SOL    HW129447   1.226   2.406   0.025
 9516SOL    HW229448   1.288   2.530   0.111
 9517SOL     OW29449   0.102   6.475   2.609
 9517SOL    HW129450   0.126   6.392   2.659
 9517SOL    HW229451   0.101   6.552   2.673
 9518SOL     OW29452   6.035   0.049   0.850
 9518SOL    HW129453   6.086   0.076   0.769
 9518SOL    HW229454   6.051   0.115   0.923
 9519SOL     OW29455   1.545   2.760   5.569
 9519SOL    HW129456   1.524   2.672   5.610
 9519SOL    HW229457   1.477   2.828   5.599
 9520SOL     OW29458   3.849   6.581   1.905
 9520SOL    HW129459   3.856   6.538   1.995
 9520SOL    HW229460   3.778   6.651   1.908
 9521SOL     OW29461   5.476   5.319   3.135
 9521SOL    HW129462   5.526   5.404   3.122
 9521SOL    HW229463   5.505   5.275   3.220
 9522SOL     OW29464   3.435   5.034   5.565
 9522SOL    HW129465   3.341   5.034   5.599
 9522SOL    HW229466   3.497   5.003   5.637
 9523SOL     OW29467   1.479   6.899   4.551
 9523SOL    HW129468   1.502   6.809   4.514
 9523SOL    HW229469   1.530   6.970   4.500
 9524SOL     OW29470   5.940   3.247   0.398
 9524SOL    HW129471   5.867   3.238   0.466
 9524SOL    HW229472   5.910   3.209   0.311
 9525SOL     OW29473   4.361   0.495   4.136
 9525SOL    HW129474   4.303   0.467   4.059
 9525SOL    HW229475   4.303   0.525   4.212
 9526SOL     OW29476   5.008   5.599   0.939
 9526SOL    HW129477   4.949   5.526   0.905
 9526SOL    HW229478   5.034   5.658   0.863
 9527SOL     OW29479   0.176   0.912   0.348
 9527SOL    HW129480   0.078   0.930   0.353
 9527SOL    HW229481   0.212   0.942   0.259
 9528SOL     OW29482   5.470   1.285   2.269
 9528SOL    HW129483   5.412   1.206   2.250
 9528SOL    HW229484   5.539   1.261   2.336
 9529SOL     OW29485   1.540   2.462   5.426
 9529SOL    HW129486   1.584   2.437   5.340
 9529SOL    HW229487   1.454   2.509   5.408
 9530SOL     OW29488   2.530   1.554   3.674
 9530SOL    HW129489   2.513   1.533   3.770
 9530SOL    HW229490   2.594   1.631   3.667
 9531SOL     OW29491   2.521   6.414   3.925
 9531SOL    HW129492   2.483   6.496   3.882
 9531SOL    HW229493   2.611   6.434   3.963
 9532SOL     OW29494   3.415   1.227   1.746
 9532SOL    HW129495   3.443   1.312   1.703
 9532SOL    HW229496   3.328   1.197   1.707
 9533SOL     OW29497   0.106   1.532   3.809
 9533SOL    HW129498   0.175   1.460   3.818
 9533SOL    HW229499   0.034   1.501   3.748
 9534SOL     OW29500   4.850   1.543   4.164
 9534SOL    HW129501   4.923   1.611   4.157
 9534SOL    HW229502   4.821   1.534   4.259
 9535SOL     OW29503   2.897   1.729   4.708
 9535SOL    HW129504   2.916   1.795   4.635
 9535SOL    HW229505   2.955   1.750   4.787
 9536SOL     OW29506   1.996   5.792   6.537
 9536SOL    HW129507   2.034   5.800   6.445
 9536SOL    HW229508   2.008   5.699   6.570
 9537SOL     OW29509   2.365   0.328   7.017
 9537SOL    HW129510   2.386   0.337   6.919
 9537SOL    HW229511   2.270   0.352   0.005
 9538SOL     OW29512   5.607   3.970   3.204
 9538SOL    HW129513   5.556   3.948   3.287
 9538SOL    HW229514   5.652   3.888   3.169
 9539SOL     OW29515   1.465   2.663   0.676
 9539SOL    HW129516   1.489   2.700   0.586
 9539SOL    HW229517   1.387   2.713   0.712
 9540SOL     OW29518   6.213   3.417   5.394
 9540SOL    HW129519   6.153   3.398   5.317
 9540SOL    HW229520   6.217   3.337   5.454
 9541SOL     OW29521   6.260   2.605   2.907
 9541SOL    HW129522   6.245   2.696   2.868
 9541SOL    HW229523   6.174   2.554   2.904
 9542SOL     OW29524   4.815   3.914   4.408
 9542SOL    HW129525   4.785   3.824   4.374
 9542SOL    HW229526   4.906   3.935   4.372
 9543SOL     OW29527   4.132   2.389   6.891
 9543SOL    HW129528   4.087   2.316   6.839
 9543SOL    HW229529   4.186   2.349   6.965
 9544SOL     OW29530   4.949   6.901   0.993
 9544SOL    HW129531   5.011   6.941   1.060
 9544SOL    HW229532   5.002   6.855   0.922
 9545SOL     OW29533   1.133   0.489   4.355
 9545SOL    HW129534   1.121   0.427   4.278
 9545SOL    HW229535   1.049   0.490   4.410
 9546SOL     OW29536   3.041   4.376   1.688
 9546SOL    HW129537   3.124   4.427   1.711
 9546SOL    HW229538   2.967   4.404   1.748
 9547SOL     OW29539   5.440   0.048   2.453
 9547SOL    HW129540   5.526   0.097   2.470
 9547SOL    HW229541   5.372   0.075   2.522
 9548SOL     OW29542   6.365   6.551   1.577
 9548SOL    HW129543   6.380   6.589   1.486
 9548SOL    HW229544   6.316   6.465   1.570
 9549SOL     OW29545   2.120   6.147   0.143
 9549SOL    HW129546   2.056   6.103   0.206
 9549SOL    HW229547   2.206   6.165   0.189
 9550SOL     OW29548   1.343   1.056   0.655
 9550SOL    HW129549   1.357   1.139   0.710
 9550SOL    HW229550   1.290   0.990   0.709
 9551SOL     OW29551   1.261   5.805   4.645
 9551SOL    HW129552   1.261   5.766   4.553
 9551SOL    HW229553   1.212   5.744   4.707
 9552SOL     OW29554   6.535   5.634   3.098
 9552SOL    HW129555   6.523   5.561   3.165
 9552SOL    HW229556   6.613   5.612   3.039
 9553SOL     OW29557   5.270   4.927   6.682
 9553SOL    HW129558   5.228   4.961   6.598
 9553SOL    HW229559   5.205   4.937   6.758
 9554SOL     OW29560   1.463   2.988   1.785
 9554SOL    HW129561   1.559   3.001   1.812
 9554SOL    HW229562   1.404   2.999   1.865
 9555SOL     OW29563   0.814   2.366   6.357
 9555SOL    HW129564   0.763   2.394   6.276
 9555SOL    HW229565   0.754   2.315   6.418
 9556SOL     OW29566   5.362   1.669   1.679
 9556SOL    HW129567   5.311   1.752   1.659
 9556SOL    HW229568   5.363   1.610   1.598
 9557SOL     OW29569   4.875   1.926   0.955
 9557SOL    HW129570   4.922   2.010   0.983
 9557SOL    HW229571   4.909   1.849   1.009
 9558SOL     OW29572   6.786   3.771   1.687
 9558SOL    HW129573   6.705   3.756   1.744
 9558SOL    HW229574   6.853   3.699   1.705
 9559SOL     OW29575   0.038   4.632   3.105
 9559SOL    HW129576   6.974   4.620   3.069
 9559SOL    HW229577   0.075   4.543   3.133
 9560SOL     OW29578   3.632   2.388   5.897
 9560SOL    HW129579   3.578   2.461   5.854
 9560SOL    HW229580   3.729   2.406   5.881
 9561SOL     OW29581   3.235   5.220   6.557
 9561SOL    HW129582   3.139   5.224   6.587
 9561SOL    HW229583   3.284   5.153   6.612
 9562SOL     OW29584   6.148   5.767   4.185
 9562SOL    HW129585   6.231   5.739   4.136
 9562SOL    HW229586   6.086   5.813   4.121
 9563SOL     OW29587   0.450   1.432   5.555
 9563SOL    HW129588   0.450   1.532   5.550
 9563SOL    HW229589   0.534   1.396   5.516
 9564SOL     OW29590   6.757   0.245   5.927
 9564SOL    HW129591   6.748   0.211   6.021
 9564SOL    HW229592   6.672   0.227   5.877
 9565SOL     OW29593   2.981   5.572   5.414
 9565SOL    HW129594   2.896   5.624   5.419
 9565SOL    HW229595   2.991   5.515   5.496
 9566SOL     OW29596   2.599   6.177   5.504
 9566SOL    HW129597   2.510   6.140   5.480
 9566SOL    HW229598   2.588   6.257   5.562
 9567SOL     OW29599   5.536   5.955   3.041
 9567SOL    HW129600   5.590   6.001   3.111
 9567SOL    HW229601   5.443   5.993   3.041
 9568SOL     OW29602   6.532   3.495   4.539
 9568SOL    HW129603   6.624   3.463   4.562
 9568SOL    HW229604   6.479   3.506   4.622
 9569SOL     OW29605   5.315   0.320   0.815
 9569SOL    HW129606   5.261   0.245   0.777
 9569SOL    HW229607   5.308   0.319   0.914
 9570SOL     OW29608   0.791   3.749   6.473
 9570SOL    HW129609   0.847   3.815   6.423
 9570SOL    HW229610   0.763   3.676   6.412
 9571SOL     OW29611   3.554   1.925   0.678
 9571SOL    HW129612   3.509   1.883   0.599
 9571SOL    HW229613   3.555   1.860   0.754
 9572SOL     OW29614   1.012   3.706   1.048
 9572SOL    HW129615   1.051   3.641   1.113
 9572SOL    HW229616   0.997   3.661   0.960
 9573SOL     OW29617   4.297   2.126   1.613
 9573SOL    HW129618   4.329   2.058   1.679
 9573SOL    HW229619   4.255   2.079   1.535
 9574SOL     OW29620   1.775   1.378   3.005
 9574SOL    HW129621   1.740   1.284   2.996
 9574SOL    HW229622   1.706   1.435   3.048
 9575SOL     OW29623   3.030   1.650   2.610
 9575SOL    HW129624   3.015   1.747   2.596
 9575SOL    HW229625   3.104   1.619   2.550
 9576SOL     OW29626   4.409   2.856   5.800
 9576SOL    HW129627   4.407   2.951   5.771
 9576SOL    HW229628   4.338   2.805   5.751
 9577SOL     OW29629   0.616   6.037   3.594
 9577SOL    HW129630   0.540   6.082   3.643
 9577SOL    HW229631   0.627   5.944   3.628
 9578SOL     OW29632   6.506   4.083   1.695
 9578SOL    HW129633   6.410   4.111   1.688
 9578SOL    HW229634   6.565   4.162   1.679
 9579SOL     OW29635   1.374   4.870   2.588
 9579SOL    HW129636   1.302   4.819   2.541
 9579SOL    HW229637   1.421   4.930   2.522
 9580SOL     OW29638   3.721   3.797   4.931
 9580SOL    HW129639   3.752   3.885   4.896
 9580SOL    HW229640   3.694   3.806   5.026
 9581SOL     OW29641   0.395   0.033   6.804
 9581SOL    HW129642   0.318   6.998   6.818
 9581SOL    HW229643   0.362   0.127   6.815
 9582SOL     OW29644   4.359   5.394   2.774
 9582SOL    HW129645   4.436   5.379   2.836
 9582SOL    HW229646   4.322   5.306   2.745
 9583SOL     OW29647   1.330   5.093   2.789
 9583SOL    HW129648   1.367   5.003   2.811
 9583SOL    HW229649   1.230   5.086   2.782
 9584SOL     OW29650   5.218   4.797   0.386
 9584SOL    HW129651   5.283   4.782   0.461
 9584SOL    HW229652   5.137   4.740   0.400
 9585SOL     OW29653   5.666   1.821   2.099
 9585SOL    HW129654   5.761   1.808   2.127
 9585SOL    HW229655   5.633   1.739   2.053
 9586SOL     OW29656   3.943   5.180   2.297
 9586SOL    HW129657   3.994   5.228   2.369
 9586SOL    HW229658   3.927   5.243   2.221
 9587SOL     OW29659   4.391   6.602   1.882
 9587SOL    HW129660   4.441   6.606   1.795
 9587SOL    HW229661   4.296   6.576   1.864
 9588SOL     OW29662   5.793   1.575   3.473
 9588SOL    HW129663   5.711   1.621   3.509
 9588SOL    HW229664   5.769   1.483   3.444
 9589SOL     OW29665   4.309   2.011   5.017
 9589SOL    HW129666   4.236   2.060   5.065
 9589SOL    HW229667   4.268   1.941   4.958
 9590SOL     OW29668   6.760   4.885   5.403
 9590SOL    HW129669   6.858   4.883   5.423
 9590SOL    HW229670   6.720   4.796   5.425
 9591SOL     OW29671   0.039   4.159   2.070
 9591SOL    HW129672   0.099   4.082   2.094
 9591SOL    HW229673   6.982   4.124   2.032
 9592SOL     OW29674   3.869   5.322   0.995
 9592SOL    HW129675   3.805   5.378   1.048
 9592SOL    HW229676   3.904   5.249   1.053
 9593SOL     OW29677   2.243   2.886   3.453
 9593SOL    HW129678   2.290   2.835   3.380
 9593SOL    HW229679   2.145   2.867   3.448
 9594SOL     OW29680   5.869   0.294   0.316
 9594SOL    HW129681   5.951   0.249   0.351
 9594SOL    HW229682   5.872   0.295   0.216
 9595SOL     OW29683   2.016   4.459   5.370
 9595SOL    HW129684   2.041   4.401   5.448
 9595SOL    HW229685   2.099   4.499   5.331
 9596SOL     OW29686   5.596   4.430   2.530
 9596SOL    HW129687   5.611   4.529   2.536
 9596SOL    HW229688   5.682   4.382   2.548
 9597SOL     OW29689   1.523   4.102   2.058
 9597SOL    HW129690   1.621   4.094   2.080
 9597SOL    HW229691   1.510   4.092   1.960
 9598SOL     OW29692   0.904   6.258   4.802
 9598SOL    HW129693   0.915   6.167   4.761
 9598SOL    HW229694   0.811   6.268   4.837
 9599SOL     OW29695   4.138   2.140   5.502
 9599SOL    HW129696   4.046   2.168   5.474
 9599SOL    HW229697   4.172   2.204   5.571
 9600SOL     OW29698   1.719   5.363   6.912
 9600SOL    HW129699   1.702   5.452   6.954
 9600SOL    HW229700   1.672   5.292   6.964
 9601SOL     OW29701   1.056   0.332   5.386
 9601SOL    HW129702   1.103   0.244   5.400
 9601SOL    HW229703   0.975   0.335   5.445
 9602SOL     OW29704   0.671   5.751   6.103
 9602SOL    HW129705   0.600   5.817   6.078
 9602SOL    HW229706   0.693   5.694   6.024
 9603SOL     OW29707   1.151   5.150   2.027
 9603SOL    HW129708   1.128   5.060   2.065
 9603SOL    HW229709   1.147   5.219   2.099
 9604SOL     OW29710   6.007   0.254   5.828
 9604SOL    HW129711   6.029   0.338   5.878
 9604SOL    HW229712   5.938   0.274   5.759
 9605SOL     OW29713   3.275   5.265   0.328
 9605SOL    HW129714   3.252   5.290   0.233
 9605SOL    HW229715   3.195   5.281   0.386
 9606SOL     OW29716   6.785   1.589   4.667
 9606SOL    HW129717   6.777   1.528   4.589
 9606SOL    HW229718   6.879   1.622   4.674
 9607SOL     OW29719   6.646   3.797   3.659
 9607SOL    HW129720   6.605   3.885   3.636
 9607SOL    HW229721   6.668   3.795   3.756
 9608SOL     OW29722   6.290   0.797   1.276
 9608SOL    HW129723   6.325   0.716   1.323
 9608SOL    HW229724   6.300   0.786   1.177
 9609SOL     OW29725   0.720   2.176   3.691
 9609SOL    HW129726   0.630   2.216   3.708
 9609SOL    HW229727   0.729   2.156   3.593
 9610SOL     OW29728   5.282   1.245   6.093
 9610SOL    HW129729   5.288   1.165   6.153
 9610SOL    HW229730   5.364   1.250   6.036
 9611SOL     OW29731   5.220   5.183   1.652
 9611SOL    HW129732   5.214   5.182   1.752
 9611SOL    HW229733   5.135   5.147   1.614
 9612SOL     OW29734   4.592   4.437   3.366
 9612SOL    HW129735   4.568   4.403   3.457
 9612SOL    HW229736   4.692   4.438   3.356
 9613SOL     OW29737   4.080   1.611   4.584
 9613SOL    HW129738   3.990   1.569   4.593
 9613SOL    HW229739   4.102   1.623   4.487
 9614SOL     OW29740   3.663   2.595   6.731
 9614SOL    HW129741   3.623   2.526   6.791
 9614SOL    HW229742   3.594   2.628   6.667
 9615SOL     OW29743   6.292   6.579   3.622
 9615SOL    HW129744   6.210   6.527   3.599
 9615SOL    HW229745   6.315   6.642   3.548
 9616SOL     OW29746   0.138   2.064   6.967
 9616SOL    HW129747   0.053   2.032   7.009
 9616SOL    HW229748   0.205   1.990   6.965
 9617SOL     OW29749   1.568   3.528   3.677
 9617SOL    HW129750   1.611   3.579   3.751
 9617SOL    HW229751   1.483   3.487   3.710
 9618SOL     OW29752   5.193   4.198   1.575
 9618SOL    HW129753   5.243   4.142   1.640
 9618SOL    HW229754   5.182   4.290   1.612
 9619SOL     OW29755   1.779   1.495   0.638
 9619SOL    HW129756   1.819   1.413   0.596
 9619SOL    HW229757   1.722   1.542   0.571
 9620SOL     OW29758   3.291   1.218   6.418
 9620SOL    HW129759   3.298   1.250   6.323
 9620SOL    HW229760   3.333   1.127   6.426
 9621SOL     OW29761   0.012   0.348   0.277
 9621SOL    HW129762   6.975   0.321   0.347
 9621SOL    HW229763   7.018   0.304   0.190
 9622SOL     OW29764   6.423   0.225   4.607
 9622SOL    HW129765   6.328   0.225   4.574
 9622SOL    HW229766   6.450   0.131   4.630
 9623SOL     OW29767   2.329   5.647   6.233
 9623SOL    HW129768   2.416   5.625   6.277
 9623SOL    HW229769   2.323   5.599   6.146
 9624SOL     OW29770   4.437   5.386   6.820
 9624SOL    HW129771   4.429   5.340   6.908
 9624SOL    HW229772   4.424   5.320   6.746
 9625SOL     OW29773   4.990   3.700   5.955
 9625SOL    HW129774   5.077   3.664   5.923
 9625SOL    HW229775   4.925   3.704   5.878
 9626SOL     OW29776   2.862   2.625   0.216
 9626SOL    HW129777   2.908   2.591   0.298
 9626SOL    HW229778   2.768   2.590   0.213
 9627SOL     OW29779   0.026   5.224   0.400
 9627SOL    HW129780   6.966   5.180   0.383
 9627SOL    HW229781   0.092   5.155   0.429
 9628SOL     OW29782   5.975   1.895   5.547
 9628SOL    HW129783   5.923   1.810   5.539
 9628SOL    HW229784   5.932   1.954   5.614
 9629SOL     OW29785   0.567   5.968   4.139
 9629SOL    HW129786   0.617   6.024   4.205
 9629SOL    HW229787   0.630   5.912   4.086
 9630SOL     OW29788   6.292   0.298   5.369
 9630SOL    HW129789   6.205   0.342   5.347
 9630SOL    HW229790   6.367   0.349   5.329
 9631SOL     OW29791   4.506   5.844   0.269
 9631SOL    HW129792   4.605   5.835   0.279
 9631SOL    HW229793   4.472   5.908   0.339
 9632SOL     OW29794   2.562   5.432   2.898
 9632SOL    HW129795   2.574   5.531   2.898
 9632SOL    HW229796   2.632   5.389   2.955
 9633SOL     OW29797   2.460   3.118   5.668
 9633SOL    HW129798   2.419   3.047   5.725
 9633SOL    HW229799   2.434   3.103   5.572
 9634SOL     OW29800   5.514   4.663   3.104
 9634SOL    HW129801   5.606   4.704   3.110
 9634SOL    HW229802   5.461   4.711   3.034
 9635SOL     OW29803   0.903   5.300   4.015
 9635SOL    HW129804   0.959   5.317   4.096
 9635SOL    HW229805   0.807   5.321   4.036
 9636SOL     OW29806   4.887   3.636   3.710
 9636SOL    HW129807   4.842   3.616   3.623
 9636SOL    HW229808   4.920   3.731   3.708
 9637SOL     OW29809   3.142   2.693   5.985
 9637SOL    HW129810   3.214   2.657   5.926
 9637SOL    HW229811   3.153   2.658   6.078
 9638SOL     OW29812   1.340   4.102   6.165
 9638SOL    HW129813   1.299   4.113   6.075
 9638SOL    HW229814   1.423   4.047   6.158
 9639SOL     OW29815   5.676   2.741   0.843
 9639SOL    HW129816   5.606   2.810   0.828
 9639SOL    HW229817   5.634   2.657   0.877
 9640SOL     OW29818   2.730   5.784   3.571
 9640SOL    HW129819   2.758   5.703   3.623
 9640SOL    HW229820   2.673   5.757   3.494
 9641SOL     OW29821   0.713   2.720   4.323
 9641SOL    HW129822   0.627   2.729   4.374
 9641SOL    HW229823   0.753   2.631   4.343
 9642SOL     OW29824   0.978   3.018   4.700
 9642SOL    HW129825   0.881   3.041   4.692
 9642SOL    HW229826   0.996   2.931   4.653
 9643SOL     OW29827   6.526   5.736   4.652
 9643SOL    HW129828   6.436   5.761   4.616
 9643SOL    HW229829   6.593   5.734   4.578
 9644SOL     OW29830   1.050   5.126   3.727
 9644SOL    HW129831   1.115   5.151   3.656
 9644SOL    HW229832   0.958   5.122   3.689
 9645SOL     OW29833   0.399   4.869   0.861
 9645SOL    HW129834   0.444   4.889   0.947
 9645SOL    HW229835   0.372   4.955   0.816
 9646SOL     OW29836   1.926   4.835   0.718
 9646SOL    HW129837   2.011   4.847   0.665
 9646SOL    HW229838   1.853   4.806   0.656
 9647SOL     OW29839   4.986   0.264   2.606
 9647SOL    HW129840   5.039   0.252   2.690
 9647SOL    HW229841   4.922   0.340   2.617
 9648SOL     OW29842   4.080   1.663   1.106
 9648SOL    HW129843   4.104   1.750   1.063
 9648SOL    HW229844   4.149   1.641   1.176
 9649SOL     OW29845   0.012   5.310   0.143
 9649SOL    HW129846   0.050   5.233   0.091
 9649SOL    HW229847   7.016   5.280   0.235
 9650SOL     OW29848   6.861   5.123   5.602
 9650SOL    HW129849   6.920   5.051   5.638
 9650SOL    HW229850   6.900   5.159   5.517
 9651SOL     OW29851   4.012   1.000   0.802
 9651SOL    HW129852   4.049   0.994   0.895
 9651SOL    HW229853   3.914   0.979   0.805
 9652SOL     OW29854   0.641   3.998   6.945
 9652SOL    HW129855   0.633   4.029   6.850
 9652SOL    HW229856   0.557   4.022   6.995
 9653SOL     OW29857   5.801   3.405   5.165
 9653SOL    HW129858   5.818   3.311   5.192
 9653SOL    HW229859   5.710   3.433   5.196
 9654SOL     OW29860   3.606   3.403   4.559
 9654SOL    HW129861   3.665   3.484   4.560
 9654SOL    HW229862   3.657   3.324   4.593
 9655SOL     OW29863   4.613   0.918   0.219
 9655SOL    HW129864   4.667   0.887   0.298
 9655SOL    HW229865   4.526   0.870   0.218
 9656SOL     OW29866   5.272   4.666   4.885
 9656SOL    HW129867   5.311   4.738   4.827
 9656SOL    HW229868   5.172   4.674   4.885
 9657SOL     OW29869   4.929   4.521   2.414
 9657SOL    HW129870   4.986   4.482   2.342
 9657SOL    HW229871   4.951   4.477   2.502
 9658SOL     OW29872   4.871   1.514   2.894
 9658SOL    HW129873   4.930   1.493   2.972
 9658SOL    HW229874   4.927   1.553   2.821
 9659SOL     OW29875   4.539   3.266   0.357
 9659SOL    HW129876   4.627   3.235   0.392
 9659SOL    HW229877   4.491   3.189   0.315
 9660SOL     OW29878   2.268   0.383   1.586
 9660SOL    HW129879   2.278   0.284   1.575
 9660SOL    HW229880   2.195   0.401   1.652
 9661SOL     OW29881   3.677   3.436   2.450
 9661SOL    HW129882   3.745   3.444   2.378
 9661SOL    HW229883   3.675   3.521   2.503
 9662SOL     OW29884   4.173   0.628   4.934
 9662SOL    HW129885   4.134   0.696   4.996
 9662SOL    HW229886   4.101   0.586   4.880
 9663SOL     OW29887   1.079   5.998   2.062
 9663SOL    HW129888   1.059   5.906   2.030
 9663SOL    HW229889   1.126   5.993   2.150
 9664SOL     OW29890   1.389   4.552   2.479
 9664SOL    HW129891   1.301   4.599   2.493
 9664SOL    HW229892   1.452   4.612   2.429
 9665SOL     OW29893   5.973   3.596   0.170
 9665SOL    HW129894   5.950   3.617   0.265
 9665SOL    HW229895   6.046   3.527   0.168
 9666SOL     OW29896   5.091   4.353   1.335
 9666SOL    HW129897   4.995   4.366   1.308
 9666SOL    HW229898   5.095   4.292   1.414
 9667SOL     OW29899   5.689   5.988   7.006
 9667SOL    HW129900   5.734   5.923   6.945
 9667SOL    HW229901   5.720   5.972   0.071
 9668SOL     OW29902   2.076   0.579   0.467
 9668SOL    HW129903   2.006   0.514   0.498
 9668SOL    HW229904   2.076   0.659   0.528
 9669SOL     OW29905   3.374   6.985   0.710
 9669SOL    HW129906   3.379   6.899   0.761
 9669SOL    HW229907   3.462   0.002   0.713
 9670SOL     OW29908   0.879   7.025   2.776
 9670SOL    HW129909   0.949   0.057   2.815
 9670SOL    HW229910   0.804   7.015   2.841
 9671SOL     OW29911   1.130   5.352   6.602
 9671SOL    HW129912   1.198   5.424   6.611
 9671SOL    HW229913   1.168   5.275   6.550
 9672SOL     OW29914   0.854   4.113   4.368
 9672SOL    HW129915   0.815   4.203   4.389
 9672SOL    HW229916   0.807   4.075   4.288
 9673SOL     OW29917   1.997   2.845   5.381
 9673SOL    HW129918   2.037   2.810   5.466
 9673SOL    HW229919   2.040   2.800   5.303
 9674SOL     OW29920   1.900   0.642   3.545
 9674SOL    HW129921   1.898   0.564   3.483
 9674SOL    HW229922   1.890   0.726   3.492
 9675SOL     OW29923   6.871   4.021   6.324
 9675SOL    HW129924   6.964   3.995   6.299
 9675SOL    HW229925   6.873   4.103   6.380
 9676SOL     OW29926   0.746   2.928   6.257
 9676SOL    HW129927   0.703   3.017   6.273
 9676SOL    HW229928   0.714   2.863   6.326
 9677SOL     OW29929   0.602   4.941   3.410
 9677SOL    HW129930   0.694   4.971   3.386
 9677SOL    HW229931   0.607   4.853   3.459
 9678SOL     OW29932   4.526   2.873   6.616
 9678SOL    HW129933   4.556   2.833   6.702
 9678SOL    HW229934   4.540   2.808   6.541
 9679SOL     OW29935   1.884   1.138   4.506
 9679SOL    HW129936   1.979   1.162   4.485
 9679SOL    HW229937   1.882   1.055   4.562
 9680SOL     OW29938   4.412   6.551   2.862
 9680SOL    HW129939   4.333   6.506   2.821
 9680SOL    HW229940   4.483   6.483   2.879
 9681SOL     OW29941   0.754   2.657   1.057
 9681SOL    HW129942   0.667   2.687   1.017
 9681SOL    HW229943   0.736   2.606   1.141
 9682SOL     OW29944   3.913   6.671   4.998
 9682SOL    HW129945   3.954   6.595   4.947
 9682SOL    HW229946   3.920   6.652   5.096
 9683SOL     OW29947   2.872   5.998   3.871
 9683SOL    HW129948   2.848   5.903   3.852
 9683SOL    HW229949   2.789   6.048   3.896
 9684SOL     OW29950   1.312   2.703   6.241
 9684SOL    HW129951   1.229   2.755   6.264
 9684SOL    HW229952   1.360   2.678   6.325
 9685SOL     OW29953   3.919   4.776   1.861
 9685SOL    HW129954   3.981   4.715   1.813
 9685SOL    HW229955   3.824   4.746   1.847
 9686SOL     OW29956   1.334   1.772   6.050
 9686SOL    HW129957   1.346   1.742   6.145
 9686SOL    HW229958   1.421   1.764   6.001
 9687SOL     OW29959   5.599   0.237   3.567
 9687SOL    HW129960   5.699   0.226   3.569
 9687SOL    HW229961   5.566   0.224   3.474
 9688SOL     OW29962   0.744   5.164   2.542
 9688SOL    HW129963   0.758   5.188   2.638
 9688SOL    HW229964   0.822   5.111   2.509
 9689SOL     OW29965   1.697   5.872   0.855
 9689SOL    HW129966   1.650   5.790   0.821
 9689SOL    HW229967   1.653   5.904   0.939
 9690SOL     OW29968   6.246   4.518   3.550
 9690SOL    HW129969   6.333   4.470   3.535
 9690SOL    HW229970   6.223   4.513   3.647
 9691SOL     OW29971   4.072   3.819   2.279
 9691SOL    HW129972   4.080   3.781   2.187
 9691SOL    HW229973   4.112   3.911   2.281
 9692SOL     OW29974   6.746   5.345   0.360
 9692SOL    HW129975   6.709   5.321   0.270
 9692SOL    HW229976   6.727   5.271   0.425
 9693SOL     OW29977   4.185   3.953   0.017
 9693SOL    HW129978   4.209   4.025   6.980
 9693SOL    HW229979   4.141   3.994   0.097
 9694SOL     OW29980   2.277   5.756   1.086
 9694SOL    HW129981   2.200   5.805   1.045
 9694SOL    HW229982   2.254   5.730   1.180
 9695SOL     OW29983   1.228   2.955   3.407
 9695SOL    HW129984   1.174   2.923   3.485
 9695SOL    HW229985   1.312   2.999   3.440
 9696SOL     OW29986   4.485   4.472   3.092
 9696SOL    HW129987   4.502   4.466   3.190
 9696SOL    HW229988   4.529   4.395   3.046
 9697SOL     OW29989   6.852   6.853   3.236
 9697SOL    HW129990   6.906   6.771   3.253
 9697SOL    HW229991   6.912   6.932   3.230
 9698SOL     OW29992   0.666   2.596   1.308
 9698SOL    HW129993   0.653   2.694   1.322
 9698SOL    HW229994   0.680   2.551   1.396
 9699SOL     OW29995   1.753   0.414   2.549
 9699SOL    HW129996   1.756   0.354   2.469
 9699SOL    HW229997   1.678   0.386   2.609
 9700SOL     OW29998   6.347   0.295   6.023
 9700SOL    HW129999   6.383   0.271   5.932
 9700SOL    HW230000   6.295   0.380   6.016
 9701SOL     OW30001   5.773   3.744   6.660
 9701SOL    HW130002   5.847   3.679   6.641
 9701SOL    HW230003   5.811   3.829   6.696
 9702SOL     OW30004   2.874   3.554   2.081
 9702SOL    HW130005   2.824   3.599   2.006
 9702SOL    HW230006   2.953   3.610   2.106
 9703SOL     OW30007   6.034   4.736   3.392
 9703SOL    HW130008   6.009   4.663   3.456
 9703SOL    HW230009   6.051   4.820   3.443
 9704SOL     OW30010   0.471   5.429   1.974
 9704SOL    HW130011   0.462   5.488   1.894
 9704SOL    HW230012   0.389   5.437   2.030
 9705SOL     OW30013   0.182   4.089   5.257
 9705SOL    HW130014   0.137   4.173   5.289
 9705SOL    HW230015   0.128   4.010   5.284
 9706SOL     OW30016   0.026   6.963   2.615
 9706SOL    HW130017   0.121   6.995   2.611
 9706SOL    HW230018   6.994   0.011   2.634
 9707SOL     OW30019   1.309   4.631   1.276
 9707SOL    HW130020   1.273   4.550   1.321
 9707SOL    HW230021   1.396   4.608   1.231
 9708SOL     OW30022   3.051   0.486   1.635
 9708SOL    HW130023   3.070   0.481   1.536
 9708SOL    HW230024   3.108   0.557   1.676
 9709SOL     OW30025   3.527   1.818   2.176
 9709SOL    HW130026   3.528   1.732   2.228
 9709SOL    HW230027   3.599   1.878   2.210
 9710SOL     OW30028   5.110   4.818   4.306
 9710SOL    HW130029   5.138   4.722   4.308
 9710SOL    HW230030   5.120   4.854   4.213
 9711SOL     OW30031   3.256   0.119   6.579
 9711SOL    HW130032   3.255   0.032   6.531
 9711SOL    HW230033   3.272   0.103   6.677
 9712SOL     OW30034   5.112   6.454   5.581
 9712SOL    HW130035   5.179   6.393   5.539
 9712SOL    HW230036   5.027   6.404   5.596
 9713SOL     OW30037   0.597   1.195   3.069
 9713SOL    HW130038   0.613   1.291   3.046
 9713SOL    HW230039   0.685   1.147   3.075
 9714SOL     OW30040   2.459   2.664   3.528
 9714SOL    HW130041   2.386   2.607   3.491
 9714SOL    HW230042   2.542   2.609   3.537
 9715SOL     OW30043   0.807   1.778   6.206
 9715SOL    HW130044   0.767   1.690   6.234
 9715SOL    HW230045   0.748   1.852   6.236
 9716SOL     OW30046   1.421   5.900   1.294
 9716SOL    HW130047   1.360   5.978   1.306
 9716SOL    HW230048   1.494   5.904   1.361
 9717SOL     OW30049   4.255   1.900   6.181
 9717SOL    HW130050   4.262   1.948   6.269
 9717SOL    HW230051   4.187   1.946   6.124
 9718SOL     OW30052   2.751   2.689   6.960
 9718SOL    HW130053   2.755   2.589   6.958
 9718SOL    HW230054   2.668   2.718   7.007
 9719SOL     OW30055   4.858   0.179   6.525
 9719SOL    HW130056   4.764   0.209   6.513
 9719SOL    HW230057   4.861   0.080   6.536
 9720SOL     OW30058   1.856   2.155   1.942
 9720SOL    HW130059   1.907   2.089   1.998
 9720SOL    HW230060   1.920   2.205   1.883
 9721SOL     OW30061   0.248   1.379   0.916
 9721SOL    HW130062   0.173   1.373   0.851
 9721SOL    HW230063   0.213   1.364   1.009
 9722SOL     OW30064   3.622   2.793   5.862
 9722SOL    HW130065   3.711   2.751   5.841
 9722SOL    HW230066   3.563   2.726   5.906
 9723SOL     OW30067   5.708   1.461   4.421
 9723SOL    HW130068   5.622   1.413   4.400
 9723SOL    HW230069   5.701   1.556   4.390
 9724SOL     OW30070   1.370   5.216   1.449
 9724SOL    HW130071   1.306   5.153   1.492
 9724SOL    HW230072   1.463   5.197   1.482
 9725SOL     OW30073   5.897   5.519   4.951
 9725SOL    HW130074   5.850   5.570   4.879
 9725SOL    HW230075   5.846   5.526   5.036
 9726SOL     OW30076   6.592   0.197   2.664
 9726SOL    HW130077   6.672   0.251   2.690
 9726SOL    HW230078   6.551   0.157   2.746
 9727SOL     OW30079   6.627   3.333   0.818
 9727SOL    HW130080   6.652   3.403   0.885
 9727SOL    HW230081   6.586   3.255   0.865
 9728SOL     OW30082   4.912   2.676   5.270
 9728SOL    HW130083   4.920   2.598   5.332
 9728SOL    HW230084   4.902   2.642   5.176
 9729SOL     OW30085   6.917   3.285   2.904
 9729SOL    HW130086   6.876   3.339   2.831
 9729SOL    HW230087   6.861   3.291   2.986
 9730SOL     OW30088   0.257   6.821   3.380
 9730SOL    HW130089   0.341   6.806   3.432
 9730SOL    HW230090   0.216   6.908   3.407
 9731SOL     OW30091   6.449   0.904   1.593
 9731SOL    HW130092   6.505   0.936   1.670
 9731SOL    HW230093   6.485   0.816   1.561
 9732SOL     OW30094   6.910   2.793   2.646
 9732SOL    HW130095   6.911   2.861   2.573
 9732SOL    HW230096   6.833   2.730   2.633
 9733SOL     OW30097   4.874   6.113   0.765
 9733SOL    HW130098   4.809   6.054   0.717
 9733SOL    HW230099   4.876   6.203   0.720
 9734SOL     OW30100   3.941   3.394   0.593
 9734SOL    HW130101   4.015   3.462   0.588
 9734SOL    HW230102   3.945   3.346   0.680
 9735SOL     OW30103   0.899   2.514   0.384
 9735SOL    HW130104   0.944   2.477   0.466
 9735SOL    HW230105   0.859   2.603   0.406
 9736SOL     OW30106   6.337   2.773   5.809
 9736SOL    HW130107   6.384   2.856   5.842
 9736SOL    HW230108   6.388   2.734   5.733
 9737SOL     OW30109   5.292   3.859   5.322
 9737SOL    HW130110   5.291   3.901   5.231
 9737SOL    HW230111   5.202   3.868   5.364
 9738SOL     OW30112   2.651   6.010   1.391
 9738SOL    HW130113   2.738   6.048   1.422
 9738SOL    HW230114   2.579   6.079   1.402
 9739SOL     OW30115   5.597   5.968   1.697
 9739SOL    HW130116   5.551   5.948   1.611
 9739SOL    HW230117   5.695   5.948   1.687
 9740SOL     OW30118   6.837   0.009   1.109
 9740SOL    HW130119   6.929   0.034   1.138
 9740SOL    HW230120   6.824   0.034   1.013
 9741SOL     OW30121   2.045   2.441   3.006
 9741SOL    HW130122   2.071   2.523   2.954
 9741SOL    HW230123   2.109   2.367   2.985
 9742SOL     OW30124   5.145   6.719   6.654
 9742SOL    HW130125   5.174   6.757   6.742
 9742SOL    HW230126   5.198   6.762   6.581
 9743SOL     OW30127   5.882   3.864   4.597
 9743SOL    HW130128   5.874   3.955   4.638
 9743SOL    HW230129   5.978   3.846   4.577
 9744SOL     OW30130   1.734   2.968   2.173
 9744SOL    HW130131   1.649   2.917   2.185
 9744SOL    HW230132   1.735   3.047   2.234
 9745SOL     OW30133   1.261   6.975   5.683
 9745SOL    HW130134   1.352   6.985   5.642
 9745SOL    HW230135   1.248   0.018   5.752
 9746SOL     OW30136   3.983   5.374   5.970
 9746SOL    HW130137   4.056   5.305   5.974
 9746SOL    HW230138   4.015   5.453   5.918
 9747SOL     OW30139   4.795   1.640   3.415
 9747SOL    HW130140   4.698   1.657   3.435
 9747SOL    HW230141   4.842   1.728   3.403
 9748SOL     OW30142   0.169   1.579   1.564
 9748SOL    HW130143   0.069   1.586   1.566
 9748SOL    HW230144   0.201   1.582   1.470
 9749SOL     OW30145   6.582   6.885   1.580
 9749SOL    HW130146   6.652   6.928   1.524
 9749SOL    HW230147   6.514   6.953   1.606
 9750SOL     OW30148   5.162   3.171   4.810
 9750SOL    HW130149   5.093   3.222   4.759
 9750SOL    HW230150   5.229   3.234   4.849
 9751SOL     OW30151   3.017   4.819   0.796
 9751SOL    HW130152   3.054   4.737   0.752
 9751SOL    HW230153   3.019   4.895   0.731
 9752SOL     OW30154   4.450   4.419   0.975
 9752SOL    HW130155   4.527   4.481   0.958
 9752SOL    HW230156   4.433   4.413   1.073
 9753SOL     OW30157   5.951   6.256   3.232
 9753SOL    HW130158   6.002   6.171   3.249
 9753SOL    HW230159   5.995   6.331   3.280
 9754SOL     OW30160   3.477   1.150   2.040
 9754SOL    HW130161   3.389   1.189   2.013
 9754SOL    HW230162   3.472   1.050   2.037
 9755SOL     OW30163   3.899   4.244   1.259
 9755SOL    HW130164   3.876   4.272   1.352
 9755SOL    HW230165   3.816   4.244   1.203
 9756SOL     OW30166   4.832   0.540   6.861
 9756SOL    HW130167   4.879   0.627   6.873
 9756SOL    HW230168   4.871   0.472   6.923
 9757SOL     OW30169   5.018   4.172   3.801
 9757SOL    HW130170   5.077   4.194   3.724
 9757SOL    HW230171   4.972   4.255   3.833
 9758SOL     OW30172   2.899   0.551   0.537
 9758SOL    HW130173   2.943   0.614   0.601
 9758SOL    HW230174   2.812   0.590   0.507
 9759SOL     OW30175   6.478   0.789   0.410
 9759SOL    HW130176   6.452   0.694   0.430
 9759SOL    HW230177   6.402   0.835   0.364
 9760SOL     OW30178   4.903   0.469   5.825
 9760SOL    HW130179   4.896   0.568   5.837
 9760SOL    HW230180   4.906   0.425   5.915
 9761SOL     OW30181   0.611   2.010   1.661
 9761SOL    HW130182   0.545   1.939   1.634
 9761SOL    HW230183   0.586   2.097   1.617
 9762SOL     OW30184   4.004   1.487   5.358
 9762SOL    HW130185   3.982   1.554   5.287
 9762SOL    HW230186   4.042   1.533   5.438
 9763SOL     OW30187   6.507   1.979   0.432
 9763SOL    HW130188   6.481   2.011   0.523
 9763SOL    HW230189   6.426   1.976   0.373
 9764SOL     OW30190   6.875   2.517   3.305
 9764SOL    HW130191   6.872   2.545   3.209
 9764SOL    HW230192   6.783   2.492   3.336
 9765SOL     OW30193   7.019   1.955   0.769
 9765SOL    HW130194   0.001   1.998   0.859
 9765SOL    HW230195   6.943   1.891   0.772
 9766SOL     OW30196   0.787   3.195   2.665
 9766SOL    HW130197   0.811   3.288   2.692
 9766SOL    HW230198   0.871   3.143   2.650
 9767SOL     OW30199   3.604   1.279   4.559
 9767SOL    HW130200   3.507   1.293   4.580
 9767SOL    HW230201   3.644   1.216   4.626
 9768SOL     OW30202   4.166   3.583   6.759
 9768SOL    HW130203   4.104   3.601   6.683
 9768SOL    HW230204   4.220   3.501   6.739
 9769SOL     OW30205   2.954   0.596   5.870
 9769SOL    HW130206   2.974   0.687   5.834
 9769SOL    HW230207   2.877   0.601   5.934
 9770SOL     OW30208   1.919   3.300   4.832
 9770SOL    HW130209   1.937   3.216   4.884
 9770SOL    HW230210   1.842   3.348   4.874
 9771SOL     OW30211   3.559   0.026   1.329
 9771SOL    HW130212   3.568   0.122   1.355
 9771SOL    HW230213   3.587   6.997   1.406
 9772SOL     OW30214   0.259   0.523   1.682
 9772SOL    HW130215   0.325   0.577   1.734
 9772SOL    HW230216   0.303   0.488   1.599
 9773SOL     OW30217   4.230   6.330   2.779
 9773SOL    HW130218   4.153   6.308   2.718
 9773SOL    HW230219   4.227   6.270   2.859
 9774SOL     OW30220   1.413   5.030   5.430
 9774SOL    HW130221   1.377   4.957   5.373
 9774SOL    HW230222   1.360   5.037   5.514
 9775SOL     OW30223   1.322   1.457   3.610
 9775SOL    HW130224   1.279   1.537   3.568
 9775SOL    HW230225   1.257   1.413   3.671
 9776SOL     OW30226   0.673   5.709   1.578
 9776SOL    HW130227   0.604   5.779   1.596
 9776SOL    HW230228   0.684   5.652   1.660
 9777SOL     OW30229   5.286   2.763   5.219
 9777SOL    HW130230   5.365   2.727   5.269
 9777SOL    HW230231   5.317   2.812   5.138
 9778SOL     OW30232   1.931   2.775   3.021
 9778SOL    HW130233   2.004   2.725   2.975
 9778SOL    HW230234   1.967   2.859   3.061
 9779SOL     OW30235   1.858   1.044   2.803
 9779SOL    HW130236   1.783   1.078   2.859
 9779SOL    HW230237   1.844   0.947   2.783
 9780SOL     OW30238   1.724   2.026   1.136
 9780SOL    HW130239   1.660   2.103   1.132
 9780SOL    HW230240   1.723   1.985   1.227
 9781SOL     OW30241   0.790   1.012   2.154
 9781SOL    HW130242   0.725   0.944   2.120
 9781SOL    HW230243   0.881   0.992   2.120
 9782SOL     OW30244   0.525   2.546   7.020
 9782SOL    HW130245   0.458   2.484   6.979
 9782SOL    HW230246   0.574   2.594   6.947
 9783SOL     OW30247   5.399   1.524   2.117
 9783SOL    HW130248   5.479   1.549   2.062
 9783SOL    HW230249   5.421   1.445   2.175
 9784SOL     OW30250   2.276   1.261   0.300
 9784SOL    HW130251   2.323   1.229   0.218
 9784SOL    HW230252   2.326   1.230   0.381
 9785SOL     OW30253   1.935   3.502   4.393
 9785SOL    HW130254   1.885   3.580   4.431
 9785SOL    HW230255   1.936   3.427   4.459
 9786SOL     OW30256   2.570   4.438   0.488
 9786SOL    HW130257   2.560   4.536   0.499
 9786SOL    HW230258   2.666   4.412   0.501
 9787SOL     OW30259   2.813   3.333   1.050
 9787SOL    HW130260   2.896   3.358   1.101
 9787SOL    HW230261   2.746   3.407   1.057
 9788SOL     OW30262   2.830   0.332   3.790
 9788SOL    HW130263   2.819   0.423   3.750
 9788SOL    HW230264   2.743   0.284   3.786
 9789SOL     OW30265   4.469   1.754   0.495
 9789SOL    HW130266   4.382   1.706   0.509
 9789SOL    HW230267   4.488   1.812   0.574
 9790SOL     OW30268   4.721   5.519   5.741
 9790SOL    HW130269   4.812   5.534   5.702
 9790SOL    HW230270   4.718   5.558   5.833
 9791SOL     OW30271   0.193   0.676   0.868
 9791SOL    HW130272   0.155   0.656   0.778
 9791SOL    HW230273   0.221   0.772   0.873
 9792SOL     OW30274   2.848   3.615   7.006
 9792SOL    HW130275   2.796   3.573   0.052
 9792SOL    HW230276   2.785   3.639   6.932
 9793SOL     OW30277   5.484   0.575   1.963
 9793SOL    HW130278   5.580   0.603   1.971
 9793SOL    HW230279   5.444   0.568   2.055
 9794SOL     OW30280   4.169   5.774   5.681
 9794SOL    HW130281   4.250   5.831   5.674
 9794SOL    HW230282   4.098   5.809   5.620
 9795SOL     OW30283   1.863   3.970   3.294
 9795SOL    HW130284   1.883   3.986   3.198
 9795SOL    HW230285   1.944   3.932   3.339
 9796SOL     OW30286   3.670   3.490   4.999
 9796SOL    HW130287   3.615   3.561   5.043
 9796SOL    HW230288   3.717   3.529   4.920
 9797SOL     OW30289   3.766   5.110   0.272
 9797SOL    HW130290   3.824   5.088   0.350
 9797SOL    HW230291   3.678   5.145   0.305
 9798SOL     OW30292   0.794   4.314   5.682
 9798SOL    HW130293   0.870   4.297   5.745
 9798SOL    HW230294   0.733   4.383   5.722
 9799SOL     OW30295   3.118   0.327   6.221
 9799SOL    HW130296   3.037   0.290   6.176
 9799SOL    HW230297   3.139   0.417   6.184
 9800SOL     OW30298   0.459   4.847   4.478
 9800SOL    HW130299   0.555   4.859   4.505
 9800SOL    HW230300   0.455   4.799   4.390
 9801SOL     OW30301   3.854   6.304   1.069
 9801SOL    HW130302   3.828   6.228   1.011
 9801SOL    HW230303   3.945   6.337   1.042
 9802SOL     OW30304   4.086   2.437   0.336
 9802SOL    HW130305   4.169   2.401   0.378
 9802SOL    HW230306   4.111   2.492   0.256
 9803SOL     OW30307   2.741   3.608   0.377
 9803SOL    HW130308   2.783   3.535   0.323
 9803SOL    HW230309   2.650   3.579   0.406
 9804SOL     OW30310   0.859   3.646   3.110
 9804SOL    HW130311   0.877   3.744   3.113
 9804SOL    HW230312   0.827   3.615   3.200
 9805SOL     OW30313   0.019   4.337   5.151
 9805SOL    HW130314   0.041   4.371   5.243
 9805SOL    HW230315   6.951   4.311   5.148
 9806SOL     OW30316   3.414   1.087   0.397
 9806SOL    HW130317   3.456   1.140   0.323
 9806SOL    HW230318   3.460   0.999   0.405
 9807SOL     OW30319   3.775   3.255   4.751
 9807SOL    HW130320   3.719   3.199   4.812
 9807SOL    HW230321   3.819   3.327   4.805
 9808SOL     OW30322   2.585   6.778   2.622
 9808SOL    HW130323   2.543   6.688   2.613
 9808SOL    HW230324   2.683   6.772   2.601
 9809SOL     OW30325   0.040   3.813   1.160
 9809SOL    HW130326   0.088   3.796   1.073
 9809SOL    HW230327   6.994   3.748   1.169
 9810SOL     OW30328   4.140   2.890   1.154
 9810SOL    HW130329   4.206   2.816   1.156
 9810SOL    HW230330   4.073   2.878   1.227
 9811SOL     OW30331   5.427   3.528   3.733
 9811SOL    HW130332   5.346   3.586   3.737
 9811SOL    HW230333   5.442   3.484   3.821
 9812SOL     OW30334   3.080   5.511   6.435
 9812SOL    HW130335   3.088   5.434   6.371
 9812SOL    HW230336   3.156   5.574   6.420
 9813SOL     OW30337   4.691   0.539   2.090
 9813SOL    HW130338   4.653   0.467   2.032
 9813SOL    HW230339   4.624   0.566   2.159
 9814SOL     OW30340   6.519   1.416   6.434
 9814SOL    HW130341   6.427   1.408   6.394
 9814SOL    HW230342   6.580   1.460   6.368
 9815SOL     OW30343   5.372   2.917   5.015
 9815SOL    HW130344   5.402   3.012   5.002
 9815SOL    HW230345   5.325   2.886   4.933
 9816SOL     OW30346   4.060   0.687   0.123
 9816SOL    HW130347   4.062   0.697   0.222
 9816SOL    HW230348   4.144   0.725   0.084
 9817SOL     OW30349   5.969   0.181   1.274
 9817SOL    HW130350   5.917   0.098   1.295
 9817SOL    HW230351   6.031   0.164   1.197
 9818SOL     OW30352   4.093   2.169   5.097
 9818SOL    HW130353   4.032   2.118   5.036
 9818SOL    HW230354   4.122   2.254   5.053
 9819SOL     OW30355   2.671   7.026   1.906
 9819SOL    HW130356   2.642   6.943   1.953
 9819SOL    HW230357   2.771   0.003   1.908
 9820SOL     OW30358   4.398   2.673   0.025
 9820SOL    HW130359   4.417   2.639   0.117
 9820SOL    HW230360   4.342   2.755   0.030
 9821SOL     OW30361   0.794   6.291   6.674
 9821SOL    HW130362   0.830   6.264   6.585
 9821SOL    HW230363   0.867   6.286   6.742
 9822SOL     OW30364   6.866   2.250   2.263
 9822SOL    HW130365   6.850   2.240   2.361
 9822SOL    HW230366   6.841   2.165   2.216
 9823SOL     OW30367   2.683   6.332   2.727
 9823SOL    HW130368   2.627   6.283   2.793
 9823SOL    HW230369   2.706   6.272   2.650
 9824SOL     OW30370   2.314   4.140   5.397
 9824SOL    HW130371   2.315   4.072   5.470
 9824SOL    HW230372   2.361   4.103   5.317
 9825SOL     OW30373   4.671   4.409   5.361
 9825SOL    HW130374   4.742   4.479   5.369
 9825SOL    HW230375   4.677   4.346   5.439
 9826SOL     OW30376   6.058   0.243   5.059
 9826SOL    HW130377   5.962   0.246   5.029
 9826SOL    HW230378   6.103   0.328   5.032
 9827SOL     OW30379   1.068   5.779   5.059
 9827SOL    HW130380   1.084   5.859   5.116
 9827SOL    HW230381   1.155   5.749   5.019
 9828SOL     OW30382   2.587   1.387   0.306
 9828SOL    HW130383   2.504   1.439   0.325
 9828SOL    HW230384   2.606   1.388   0.207
 9829SOL     OW30385   3.456   4.689   1.342
 9829SOL    HW130386   3.384   4.726   1.402
 9829SOL    HW230387   3.546   4.718   1.377
 9830SOL     OW30388   6.187   0.758   1.011
 9830SOL    HW130389   6.115   0.823   1.034
 9830SOL    HW230390   6.161   0.666   1.043
 9831SOL     OW30391   0.163   5.974   1.036
 9831SOL    HW130392   0.218   5.909   1.089
 9831SOL    HW230393   0.122   6.041   1.098
 9832SOL     OW30394   3.011   3.863   1.620
 9832SOL    HW130395   2.917   3.899   1.631
 9832SOL    HW230396   3.075   3.940   1.618
 9833SOL     OW30397   5.085   4.219   0.277
 9833SOL    HW130398   5.008   4.190   0.220
 9833SOL    HW230399   5.145   4.278   0.222
 9834SOL     OW30400   2.182   3.336   3.671
 9834SOL    HW130401   2.111   3.398   3.704
 9834SOL    HW230402   2.157   3.303   3.580
 9835SOL     OW30403   5.210   2.895   4.800
 9835SOL    HW130404   5.182   2.853   4.714
 9835SOL    HW230405   5.181   2.990   4.803
 9836SOL     OW30406   5.177   5.123   1.339
 9836SOL    HW130407   5.177   5.158   1.246
 9836SOL    HW230408   5.226   5.036   1.343
 9837SOL     OW30409   1.948   5.165   5.125
 9837SOL    HW130410   2.043   5.189   5.106
 9837SOL    HW230411   1.946   5.078   5.175
 9838SOL     OW30412   6.749   6.556   5.004
 9838SOL    HW130413   6.713   6.648   5.013
 9838SOL    HW230414   6.849   6.558   5.011
 9839SOL     OW30415   5.992   3.033   3.215
 9839SOL    HW130416   5.921   3.079   3.162
 9839SOL    HW230417   6.074   3.089   3.217
 9840SOL     OW30418   6.080   0.087   0.119
 9840SOL    HW130419   6.130   0.110   0.203
 9840SOL    HW230420   6.044   7.022   0.126
 9841SOL     OW30421   1.537   2.954   3.963
 9841SOL    HW130422   1.591   2.877   3.930
 9841SOL    HW230423   1.535   3.026   3.893
 9842SOL     OW30424   2.917   3.363   3.952
 9842SOL    HW130425   2.858   3.429   3.998
 9842SOL    HW230426   2.997   3.409   3.914
 9843SOL     OW30427   5.609   4.396   3.579
 9843SOL    HW130428   5.563   4.433   3.498
 9843SOL    HW230429   5.603   4.296   3.578
 9844SOL     OW30430   3.867   0.223   1.544
 9844SOL    HW130431   3.906   0.314   1.532
 9844SOL    HW230432   3.881   0.169   1.460
 9845SOL     OW30433   1.286   1.614   4.372
 9845SOL    HW130434   1.343   1.609   4.289
 9845SOL    HW230435   1.216   1.684   4.360
 9846SOL     OW30436   2.982   3.694   4.230
 9846SOL    HW130437   2.930   3.749   4.295
 9846SOL    HW230438   3.019   3.613   4.277
 9847SOL     OW30439   2.380   4.615   4.264
 9847SOL    HW130440   2.432   4.646   4.344
 9847SOL    HW230441   2.284   4.603   4.289
 9848SOL     OW30442   0.384   4.529   0.295
 9848SOL    HW130443   0.394   4.620   0.255
 9848SOL    HW230444   0.345   4.538   0.387
 9849SOL     OW30445   6.912   6.035   5.254
 9849SOL    HW130446   6.878   5.987   5.336
 9849SOL    HW230447   7.008   6.013   5.240
 9850SOL     OW30448   5.468   7.018   3.771
 9850SOL    HW130449   5.469   0.085   3.800
 9850SOL    HW230450   5.412   7.008   3.690
 9851SOL     OW30451   5.362   2.563   4.945
 9851SOL    HW130452   5.382   2.508   5.026
 9851SOL    HW230453   5.281   2.527   4.899
 9852SOL     OW30454   5.433   2.236   3.695
 9852SOL    HW130455   5.457   2.252   3.791
 9852SOL    HW230456   5.517   2.227   3.642
 9853SOL     OW30457   6.953   5.325   1.195
 9853SOL    HW130458   7.005   5.406   1.167
 9853SOL    HW230459   6.893   5.349   1.271
 9854SOL     OW30460   2.965   0.096   4.500
 9854SOL    HW130461   2.965   0.164   4.426
 9854SOL    HW230462   2.927   0.010   4.465
 9855SOL     OW30463   2.227   4.298   1.362
 9855SOL    HW130464   2.287   4.254   1.428
 9855SOL    HW230465   2.276   4.373   1.318
 9856SOL     OW30466   3.466   3.348   1.568
 9856SOL    HW130467   3.498   3.350   1.474
 9856SOL    HW230468   3.393   3.280   1.577
 9857SOL     OW30469   5.810   5.156   3.237
 9857SOL    HW130470   5.717   5.123   3.222
 9857SOL    HW230471   5.820   5.188   3.331
 9858SOL     OW30472   3.562   1.037   1.460
 9858SOL    HW130473   3.530   1.120   1.415
 9858SOL    HW230474   3.588   1.058   1.554
 9859SOL     OW30475   0.355   6.497   1.319
 9859SOL    HW130476   0.439   6.537   1.355
 9859SOL    HW230477   0.277   6.531   1.371
 9860SOL     OW30478   0.826   1.052   3.045
 9860SOL    HW130479   0.839   0.962   3.086
 9860SOL    HW230480   0.863   1.051   2.952
 9861SOL     OW30481   2.086   6.198   3.825
 9861SOL    HW130482   2.129   6.210   3.914
 9861SOL    HW230483   2.068   6.288   3.784
 9862SOL     OW30484   0.156   1.656   0.349
 9862SOL    HW130485   0.157   1.713   0.430
 9862SOL    HW230486   0.079   1.592   0.354
 9863SOL     OW30487   4.913   0.692   0.226
 9863SOL    HW130488   4.942   0.777   0.181
 9863SOL    HW230489   4.912   0.706   0.325
 9864SOL     OW30490   4.018   5.387   3.993
 9864SOL    HW130491   4.021   5.297   4.037
 9864SOL    HW230492   3.936   5.394   3.937
 9865SOL     OW30493   2.176   3.615   3.553
 9865SOL    HW130494   2.123   3.634   3.636
 9865SOL    HW230495   2.261   3.569   3.578
 9866SOL     OW30496   2.840   4.781   3.296
 9866SOL    HW130497   2.865   4.863   3.348
 9866SOL    HW230498   2.920   4.724   3.282
 9867SOL     OW30499   3.629   6.536   5.911
 9867SOL    HW130500   3.615   6.572   5.819
 9867SOL    HW230501   3.702   6.588   5.956
 9868SOL     OW30502   1.494   5.329   6.086
 9868SOL    HW130503   1.458   5.379   6.006
 9868SOL    HW230504   1.452   5.366   6.169
 9869SOL     OW30505   0.803   5.147   3.302
 9869SOL    HW130506   0.780   5.194   3.387
 9869SOL    HW230507   0.876   5.197   3.254
 9870SOL     OW30508   4.247   5.785   2.065
 9870SOL    HW130509   4.271   5.692   2.095
 9870SOL    HW230510   4.284   5.800   1.973
 9871SOL     OW30511   2.393   2.765   5.793
 9871SOL    HW130512   2.423   2.739   5.701
 9871SOL    HW230513   2.390   2.684   5.851
 9872SOL     OW30514   1.297   3.494   2.965
 9872SOL    HW130515   1.353   3.574   2.988
 9872SOL    HW230516   1.355   3.422   2.928
 9873SOL     OW30517   2.043   2.286   1.814
 9873SOL    HW130518   2.101   2.349   1.865
 9873SOL    HW230519   1.979   2.337   1.757
 9874SOL     OW30520   1.221   3.824   4.463
 9874SOL    HW130521   1.132   3.867   4.481
 9874SOL    HW230522   1.210   3.725   4.459
 9875SOL     OW30523   1.153   1.428   3.095
 9875SOL    HW130524   1.079   1.370   3.131
 9875SOL    HW230525   1.138   1.444   2.997
 9876SOL     OW30526   6.648   6.179   2.245
 9876SOL    HW130527   6.572   6.242   2.263
 9876SOL    HW230528   6.690   6.202   2.157
 9877SOL     OW30529   4.151   0.041   1.131
 9877SOL    HW130530   4.209   0.119   1.109
 9877SOL    HW230531   4.208   6.988   1.144
 9878SOL     OW30532   6.728   1.778   4.853
 9878SOL    HW130533   6.722   1.693   4.801
 9878SOL    HW230534   6.811   1.777   4.909
 9879SOL     OW30535   5.176   5.129   5.626
 9879SOL    HW130536   5.193   5.100   5.720
 9879SOL    HW230537   5.204   5.224   5.615
 9880SOL     OW30538   1.095   2.455   3.444
 9880SOL    HW130539   1.081   2.389   3.371
 9880SOL    HW230540   1.193   2.459   3.467
 9881SOL     OW30541   0.224   1.694   5.783
 9881SOL    HW130542   0.177   1.621   5.733
 9881SOL    HW230543   0.171   1.779   5.774
 9882SOL     OW30544   1.582   2.684   3.410
 9882SOL    HW130545   1.486   2.679   3.383
 9882SOL    HW230546   1.626   2.596   3.393
 9883SOL     OW30547   3.095   1.307   2.361
 9883SOL    HW130548   3.144   1.303   2.275
 9883SOL    HW230549   3.122   1.231   2.420
 9884SOL     OW30550   3.058   0.669   3.700
 9884SOL    HW130551   2.964   0.645   3.677
 9884SOL    HW230552   3.071   0.767   3.690
 9885SOL     OW30553   6.770   3.356   4.582
 9885SOL    HW130554   6.808   3.396   4.498
 9885SOL    HW230555   6.786   3.257   4.582
 9886SOL     OW30556   6.970   2.726   1.938
 9886SOL    HW130557   7.008   2.702   2.028
 9886SOL    HW230558   6.876   2.760   1.950
 9887SOL     OW30559   4.348   6.007   5.607
 9887SOL    HW130560   4.442   5.984   5.631
 9887SOL    HW230561   4.343   6.101   5.575
 9888SOL     OW30562   6.641   5.605   5.187
 9888SOL    HW130563   6.631   5.625   5.285
 9888SOL    HW230564   6.561   5.554   5.156
 9889SOL     OW30565   0.610   5.649   0.863
 9889SOL    HW130566   0.562   5.735   0.844
 9889SOL    HW230567   0.708   5.665   0.867
 9890SOL     OW30568   0.816   3.049   1.096
 9890SOL    HW130569   0.892   3.110   1.114
 9890SOL    HW230570   0.784   3.062   1.003
 9891SOL     OW30571   5.041   1.650   2.682
 9891SOL    HW130572   5.066   1.730   2.629
 9891SOL    HW230573   5.122   1.592   2.695
 9892SOL     OW30574   1.272   0.256   6.506
 9892SOL    HW130575   1.256   0.219   6.597
 9892SOL    HW230576   1.240   0.351   6.503
 9893SOL     OW30577   1.993   1.668   0.226
 9893SOL    HW130578   2.081   1.707   0.255
 9893SOL    HW230579   2.001   1.568   0.222
 9894SOL     OW30580   2.365   1.201   1.505
 9894SOL    HW130581   2.362   1.291   1.462
 9894SOL    HW230582   2.341   1.210   1.602
 9895SOL     OW30583   4.275   2.757   5.547
 9895SOL    HW130584   4.183   2.717   5.546
 9895SOL    HW230585   4.282   2.825   5.474
 9896SOL     OW30586   6.340   6.707   6.063
 9896SOL    HW130587   6.434   6.709   6.031
 9896SOL    HW230588   6.335   6.659   6.151
 9897SOL     OW30589   6.136   5.039   5.084
 9897SOL    HW130590   6.076   5.046   5.163
 9897SOL    HW230591   6.176   5.129   5.064
 9898SOL     OW30592   2.502   7.027   6.863
 9898SOL    HW130593   2.487   0.082   6.810
 9898SOL    HW230594   2.567   0.018   6.937
 9899SOL     OW30595   0.251   4.659   0.548
 9899SOL    HW130596   0.174   4.719   0.570
 9899SOL    HW230597   0.327   4.713   0.512
 9900SOL     OW30598   2.401   5.267   3.329
 9900SOL    HW130599   2.410   5.208   3.248
 9900SOL    HW230600   2.487   5.267   3.380
 9901SOL     OW30601   2.153   3.248   5.128
 9901SOL    HW130602   2.217   3.236   5.204
 9901SOL    HW230603   2.168   3.175   5.061
 9902SOL     OW30604   3.062   4.500   1.084
 9902SOL    HW130605   3.065   4.553   1.169
 9902SOL    HW230606   3.097   4.408   1.101
 9903SOL     OW30607   5.550   1.277   5.234
 9903SOL    HW130608   5.647   1.278   5.257
 9903SOL    HW230609   5.503   1.210   5.291
 9904SOL     OW30610   6.192   1.443   0.224
 9904SOL    HW130611   6.149   1.475   0.309
 9904SOL    HW230612   6.167   1.505   0.150
 9905SOL     OW30613   5.231   0.043   0.285
 9905SOL    HW130614   5.247   0.142   0.289
 9905SOL    HW230615   5.276   0.005   0.205
 9906SOL     OW30616   2.834   3.486   5.579
 9906SOL    HW130617   2.804   3.443   5.494
 9906SOL    HW230618   2.802   3.432   5.657
 9907SOL     OW30619   1.621   5.965   2.134
 9907SOL    HW130620   1.552   5.893   2.140
 9907SOL    HW230621   1.590   6.046   2.184
 9908SOL     OW30622   5.284   3.434   1.723
 9908SOL    HW130623   5.348   3.368   1.762
 9908SOL    HW230624   5.259   3.501   1.793
 9909SOL     OW30625   1.871   0.279   4.517
 9909SOL    HW130626   1.844   0.375   4.523
 9909SOL    HW230627   1.806   0.223   4.569
 9910SOL     OW30628   0.478   4.677   4.249
 9910SOL    HW130629   0.403   4.625   4.209
 9910SOL    HW230630   0.550   4.614   4.279
 9911SOL     OW30631   2.474   6.538   2.606
 9911SOL    HW130632   2.520   6.477   2.671
 9911SOL    HW230633   2.427   6.483   2.537
 9912SOL     OW30634   5.271   0.715   5.406
 9912SOL    HW130635   5.227   0.802   5.387
 9912SOL    HW230636   5.295   0.710   5.503
 9913SOL     OW30637   5.236   3.144   0.866
 9913SOL    HW130638   5.197   3.086   0.795
 9913SOL    HW230639   5.169   3.158   0.939
 9914SOL     OW30640   0.700   3.496   4.188
 9914SOL    HW130641   0.610   3.507   4.145
 9914SOL    HW230642   0.695   3.528   4.283
 9915SOL     OW30643   4.358   1.304   3.807
 9915SOL    HW130644   4.441   1.254   3.782
 9915SOL    HW230645   4.316   1.342   3.725
 9916SOL     OW30646   1.505   3.257   1.488
 9916SOL    HW130647   1.598   3.237   1.520
 9916SOL    HW230648   1.489   3.207   1.402
 9917SOL     OW30649   6.346   4.861   6.096
 9917SOL    HW130650   6.249   4.838   6.106
 9917SOL    HW230651   6.367   4.878   6.000
 9918SOL     OW30652   4.818   3.019   2.409
 9918SOL    HW130653   4.843   2.953   2.338
 9918SOL    HW230654   4.789   3.105   2.366
 9919SOL     OW30655   5.123   5.828   0.240
 9919SOL    HW130656   5.034   5.810   0.280
 9919SOL    HW230657   5.112   5.861   0.146
 9920SOL     OW30658   4.578   0.890   2.447
 9920SOL    HW130659   4.507   0.880   2.378
 9920SOL    HW230660   4.662   0.925   2.405
 9921SOL     OW30661   4.266   4.805   5.953
 9921SOL    HW130662   4.246   4.712   5.984
 9921SOL    HW230663   4.233   4.817   5.859
 9922SOL     OW30664   6.897   6.328   1.363
 9922SOL    HW130665   6.972   6.307   1.425
 9922SOL    HW230666   6.904   6.424   1.333
 9923SOL     OW30667   6.332   3.851   0.313
 9923SOL    HW130668   6.236   3.866   0.290
 9923SOL    HW230669   6.376   3.939   0.331
 9924SOL     OW30670   1.543   4.775   4.683
 9924SOL    HW130671   1.628   4.817   4.652
 9924SOL    HW230672   1.528   4.799   4.779
 9925SOL     OW30673   4.693   2.762   4.315
 9925SOL    HW130674   4.661   2.701   4.388
 9925SOL    HW230675   4.772   2.814   4.347
 9926SOL     OW30676   3.034   5.435   1.716
 9926SOL    HW130677   3.067   5.349   1.753
 9926SOL    HW230678   3.019   5.426   1.617
 9927SOL     OW30679   5.654   0.673   4.147
 9927SOL    HW130680   5.576   0.624   4.185
 9927SOL    HW230681   5.624   0.760   4.109
 9928SOL     OW30682   5.213   4.150   2.459
 9928SOL    HW130683   5.185   4.201   2.378
 9928SOL    HW230684   5.251   4.062   2.430
 9929SOL     OW30685   0.887   4.179   3.665
 9929SOL    HW130686   0.915   4.083   3.665
 9929SOL    HW230687   0.966   4.236   3.688
 9930SOL     OW30688   5.527   0.918   2.848
 9930SOL    HW130689   5.546   1.000   2.795
 9930SOL    HW230690   5.468   0.856   2.796
 9931SOL     OW30691   1.315   5.582   5.221
 9931SOL    HW130692   1.327   5.534   5.308
 9931SOL    HW230693   1.364   5.669   5.223
 9932SOL     OW30694   0.201   5.941   4.284
 9932SOL    HW130695   0.269   5.879   4.245
 9932SOL    HW230696   0.196   5.927   4.383
 9933SOL     OW30697   6.793   6.781   2.901
 9933SOL    HW130698   6.726   6.751   2.969
 9933SOL    HW230699   6.788   6.721   2.821
 9934SOL     OW30700   0.240   2.772   4.675
 9934SOL    HW130701   0.303   2.734   4.742
 9934SOL    HW230702   0.184   2.699   4.636
 9935SOL     OW30703   1.687   0.006   5.976
 9935SOL    HW130704   1.593   0.034   5.957
 9935SOL    HW230705   1.688   6.945   6.019
 9936SOL     OW30706   1.795   4.005   3.607
 9936SOL    HW130707   1.887   4.006   3.647
 9936SOL    HW230708   1.755   4.096   3.614
 9937SOL     OW30709   6.750   3.271   5.881
 9937SOL    HW130710   6.678   3.245   5.946
 9937SOL    HW230711   6.797   3.352   5.915
 9938SOL     OW30712   6.460   5.974   2.532
 9938SOL    HW130713   6.414   5.974   2.621
 9938SOL    HW230714   6.489   6.067   2.509
 9939SOL     OW30715   3.211   2.966   3.567
 9939SOL    HW130716   3.307   2.970   3.541
 9939SOL    HW230717   3.189   3.045   3.625
 9940SOL     OW30718   6.945   1.175   1.180
 9940SOL    HW130719   7.013   1.122   1.129
 9940SOL    HW230720   6.918   1.255   1.126
 9941SOL     OW30721   3.504   5.746   5.473
 9941SOL    HW130722   3.537   5.730   5.380
 9941SOL    HW230723   3.476   5.659   5.514
 9942SOL     OW30724   3.101   6.155   3.754
 9942SOL    HW130725   3.055   6.199   3.677
 9942SOL    HW230726   3.034   6.105   3.808
 9943SOL     OW30727   0.539   6.242   4.603
 9943SOL    HW130728   0.587   6.246   4.690
 9943SOL    HW230729   0.548   6.331   4.557
 9944SOL     OW30730   1.850   4.423   5.727
 9944SOL    HW130731   1.922   4.469   5.778
 9944SOL    HW230732   1.817   4.484   5.654
 9945SOL     OW30733   0.173   5.601   6.838
 9945SOL    HW130734   0.104   5.559   6.779
 9945SOL    HW230735   0.250   5.631   6.783
 9946SOL     OW30736   5.497   0.667   3.716
 9946SOL    HW130737   5.558   0.593   3.743
 9946SOL    HW230738   5.545   0.755   3.721
 9947SOL     OW30739   6.107   4.219   3.831
 9947SOL    HW130740   6.151   4.141   3.875
 9947SOL    HW230741   6.067   4.278   3.901
 9948SOL     OW30742   5.129   4.300   3.531
 9948SOL    HW130743   5.175   4.283   3.444
 9948SOL    HW230744   5.191   4.349   3.592
 9949SOL     OW30745   5.737   4.893   2.216
 9949SOL    HW130746   5.752   4.812   2.160
 9949SOL    HW230747   5.668   4.951   2.172
 9950SOL     OW30748   3.709   6.583   0.198
 9950SOL    HW130749   3.703   6.573   0.297
 9950SOL    HW230750   3.727   6.679   0.175
 9951SOL     OW30751   5.778   2.912   2.501
 9951SOL    HW130752   5.795   2.946   2.594
 9951SOL    HW230753   5.694   2.859   2.501
 9952SOL     OW30754   1.002   4.720   6.306
 9952SOL    HW130755   0.971   4.646   6.364
 9952SOL    HW230756   0.932   4.742   6.238
 9953SOL     OW30757   5.746   3.381   3.715
 9953SOL    HW130758   5.796   3.451   3.766
 9953SOL    HW230759   5.689   3.329   3.778
 9954SOL     OW30760   5.436   0.932   4.903
 9954SOL    HW130761   5.365   1.001   4.919
 9954SOL    HW230762   5.411   0.847   4.949
 9955SOL     OW30763   0.576   5.063   4.754
 9955SOL    HW130764   0.619   4.973   4.760
 9955SOL    HW230765   0.544   5.077   4.660
 9956SOL     OW30766   0.851   5.812   0.064
 9956SOL    HW130767   0.761   5.771   0.052
 9956SOL    HW230768   0.858   5.895   0.009
 9957SOL     OW30769   6.015   5.916   2.475
 9957SOL    HW130770   5.927   5.919   2.426
 9957SOL    HW230771   6.073   5.991   2.443
 9958SOL     OW30772   2.599   4.445   0.986
 9958SOL    HW130773   2.675   4.397   1.031
 9958SOL    HW230774   2.611   4.544   0.998
 9959SOL     OW30775   3.845   4.082   0.875
 9959SOL    HW130776   3.785   4.052   0.800
 9959SOL    HW230777   3.790   4.117   0.950
 9960SOL     OW30778   0.415   0.921   1.885
 9960SOL    HW130779   0.363   0.974   1.818
 9960SOL    HW230780   0.409   0.965   1.974
 9961SOL     OW30781   1.918   4.460   4.839
 9961SOL    HW130782   1.903   4.363   4.819
 9961SOL    HW230783   1.984   4.468   4.914
 9962SOL     OW30784   6.186   6.586   4.425
 9962SOL    HW130785   6.136   6.638   4.356
 9962SOL    HW230786   6.251   6.525   4.379
 9963SOL     OW30787   3.672   2.050   0.170
 9963SOL    HW130788   3.689   1.971   0.229
 9963SOL    HW230789   3.738   2.123   0.191
 9964SOL     OW30790   5.360   6.137   4.605
 9964SOL    HW130791   5.322   6.053   4.642
 9964SOL    HW230792   5.377   6.127   4.507
 9965SOL     OW30793   4.610   0.162   1.668
 9965SOL    HW130794   4.658   0.080   1.700
 9965SOL    HW230795   4.514   0.157   1.696
 9966SOL     OW30796   6.276   1.413   2.188
 9966SOL    HW130797   6.270   1.332   2.247
 9966SOL    HW230798   6.280   1.384   2.093
 9967SOL     OW30799   1.062   5.461   0.480
 9967SOL    HW130800   1.087   5.372   0.442
 9967SOL    HW230801   1.137   5.494   0.538
 9968SOL     OW30802   3.325   2.947   2.936
 9968SOL    HW130803   3.342   2.961   2.839
 9968SOL    HW230804   3.237   2.989   2.960
 9969SOL     OW30805   1.752   3.101   1.263
 9969SOL    HW130806   1.745   3.053   1.350
 9969SOL    HW230807   1.692   3.057   1.196
 9970SOL     OW30808   6.786   4.301   2.793
 9970SOL    HW130809   6.779   4.266   2.700
 9970SOL    HW230810   6.883   4.310   2.818
 9971SOL     OW30811   3.086   6.690   6.533
 9971SOL    HW130812   3.006   6.722   6.584
 9971SOL    HW230813   3.124   6.609   6.579
 9972SOL     OW30814   0.101   4.888   1.804
 9972SOL    HW130815   0.019   4.894   1.861
 9972SOL    HW230816   0.183   4.893   1.861
 9973SOL     OW30817   4.965   6.789   3.721
 9973SOL    HW130818   5.049   6.744   3.692
 9973SOL    HW230819   4.987   6.872   3.772
 9974SOL     OW30820   2.725   1.233   4.273
 9974SOL    HW130821   2.760   1.157   4.328
 9974SOL    HW230822   2.665   1.197   4.201
 9975SOL     OW30823   6.459   3.558   1.577
 9975SOL    HW130824   6.546   3.606   1.589
 9975SOL    HW230825   6.391   3.597   1.640
 9976SOL     OW30826   3.308   6.498   4.549
 9976SOL    HW130827   3.306   6.398   4.553
 9976SOL    HW230828   3.218   6.531   4.520
 9977SOL     OW30829   6.870   4.989   3.826
 9977SOL    HW130830   6.887   4.920   3.755
 9977SOL    HW230831   6.883   4.947   3.916
 9978SOL     OW30832   0.194   3.150   4.002
 9978SOL    HW130833   0.255   3.199   3.939
 9978SOL    HW230834   0.242   3.070   4.039
 9979SOL     OW30835   0.790   3.297   5.202
 9979SOL    HW130836   0.818   3.343   5.287
 9979SOL    HW230837   0.760   3.365   5.136
 9980SOL     OW30838   3.186   6.999   5.734
 9980SOL    HW130839   3.277   7.024   5.701
 9980SOL    HW230840   3.140   6.942   5.665
 9981SOL     OW30841   3.294   1.656   3.098
 9981SOL    HW130842   3.253   1.699   3.179
 9981SOL    HW230843   3.222   1.613   3.044
 9982SOL     OW30844   5.897   0.276   2.673
 9982SOL    HW130845   5.960   0.323   2.611
 9982SOL    HW230846   5.856   0.343   2.735
 9983SOL     OW30847   6.559   0.475   0.787
 9983SOL    HW130848   6.540   0.573   0.796
 9983SOL    HW230849   6.632   0.449   0.851
 9984SOL     OW30850   3.219   0.564   6.846
 9984SOL    HW130851   3.220   0.465   6.836
 9984SOL    HW230852   3.131   0.592   6.886
 9985SOL     OW30853   1.179   1.755   0.824
 9985SOL    HW130854   1.211   1.850   0.814
 9985SOL    HW230855   1.252   1.700   0.864
 9986SOL     OW30856   5.467   4.241   4.998
 9986SOL    HW130857   5.396   4.295   4.953
 9986SOL    HW230858   5.480   4.156   4.948
 9987SOL     OW30859   0.225   4.490   4.759
 9987SOL    HW130860   0.207   4.407   4.705
 9987SOL    HW230861   0.249   4.464   4.852
 9988SOL     OW30862   5.992   1.236   4.048
 9988SOL    HW130863   5.948   1.288   3.975
 9988SOL    HW230864   5.960   1.141   4.045
 9989SOL     OW30865   1.547   2.415   5.142
 9989SOL    HW130866   1.456   2.452   5.122
 9989SOL    HW230867   1.561   2.331   5.089
 9990SOL     OW30868   0.933   4.864   1.272
 9990SOL    HW130869   1.027   4.842   1.247
 9990SOL    HW230870   0.878   4.874   1.190
 9991SOL     OW30871   3.636   2.103   3.991
 9991SOL    HW130872   3.598   2.146   3.909
 9991SOL    HW230873   3.624   2.004   3.984
 9992SOL     OW30874   6.700   4.528   6.510
 9992SOL    HW130875   6.684   4.525   6.411
 9992SOL    HW230876   6.702   4.623   6.541
 9993SOL     OW30877   1.395   1.188   1.617
 9993SOL    HW130878   1.474   1.155   1.566
 9993SOL    HW230879   1.370   1.279   1.585
 9994SOL     OW30880   5.824   4.172   3.473
 9994SOL    HW130881   5.791   4.235   3.403
 9994SOL    HW230882   5.850   4.086   3.430
 9995SOL     OW30883   5.540   2.176   4.572
 9995SOL    HW130884   5.556   2.083   4.604
 9995SOL    HW230885   5.467   2.176   4.503
 9996SOL     OW30886   3.065   2.925   1.516
 9996SOL    HW130887   3.161   2.945   1.535
 9996SOL    HW230888   3.057   2.832   1.481
 9997SOL     OW30889   3.101   0.807   4.638
 9997SOL    HW130890   3.152   0.748   4.576
 9997SOL    HW230891   3.074   0.890   4.590
 9998SOL     OW30892   6.431   5.987   5.410
 9998SOL    HW130893   6.359   6.052   5.385
 9998SOL    HW230894   6.507   6.037   5.452
 9999SOL     OW30895   0.235   0.722   5.464
 9999SOL    HW130896   0.266   0.740   5.557
 9999SOL    HW230897   0.267   0.631   5.436
10000SOL     OW30898   6.660   4.827   0.625
10000SOL    HW130899   6.619   4.881   0.552
10000SOL    HW230900   6.705   4.747   0.586
10001SOL     OW30901   3.774   0.837   3.893
10001SOL    HW130902   3.707   0.869   3.960
10001SOL    HW230903   3.806   0.914   3.837
10002SOL     OW30904   1.196   1.924   2.071
10002SOL    HW130905   1.187   1.865   1.991
10002SOL    HW230906   1.181   2.019   2.044
10003SOL     OW30907   5.763   3.390   1.318
10003SOL    HW130908   5.791   3.410   1.224
10003SOL    HW230909   5.663   3.395   1.325
10004SOL     OW30910   6.113   3.666   4.230
10004SOL    HW130911   6.113   3.588   4.167
10004SOL    HW230912   6.079   3.637   4.319
10005SOL     OW30913   4.682   0.012   2.984
10005SOL    HW130914   4.618   0.041   3.056
10005SOL    HW230915   4.756   6.989   3.026
10006SOL     OW30916   5.292   2.948   4.089
10006SOL    HW130917   5.351   3.002   4.029
10006SOL    HW230918   5.203   2.936   4.046
10007SOL     OW30919   5.146   5.975   4.009
10007SOL    HW130920   5.059   5.987   4.057
10007SOL    HW230921   5.129   5.966   3.911
10008SOL     OW30922   2.345   6.575   4.185
10008SOL    HW130923   2.427   6.559   4.130
10008SOL    HW230924   2.337   6.503   4.255
10009SOL     OW30925   2.445   4.311   1.880
10009SOL    HW130926   2.492   4.269   1.957
10009SOL    HW230927   2.510   4.330   1.806
10010SOL     OW30928   5.688   0.700   5.175
10010SOL    HW130929   5.728   0.764   5.109
10010SOL    HW230930   5.589   0.701   5.166
10011SOL     OW30931   6.363   6.752   3.411
10011SOL    HW130932   6.417   6.767   3.494
10011SOL    HW230933   6.355   6.838   3.361
10012SOL     OW30934   4.741   2.192   4.908
10012SOL    HW130935   4.807   2.201   4.833
10012SOL    HW230936   4.661   2.141   4.876
10013SOL     OW30937   1.990   0.694   1.073
10013SOL    HW130938   1.921   0.753   1.114
10013SOL    HW230939   2.050   0.749   1.014
10014SOL     OW30940   1.241   5.054   5.670
10014SOL    HW130941   1.240   5.153   5.684
10014SOL    HW230942   1.327   5.016   5.703
10015SOL     OW30943   2.406   6.273   6.333
10015SOL    HW130944   2.469   6.302   6.405
10015SOL    HW230945   2.432   6.182   6.301
10016SOL     OW30946   2.722   1.325   5.478
10016SOL    HW130947   2.781   1.379   5.538
10016SOL    HW230948   2.769   1.242   5.450
10017SOL     OW30949   6.160   2.304   2.615
10017SOL    HW130950   6.159   2.212   2.576
10017SOL    HW230951   6.156   2.297   2.715
10018SOL     OW30952   4.199   0.012   5.516
10018SOL    HW130953   4.200   0.105   5.553
10018SOL    HW230954   4.152   0.012   5.427
10019SOL     OW30955   0.307   0.586   3.820
10019SOL    HW130956   0.297   0.668   3.764
10019SOL    HW230957   0.299   0.505   3.762
10020SOL     OW30958   1.112   3.640   0.493
10020SOL    HW130959   1.074   3.617   0.404
10020SOL    HW230960   1.046   3.618   0.565
10021SOL     OW30961   4.948   2.942   0.748
10021SOL    HW130962   4.999   2.975   0.669
10021SOL    HW230963   4.857   2.911   0.718
10022SOL     OW30964   2.345   1.415   5.789
10022SOL    HW130965   2.418   1.482   5.777
10022SOL    HW230966   2.288   1.412   5.707
10023SOL     OW30967   1.093   3.165   0.608
10023SOL    HW130968   1.095   3.104   0.529
10023SOL    HW230969   0.999   3.175   0.640
10024SOL     OW30970   0.554   3.495   2.321
10024SOL    HW130971   0.628   3.547   2.279
10024SOL    HW230972   0.467   3.540   2.305
10025SOL     OW30973   1.352   1.586   0.390
10025SOL    HW130974   1.405   1.506   0.417
10025SOL    HW230975   1.339   1.646   0.469
10026SOL     OW30976   5.996   0.484   3.818
10026SOL    HW130977   5.954   0.543   3.749
10026SOL    HW230978   6.058   0.538   3.876
10027SOL     OW30979   6.612   2.884   5.550
10027SOL    HW130980   6.652   2.898   5.459
10027SOL    HW230981   6.552   2.804   5.548
10028SOL     OW30982   1.606   1.405   0.857
10028SOL    HW130983   1.674   1.438   0.791
10028SOL    HW230984   1.640   1.419   0.950
10029SOL     OW30985   3.922   1.269   4.837
10029SOL    HW130986   3.834   1.231   4.805
10029SOL    HW230987   3.909   1.316   4.924
10030SOL     OW30988   0.763   0.984   1.708
10030SOL    HW130989   0.793   0.915   1.774
10030SOL    HW230990   0.733   1.066   1.757
10031SOL     OW30991   0.158   5.237   3.182
10031SOL    HW130992   0.187   5.307   3.116
10031SOL    HW230993   0.119   5.282   3.262
10032SOL     OW30994   3.917   2.244   5.299
10032SOL    HW130995   3.959   2.333   5.318
10032SOL    HW230996   3.942   2.214   5.207
10033SOL     OW30997   6.192   2.971   4.309
10033SOL    HW130998   6.272   2.993   4.363
10033SOL    HW230999   6.109   2.983   4.364
10034SOL     OW31000   4.164   6.642   5.654
10034SOL    HW131001   4.114   6.586   5.720
10034SOL    HW231002   4.137   6.617   5.561
10035SOL     OW31003   0.083   6.048   4.051
10035SOL    HW131004   0.134   6.010   4.129
10035SOL    HW231005   7.022   6.080   4.083
10036SOL     OW31006   6.286   6.996   7.011
10036SOL    HW131007   6.243   6.929   6.951
10036SOL    HW231008   6.216   0.021   0.028
10037SOL     OW31009   7.010   0.557   1.594
10037SOL    HW131010   0.076   0.565   1.624
10037SOL    HW231011   6.970   0.648   1.583
10038SOL     OW31012   5.399   6.945   1.718
10038SOL    HW131013   5.302   6.963   1.736
10038SOL    HW231014   5.425   6.985   1.630
10039SOL     OW31015   3.417   0.945   3.088
10039SOL    HW131016   3.408   0.857   3.041
10039SOL    HW231017   3.381   0.937   3.181
10040SOL     OW31018   0.405   1.808   0.534
10040SOL    HW131019   0.400   1.709   0.548
10040SOL    HW231020   0.501   1.835   0.520
10041SOL     OW31021   0.387   6.776   0.190
10041SOL    HW131022   0.406   6.824   0.276
10041SOL    HW231023   0.427   6.827   0.114
10042SOL     OW31024   6.318   1.733   3.847
10042SOL    HW131025   6.388   1.681   3.799
10042SOL    HW231026   6.348   1.828   3.857
10043SOL     OW31027   2.351   3.196   5.334
10043SOL    HW131028   2.291   3.144   5.395
10043SOL    HW231029   2.402   3.132   5.276
10044SOL     OW31030   3.960   0.381   6.163
10044SOL    HW131031   3.862   0.363   6.162
10044SOL    HW231032   3.985   0.434   6.082
10045SOL     OW31033   2.455   6.573   1.114
10045SOL    HW131034   2.501   6.661   1.106
10045SOL    HW231035   2.485   6.526   1.196
10046SOL     OW31036   0.727   6.549   0.366
10046SOL    HW131037   0.690   6.523   0.276
10046SOL    HW231038   0.660   6.527   0.437
10047SOL     OW31039   1.742   4.082   1.099
10047SOL    HW131040   1.758   4.146   1.174
10047SOL    HW231041   1.814   4.012   1.100
10048SOL     OW31042   6.633   2.755   1.042
10048SOL    HW131043   6.535   2.739   1.058
10048SOL    HW231044   6.681   2.668   1.041
10049SOL     OW31045   6.966   2.229   4.504
10049SOL    HW131046   6.901   2.156   4.483
10049SOL    HW231047   6.965   2.296   4.430
10050SOL     OW31048   0.519   2.033   5.874
10050SOL    HW131049   0.615   2.060   5.886
10050SOL    HW231050   0.496   2.035   5.777
10051SOL     OW31051   1.349   0.616   2.263
10051SOL    HW131052   1.415   0.606   2.188
10051SOL    HW231053   1.397   0.639   2.347
10052SOL     OW31054   0.477   0.242   4.440
10052SOL    HW131055   0.387   0.199   4.446
10052SOL    HW231056   0.485   0.290   4.353
10053SOL     OW31057   5.962   5.876   2.098
10053SOL    HW131058   6.059   5.895   2.081
10053SOL    HW231059   5.907   5.954   2.068
10054SOL     OW31060   4.842   4.805   3.365
10054SOL    HW131061   4.836   4.721   3.312
10054SOL    HW231062   4.773   4.804   3.438
10055SOL     OW31063   2.089   1.818   6.802
10055SOL    HW131064   1.993   1.814   6.830
10055SOL    HW231065   2.103   1.900   6.746
10056SOL     OW31066   5.468   3.241   4.907
10056SOL    HW131067   5.529   3.210   4.834
10056SOL    HW231068   5.465   3.341   4.907
10057SOL     OW31069   6.195   4.568   4.873
10057SOL    HW131070   6.150   4.651   4.907
10057SOL    HW231071   6.289   4.564   4.908
10058SOL     OW31072   5.618   3.800   4.213
10058SOL    HW131073   5.701   3.788   4.157
10058SOL    HW231074   5.614   3.729   4.282
10059SOL     OW31075   5.458   6.287   5.855
10059SOL    HW131076   5.548   6.323   5.880
10059SOL    HW231077   5.458   6.187   5.864
10060SOL     OW31078   3.133   1.142   1.737
10060SOL    HW131079   3.074   1.089   1.799
10060SOL    HW231080   3.083   1.222   1.705
10061SOL     OW31081   3.555   0.131   2.993
10061SOL    HW131082   3.469   0.126   3.044
10061SOL    HW231083   3.602   0.217   3.014
10062SOL     OW31084   6.138   6.351   4.020
10062SOL    HW131085   6.041   6.351   3.996
10062SOL    HW231086   6.162   6.439   4.061
10063SOL     OW31087   4.326   2.247   2.661
10063SOL    HW131088   4.373   2.321   2.613
10063SOL    HW231089   4.322   2.167   2.601
10064SOL     OW31090   1.681   6.203   2.466
10064SOL    HW131091   1.755   6.153   2.511
10064SOL    HW231092   1.717   6.285   2.422
10065SOL     OW31093   6.405   1.956   1.241
10065SOL    HW131094   6.319   2.005   1.255
10065SOL    HW231095   6.479   2.023   1.225
10066SOL     OW31096   5.720   4.106   3.722
10066SOL    HW131097   5.728   4.148   3.812
10066SOL    HW231098   5.779   4.154   3.657
10067SOL     OW31099   5.543   3.468   5.258
10067SOL    HW131100   5.502   3.377   5.253
10067SOL    HW231101   5.507   3.516   5.338
10068SOL     OW31102   2.355   4.297   2.974
10068SOL    HW131103   2.339   4.259   3.065
10068SOL    HW231104   2.404   4.384   2.982
10069SOL     OW31105   3.235   5.428   1.058
10069SOL    HW131106   3.332   5.401   1.059
10069SOL    HW231107   3.192   5.392   0.976
10070SOL     OW31108   5.224   0.658   6.696
10070SOL    HW131109   5.173   0.576   6.669
10070SOL    HW231110   5.322   0.642   6.685
10071SOL     OW31111   5.138   1.436   4.319
10071SOL    HW131112   5.125   1.530   4.351
10071SOL    HW231113   5.186   1.437   4.231
10072SOL     OW31114   5.643   2.981   1.226
10072SOL    HW131115   5.654   3.051   1.297
10072SOL    HW231116   5.665   2.891   1.264
10073SOL     OW31117   5.717   5.107   5.108
10073SOL    HW131118   5.673   5.020   5.086
10073SOL    HW231119   5.657   5.183   5.081
10074SOL     OW31120   2.361   4.654   1.798
10074SOL    HW131121   2.274   4.670   1.845
10074SOL    HW231122   2.345   4.602   1.714
10075SOL     OW31123   0.920   3.842   1.262
10075SOL    HW131124   0.937   3.793   1.177
10075SOL    HW231125   0.835   3.895   1.254
10076SOL     OW31126   5.927   5.057   4.066
10076SOL    HW131127   6.026   5.065   4.072
10076SOL    HW231128   5.901   4.962   4.053
10077SOL     OW31129   4.679   4.396   6.693
10077SOL    HW131130   4.668   4.398   6.594
10077SOL    HW231131   4.594   4.368   6.736
10078SOL     OW31132   5.916   5.970   3.735
10078SOL    HW131133   5.835   6.029   3.730
10078SOL    HW231134   5.960   5.966   3.645
10079SOL     OW31135   6.070   5.286   3.769
10079SOL    HW131136   6.156   5.285   3.819
10079SOL    HW231137   6.087   5.269   3.672
10080SOL     OW31138   4.813   3.135   4.329
10080SOL    HW131139   4.802   3.111   4.233
10080SOL    HW231140   4.819   3.052   4.384
10081SOL     OW31141   1.689   5.316   0.522
10081SOL    HW131142   1.750   5.324   0.443
10081SOL    HW231143   1.604   5.366   0.503
10082SOL     OW31144   7.019   4.153   1.714
10082SOL    HW131145   0.010   4.068   1.666
10082SOL    HW231146   6.979   4.132   1.803
10083SOL     OW31147   3.107   5.330   2.743
10083SOL    HW131148   3.080   5.374   2.829
10083SOL    HW231149   3.196   5.285   2.755
10084SOL     OW31150   2.003   4.002   4.375
10084SOL    HW131151   1.949   3.929   4.416
10084SOL    HW231152   2.056   4.049   4.446
10085SOL     OW31153   2.905   6.483   1.665
10085SOL    HW131154   2.840   6.410   1.646
10085SOL    HW231155   2.995   6.443   1.684
10086SOL     OW31156   2.740   0.867   2.712
10086SOL    HW131157   2.702   0.882   2.803
10086SOL    HW231158   2.840   0.863   2.718
10087SOL     OW31159   1.782   5.582   0.180
10087SOL    HW131160   1.740   5.654   0.236
10087SOL    HW231161   1.746   5.589   0.087
10088SOL     OW31162   5.132   1.963   0.729
10088SOL    HW131163   5.093   1.976   0.820
10088SOL    HW231164   5.064   1.988   0.660
10089SOL     OW31165   3.278   0.312   3.627
10089SOL    HW131166   3.318   0.397   3.662
10089SOL    HW231167   3.191   0.295   3.672
10090SOL     OW31168   3.350   6.223   3.459
10090SOL    HW131169   3.266   6.245   3.408
10090SOL    HW231170   3.427   6.218   3.395
10091SOL     OW31171   4.478   6.450   3.350
10091SOL    HW131172   4.499   6.405   3.437
10091SOL    HW231173   4.473   6.549   3.364
10092SOL     OW31174   6.117   0.863   1.698
10092SOL    HW131175   6.050   0.902   1.635
10092SOL    HW231176   6.154   0.779   1.659
10093SOL     OW31177   4.444   4.183   6.372
10093SOL    HW131178   4.433   4.147   6.279
10093SOL    HW231179   4.534   4.158   6.407
10094SOL     OW31180   4.122   3.408   0.291
10094SOL    HW131181   4.169   3.400   0.203
10094SOL    HW231182   4.043   3.469   0.280
10095SOL     OW31183   4.436   2.762   5.265
10095SOL    HW131184   4.379   2.682   5.246
10095SOL    HW231185   4.506   2.770   5.194
10096SOL     OW31186   6.126   4.685   1.680
10096SOL    HW131187   6.094   4.772   1.643
10096SOL    HW231188   6.068   4.610   1.646
10097SOL     OW31189   0.839   0.265   0.957
10097SOL    HW131190   0.810   0.180   1.002
10097SOL    HW231191   0.848   0.249   0.859
10098SOL     OW31192   4.021   4.733   0.875
10098SOL    HW131193   3.928   4.724   0.909
10098SOL    HW231194   4.031   4.821   0.828
10099SOL     OW31195   7.018   6.234   3.042
10099SOL    HW131196   0.089   6.238   3.037
10099SOL    HW231197   6.981   6.326   3.043
10100SOL     OW31198   5.947   5.913   4.006
10100SOL    HW131199   5.945   5.945   3.912
10100SOL    HW231200   5.865   5.945   4.055
10101SOL     OW31201   7.015   2.497   6.261
10101SOL    HW131202   7.021   2.411   6.210
10101SOL    HW231203   0.068   2.552   6.243
10102SOL     OW31204   0.088   5.319   4.489
10102SOL    HW131205   0.079   5.229   4.531
10102SOL    HW231206   0.054   5.389   4.551
10103SOL     OW31207   1.024   0.373   6.790
10103SOL    HW131208   1.042   0.334   6.881
10103SOL    HW231209   0.981   0.305   6.732
10104SOL     OW31210   2.696   1.797   4.438
10104SOL    HW131211   2.777   1.841   4.478
10104SOL    HW231212   2.614   1.835   4.480
10105SOL     OW31213   3.367   1.334   4.330
10105SOL    HW131214   3.282   1.347   4.382
10105SOL    HW231215   3.433   1.404   4.358
10106SOL     OW31216   0.002   3.151   1.676
10106SOL    HW131217   0.066   3.153   1.753
10106SOL    HW231218   6.939   3.175   1.708
10107SOL     OW31219   4.648   5.592   5.069
10107SOL    HW131220   4.721   5.536   5.030
10107SOL    HW231221   4.689   5.669   5.118
10108SOL     OW31222   3.342   2.122   4.665
10108SOL    HW131223   3.356   2.121   4.764
10108SOL    HW231224   3.244   2.121   4.645
10109SOL     OW31225   1.224   2.745   0.859
10109SOL    HW131226   1.286   2.703   0.925
10109SOL    HW231227   1.133   2.754   0.901
10110SOL     OW31228   6.370   6.235   1.745
10110SOL    HW131229   6.417   6.292   1.813
10110SOL    HW231230   6.272   6.256   1.746
10111SOL     OW31231   0.071   2.300   0.825
10111SOL    HW131232   0.093   2.328   0.732
10111SOL    HW231233   0.049   2.381   0.880
10112SOL     OW31234   0.507   3.258   3.119
10112SOL    HW131235   0.460   3.230   3.035
10112SOL    HW231236   0.590   3.203   3.131
10113SOL     OW31237   0.185   6.562   6.097
10113SOL    HW131238   0.236   6.637   6.140
10113SOL    HW231239   0.150   6.501   6.168
10114SOL     OW31240   5.655   3.971   1.876
10114SOL    HW131241   5.674   3.885   1.829
10114SOL    HW231242   5.577   3.958   1.939
10115SOL     OW31243   2.713   1.515   6.574
10115SOL    HW131244   2.657   1.481   6.498
10115SOL    HW231245   2.788   1.452   6.591
10116SOL     OW31246   1.444   0.131   5.969
10116SOL    HW131247   1.367   0.094   5.917
10116SOL    HW231248   1.427   0.118   6.067
10117SOL     OW31249   0.787   4.569   0.925
10117SOL    HW131250   0.701   4.603   0.888
10117SOL    HW231251   0.774   4.537   1.019
10118SOL     OW31252   4.142   5.809   3.344
10118SOL    HW131253   4.134   5.849   3.252
10118SOL    HW231254   4.066   5.747   3.360
10119SOL     OW31255   5.845   5.660   6.793
10119SOL    HW131256   5.782   5.722   6.747
10119SOL    HW231257   5.931   5.706   6.811
10120SOL     OW31258   2.507   2.079   2.432
10120SOL    HW131259   2.546   2.156   2.482
10120SOL    HW231260   2.582   2.024   2.393
10121SOL     OW31261   6.884   6.325   1.826
10121SOL    HW131262   6.804   6.278   1.862
10121SOL    HW231263   6.858   6.416   1.794
10122SOL     OW31264   1.738   0.071   3.796
10122SOL    HW131265   1.836   0.067   3.820
10122SOL    HW231266   1.721   0.153   3.741
10123SOL     OW31267   6.443   6.074   6.697
10123SOL    HW131268   6.531   6.105   6.661
10123SOL    HW231269   6.386   6.042   6.622
10124SOL     OW31270   0.383   4.721   3.439
10124SOL    HW131271   0.292   4.682   3.453
10124SOL    HW231272   0.433   4.722   3.525
10125SOL     OW31273   2.272   2.839   3.958
10125SOL    HW131274   2.305   2.859   3.866
10125SOL    HW231275   2.217   2.916   3.991
10126SOL     OW31276   6.866   6.055   4.571
10126SOL    HW131277   6.845   6.116   4.647
10126SOL    HW231278   6.949   6.003   4.591
10127SOL     OW31279   2.140   0.689   5.580
10127SOL    HW131280   2.208   0.709   5.651
10127SOL    HW231281   2.051   0.723   5.609
10128SOL     OW31282   2.937   0.277   0.505
10128SOL    HW131283   2.854   0.222   0.490
10128SOL    HW231284   2.912   0.373   0.513
10129SOL     OW31285   6.753   2.502   5.648
10129SOL    HW131286   6.793   2.458   5.729
10129SOL    HW231287   6.702   2.583   5.675
10130SOL     OW31288   0.664   2.566   3.320
10130SOL    HW131289   0.662   2.654   3.367
10130SOL    HW231290   0.573   2.524   3.325
10131SOL     OW31291   2.631   0.609   4.991
10131SOL    HW131292   2.728   0.609   5.018
10131SOL    HW231293   2.603   0.701   4.965
10132SOL     OW31294   5.874   0.911   1.529
10132SOL    HW131295   5.919   0.879   1.446
10132SOL    HW231296   5.790   0.859   1.544
10133SOL     OW31297   4.720   5.308   1.178
10133SOL    HW131298   4.700   5.395   1.135
10133SOL    HW231299   4.805   5.270   1.140
10134SOL     OW31300   6.242   1.187   2.817
10134SOL    HW131301   6.209   1.280   2.801
10134SOL    HW231302   6.166   1.123   2.817
10135SOL     OW31303   5.796   6.706   3.259
10135SOL    HW131304   5.727   6.685   3.190
10135SOL    HW231305   5.876   6.745   3.214
10136SOL     OW31306   5.117   0.045   3.179
10136SOL    HW131307   5.087   0.136   3.148
10136SOL    HW231308   5.040   7.011   3.177
10137SOL     OW31309   5.990   6.303   2.013
10137SOL    HW131310   5.983   6.403   2.011
10137SOL    HW231311   5.974   6.270   2.106
10138SOL     OW31312   0.672   1.214   1.803
10138SOL    HW131313   0.636   1.266   1.726
10138SOL    HW231314   0.617   1.234   1.885
10139SOL     OW31315   4.574   2.164   0.387
10139SOL    HW131316   4.628   2.083   0.366
10139SOL    HW231317   4.487   2.161   0.336
10140SOL     OW31318   6.131   6.672   3.267
10140SOL    HW131319   6.081   6.754   3.239
10140SOL    HW231320   6.200   6.696   3.336
10141SOL     OW31321   0.615   1.977   5.463
10141SOL    HW131322   0.559   1.933   5.393
10141SOL    HW231323   0.558   2.002   5.541
10142SOL     OW31324   4.037   5.418   1.499
10142SOL    HW131325   4.097   5.345   1.531
10142SOL    HW231326   3.960   5.428   1.561
10143SOL     OW31327   0.965   3.157   6.400
10143SOL    HW131328   0.894   3.102   6.444
10143SOL    HW231329   0.987   3.236   6.459
10144SOL     OW31330   4.453   0.191   2.558
10144SOL    HW131331   4.550   0.171   2.577
10144SOL    HW231332   4.410   0.226   2.641
10145SOL     OW31333   6.132   0.821   5.170
10145SOL    HW131334   6.087   0.906   5.198
10145SOL    HW231335   6.229   0.837   5.155
10146SOL     OW31336   1.914   0.850   5.678
10146SOL    HW131337   1.821   0.812   5.676
10146SOL    HW231338   1.909   0.948   5.696
10147SOL     OW31339   3.900   4.748   6.738
10147SOL    HW131340   3.925   4.829   6.792
10147SOL    HW231341   3.915   4.666   6.793
10148SOL     OW31342   6.715   5.609   6.188
10148SOL    HW131343   6.650   5.590   6.114
10148SOL    HW231344   6.672   5.590   6.276
10149SOL     OW31345   3.388   3.236   4.704
10149SOL    HW131346   3.292   3.211   4.712
10149SOL    HW231347   3.397   3.335   4.707
10150SOL     OW31348   6.491   4.080   0.024
10150SOL    HW131349   6.507   4.064   0.121
10150SOL    HW231350   6.406   4.036   7.025
10151SOL     OW31351   0.522   0.301   6.969
10151SOL    HW131352   0.566   0.389   6.985
10151SOL    HW231353   0.466   0.306   6.887
10152SOL     OW31354   3.181   6.885   4.114
10152SOL    HW131355   3.255   6.893   4.181
10152SOL    HW231356   3.189   6.960   4.047
10153SOL     OW31357   4.057   4.721   0.459
10153SOL    HW131358   4.106   4.706   0.373
10153SOL    HW231359   4.033   4.633   0.499
10154SOL     OW31360   4.262   4.983   6.212
10154SOL    HW131361   4.177   5.034   6.218
10154SOL    HW231362   4.275   4.950   6.118
10155SOL     OW31363   4.750   2.865   4.716
10155SOL    HW131364   4.675   2.819   4.668
10155SOL    HW231365   4.808   2.798   4.762
10156SOL     OW31366   3.265   2.258   6.475
10156SOL    HW131367   3.224   2.172   6.505
10156SOL    HW231368   3.207   2.301   6.406
10157SOL     OW31369   0.275   5.551   2.705
10157SOL    HW131370   0.202   5.490   2.675
10157SOL    HW231371   0.290   5.621   2.635
10158SOL     OW31372   0.449   5.438   6.026
10158SOL    HW131373   0.358   5.398   6.031
10158SOL    HW231374   0.472   5.457   5.931
10159SOL     OW31375   4.065   2.817   1.661
10159SOL    HW131376   4.036   2.892   1.721
10159SOL    HW231377   4.164   2.802   1.670
10160SOL     OW31378   6.748   4.225   2.527
10160SOL    HW131379   6.807   4.303   2.508
10160SOL    HW231380   6.770   4.150   2.463
10161SOL     OW31381   6.413   2.560   6.992
10161SOL    HW131382   6.439   2.468   7.021
10161SOL    HW231383   6.490   2.622   7.004
10162SOL     OW31384   1.918   1.834   2.690
10162SOL    HW131385   1.820   1.835   2.673
10162SOL    HW231386   1.966   1.806   2.607
10163SOL     OW31387   4.334   5.436   4.562
10163SOL    HW131388   4.356   5.345   4.525
10163SOL    HW231389   4.244   5.464   4.530
10164SOL     OW31390   0.292   1.379   3.899
10164SOL    HW131391   0.311   1.468   3.941
10164SOL    HW231392   0.278   1.310   3.970
10165SOL     OW31393   1.633   2.709   3.849
10165SOL    HW131394   1.549   2.657   3.869
10165SOL    HW231395   1.708   2.673   3.905
10166SOL     OW31396   3.611   6.457   3.896
10166SOL    HW131397   3.646   6.365   3.916
10166SOL    HW231398   3.625   6.515   3.976
10167SOL     OW31399   3.580   2.081   6.948
10167SOL    HW131400   3.647   2.042   6.885
10167SOL    HW231401   3.619   2.085   0.012
10168SOL     OW31402   0.383   0.888   6.410
10168SOL    HW131403   0.337   0.886   6.321
10168SOL    HW231404   0.322   0.854   6.481
10169SOL     OW31405   4.972   4.806   2.450
10169SOL    HW131406   4.966   4.706   2.460
10169SOL    HW231407   4.932   4.849   2.531
10170SOL     OW31408   4.454   0.166   0.234
10170SOL    HW131409   4.490   0.259   0.224
10170SOL    HW231410   4.520   0.110   0.284
10171SOL     OW31411   0.839   4.916   3.170
10171SOL    HW131412   0.807   5.005   3.201
10171SOL    HW231413   0.935   4.922   3.144
10172SOL     OW31414   0.683   0.381   3.701
10172SOL    HW131415   0.648   0.468   3.734
10172SOL    HW231416   0.615   0.339   3.641
10173SOL     OW31417   4.669   2.770   3.907
10173SOL    HW131418   4.599   2.720   3.958
10173SOL    HW231419   4.684   2.725   3.819
10174SOL     OW31420   3.886   5.703   1.209
10174SOL    HW131421   3.984   5.705   1.190
10174SOL    HW231422   3.871   5.684   1.306
10175SOL     OW31423   6.691   6.825   5.069
10175SOL    HW131424   6.751   6.890   5.021
10175SOL    HW231425   6.701   6.836   5.168
10176SOL     OW31426   7.000   1.449   5.059
10176SOL    HW131427   6.923   1.404   5.014
10176SOL    HW231428   7.004   1.545   5.031
10177SOL     OW31429   2.982   1.044   4.537
10177SOL    HW131430   2.908   1.030   4.472
10177SOL    HW231431   3.031   1.128   4.515
10178SOL     OW31432   5.731   1.174   1.295
10178SOL    HW131433   5.730   1.171   1.195
10178SOL    HW231434   5.679   1.253   1.328
10179SOL     OW31435   6.341   5.780   0.990
10179SOL    HW131436   6.279   5.841   0.940
10179SOL    HW231437   6.306   5.686   0.985
10180SOL     OW31438   2.147   0.534   6.130
10180SOL    HW131439   2.172   0.442   6.159
10180SOL    HW231440   2.119   0.533   6.034
10181SOL     OW31441   0.125   4.099   2.591
10181SOL    HW131442   0.157   4.146   2.674
10181SOL    HW231443   0.120   4.164   2.516
10182SOL     OW31444   2.885   6.962   6.530
10182SOL    HW131445   2.897   6.910   6.446
10182SOL    HW231446   2.832   6.908   6.596
10183SOL     OW31447   3.723   6.313   6.321
10183SOL    HW131448   3.632   6.352   6.310
10183SOL    HW231449   3.763   6.344   6.407
10184SOL     OW31450   5.012   2.774   4.228
10184SOL    HW131451   4.959   2.833   4.289
10184SOL    HW231452   5.032   2.823   4.144
10185SOL     OW31453   2.650   4.683   1.785
10185SOL    HW131454   2.717   4.664   1.857
10185SOL    HW231455   2.558   4.682   1.823
10186SOL     OW31456   3.206   3.280   2.433
10186SOL    HW131457   3.111   3.294   2.463
10186SOL    HW231458   3.268   3.321   2.500
10187SOL     OW31459   1.518   3.387   4.635
10187SOL    HW131460   1.425   3.386   4.673
10187SOL    HW231461   1.550   3.293   4.624
10188SOL     OW31462   2.576   6.404   0.388
10188SOL    HW131463   2.668   6.439   0.374
10188SOL    HW231464   2.524   6.411   0.303
10189SOL     OW31465   1.648   0.922   5.850
10189SOL    HW131466   1.698   0.933   5.936
10189SOL    HW231467   1.617   1.012   5.818
10190SOL     OW31468   2.788   4.335   1.151
10190SOL    HW131469   2.762   4.421   1.196
10190SOL    HW231470   2.885   4.316   1.170
10191SOL     OW31471   6.857   0.183   6.467
10191SOL    HW131472   6.777   0.124   6.464
10191SOL    HW231473   6.940   0.126   6.474
10192SOL     OW31474   2.892   1.325   3.571
10192SOL    HW131475   2.836   1.397   3.529
10192SOL    HW231476   2.980   1.319   3.524
10193SOL     OW31477   3.416   2.918   4.382
10193SOL    HW131478   3.459   2.986   4.442
10193SOL    HW231479   3.486   2.874   4.326
10194SOL     OW31480   3.542   5.769   3.589
10194SOL    HW131481   3.464   5.813   3.544
10194SOL    HW231482   3.528   5.767   3.688
10195SOL     OW31483   5.290   6.509   1.780
10195SOL    HW131484   5.370   6.564   1.803
10195SOL    HW231485   5.207   6.563   1.796
10196SOL     OW31486   5.105   4.435   4.632
10196SOL    HW131487   5.101   4.426   4.533
10196SOL    HW231488   5.100   4.532   4.657
10197SOL     OW31489   5.877   2.172   2.317
10197SOL    HW131490   5.912   2.265   2.327
10197SOL    HW231491   5.894   2.138   2.225
10198SOL     OW31492   3.551   1.436   2.385
10198SOL    HW131493   3.545   1.522   2.436
10198SOL    HW231494   3.487   1.438   2.308
10199SOL     OW31495   1.817   1.765   6.863
10199SOL    HW131496   1.766   1.679   6.867
10199SOL    HW231497   1.760   1.836   6.822
10200SOL     OW31498   3.810   6.394   3.344
10200SOL    HW131499   3.875   6.454   3.297
10200SOL    HW231500   3.858   6.314   3.380
10201SOL     OW31501   0.202   4.727   2.417
10201SOL    HW131502   0.285   4.745   2.470
10201SOL    HW231503   0.123   4.766   2.465
10202SOL     OW31504   1.982   2.918   3.852
10202SOL    HW131505   2.003   2.826   3.818
10202SOL    HW231506   2.062   2.977   3.838
10203SOL     OW31507   6.369   2.240   0.960
10203SOL    HW131508   6.277   2.230   0.920
10203SOL    HW231509   6.365   2.302   1.038
10204SOL     OW31510   0.995   6.083   4.189
10204SOL    HW131511   0.977   5.985   4.190
10204SOL    HW231512   1.093   6.099   4.182
10205SOL     OW31513   3.263   6.961   1.333
10205SOL    HW131514   3.344   7.018   1.345
10205SOL    HW231515   3.272   6.878   1.388
10206SOL     OW31516   6.139   5.778   6.564
10206SOL    HW131517   6.116   5.795   6.660
10206SOL    HW231518   6.168   5.864   6.521
10207SOL     OW31519   2.861   1.462   1.484
10207SOL    HW131520   2.837   1.554   1.455
10207SOL    HW231521   2.823   1.396   1.419
10208SOL     OW31522   1.156   2.539   6.037
10208SOL    HW131523   1.190   2.448   6.014
10208SOL    HW231524   1.170   2.556   6.135
10209SOL     OW31525   3.904   6.455   0.655
10209SOL    HW131526   3.844   6.380   0.684
10209SOL    HW231527   3.965   6.422   0.583
10210SOL     OW31528   4.226   6.133   6.784
10210SOL    HW131529   4.178   6.195   6.846
10210SOL    HW231530   4.288   6.185   6.725
10211SOL     OW31531   3.572   5.194   4.875
10211SOL    HW131532   3.569   5.283   4.829
10211SOL    HW231533   3.547   5.206   4.971
10212SOL     OW31534   6.748   5.412   5.549
10212SOL    HW131535   6.836   5.387   5.508
10212SOL    HW231536   6.734   5.359   5.633
10213SOL     OW31537   3.331   0.578   4.761
10213SOL    HW131538   3.322   0.489   4.717
10213SOL    HW231539   3.363   0.646   4.694
10214SOL     OW31540   6.846   0.132   0.195
10214SOL    HW131541   6.811   0.127   0.102
10214SOL    HW231542   6.866   0.040   0.229
10215SOL     OW31543   4.972   2.458   6.974
10215SOL    HW131544   4.974   2.510   6.889
10215SOL    HW231545   5.065   2.428   6.997
10216SOL     OW31546   5.076   0.120   2.864
10216SOL    HW131547   5.016   0.042   2.848
10216SOL    HW231548   5.052   0.164   2.951
10217SOL     OW31549   2.515   1.755   6.634
10217SOL    HW131550   2.435   1.699   6.616
10217SOL    HW231551   2.591   1.725   6.577
10218SOL     OW31552   3.957   1.061   5.835
10218SOL    HW131553   3.860   1.078   5.820
10218SOL    HW231554   3.992   0.999   5.765
10219SOL     OW31555   6.575   5.416   1.144
10219SOL    HW131556   6.663   5.374   1.165
10219SOL    HW231557   6.565   5.501   1.196
10220SOL     OW31558   4.287   2.462   6.459
10220SOL    HW131559   4.241   2.549   6.479
10220SOL    HW231560   4.219   2.389   6.451
10221SOL     OW31561   2.127   0.321   4.445
10221SOL    HW131562   2.040   0.280   4.474
10221SOL    HW231563   2.161   0.273   4.365
10222SOL     OW31564   2.526   5.332   5.550
10222SOL    HW131565   2.449   5.269   5.543
10222SOL    HW231566   2.518   5.403   5.479
10223SOL     OW31567   2.546   5.782   5.789
10223SOL    HW131568   2.486   5.744   5.719
10223SOL    HW231569   2.492   5.812   5.867
10224SOL     OW31570   4.176   5.618   5.283
10224SOL    HW131571   4.240   5.589   5.211
10224SOL    HW231572   4.086   5.633   5.243
10225SOL     OW31573   5.086   0.543   5.341
10225SOL    HW131574   5.006   0.582   5.295
10225SOL    HW231575   5.153   0.615   5.356
10226SOL     OW31576   6.501   2.319   6.586
10226SOL    HW131577   6.556   2.402   6.582
10226SOL    HW231578   6.475   2.301   6.681
10227SOL     OW31579   4.561   4.914   5.279
10227SOL    HW131580   4.624   4.962   5.218
10227SOL    HW231581   4.498   4.858   5.225
10228SOL     OW31582   0.966   2.456   1.011
10228SOL    HW131583   1.016   2.470   1.097
10228SOL    HW231584   0.897   2.528   1.001
10229SOL     OW31585   2.504   0.727   1.687
10229SOL    HW131586   2.558   0.796   1.639
10229SOL    HW231587   2.477   0.655   1.623
10230SOL     OW31588   5.519   0.213   3.300
10230SOL    HW131589   5.421   0.195   3.296
10230SOL    HW231590   5.566   0.158   3.231
10231SOL     OW31591   5.637   0.571   4.753
10231SOL    HW131592   5.627   0.527   4.842
10231SOL    HW231593   5.718   0.535   4.706
10232SOL     OW31594   3.883   2.075   2.624
10232SOL    HW131595   3.894   2.171   2.649
10232SOL    HW231596   3.902   2.017   2.703
10233SOL     OW31597   4.920   6.887   4.899
10233SOL    HW131598   4.859   6.926   4.968
10233SOL    HW231599   5.014   6.890   4.933
10234SOL     OW31600   3.418   4.186   1.074
10234SOL    HW131601   3.324   4.155   1.064
10234SOL    HW231602   3.420   4.277   1.114
10235SOL     OW31603   5.091   6.367   0.103
10235SOL    HW131604   5.019   6.393   0.039
10235SOL    HW231605   5.055   6.301   0.169
10236SOL     OW31606   1.300   4.966   0.999
10236SOL    HW131607   1.334   5.036   1.061
10236SOL    HW231608   1.377   4.924   0.950
10237SOL     OW31609   5.576   1.626   1.927
10237SOL    HW131610   5.655   1.588   1.879
10237SOL    HW231611   5.494   1.617   1.869
10238SOL     OW31612   5.320   4.553   6.341
10238SOL    HW131613   5.272   4.633   6.378
10238SOL    HW231614   5.397   4.530   6.400
10239SOL     OW31615   5.779   4.178   3.165
10239SOL    HW131616   5.716   4.102   3.180
10239SOL    HW231617   5.730   4.255   3.126
10240SOL     OW31618   5.465   3.384   2.160
10240SOL    HW131619   5.430   3.427   2.077
10240SOL    HW231620   5.504   3.453   2.220
10241SOL     OW31621   0.806   2.125   2.734
10241SOL    HW131622   0.713   2.161   2.742
10241SOL    HW231623   0.837   2.091   2.823
10242SOL     OW31624   1.270   5.569   6.499
10242SOL    HW131625   1.185   5.579   6.448
10242SOL    HW231626   1.291   5.656   6.544
10243SOL     OW31627   6.819   6.147   3.602
10243SOL    HW131628   6.776   6.065   3.564
10243SOL    HW231629   6.900   6.120   3.655
10244SOL     OW31630   2.323   6.227   0.731
10244SOL    HW131631   2.405   6.199   0.681
10244SOL    HW231632   2.350   6.267   0.818
10245SOL     OW31633   3.918   3.216   0.812
10245SOL    HW131634   3.831   3.167   0.810
10245SOL    HW231635   3.923   3.272   0.894
10246SOL     OW31636   3.426   3.525   4.742
10246SOL    HW131637   3.514   3.561   4.712
10246SOL    HW231638   3.372   3.598   4.782
10247SOL     OW31639   1.140   5.424   6.150
10247SOL    HW131640   1.055   5.411   6.200
10247SOL    HW231641   1.187   5.335   6.142
10248SOL     OW31642   5.651   6.883   3.963
10248SOL    HW131643   5.730   6.940   3.944
10248SOL    HW231644   5.578   6.903   3.897
10249SOL     OW31645   4.668   1.569   5.783
10249SOL    HW131646   4.658   1.470   5.792
10249SOL    HW231647   4.764   1.595   5.790
10250SOL     OW31648   4.650   5.050   1.041
10250SOL    HW131649   4.573   5.018   1.097
10250SOL    HW231650   4.649   5.150   1.038
10251SOL     OW31651   4.335   4.057   1.188
10251SOL    HW131652   4.291   3.973   1.153
10251SOL    HW231653   4.433   4.041   1.199
10252SOL     OW31654   0.258   3.968   0.904
10252SOL    HW131655   0.199   3.996   0.828
10252SOL    HW231656   0.247   4.032   0.980
10253SOL     OW31657   5.253   3.794   6.913
10253SOL    HW131658   5.327   3.776   6.978
10253SOL    HW231659   5.236   3.892   6.909
10254SOL     OW31660   3.732   1.906   5.879
10254SOL    HW131661   3.673   1.980   5.911
10254SOL    HW231662   3.706   1.880   5.786
10255SOL     OW31663   2.722   4.709   4.359
10255SOL    HW131664   2.678   4.666   4.279
10255SOL    HW231665   2.658   4.772   4.402
10256SOL     OW31666   5.924   4.654   0.012
10256SOL    HW131667   5.999   4.603   6.998
10256SOL    HW231668   5.911   4.740   6.992
10257SOL     OW31669   1.615   4.063   4.925
10257SOL    HW131670   1.709   4.094   4.935
10257SOL    HW231671   1.614   3.967   4.896
10258SOL     OW31672   3.616   1.158   2.264
10258SOL    HW131673   3.600   1.250   2.302
10258SOL    HW231674   3.557   1.144   2.185
10259SOL     OW31675   6.067   3.422   3.410
10259SOL    HW131676   5.982   3.461   3.447
10259SOL    HW231677   6.065   3.323   3.418
10260SOL     OW31678   0.015   6.089   2.550
10260SOL    HW131679   0.069   6.126   2.626
10260SOL    HW231680   6.949   6.118   2.559
10261SOL     OW31681   1.988   0.380   2.706
10261SOL    HW131682   2.020   0.459   2.759
10261SOL    HW231683   1.924   0.411   2.635
10262SOL     OW31684   6.653   6.730   3.117
10262SOL    HW131685   6.632   6.661   3.187
10262SOL    HW231686   6.709   6.802   3.157
10263SOL     OW31687   6.857   3.683   4.711
10263SOL    HW131688   6.815   3.672   4.802
10263SOL    HW231689   6.812   3.759   4.663
10264SOL     OW31690   0.723   0.077   1.418
10264SOL    HW131691   0.729   0.176   1.424
10264SOL    HW231692   0.657   0.052   1.347
10265SOL     OW31693   5.153   2.792   4.532
10265SOL    HW131694   5.215   2.826   4.461
10265SOL    HW231695   5.117   2.703   4.504
10266SOL     OW31696   3.115   3.599   0.009
10266SOL    HW131697   3.020   3.574   7.019
10266SOL    HW231698   3.132   3.595   0.108
10267SOL     OW31699   6.928   0.521   6.226
10267SOL    HW131700   6.845   0.486   6.269
10267SOL    HW231701   6.936   0.482   6.134
10268SOL     OW31702   6.775   4.620   0.482
10268SOL    HW131703   6.823   4.532   0.482
10268SOL    HW231704   6.739   4.639   0.391
10269SOL     OW31705   3.712   1.292   5.801
10269SOL    HW131706   3.637   1.299   5.736
10269SOL    HW231707   3.680   1.246   5.884
10270SOL     OW31708   3.849   6.061   4.163
10270SOL    HW131709   3.758   6.102   4.176
10270SOL    HW231710   3.854   6.020   4.072
10271SOL     OW31711   1.067   4.578   0.772
10271SOL    HW131712   0.983   4.551   0.820
10271SOL    HW231713   1.125   4.632   0.834
10272SOL     OW31714   1.509   3.172   3.767
10272SOL    HW131715   1.531   3.263   3.804
10272SOL    HW231716   1.584   3.140   3.710
10273SOL     OW31717   4.793   0.447   4.456
10273SOL    HW131718   4.722   0.518   4.463
10273SOL    HW231719   4.754   0.358   4.481
10274SOL     OW31720   1.790   4.134   6.808
10274SOL    HW131721   1.743   4.220   6.788
10274SOL    HW231722   1.877   4.132   6.758
10275SOL     OW31723   6.679   6.193   1.939
10275SOL    HW131724   6.583   6.211   1.918
10275SOL    HW231725   6.691   6.096   1.962
10276SOL     OW31726   3.141   6.396   0.169
10276SOL    HW131727   3.141   6.339   0.250
10276SOL    HW231728   3.226   6.382   0.118
10277SOL     OW31729   5.940   6.260   2.269
10277SOL    HW131730   5.909   6.292   2.358
10277SOL    HW231731   6.035   6.228   2.277
10278SOL     OW31732   6.245   1.125   5.177
10278SOL    HW131733   6.282   1.218   5.182
10278SOL    HW231734   6.194   1.115   5.091
10279SOL     OW31735   3.798   6.823   3.796
10279SOL    HW131736   3.821   6.743   3.739
10279SOL    HW231737   3.814   6.906   3.743
10280SOL     OW31738   2.930   2.288   6.775
10280SOL    HW131739   2.888   2.198   6.788
10280SOL    HW231740   3.008   2.298   6.836
10281SOL     OW31741   3.821   1.505   4.603
10281SOL    HW131742   3.812   1.417   4.557
10281SOL    HW231743   3.751   1.513   4.674
10282SOL     OW31744   1.250   3.217   3.729
10282SOL    HW131745   1.223   3.236   3.634
10282SOL    HW231746   1.335   3.164   3.730
10283SOL     OW31747   2.063   6.005   6.731
10283SOL    HW131748   2.039   5.925   6.676
10283SOL    HW231749   2.162   6.012   6.739
10284SOL     OW31750   5.471   2.068   0.758
10284SOL    HW131751   5.425   2.123   0.827
10284SOL    HW231752   5.427   2.081   0.669
10285SOL     OW31753   5.051   1.654   0.114
10285SOL    HW131754   5.049   1.658   0.014
10285SOL    HW231755   5.028   1.744   0.151
10286SOL     OW31756   2.371   6.539   3.281
10286SOL    HW131757   2.297   6.581   3.334
10286SOL    HW231758   2.427   6.483   3.341
10287SOL     OW31759   2.267   4.741   2.128
10287SOL    HW131760   2.366   4.741   2.110
10287SOL    HW231761   2.233   4.648   2.124
10288SOL     OW31762   4.913   0.039   4.374
10288SOL    HW131763   4.890   7.012   4.454
10288SOL    HW231764   4.979   7.019   4.318
10289SOL     OW31765   2.602   1.526   2.488
10289SOL    HW131766   2.524   1.470   2.460
10289SOL    HW231767   2.687   1.481   2.461
10290SOL     OW31768   3.435   4.124   2.758
10290SOL    HW131769   3.467   4.029   2.767
10290SOL    HW231770   3.451   4.156   2.665
10291SOL     OW31771   3.900   0.351   3.475
10291SOL    HW131772   3.953   0.325   3.555
10291SOL    HW231773   3.819   0.293   3.469
10292SOL     OW31774   0.425   3.536   4.447
10292SOL    HW131775   0.520   3.565   4.452
10292SOL    HW231776   0.370   3.587   4.514
10293SOL     OW31777   1.708   5.643   3.515
10293SOL    HW131778   1.704   5.589   3.599
10293SOL    HW231779   1.622   5.691   3.502
10294SOL     OW31780   6.033   1.024   2.950
10294SOL    HW131781   6.003   1.110   2.992
10294SOL    HW231782   5.961   0.955   2.959
10295SOL     OW31783   1.412   4.116   3.115
10295SOL    HW131784   1.472   4.196   3.109
10295SOL    HW231785   1.467   4.032   3.106
10296SOL     OW31786   0.428   3.724   1.149
10296SOL    HW131787   0.402   3.643   1.203
10296SOL    HW231788   0.390   3.716   1.057
10297SOL     OW31789   3.470   4.355   6.439
10297SOL    HW131790   3.555   4.303   6.446
10297SOL    HW231791   3.411   4.313   6.369
10298SOL     OW31792   5.639   3.242   2.798
10298SOL    HW131793   5.642   3.269   2.702
10298SOL    HW231794   5.731   3.244   2.836
10299SOL     OW31795   4.000   5.250   3.163
10299SOL    HW131796   4.088   5.296   3.149
10299SOL    HW231797   4.009   5.154   3.137
10300SOL     OW31798   0.533   6.048   2.462
10300SOL    HW131799   0.519   6.125   2.400
10300SOL    HW231800   0.447   5.999   2.474
10301SOL     OW31801   4.543   0.746   1.688
10301SOL    HW131802   4.512   0.686   1.615
10301SOL    HW231803   4.525   0.703   1.776
10302SOL     OW31804   6.809   4.500   3.088
10302SOL    HW131805   6.794   4.497   2.990
10302SOL    HW231806   6.805   4.408   3.126
10303SOL     OW31807   4.463   3.151   0.888
10303SOL    HW131808   4.369   3.163   0.919
10303SOL    HW231809   4.489   3.227   0.829
10304SOL     OW31810   6.104   6.522   4.696
10304SOL    HW131811   6.031   6.579   4.735
10304SOL    HW231812   6.156   6.576   4.631
10305SOL     OW31813   0.720   5.385   0.896
10305SOL    HW131814   0.666   5.466   0.872
10305SOL    HW231815   0.668   5.328   0.959
10306SOL     OW31816   4.446   3.497   6.576
10306SOL    HW131817   4.391   3.417   6.553
10306SOL    HW231818   4.524   3.503   6.514
10307SOL     OW31819   2.575   2.117   6.126
10307SOL    HW131820   2.482   2.089   6.103
10307SOL    HW231821   2.578   2.216   6.138
10308SOL     OW31822   2.919   4.786   4.157
10308SOL    HW131823   2.864   4.707   4.183
10308SOL    HW231824   2.977   4.813   4.234
10309SOL     OW31825   6.623   6.855   3.889
10309SOL    HW131826   6.715   6.851   3.849
10309SOL    HW231827   6.630   6.864   3.988
10310SOL     OW31828   3.974   3.232   4.438
10310SOL    HW131829   3.941   3.170   4.510
10310SOL    HW231830   3.903   3.242   4.368
10311SOL     OW31831   1.410   1.312   0.466
10311SOL    HW131832   1.431   1.227   0.417
10311SOL    HW231833   1.333   1.297   0.527
10312SOL     OW31834   3.453   4.325   0.558
10312SOL    HW131835   3.390   4.402   0.565
10312SOL    HW231836   3.422   4.251   0.618
10313SOL     OW31837   6.389   5.847   3.022
10313SOL    HW131838   6.471   5.796   3.050
10313SOL    HW231839   6.312   5.784   3.016
10314SOL     OW31840   0.100   5.930   5.091
10314SOL    HW131841   0.178   5.964   5.039
10314SOL    HW231842   0.032   5.892   5.028
10315SOL     OW31843   4.701   5.182   5.071
10315SOL    HW131844   4.764   5.146   5.140
10315SOL    HW231845   4.608   5.180   5.107
10316SOL     OW31846   0.277   2.670   3.419
10316SOL    HW131847   0.265   2.675   3.320
10316SOL    HW231848   0.198   2.624   3.460
10317SOL     OW31849   6.177   3.876   6.150
10317SOL    HW131850   6.274   3.849   6.153
10317SOL    HW231851   6.164   3.944   6.078
10318SOL     OW31852   5.220   4.484   2.037
10318SOL    HW131853   5.138   4.506   1.983
10318SOL    HW231854   5.297   4.466   1.976
10319SOL     OW31855   6.004   6.607   3.541
10319SOL    HW131856   5.907   6.599   3.566
10319SOL    HW231857   6.014   6.593   3.442
10320SOL     OW31858   2.676   6.654   1.650
10320SOL    HW131859   2.650   6.652   1.747
10320SOL    HW231860   2.776   6.654   1.643
10321SOL     OW31861   5.139   6.236   5.912
10321SOL    HW131862   5.222   6.288   5.892
10321SOL    HW231863   5.060   6.297   5.907
10322SOL     OW31864   0.113   2.013   6.247
10322SOL    HW131865   0.075   2.095   6.290
10322SOL    HW231866   0.108   2.022   6.147
10323SOL     OW31867   6.682   1.895   5.657
10323SOL    HW131868   6.683   1.857   5.750
10323SOL    HW231869   6.674   1.994   5.662
10324SOL     OW31870   2.796   3.618   5.272
10324SOL    HW131871   2.720   3.672   5.236
10324SOL    HW231872   2.880   3.673   5.269
10325SOL     OW31873   0.592   2.627   3.717
10325SOL    HW131874   0.493   2.638   3.726
10325SOL    HW231875   0.636   2.658   3.801
10326SOL     OW31876   5.205   0.774   0.714
10326SOL    HW131877   5.176   0.679   0.729
10326SOL    HW231878   5.191   0.798   0.618
10327SOL     OW31879   6.506   2.413   3.670
10327SOL    HW131880   6.427   2.389   3.727
10327SOL    HW231881   6.581   2.349   3.688
10328SOL     OW31882   0.392   3.294   1.615
10328SOL    HW131883   0.377   3.231   1.692
10328SOL    HW231884   0.481   3.338   1.626
10329SOL     OW31885   2.224   5.954   2.629
10329SOL    HW131886   2.223   5.855   2.641
10329SOL    HW231887   2.151   5.981   2.567
10330SOL     OW31888   4.164   3.157   0.384
10330SOL    HW131889   4.163   3.145   0.483
10330SOL    HW231890   4.147   3.254   0.362
10331SOL     OW31891   4.511   1.733   3.713
10331SOL    HW131892   4.553   1.648   3.745
10331SOL    HW231893   4.580   1.805   3.709
10332SOL     OW31894   2.225   3.140   6.285
10332SOL    HW131895   2.233   3.133   6.384
10332SOL    HW231896   2.219   3.236   6.258
10333SOL     OW31897   0.161   4.086   5.794
10333SOL    HW131898   0.119   4.003   5.757
10333SOL    HW231899   0.214   4.062   5.875
10334SOL     OW31900   0.184   5.211   5.540
10334SOL    HW131901   0.231   5.292   5.505
10334SOL    HW231902   0.237   5.129   5.518
10335SOL     OW31903   2.921   5.115   2.856
10335SOL    HW131904   2.862   5.038   2.883
10335SOL    HW231905   2.897   5.145   2.764
10336SOL     OW31906   3.919   0.356   2.809
10336SOL    HW131907   4.000   0.386   2.860
10336SOL    HW231908   3.927   0.385   2.714
10337SOL     OW31909   2.017   2.989   6.402
10337SOL    HW131910   2.052   3.011   6.311
10337SOL    HW231911   2.063   3.045   6.471
10338SOL     OW31912   2.244   4.090   3.429
10338SOL    HW131913   2.202   4.001   3.414
10338SOL    HW231914   2.235   4.146   3.347
10339SOL     OW31915   3.426   6.808   6.728
10339SOL    HW131916   3.397   6.904   6.731
10339SOL    HW231917   3.359   6.752   6.777
10340SOL     OW31918   1.894   6.043   0.771
10340SOL    HW131919   1.836   5.967   0.798
10340SOL    HW231920   1.841   6.128   0.771
10341SOL     OW31921   0.213   2.477   1.899
10341SOL    HW131922   0.213   2.377   1.893
10341SOL    HW231923   0.194   2.505   1.993
10342SOL     OW31924   3.510   4.937   4.134
10342SOL    HW131925   3.484   4.923   4.230
10342SOL    HW231926   3.433   4.912   4.075
10343SOL     OW31927   2.849   2.279   4.797
10343SOL    HW131928   2.760   2.310   4.765
10343SOL    HW231929   2.851   2.279   4.897
10344SOL     OW31930   4.988   4.746   1.124
10344SOL    HW131931   5.030   4.655   1.115
10344SOL    HW231932   5.033   4.809   1.061
10345SOL     OW31933   2.643   2.068   6.429
10345SOL    HW131934   2.630   2.060   6.528
10345SOL    HW231935   2.569   2.123   6.390
10346SOL     OW31936   6.734   5.075   6.543
10346SOL    HW131937   6.642   5.103   6.518
10346SOL    HW231938   6.738   5.053   6.640
10347SOL     OW31939   3.326   6.346   2.356
10347SOL    HW131940   3.314   6.445   2.344
10347SOL    HW231941   3.423   6.322   2.345
10348SOL     OW31942   0.399   2.594   4.038
10348SOL    HW131943   0.498   2.606   4.034
10348SOL    HW231944   0.357   2.638   3.959
10349SOL     OW31945   6.483   1.185   0.121
10349SOL    HW131946   6.514   1.279   0.112
10349SOL    HW231947   6.561   1.126   0.143
10350SOL     OW31948   1.879   5.306   4.271
10350SOL    HW131949   1.801   5.367   4.285
10350SOL    HW231950   1.899   5.258   4.356
10351SOL     OW31951   4.059   5.561   5.554
10351SOL    HW131952   4.094   5.571   5.461
10351SOL    HW231953   4.126   5.598   5.618
10352SOL     OW31954   0.045   1.688   2.113
10352SOL    HW131955   0.070   1.687   2.210
10352SOL    HW231956   6.979   1.716   2.103
10353SOL     OW31957   5.328   2.909   3.627
10353SOL    HW131958   5.326   2.824   3.679
10353SOL    HW231959   5.234   2.940   3.611
10354SOL     OW31960   6.712   2.541   1.925
10354SOL    HW131961   6.643   2.553   1.854
10354SOL    HW231962   6.788   2.487   1.889
10355SOL     OW31963   6.896   1.470   0.302
10355SOL    HW131964   6.828   1.460   0.229
10355SOL    HW231965   6.953   1.388   0.306
10356SOL     OW31966   6.280   3.038   5.983
10356SOL    HW131967   6.271   2.986   6.068
10356SOL    HW231968   6.193   3.036   5.934
10357SOL     OW31969   0.982   6.600   6.452
10357SOL    HW131970   0.886   6.576   6.440
10357SOL    HW231971   1.037   6.554   6.382
10358SOL     OW31972   0.748   3.952   4.181
10358SOL    HW131973   0.792   3.998   4.104
10358SOL    HW231974   0.797   3.868   4.202
10359SOL     OW31975   0.334   2.761   1.833
10359SOL    HW131976   0.270   2.686   1.848
10359SOL    HW231977   0.354   2.806   1.920
10360SOL     OW31978   5.625   4.884   1.323
10360SOL    HW131979   5.713   4.847   1.295
10360SOL    HW231980   5.638   4.968   1.375
10361SOL     OW31981   5.565   2.016   4.137
10361SOL    HW131982   5.570   2.089   4.068
10361SOL    HW231983   5.652   2.012   4.187
10362SOL     OW31984   6.901   6.055   2.237
10362SOL    HW131985   6.894   5.959   2.210
10362SOL    HW231986   6.809   6.090   2.256
10363SOL     OW31987   5.023   4.965   6.865
10363SOL    HW131988   4.954   4.997   6.800
10363SOL    HW231989   5.045   5.037   6.930
10364SOL     OW31990   6.513   5.098   1.554
10364SOL    HW131991   6.604   5.121   1.520
10364SOL    HW231992   6.490   5.004   1.529
10365SOL     OW31993   6.602   5.862   6.498
10365SOL    HW131994   6.614   5.940   6.437
10365SOL    HW231995   6.534   5.800   6.460
10366SOL     OW31996   2.327   0.763   3.334
10366SOL    HW131997   2.403   0.716   3.378
10366SOL    HW231998   2.319   0.733   3.239
10367SOL     OW31999   4.007   6.260   2.614
10367SOL    HW132000   4.000   6.247   2.515
10367SOL    HW232001   3.947   6.335   2.643
10368SOL     OW32002   1.382   6.137   1.920
10368SOL    HW132003   1.462   6.126   1.979
10368SOL    HW232004   1.299   6.120   1.972
10369SOL     OW32005   3.189   1.583   5.031
10369SOL    HW132006   3.107   1.526   5.038
10369SOL    HW232007   3.192   1.646   5.108
10370SOL     OW32008   2.439   1.859   0.033
10370SOL    HW132009   2.414   1.854   0.130
10370SOL    HW232010   2.358   1.844   7.006
10371SOL     OW32011   3.290   5.611   2.466
10371SOL    HW132012   3.321   5.575   2.554
10371SOL    HW232013   3.311   5.708   2.460
10372SOL     OW32014   1.106   6.165   1.022
10372SOL    HW132015   1.107   6.175   1.122
10372SOL    HW232016   1.199   6.173   0.987
10373SOL     OW32017   6.731   0.683   5.345
10373SOL    HW132018   6.713   0.775   5.311
10373SOL    HW232019   6.646   0.630   5.344
10374SOL     OW32020   2.027   5.559   1.985
10374SOL    HW132021   1.951   5.623   1.995
10374SOL    HW232022   1.993   5.474   1.944
10375SOL     OW32023   2.280   5.124   6.619
10375SOL    HW132024   2.183   5.108   6.599
10375SOL    HW232025   2.328   5.036   6.623
10376SOL     OW32026   1.672   5.961   3.626
10376SOL    HW132027   1.711   5.994   3.540
10376SOL    HW232028   1.717   5.876   3.654
10377SOL     OW32029   3.177   1.214   3.948
10377SOL    HW132030   3.081   1.220   3.920
10377SOL    HW232031   3.233   1.188   3.869
10378SOL     OW32032   6.957   6.498   5.180
10378SOL    HW132033   6.922   6.405   5.169
10378SOL    HW232034   6.997   6.529   5.094
10379SOL     OW32035   0.488   5.174   3.593
10379SOL    HW132036   0.562   5.242   3.585
10379SOL    HW232037   0.501   5.103   3.524
10380SOL     OW32038   3.005   1.612   3.838
10380SOL    HW132039   3.049   1.618   3.749
10380SOL    HW232040   3.060   1.555   3.899
10381SOL     OW32041   2.230   6.792   4.315
10381SOL    HW132042   2.269   6.714   4.267
10381SOL    HW232043   2.145   6.765   4.359
10382SOL     OW32044   3.391   5.425   3.038
10382SOL    HW132045   3.463   5.448   2.973
10382SOL    HW232046   3.355   5.334   3.017
10383SOL     OW32047   0.428   6.902   0.456
10383SOL    HW132048   0.446   7.000   0.446
10383SOL    HW232049   0.398   6.883   0.549
10384SOL     OW32050   5.238   5.175   1.069
10384SOL    HW132051   5.232   5.086   1.024
10384SOL    HW232052   5.331   5.189   1.103
10385SOL     OW32053   3.632   4.317   6.892
10385SOL    HW132054   3.653   4.338   6.797
10385SOL    HW232055   3.658   4.222   6.911
10386SOL     OW32056   6.988   0.180   1.525
10386SOL    HW132057   6.985   0.248   1.452
10386SOL    HW232058   0.023   0.211   1.596
10387SOL     OW32059   5.380   0.982   2.219
10387SOL    HW132060   5.308   0.936   2.167
10387SOL    HW232061   5.466   0.933   2.206
10388SOL     OW32062   0.693   6.660   4.899
10388SOL    HW132063   0.791   6.651   4.881
10388SOL    HW232064   0.679   6.700   4.989
10389SOL     OW32065   0.660   3.805   1.042
10389SOL    HW132066   0.678   3.884   1.100
10389SOL    HW232067   0.600   3.741   1.091
10390SOL     OW32068   1.302   2.215   2.341
10390SOL    HW132069   1.381   2.181   2.290
10390SOL    HW232070   1.318   2.309   2.369
10391SOL     OW32071   6.145   0.860   3.192
10391SOL    HW132072   6.229   0.830   3.147
10391SOL    HW232073   6.160   0.951   3.231
10392SOL     OW32074   5.473   3.238   4.211
10392SOL    HW132075   5.550   3.246   4.147
10392SOL    HW232076   5.387   3.238   4.160
10393SOL     OW32077   1.547   2.648   1.297
10393SOL    HW132078   1.493   2.586   1.354
10393SOL    HW232079   1.615   2.595   1.247
10394SOL     OW32080   2.578   5.283   4.014
10394SOL    HW132081   2.639   5.204   4.022
10394SOL    HW232082   2.626   5.356   3.965
10395SOL     OW32083   0.824   0.935   1.449
10395SOL    HW132084   0.902   0.873   1.437
10395SOL    HW232085   0.811   0.953   1.547
10396SOL     OW32086   3.460   1.913   5.182
10396SOL    HW132087   3.546   1.963   5.181
10396SOL    HW232088   3.442   1.878   5.274
10397SOL     OW32089   4.614   1.184   4.095
10397SOL    HW132090   4.550   1.261   4.102
10397SOL    HW232091   4.707   1.220   4.085
10398SOL     OW32092   4.579   2.597   2.891
10398SOL    HW132093   4.579   2.586   2.791
10398SOL    HW232094   4.547   2.512   2.933
10399SOL     OW32095   0.794   2.141   1.929
10399SOL    HW132096   0.837   2.061   1.887
10399SOL    HW232097   0.695   2.136   1.918
10400SOL     OW32098   1.432   6.974   0.056
10400SOL    HW132099   1.471   6.936   0.139
10400SOL    HW232100   1.449   6.912   7.008
10401SOL     OW32101   6.335   1.034   5.417
10401SOL    HW132102   6.313   1.105   5.483
10401SOL    HW232103   6.293   1.055   5.329
10402SOL     OW32104   6.581   4.174   6.303
10402SOL    HW132105   6.667   4.177   6.354
10402SOL    HW232106   6.597   4.206   6.209
10403SOL     OW32107   3.484   0.043   1.711
10403SOL    HW132108   3.420   0.089   1.649
10403SOL    HW232109   3.531   6.998   1.662
10404SOL     OW32110   0.505   5.504   5.767
10404SOL    HW132111   0.507   5.417   5.717
10404SOL    HW232112   0.468   5.575   5.707
10405SOL     OW32113   0.193   1.166   6.942
10405SOL    HW132114   0.094   1.158   6.933
10405SOL    HW232115   0.221   1.260   6.922
10406SOL     OW32116   1.963   5.062   1.544
10406SOL    HW132117   2.014   5.108   1.617
10406SOL    HW232118   1.990   5.102   1.456
10407SOL     OW32119   1.779   6.291   0.839
10407SOL    HW132120   1.798   6.260   0.932
10407SOL    HW232121   1.857   6.343   0.804
10408SOL     OW32122   4.713   0.728   6.076
10408SOL    HW132123   4.664   0.811   6.103
10408SOL    HW232124   4.764   0.746   5.992
10409SOL     OW32125   6.340   3.930   0.697
10409SOL    HW132126   6.434   3.932   0.664
10409SOL    HW232127   6.280   3.895   0.625
10410SOL     OW32128   3.899   0.206   0.684
10410SOL    HW132129   3.834   0.138   0.650
10410SOL    HW232130   3.992   0.170   0.676
10411SOL     OW32131   1.539   4.767   3.825
10411SOL    HW132132   1.611   4.837   3.825
10411SOL    HW232133   1.514   4.745   3.731
10412SOL     OW32134   4.736   0.960   2.205
10412SOL    HW132135   4.703   1.016   2.129
10412SOL    HW232136   4.804   0.894   2.171
10413SOL     OW32137   6.424   3.651   2.289
10413SOL    HW132138   6.427   3.724   2.220
10413SOL    HW232139   6.516   3.636   2.326
10414SOL     OW32140   4.799   4.020   3.449
10414SOL    HW132141   4.711   4.062   3.471
10414SOL    HW232142   4.827   3.961   3.524
10415SOL     OW32143   0.428   1.163   6.558
10415SOL    HW132144   0.403   1.100   6.632
10415SOL    HW232145   0.491   1.117   6.495
10416SOL     OW32146   5.026   2.368   2.873
10416SOL    HW132147   4.992   2.400   2.962
10416SOL    HW232148   4.969   2.404   2.800
10417SOL     OW32149   1.982   4.160   2.271
10417SOL    HW132150   2.079   4.164   2.248
10417SOL    HW232151   1.972   4.128   2.365
10418SOL     OW32152   1.514   5.821   6.130
10418SOL    HW132153   1.489   5.724   6.128
10418SOL    HW232154   1.547   5.845   6.221
10419SOL     OW32155   0.890   0.976   5.978
10419SOL    HW132156   0.864   0.917   5.902
10419SOL    HW232157   0.845   1.065   5.969
10420SOL     OW32158   0.320   3.205   2.105
10420SOL    HW132159   0.274   3.160   2.182
10420SOL    HW232160   0.417   3.216   2.126
10421SOL     OW32161   0.567   2.222   2.763
10421SOL    HW132162   0.475   2.220   2.803
10421SOL    HW232163   0.589   2.315   2.734
10422SOL     OW32164   5.735   1.982   0.038
10422SOL    HW132165   5.783   1.896   0.019
10422SOL    HW232166   5.785   2.034   0.107
10423SOL     OW32167   3.995   5.738   2.712
10423SOL    HW132168   4.025   5.644   2.730
10423SOL    HW232169   4.054   5.801   2.763
10424SOL     OW32170   4.602   1.456   6.122
10424SOL    HW132171   4.672   1.450   6.051
10424SOL    HW232172   4.608   1.375   6.181
10425SOL     OW32173   1.473   6.704   1.800
10425SOL    HW132174   1.416   6.636   1.846
10425SOL    HW232175   1.543   6.736   1.863
10426SOL     OW32176   6.389   4.368   6.570
10426SOL    HW132177   6.459   4.386   6.639
10426SOL    HW232178   6.371   4.270   6.566
10427SOL     OW32179   4.750   0.834   0.495
10427SOL    HW132180   4.727   0.855   0.590
10427SOL    HW232181   4.840   0.793   0.491
10428SOL     OW32182   4.240   2.345   3.767
10428SOL    HW132183   4.320   2.287   3.781
10428SOL    HW232184   4.251   2.397   3.682
10429SOL     OW32185   5.908   5.536   2.413
10429SOL    HW132186   5.928   5.447   2.453
10429SOL    HW232187   5.832   5.578   2.463
10430SOL     OW32188   3.406   6.039   2.836
10430SOL    HW132189   3.488   5.984   2.819
10430SOL    HW232190   3.384   6.037   2.934
10431SOL     OW32191   3.189   1.514   5.689
10431SOL    HW132192   3.164   1.527   5.593
10431SOL    HW232193   3.221   1.600   5.728
10432SOL     OW32194   4.210   0.551   4.368
10432SOL    HW132195   4.258   0.511   4.446
10432SOL    HW232196   4.116   0.518   4.365
10433SOL     OW32197   1.660   5.966   1.111
10433SOL    HW132198   1.723   5.891   1.130
10433SOL    HW232199   1.591   5.970   1.184
10434SOL     OW32200   3.641   2.313   5.324
10434SOL    HW132201   3.730   2.276   5.299
10434SOL    HW232202   3.569   2.251   5.294
10435SOL     OW32203   5.910   4.840   6.825
10435SOL    HW132204   5.903   4.858   6.727
10435SOL    HW232205   5.862   4.912   6.876
10436SOL     OW32206   6.969   1.978   3.023
10436SOL    HW132207   0.028   1.952   3.063
10436SOL    HW232208   6.927   1.898   2.979
10437SOL     OW32209   1.408   2.983   0.979
10437SOL    HW132210   1.322   2.932   0.985
10437SOL    HW232211   1.402   3.050   0.906
10438SOL     OW32212   2.614   0.038   5.885
10438SOL    HW132213   2.537   0.039   5.949
10438SOL    HW232214   2.657   0.128   5.885
10439SOL     OW32215   3.573   0.467   5.854
10439SOL    HW132216   3.498   0.451   5.918
10439SOL    HW232217   3.652   0.505   5.903
10440SOL     OW32218   1.067   5.830   0.281
10440SOL    HW132219   0.995   5.853   0.216
10440SOL    HW232220   1.080   5.731   0.283
10441SOL     OW32221   4.614   6.376   0.860
10441SOL    HW132222   4.645   6.283   0.880
10441SOL    HW232223   4.684   6.425   0.809
10442SOL     OW32224   3.521   6.252   6.544
10442SOL    HW132225   3.519   6.294   6.634
10442SOL    HW232226   3.470   6.166   6.546
10443SOL     OW32227   0.366   3.251   4.548
10443SOL    HW132228   0.395   3.235   4.642
10443SOL    HW232229   0.396   3.341   4.518
10444SOL     OW32230   3.744   4.691   5.298
10444SOL    HW132231   3.767   4.754   5.224
10444SOL    HW232232   3.795   4.716   5.381
10445SOL     OW32233   6.825   6.573   1.696
10445SOL    HW132234   6.890   6.648   1.693
10445SOL    HW232235   6.734   6.609   1.720
10446SOL     OW32236   1.505   6.717   5.689
10446SOL    HW132237   1.555   6.631   5.679
10446SOL    HW232238   1.541   6.784   5.624
10447SOL     OW32239   5.373   2.726   6.674
10447SOL    HW132240   5.411   2.652   6.730
10447SOL    HW232241   5.429   2.808   6.685
10448SOL     OW32242   3.890   3.120   2.031
10448SOL    HW132243   3.929   3.146   2.120
10448SOL    HW232244   3.868   3.023   2.032
10449SOL     OW32245   1.238   5.171   5.208
10449SOL    HW132246   1.305   5.120   5.262
10449SOL    HW232247   1.188   5.234   5.266
10450SOL     OW32248   0.622   3.190   0.320
10450SOL    HW132249   0.533   3.202   0.276
10450SOL    HW232250   0.664   3.280   0.335
10451SOL     OW32251   1.567   4.353   2.470
10451SOL    HW132252   1.516   4.437   2.451
10451SOL    HW232253   1.664   4.375   2.481
10452SOL     OW32254   2.386   2.927   6.204
10452SOL    HW132255   2.339   3.005   6.247
10452SOL    HW232256   2.337   2.898   6.123
10453SOL     OW32257   5.080   0.606   2.227
10453SOL    HW132258   5.077   0.661   2.311
10453SOL    HW232259   5.033   0.519   2.242
10454SOL     OW32260   4.070   5.498   2.816
10454SOL    HW132261   3.994   5.435   2.801
10454SOL    HW232262   4.157   5.451   2.803
10455SOL     OW32263   1.532   4.858   3.401
10455SOL    HW132264   1.479   4.786   3.446
10455SOL    HW232265   1.629   4.833   3.403
10456SOL     OW32266   3.515   6.144   0.966
10456SOL    HW132267   3.593   6.128   0.905
10456SOL    HW232268   3.431   6.153   0.913
10457SOL     OW32269   3.697   2.873   3.662
10457SOL    HW132270   3.672   2.778   3.682
10457SOL    HW232271   3.633   2.911   3.595
10458SOL     OW32272   6.545   6.242   2.507
10458SOL    HW132273   6.560   6.335   2.473
10458SOL    HW232274   6.455   6.236   2.550
10459SOL     OW32275   0.047   5.544   1.931
10459SOL    HW132276   7.024   5.470   1.887
10459SOL    HW232277   7.022   5.628   1.928
10460SOL     OW32278   1.574   4.561   1.163
10460SOL    HW132279   1.620   4.491   1.109
10460SOL    HW232280   1.637   4.637   1.180
10461SOL     OW32281   4.020   0.203   6.386
10461SOL    HW132282   3.933   0.157   6.369
10461SOL    HW232283   4.034   0.274   6.317
10462SOL     OW32284   5.651   6.781   1.153
10462SOL    HW132285   5.725   6.820   1.098
10462SOL    HW232286   5.620   6.848   1.220
10463SOL     OW32287   4.361   3.041   0.239
10463SOL    HW132288   4.286   3.098   0.273
10463SOL    HW232289   4.362   2.954   0.289
10464SOL     OW32290   5.512   6.696   1.730
10464SOL    HW132291   5.463   6.782   1.742
10464SOL    HW232292   5.550   6.692   1.637
10465SOL     OW32293   0.173   4.643   5.857
10465SOL    HW132294   0.216   4.559   5.826
10465SOL    HW232295   0.233   4.721   5.837
10466SOL     OW32296   4.483   5.433   5.684
10466SOL    HW132297   4.436   5.494   5.620
10466SOL    HW232298   4.576   5.467   5.700
10467SOL     OW32299   4.079   1.657   4.325
10467SOL    HW132300   4.099   1.755   4.328
10467SOL    HW232301   4.140   1.613   4.258
10468SOL     OW32302   2.922   5.126   3.447
10468SOL    HW132303   2.966   5.195   3.389
10468SOL    HW232304   2.895   5.168   3.534
10469SOL     OW32305   0.701   5.043   5.973
10469SOL    HW132306   0.762   5.104   5.924
10469SOL    HW232307   0.606   5.060   5.945
10470SOL     OW32308   2.320   2.382   4.230
10470SOL    HW132309   2.388   2.336   4.172
10470SOL    HW232310   2.282   2.460   4.181
10471SOL     OW32311   4.580   3.672   6.795
10471SOL    HW132312   4.530   3.656   6.710
10471SOL    HW232313   4.516   3.688   6.869
10472SOL     OW32314   4.524   1.700   3.330
10472SOL    HW132315   4.461   1.716   3.253
10472SOL    HW232316   4.474   1.655   3.405
10473SOL     OW32317   4.659   4.521   0.761
10473SOL    HW132318   4.609   4.448   0.714
10473SOL    HW232319   4.596   4.596   0.782
10474SOL     OW32320   4.850   1.297   4.060
10474SOL    HW132321   4.856   1.387   4.104
10474SOL    HW232322   4.843   1.309   3.961
10475SOL     OW32323   4.211   6.016   0.982
10475SOL    HW132324   4.229   6.081   0.908
10475SOL    HW232325   4.145   6.056   1.046
10476SOL     OW32326   0.707   4.917   6.815
10476SOL    HW132327   0.661   5.006   6.817
10476SOL    HW232328   0.797   4.927   6.771
10477SOL     OW32329   5.207   4.549   4.240
10477SOL    HW132330   5.302   4.518   4.240
10477SOL    HW232331   5.154   4.495   4.306
10478SOL     OW32332   0.585   0.350   2.641
10478SOL    HW132333   0.564   0.261   2.681
10478SOL    HW232334   0.545   0.355   2.549
10479SOL     OW32335   1.033   3.601   2.921
10479SOL    HW132336   0.983   3.637   3.000
10479SOL    HW232337   1.099   3.532   2.951
10480SOL     OW32338   4.657   1.281   6.325
10480SOL    HW132339   4.586   1.294   6.394
10480SOL    HW232340   4.731   1.226   6.363
10481SOL     OW32341   3.473   1.757   3.507
10481SOL    HW132342   3.554   1.711   3.543
10481SOL    HW232343   3.454   1.723   3.415
10482SOL     OW32344   0.499   6.631   5.706
10482SOL    HW132345   0.575   6.615   5.769
10482SOL    HW232346   0.413   6.606   5.751
10483SOL     OW32347   0.776   6.024   0.386
10483SOL    HW132348   0.844   6.080   0.339
10483SOL    HW232349   0.694   6.017   0.329
10484SOL     OW32350   6.594   1.357   1.998
10484SOL    HW132351   6.556   1.265   2.012
10484SOL    HW232352   6.636   1.362   1.908
10485SOL     OW32353   3.459   3.977   5.158
10485SOL    HW132354   3.483   3.993   5.253
10485SOL    HW232355   3.492   4.054   5.102
10486SOL     OW32356   6.382   4.759   6.345
10486SOL    HW132357   6.385   4.804   6.255
10486SOL    HW232358   6.393   4.661   6.333
10487SOL     OW32359   5.368   3.815   2.661
10487SOL    HW132360   5.439   3.819   2.590
10487SOL    HW232361   5.359   3.904   2.704
10488SOL     OW32362   1.053   1.983   5.481
10488SOL    HW132363   1.093   1.928   5.554
10488SOL    HW232364   1.051   2.079   5.510
10489SOL     OW32365   5.625   5.043   2.779
10489SOL    HW132366   5.636   5.032   2.681
10489SOL    HW232367   5.647   4.958   2.826
10490SOL     OW32368   5.536   6.339   6.597
10490SOL    HW132369   5.584   6.416   6.554
10490SOL    HW232370   5.458   6.312   6.540
10491SOL     OW32371   1.893   1.551   5.653
10491SOL    HW132372   1.856   1.621   5.593
10491SOL    HW232373   1.972   1.507   5.609
10492SOL     OW32374   3.012   6.960   0.064
10492SOL    HW132375   3.011   7.017   0.146
10492SOL    HW232376   2.973   6.870   0.084
10493SOL     OW32377   4.660   0.050   0.370
10493SOL    HW132378   4.757   0.049   0.344
10493SOL    HW232379   4.652   0.057   0.469
10494SOL     OW32380   6.736   5.884   3.555
10494SOL    HW132381   6.652   5.931   3.582
10494SOL    HW232382   6.727   5.848   3.462
10495SOL     OW32383   6.274   6.324   0.424
10495SOL    HW132384   6.334   6.379   0.483
10495SOL    HW232385   6.316   6.315   0.334
10496SOL     OW32386   1.733   3.901   6.314
10496SOL    HW132387   1.758   3.865   6.404
10496SOL    HW232388   1.763   3.838   6.243
10497SOL     OW32389   4.225   0.152   0.049
10497SOL    HW132390   4.301   0.168   0.113
10497SOL    HW232391   4.253   0.179   6.986
10498SOL     OW32392   3.463   4.053   0.255
10498SOL    HW132393   3.390   4.120   0.265
10498SOL    HW232394   3.495   4.024   0.345
10499SOL     OW32395   4.244   4.766   4.027
10499SOL    HW132396   4.287   4.748   3.938
10499SOL    HW232397   4.294   4.717   4.099
10500SOL     OW32398   1.881   2.721   4.741
10500SOL    HW132399   1.891   2.818   4.719
10500SOL    HW232400   1.944   2.667   4.684
10501SOL     OW32401   4.010   4.991   2.757
10501SOL    HW132402   3.992   5.089   2.772
10501SOL    HW232403   4.104   4.979   2.726
10502SOL     OW32404   3.701   3.154   3.442
10502SOL    HW132405   3.700   3.214   3.362
10502SOL    HW232406   3.685   3.209   3.524
10503SOL     OW32407   6.950   6.024   0.871
10503SOL    HW132408   0.004   6.000   0.921
10503SOL    HW232409   6.872   5.974   0.909
10504SOL     OW32410   1.666   2.874   5.307
10504SOL    HW132411   1.764   2.889   5.322
10504SOL    HW232412   1.621   2.856   5.395
10505SOL     OW32413   4.772   6.521   1.207
10505SOL    HW132414   4.706   6.532   1.132
10505SOL    HW232415   4.864   6.511   1.169
10506SOL     OW32416   0.648   5.437   6.210
10506SOL    HW132417   0.576   5.444   6.141
10506SOL    HW232418   0.720   5.502   6.189
10507SOL     OW32419   2.241   6.159   5.764
10507SOL    HW132420   2.295   6.231   5.806
10507SOL    HW232421   2.166   6.134   5.825
10508SOL     OW32422   1.909   6.503   1.418
10508SOL    HW132423   1.950   6.424   1.373
10508SOL    HW232424   1.981   6.562   1.454
10509SOL     OW32425   4.873   3.488   1.836
10509SOL    HW132426   4.914   3.565   1.789
10509SOL    HW232427   4.783   3.469   1.798
10510SOL     OW32428   5.115   6.702   1.834
10510SOL    HW132429   5.111   6.776   1.901
10510SOL    HW232430   5.031   6.648   1.840
10511SOL     OW32431   3.851   1.693   0.960
10511SOL    HW132432   3.805   1.730   1.041
10511SOL    HW232433   3.945   1.668   0.984
10512SOL     OW32434   4.192   0.064   4.718
10512SOL    HW132435   4.242   0.128   4.660
10512SOL    HW232436   4.094   0.078   4.707
10513SOL     OW32437   4.257   3.952   0.832
10513SOL    HW132438   4.315   3.895   0.773
10513SOL    HW232439   4.207   4.018   0.776
10514SOL     OW32440   0.867   4.669   1.674
10514SOL    HW132441   0.863   4.629   1.765
10514SOL    HW232442   0.863   4.769   1.681
10515SOL     OW32443   2.217   3.095   4.407
10515SOL    HW132444   2.215   3.152   4.325
10515SOL    HW232445   2.132   3.042   4.412
10516SOL     OW32446   4.975   1.786   1.179
10516SOL    HW132447   4.992   1.690   1.202
10516SOL    HW232448   5.025   1.845   1.242
10517SOL     OW32449   6.111   1.345   1.920
10517SOL    HW132450   6.031   1.372   1.868
10517SOL    HW232451   6.191   1.341   1.860
10518SOL     OW32452   6.905   5.808   3.096
10518SOL    HW132453   6.828   5.829   3.155
10518SOL    HW232454   6.894   5.856   3.008
10519SOL     OW32455   1.589   6.981   0.644
10519SOL    HW132456   1.608   6.915   0.571
10519SOL    HW232457   1.675   7.022   0.674
10520SOL     OW32458   3.416   2.621   5.788
10520SOL    HW132459   3.394   2.687   5.717
10520SOL    HW232460   3.368   2.535   5.769
10521SOL     OW32461   5.826   1.579   1.394
10521SOL    HW132462   5.915   1.548   1.425
10521SOL    HW232463   5.799   1.661   1.445
10522SOL     OW32464   5.234   1.408   2.626
10522SOL    HW132465   5.251   1.334   2.691
10522SOL    HW232466   5.167   1.377   2.558
10523SOL     OW32467   0.045   3.940   1.527
10523SOL    HW132468   0.115   3.887   1.576
10523SOL    HW232469   6.997   3.880   1.505
10524SOL     OW32470   6.317   6.744   4.628
10524SOL    HW132471   6.268   6.818   4.673
10524SOL    HW232472   6.273   6.722   4.541
10525SOL     OW32473   4.915   2.258   4.162
10525SOL    HW132474   4.904   2.352   4.128
10525SOL    HW232475   4.928   2.197   4.084
10526SOL     OW32476   1.653   6.738   6.159
10526SOL    HW132477   1.586   6.757   6.086
10526SOL    HW232478   1.615   6.668   6.221
10527SOL     OW32479   0.976   6.665   5.199
10527SOL    HW132480   0.954   6.636   5.106
10527SOL    HW232481   1.072   6.645   5.219
10528SOL     OW32482   2.825   5.900   5.172
10528SOL    HW132483   2.828   5.839   5.093
10528SOL    HW232484   2.742   5.955   5.169
10529SOL     OW32485   0.027   5.497   6.616
10529SOL    HW132486   0.023   5.587   6.573
10529SOL    HW232487   6.971   5.448   6.598
10530SOL     OW32488   5.626   0.361   1.606
10530SOL    HW132489   5.697   0.358   1.537
10530SOL    HW232490   5.644   0.435   1.671
10531SOL     OW32491   3.391   0.721   6.677
10531SOL    HW132492   3.349   0.645   6.726
10531SOL    HW232493   3.346   0.806   6.704
10532SOL     OW32494   4.100   5.641   5.921
10532SOL    HW132495   4.127   5.688   5.837
10532SOL    HW232496   4.002   5.655   5.937
10533SOL     OW32497   4.141   6.532   4.063
10533SOL    HW132498   4.131   6.631   4.070
10533SOL    HW232499   4.206   6.500   4.131
10534SOL     OW32500   0.605   5.962   4.647
10534SOL    HW132501   0.580   6.058   4.635
10534SOL    HW232502   0.548   5.922   4.719
10535SOL     OW32503   3.726   1.513   2.111
10535SOL    HW132504   3.687   1.453   2.041
10535SOL    HW232505   3.673   1.504   2.195
10536SOL     OW32506   5.804   3.157   4.266
10536SOL    HW132507   5.747   3.090   4.313
10536SOL    HW232508   5.766   3.248   4.278
10537SOL     OW32509   2.415   1.312   2.237
10537SOL    HW132510   2.451   1.262   2.315
10537SOL    HW232511   2.366   1.393   2.269
10538SOL     OW32512   6.482   2.831   3.711
10538SOL    HW132513   6.439   2.839   3.621
10538SOL    HW232514   6.501   2.923   3.746
10539SOL     OW32515   6.613   0.311   1.607
10539SOL    HW132516   6.564   0.228   1.630
10539SOL    HW232517   6.684   0.290   1.540
10540SOL     OW32518   2.098   2.657   5.858
10540SOL    HW132519   2.059   2.749   5.860
10540SOL    HW232520   2.173   2.651   5.924
10541SOL     OW32521   3.929   2.567   7.018
10541SOL    HW132522   3.939   2.626   6.938
10541SOL    HW232523   3.978   2.481   7.002
10542SOL     OW32524   2.986   6.057   2.917
10542SOL    HW132525   3.002   6.147   2.958
10542SOL    HW232526   3.021   5.986   2.978
10543SOL     OW32527   0.712   2.809   3.535
10543SOL    HW132528   0.777   2.863   3.587
10543SOL    HW232529   0.671   2.739   3.594
10544SOL     OW32530   2.847   2.270   2.297
10544SOL    HW132531   2.772   2.312   2.348
10544SOL    HW232532   2.861   2.318   2.211
10545SOL     OW32533   0.838   3.197   1.655
10545SOL    HW132534   0.801   3.126   1.715
10545SOL    HW232535   0.782   3.280   1.663
10546SOL     OW32536   2.018   0.129   4.805
10546SOL    HW132537   1.989   0.162   4.895
10546SOL    HW232538   1.941   0.133   4.742
10547SOL     OW32539   2.887   5.828   6.261
10547SOL    HW132540   2.805   5.886   6.266
10547SOL    HW232541   2.962   5.880   6.220
10548SOL     OW32542   1.447   5.281   3.361
10548SOL    HW132543   1.461   5.357   3.297
10548SOL    HW232544   1.427   5.198   3.309
10549SOL     OW32545   6.428   1.744   2.437
10549SOL    HW132546   6.462   1.833   2.469
10549SOL    HW232547   6.328   1.746   2.431
10550SOL     OW32548   0.174   4.373   2.771
10550SOL    HW132549   0.115   4.446   2.737
10550SOL    HW232550   0.253   4.364   2.710
10551SOL     OW32551   4.681   1.156   4.589
10551SOL    HW132552   4.701   1.060   4.570
10551SOL    HW232553   4.765   1.209   4.584
10552SOL     OW32554   2.475   6.872   4.104
10552SOL    HW132555   2.511   6.780   4.092
10552SOL    HW232556   2.518   6.914   4.184
10553SOL     OW32557   5.656   5.391   1.752
10553SOL    HW132558   5.676   5.476   1.802
10553SOL    HW232559   5.707   5.390   1.666
10554SOL     OW32560   5.362   5.623   1.793
10554SOL    HW132561   5.321   5.565   1.863
10554SOL    HW232562   5.437   5.675   1.834
10555SOL     OW32563   3.289   3.207   2.823
10555SOL    HW132564   3.242   3.150   2.891
10555SOL    HW232565   3.258   3.302   2.832
10556SOL     OW32566   2.196   2.034   2.220
10556SOL    HW132567   2.286   1.994   2.236
10556SOL    HW232568   2.194   2.076   2.129
10557SOL     OW32569   1.121   4.898   3.133
10557SOL    HW132570   1.191   4.952   3.180
10557SOL    HW232571   1.163   4.818   3.090
10558SOL     OW32572   5.285   5.487   4.522
10558SOL    HW132573   5.306   5.457   4.429
10558SOL    HW232574   5.254   5.409   4.576
10559SOL     OW32575   3.871   5.934   1.877
10559SOL    HW132576   3.784   5.946   1.830
10559SOL    HW232577   3.860   5.954   1.974
10560SOL     OW32578   5.483   6.689   4.386
10560SOL    HW132579   5.521   6.697   4.294
10560SOL    HW232580   5.515   6.605   4.429
10561SOL     OW32581   1.011   5.373   5.652
10561SOL    HW132582   0.987   5.311   5.576
10561SOL    HW232583   0.962   5.459   5.640
10562SOL     OW32584   2.760   1.299   2.657
10562SOL    HW132585   2.813   1.379   2.683
10562SOL    HW232586   2.785   1.221   2.716
10563SOL     OW32587   1.587   5.418   2.324
10563SOL    HW132588   1.632   5.338   2.284
10563SOL    HW232589   1.537   5.391   2.406
10564SOL     OW32590   5.448   6.000   3.810
10564SOL    HW132591   5.528   5.978   3.755
10564SOL    HW232592   5.434   5.928   3.878
10565SOL     OW32593   0.350   1.290   4.541
10565SOL    HW132594   0.352   1.238   4.626
10565SOL    HW232595   0.262   1.277   4.496
10566SOL     OW32596   3.976   1.368   1.399
10566SOL    HW132597   3.993   1.340   1.305
10566SOL    HW232598   3.897   1.317   1.435
10567SOL     OW32599   3.361   1.346   5.833
10567SOL    HW132600   3.309   1.408   5.775
10567SOL    HW232601   3.428   1.398   5.886
10568SOL     OW32602   5.952   1.086   0.201
10568SOL    HW132603   5.939   1.034   0.286
10568SOL    HW232604   6.037   1.138   0.206
10569SOL     OW32605   3.848   0.683   1.325
10569SOL    HW132606   3.833   0.781   1.317
10569SOL    HW232607   3.774   0.642   1.378
10570SOL     OW32608   1.327   3.785   3.149
10570SOL    HW132609   1.402   3.728   3.183
10570SOL    HW232610   1.345   3.811   3.054
10571SOL     OW32611   1.244   4.145   4.725
10571SOL    HW132612   1.330   4.189   4.698
10571SOL    HW232613   1.256   4.046   4.726
10572SOL     OW32614   6.797   5.371   0.718
10572SOL    HW132615   6.699   5.353   0.725
10572SOL    HW232616   6.845   5.327   0.793
10573SOL     OW32617   5.893   2.081   2.820
10573SOL    HW132618   5.803   2.122   2.832
10573SOL    HW232619   5.913   2.073   2.723
10574SOL     OW32620   5.513   3.198   3.037
10574SOL    HW132621   5.553   3.213   2.947
10574SOL    HW232622   5.509   3.100   3.056
10575SOL     OW32623   4.809   6.690   3.195
10575SOL    HW132624   4.816   6.629   3.116
10575SOL    HW232625   4.714   6.718   3.208
10576SOL     OW32626   0.928   3.131   4.997
10576SOL    HW132627   0.938   3.197   4.923
10576SOL    HW232628   0.877   3.172   5.073
10577SOL     OW32629   4.391   5.161   6.636
10577SOL    HW132630   4.443   5.093   6.687
10577SOL    HW232631   4.379   5.129   6.542
10578SOL     OW32632   1.061   2.904   1.972
10578SOL    HW132633   1.069   2.866   1.880
10578SOL    HW232634   0.964   2.911   1.997
10579SOL     OW32635   0.205   3.085   0.569
10579SOL    HW132636   0.294   3.094   0.615
10579SOL    HW232637   0.218   3.091   0.470
10580SOL     OW32638   4.606   6.158   6.406
10580SOL    HW132639   4.597   6.181   6.503
10580SOL    HW232640   4.515   6.144   6.366
10581SOL     OW32641   3.465   0.488   2.829
10581SOL    HW132642   3.529   0.412   2.822
10581SOL    HW232643   3.454   0.513   2.925
10582SOL     OW32644   0.446   3.674   0.192
10582SOL    HW132645   0.402   3.597   0.239
10582SOL    HW232646   0.383   3.712   0.124
10583SOL     OW32647   3.920   2.138   5.974
10583SOL    HW132648   3.869   2.128   6.059
10583SOL    HW232649   3.893   2.067   5.910
10584SOL     OW32650   6.858   0.293   4.180
10584SOL    HW132651   6.825   0.361   4.115
10584SOL    HW232652   6.781   0.240   4.215
10585SOL     OW32653   1.901   0.902   4.643
10585SOL    HW132654   1.858   0.886   4.732
10585SOL    HW232655   1.865   0.837   4.577
10586SOL     OW32656   4.230   3.452   6.317
10586SOL    HW132657   4.166   3.385   6.355
10586SOL    HW232658   4.182   3.515   6.257
10587SOL     OW32659   1.793   5.102   6.345
10587SOL    HW132660   1.740   5.109   6.260
10587SOL    HW232661   1.750   5.035   6.405
10588SOL     OW32662   1.408   4.721   4.479
10588SOL    HW132663   1.476   4.759   4.542
10588SOL    HW232664   1.383   4.790   4.411
10589SOL     OW32665   6.405   0.672   3.383
10589SOL    HW132666   6.313   0.634   3.397
10589SOL    HW232667   6.474   0.604   3.408
10590SOL     OW32668   6.231   6.565   2.648
10590SOL    HW132669   6.331   6.568   2.649
10590SOL    HW232670   6.196   6.606   2.733
10591SOL     OW32671   6.328   4.559   2.539
10591SOL    HW132672   6.376   4.645   2.527
10591SOL    HW232673   6.388   4.483   2.511
10592SOL     OW32674   6.282   3.616   5.568
10592SOL    HW132675   6.337   3.699   5.563
10592SOL    HW232676   6.275   3.575   5.477
10593SOL     OW32677   3.371   5.892   3.207
10593SOL    HW132678   3.342   5.825   3.275
10593SOL    HW232679   3.317   5.975   3.217
10594SOL     OW32680   3.917   6.065   3.086
10594SOL    HW132681   3.912   6.137   3.016
10594SOL    HW232682   3.833   6.011   3.083
10595SOL     OW32683   6.174   5.762   1.729
10595SOL    HW132684   6.258   5.814   1.714
10595SOL    HW232685   6.126   5.749   1.642
10596SOL     OW32686   6.367   2.722   1.134
10596SOL    HW132687   6.280   2.695   1.093
10596SOL    HW232688   6.364   2.819   1.158
10597SOL     OW32689   1.006   6.660   4.904
10597SOL    HW132690   1.013   6.643   4.805
10597SOL    HW232691   1.077   6.725   4.931
10598SOL     OW32692   3.091   1.499   0.639
10598SOL    HW132693   3.165   1.548   0.593
10598SOL    HW232694   3.126   1.461   0.725
10599SOL     OW32695   0.795   1.581   1.191
10599SOL    HW132696   0.789   1.650   1.119
10599SOL    HW232697   0.706   1.572   1.236
10600SOL     OW32698   4.396   1.205   2.052
10600SOL    HW132699   4.386   1.290   2.105
10600SOL    HW232700   4.358   1.219   1.960
10601SOL     OW32701   1.783   2.011   5.161
10601SOL    HW132702   1.794   2.097   5.111
10601SOL    HW232703   1.693   1.973   5.141
10602SOL     OW32704   6.611   6.376   0.662
10602SOL    HW132705   6.677   6.450   0.645
10602SOL    HW232706   6.615   6.350   0.759
10603SOL     OW32707   5.632   7.020   3.100
10603SOL    HW132708   5.654   6.987   3.191
10603SOL    HW232709   5.574   6.953   3.053
10604SOL     OW32710   5.572   2.429   4.476
10604SOL    HW132711   5.646   2.478   4.521
10604SOL    HW232712   5.573   2.333   4.506
10605SOL     OW32713   4.644   1.353   1.713
10605SOL    HW132714   4.680   1.351   1.806
10605SOL    HW232715   4.546   1.373   1.715
10606SOL     OW32716   5.707   1.751   0.987
10606SOL    HW132717   5.640   1.825   1.001
10606SOL    HW232718   5.746   1.759   0.895
10607SOL     OW32719   1.715   5.027   1.179
10607SOL    HW132720   1.687   5.091   1.251
10607SOL    HW232721   1.685   5.061   1.091
10608SOL     OW32722   5.542   3.484   2.551
10608SOL    HW132723   5.562   3.568   2.600
10608SOL    HW232724   5.539   3.502   2.453
10609SOL     OW32725   5.692   5.875   6.729
10609SOL    HW132726   5.711   5.973   6.719
10609SOL    HW232727   5.595   5.862   6.750
10610SOL     OW32728   0.148   2.299   3.544
10610SOL    HW132729   0.077   2.366   3.519
10610SOL    HW232730   0.105   2.209   3.556
10611SOL     OW32731   4.253   5.619   6.890
10611SOL    HW132732   4.306   5.537   6.870
10611SOL    HW232733   4.207   5.650   6.807
10612SOL     OW32734   5.786   2.564   4.201
10612SOL    HW132735   5.817   2.479   4.243
10612SOL    HW232736   5.863   2.608   4.154
10613SOL     OW32737   4.445   5.149   6.365
10613SOL    HW132738   4.373   5.146   6.296
10613SOL    HW232739   4.519   5.087   6.339
10614SOL     OW32740   4.524   1.566   0.315
10614SOL    HW132741   4.601   1.589   0.256
10614SOL    HW232742   4.512   1.637   0.384
10615SOL     OW32743   4.240   3.116   5.810
10615SOL    HW132744   4.290   3.202   5.815
10615SOL    HW232745   4.235   3.075   5.901
10616SOL     OW32746   2.012   4.872   0.160
10616SOL    HW132747   1.931   4.816   0.176
10616SOL    HW232748   2.088   4.837   0.214
10617SOL     OW32749   2.500   3.533   0.529
10617SOL    HW132750   2.440   3.602   0.489
10617SOL    HW232751   2.452   3.486   0.604
10618SOL     OW32752   6.982   5.313   5.423
10618SOL    HW132753   0.043   5.291   5.462
10618SOL    HW232754   6.987   5.309   5.323
10619SOL     OW32755   1.682   1.781   1.008
10619SOL    HW132756   1.698   1.865   1.060
10619SOL    HW232757   1.701   1.798   0.911
10620SOL     OW32758   4.252   1.458   5.822
10620SOL    HW132759   4.226   1.501   5.908
10620SOL    HW232760   4.316   1.516   5.773
10621SOL     OW32761   0.935   5.663   4.648
10621SOL    HW132762   1.028   5.628   4.661
10621SOL    HW232763   0.937   5.738   4.582
10622SOL     OW32764   3.786   2.089   6.216
10622SOL    HW132765   3.773   1.990   6.214
10622SOL    HW232766   3.783   2.122   6.310
10623SOL     OW32767   5.610   4.729   4.732
10623SOL    HW132768   5.680   4.797   4.712
10623SOL    HW232769   5.651   4.637   4.728
10624SOL     OW32770   0.253   1.330   5.366
10624SOL    HW132771   0.252   1.406   5.300
10624SOL    HW232772   0.288   1.363   5.454
10625SOL     OW32773   6.411   5.296   6.776
10625SOL    HW132774   6.367   5.210   6.801
10625SOL    HW232775   6.438   5.345   6.859
10626SOL     OW32776   5.386   3.667   1.525
10626SOL    HW132777   5.304   3.716   1.496
10626SOL    HW232778   5.372   3.629   1.616
10627SOL     OW32779   4.932   5.542   5.511
10627SOL    HW132780   4.853   5.602   5.497
10627SOL    HW232781   4.932   5.470   5.442
10628SOL     OW32782   2.345   6.505   2.097
10628SOL    HW132783   2.344   6.573   2.023
10628SOL    HW232784   2.252   6.494   2.133
10629SOL     OW32785   4.610   5.835   4.291
10629SOL    HW132786   4.642   5.909   4.350
10629SOL    HW232787   4.597   5.869   4.198
10630SOL     OW32788   4.339   0.899   1.576
10630SOL    HW132789   4.353   0.924   1.480
10630SOL    HW232790   4.423   0.861   1.613
10631SOL     OW32791   3.575   5.890   2.096
10631SOL    HW132792   3.603   5.797   2.070
10631SOL    HW232793   3.477   5.890   2.117
10632SOL     OW32794   5.936   0.594   5.122
10632SOL    HW132795   5.989   0.677   5.136
10632SOL    HW232796   5.848   0.602   5.169
10633SOL     OW32797   2.737   3.875   0.273
10633SOL    HW132798   2.690   3.924   0.347
10633SOL    HW232799   2.773   3.788   0.307
10634SOL     OW32800   0.845   4.239   1.120
10634SOL    HW132801   0.794   4.291   1.189
10634SOL    HW232802   0.923   4.293   1.089
10635SOL     OW32803   3.035   5.038   0.632
10635SOL    HW132804   3.030   5.102   0.556
10635SOL    HW232805   3.130   5.031   0.664
10636SOL     OW32806   0.585   2.894   0.727
10636SOL    HW132807   0.684   2.892   0.717
10636SOL    HW232808   0.545   2.947   0.653
10637SOL     OW32809   1.761   6.584   5.406
10637SOL    HW132810   1.705   6.508   5.439
10637SOL    HW232811   1.793   6.638   5.484
10638SOL     OW32812   5.335   4.311   6.838
10638SOL    HW132813   5.285   4.327   6.753
10638SOL    HW232814   5.422   4.362   6.835
10639SOL     OW32815   0.261   5.343   6.612
10639SOL    HW132816   0.199   5.421   6.607
10639SOL    HW232817   0.337   5.358   6.547
10640SOL     OW32818   4.382   5.490   5.122
10640SOL    HW132819   4.395   5.391   5.116
10640SOL    HW232820   4.472   5.534   5.126
10641SOL     OW32821   1.159   1.168   3.291
10641SOL    HW132822   1.231   1.113   3.333
10641SOL    HW232823   1.128   1.238   3.356
10642SOL     OW32824   6.557   2.415   6.267
10642SOL    HW132825   6.595   2.323   6.274
10642SOL    HW232826   6.543   2.437   6.170
10643SOL     OW32827   3.617   5.611   5.201
10643SOL    HW132828   3.585   5.532   5.253
10643SOL    HW232829   3.589   5.602   5.106
10644SOL     OW32830   2.399   4.353   3.806
10644SOL    HW132831   2.363   4.330   3.897
10644SOL    HW232832   2.437   4.446   3.808
10645SOL     OW32833   2.017   2.983   3.155
10645SOL    HW132834   1.983   2.936   3.237
10645SOL    HW232835   1.952   3.055   3.129
10646SOL     OW32836   5.276   1.622   3.552
10646SOL    HW132837   5.189   1.661   3.582
10646SOL    HW232838   5.269   1.523   3.546
10647SOL     OW32839   4.823   6.157   4.674
10647SOL    HW132840   4.775   6.228   4.725
10647SOL    HW232841   4.921   6.175   4.675
10648SOL     OW32842   4.590   3.343   5.666
10648SOL    HW132843   4.575   3.268   5.602
10648SOL    HW232844   4.524   3.335   5.741
10649SOL     OW32845   6.252   3.617   3.447
10649SOL    HW132846   6.191   3.545   3.414
10649SOL    HW232847   6.345   3.600   3.415
10650SOL     OW32848   0.387   1.027   2.310
10650SOL    HW132849   0.438   0.989   2.388
10650SOL    HW232850   0.449   1.041   2.233
10651SOL     OW32851   2.801   5.721   4.948
10651SOL    HW132852   2.806   5.780   4.868
10651SOL    HW232853   2.737   5.647   4.932
10652SOL     OW32854   3.943   0.180   6.984
10652SOL    HW132855   3.907   0.269   7.012
10652SOL    HW232856   4.034   0.167   7.023
10653SOL     OW32857   5.929   5.887   4.912
10653SOL    HW132858   5.911   5.843   5.000
10653SOL    HW232859   6.004   5.840   4.865
10654SOL     OW32860   6.642   2.085   3.963
10654SOL    HW132861   6.715   2.028   3.999
10654SOL    HW232862   6.604   2.141   4.037
10655SOL     OW32863   6.387   4.652   0.725
10655SOL    HW132864   6.316   4.717   0.698
10655SOL    HW232865   6.404   4.661   0.823
10656SOL     OW32866   5.607   0.686   5.572
10656SOL    HW132867   5.570   0.775   5.547
10656SOL    HW232868   5.535   0.630   5.613
10657SOL     OW32869   5.273   0.303   5.777
10657SOL    HW132870   5.194   0.305   5.838
10657SOL    HW232871   5.332   0.226   5.800
10658SOL     OW32872   1.081   1.026   5.072
10658SOL    HW132873   1.111   1.094   5.139
10658SOL    HW232874   1.095   0.934   5.110
10659SOL     OW32875   0.367   5.780   6.718
10659SOL    HW132876   0.391   5.861   6.663
10659SOL    HW232877   0.405   5.698   6.674
10660SOL     OW32878   6.571   2.957   5.815
10660SOL    HW132879   6.552   3.055   5.824
10660SOL    HW232880   6.594   2.936   5.719
10661SOL     OW32881   4.042   5.980   6.081
10661SOL    HW132882   3.954   6.023   6.101
10661SOL    HW232883   4.030   5.913   6.007
10662SOL     OW32884   3.208   1.609   0.982
10662SOL    HW132885   3.210   1.584   1.079
10662SOL    HW232886   3.149   1.546   0.932
10663SOL     OW32887   6.838   3.556   3.960
10663SOL    HW132888   6.922   3.558   4.013
10663SOL    HW232889   6.828   3.643   3.911
10664SOL     OW32890   0.657   6.440   4.147
10664SOL    HW132891   0.745   6.439   4.196
10664SOL    HW232892   0.591   6.385   4.199
10665SOL     OW32893   4.595   3.673   1.016
10665SOL    HW132894   4.654   3.745   0.979
10665SOL    HW232895   4.652   3.604   1.061
10666SOL     OW32896   5.284   3.717   1.813
10666SOL    HW132897   5.328   3.806   1.807
10666SOL    HW232898   5.188   3.729   1.839
10667SOL     OW32899   5.622   3.006   4.383
10667SOL    HW132900   5.636   2.945   4.461
10667SOL    HW232901   5.524   3.022   4.371
10668SOL     OW32902   2.773   3.486   5.960
10668SOL    HW132903   2.850   3.549   5.954
10668SOL    HW232904   2.692   3.528   5.920
10669SOL     OW32905   6.927   2.382   1.713
10669SOL    HW132906   6.972   2.470   1.726
10669SOL    HW232907   6.856   2.391   1.643
10670SOL     OW32908   4.845   4.747   4.227
10670SOL    HW132909   4.766   4.714   4.278
10670SOL    HW232910   4.910   4.789   4.290
10671SOL     OW32911   1.784   3.241   4.126
10671SOL    HW132912   1.824   3.153   4.149
10671SOL    HW232913   1.692   3.248   4.164
10672SOL     OW32914   6.364   5.230   1.769
10672SOL    HW132915   6.439   5.200   1.710
10672SOL    HW232916   6.302   5.153   1.785
10673SOL     OW32917   3.417   0.759   1.733
10673SOL    HW132918   3.456   0.734   1.645
10673SOL    HW232919   3.468   0.836   1.772
10674SOL     OW32920   3.948   3.220   3.721
10674SOL    HW132921   3.886   3.276   3.665
10674SOL    HW232922   3.959   3.130   3.678
10675SOL     OW32923   3.761   6.239   5.596
10675SOL    HW132924   3.841   6.214   5.650
10675SOL    HW232925   3.767   6.335   5.570
10676SOL     OW32926   1.356   1.446   4.899
10676SOL    HW132927   1.288   1.438   4.827
10676SOL    HW232928   1.425   1.513   4.873
10677SOL     OW32929   0.189   1.264   6.499
10677SOL    HW132930   0.279   1.221   6.511
10677SOL    HW232931   0.201   1.364   6.496
10678SOL     OW32932   3.553   4.903   2.861
10678SOL    HW132933   3.623   4.962   2.902
10678SOL    HW232934   3.584   4.870   2.772
10679SOL     OW32935   5.549   3.952   6.850
10679SOL    HW132936   5.645   3.955   6.877
10679SOL    HW232937   5.538   3.996   6.761
10680SOL     OW32938   3.899   1.617   4.866
10680SOL    HW132939   3.816   1.562   4.878
10680SOL    HW232940   3.889   1.674   4.785
10681SOL     OW32941   2.355   3.405   5.739
10681SOL    HW132942   2.352   3.343   5.661
10681SOL    HW232943   2.268   3.454   5.746
10682SOL     OW32944   5.055   3.292   6.312
10682SOL    HW132945   5.031   3.211   6.259
10682SOL    HW232946   5.008   3.372   6.275
10683SOL     OW32947   1.880   6.752   3.195
10683SOL    HW132948   1.919   6.701   3.118
10683SOL    HW232949   1.834   6.834   3.160
10684SOL     OW32950   5.218   3.746   1.084
10684SOL    HW132951   5.246   3.656   1.119
10684SOL    HW232952   5.119   3.757   1.096
10685SOL     OW32953   0.366   0.752   2.567
10685SOL    HW132954   0.456   0.741   2.609
10685SOL    HW232955   0.312   0.819   2.619
10686SOL     OW32956   2.361   2.174   6.955
10686SOL    HW132957   2.361   2.195   6.857
10686SOL    HW232958   2.267   2.164   6.987
10687SOL     OW32959   0.649   3.190   3.481
10687SOL    HW132960   0.619   3.250   3.406
10687SOL    HW232961   0.569   3.159   3.532
10688SOL     OW32962   4.944   1.416   3.536
10688SOL    HW132963   4.886   1.495   3.516
10688SOL    HW232964   4.978   1.377   3.450
10689SOL     OW32965   1.403   0.994   2.992
10689SOL    HW132966   1.374   1.070   2.934
10689SOL    HW232967   1.325   0.957   3.041
10690SOL     OW32968   1.441   5.893   4.980
10690SOL    HW132969   1.356   5.930   4.944
10690SOL    HW232970   1.444   5.794   4.967
10691SOL     OW32971   3.728   6.636   1.308
10691SOL    HW132972   3.646   6.690   1.289
10691SOL    HW232973   3.806   6.698   1.322
10692SOL     OW32974   2.787   2.305   4.036
10692SOL    HW132975   2.827   2.346   3.953
10692SOL    HW232976   2.861   2.275   4.096
10693SOL     OW32977   1.202   4.070   0.201
10693SOL    HW132978   1.201   4.006   0.278
10693SOL    HW232979   1.169   4.024   0.119
10694SOL     OW32980   4.680   2.539   5.683
10694SOL    HW132981   4.734   2.622   5.697
10694SOL    HW232982   4.635   2.543   5.594
10695SOL     OW32983   4.645   4.602   1.772
10695SOL    HW132984   4.609   4.682   1.821
10695SOL    HW232985   4.572   4.535   1.760
10696SOL     OW32986   6.828   4.912   4.435
10696SOL    HW132987   6.819   4.907   4.534
10696SOL    HW232988   6.772   4.987   4.399
10697SOL     OW32989   2.588   5.262   4.978
10697SOL    HW132990   2.602   5.275   5.076
10697SOL    HW232991   2.499   5.218   4.964
10698SOL     OW32992   4.035   4.947   6.886
10698SOL    HW132993   4.008   4.962   6.981
10698SOL    HW232994   4.129   4.914   6.882
10699SOL     OW32995   4.802   3.783   1.497
10699SOL    HW132996   4.852   3.713   1.548
10699SOL    HW232997   4.704   3.760   1.495
10700SOL     OW32998   4.899   0.355   1.419
10700SOL    HW132999   4.948   0.423   1.365
10700SOL    HW233000   4.822   0.398   1.466
10701SOL     OW33001   3.427   6.990   5.934
10701SOL    HW133002   3.402   6.985   6.031
10701SOL    HW233003   3.419   0.056   5.903
10702SOL     OW33004   5.898   2.837   2.094
10702SOL    HW133005   5.823   2.893   2.059
10702SOL    HW233006   5.872   2.741   2.094
10703SOL     OW33007   0.733   2.168   5.273
10703SOL    HW133008   0.816   2.117   5.253
10703SOL    HW233009   0.672   2.111   5.329
10704SOL     OW33010   5.242   6.751   2.116
10704SOL    HW133011   5.320   6.701   2.080
10704SOL    HW233012   5.265   6.790   2.205
10705SOL     OW33013   4.836   3.393   1.422
10705SOL    HW133014   4.919   3.437   1.457
10705SOL    HW233015   4.861   3.319   1.361
10706SOL     OW33016   2.939   0.999   1.919
10706SOL    HW133017   2.906   0.973   1.828
10706SOL    HW233018   2.966   0.917   1.969
10707SOL     OW33019   3.563   6.963   3.683
10707SOL    HW133020   3.607   6.952   3.594
10707SOL    HW233021   3.630   6.947   3.756
10708SOL     OW33022   4.141   1.311   1.119
10708SOL    HW133023   4.181   1.274   1.035
10708SOL    HW233024   4.114   1.406   1.104
10709SOL     OW33025   5.960   4.417   3.138
10709SOL    HW133026   5.951   4.422   3.237
10709SOL    HW233027   5.972   4.509   3.101
10710SOL     OW33028   4.462   1.534   3.038
10710SOL    HW133029   4.364   1.558   3.034
10710SOL    HW233030   4.516   1.614   3.011
10711SOL     OW33031   2.310   6.569   2.996
10711SOL    HW133032   2.322   6.583   3.094
10711SOL    HW233033   2.233   6.626   2.964
10712SOL     OW33034   5.279   1.115   3.375
10712SOL    HW133035   5.309   1.123   3.280
10712SOL    HW233036   5.212   1.041   3.382
10713SOL     OW33037   1.164   4.358   1.322
10713SOL    HW133038   1.129   4.266   1.335
10713SOL    HW233039   1.120   4.399   1.242
10714SOL     OW33040   3.133   4.123   4.890
10714SOL    HW133041   3.058   4.189   4.898
10714SOL    HW233042   3.164   4.097   4.981
10715SOL     OW33043   6.844   0.455   1.826
10715SOL    HW133044   6.793   0.375   1.793
10715SOL    HW233045   6.899   0.492   1.750
10716SOL     OW33046   4.987   0.616   3.077
10716SOL    HW133047   4.934   0.531   3.079
10716SOL    HW233048   5.064   0.609   3.140
10717SOL     OW33049   3.400   3.060   0.247
10717SOL    HW133050   3.348   2.982   0.283
10717SOL    HW233051   3.497   3.048   0.268
10718SOL     OW33052   1.512   5.024   6.385
10718SOL    HW133053   1.489   5.109   6.433
10718SOL    HW233054   1.471   5.025   6.294
10719SOL     OW33055   0.060   4.429   5.410
10719SOL    HW133056   0.018   4.507   5.456
10719SOL    HW233057   0.064   4.351   5.472
10720SOL     OW33058   6.686   5.482   2.936
10720SOL    HW133059   6.759   5.416   2.952
10720SOL    HW233060   6.620   5.445   2.871
10721SOL     OW33061   4.855   2.855   6.423
10721SOL    HW133062   4.953   2.858   6.441
10721SOL    HW233063   4.812   2.785   6.481
10722SOL     OW33064   0.196   3.764   5.815
10722SOL    HW133065   0.274   3.813   5.855
10722SOL    HW233066   0.177   3.682   5.869
10723SOL     OW33067   5.870   5.890   1.663
10723SOL    HW133068   5.927   5.959   1.618
10723SOL    HW233069   5.923   5.807   1.677
10724SOL     OW33070   0.518   6.499   6.144
10724SOL    HW133071   0.590   6.431   6.155
10724SOL    HW233072   0.431   6.461   6.176
10725SOL     OW33073   2.504   0.080   6.430
10725SOL    HW133074   2.566   0.043   6.360
10725SOL    HW233075   2.414   0.038   6.420
10726SOL     OW33076   3.842   0.567   4.141
10726SOL    HW133077   3.819   0.619   4.058
10726SOL    HW233078   3.920   0.508   4.122
10727SOL     OW33079   2.032   6.474   7.011
10727SOL    HW133080   2.019   6.379   6.983
10727SOL    HW233081   1.995   6.487   0.074
10728SOL     OW33082   5.366   6.388   2.164
10728SOL    HW133083   5.293   6.430   2.217
10728SOL    HW233084   5.439   6.455   2.148
10729SOL     OW33085   6.458   1.520   0.130
10729SOL    HW133086   6.503   1.536   0.218
10729SOL    HW233087   6.371   1.473   0.146
10730SOL     OW33088   5.002   0.287   3.085
10730SOL    HW133089   5.091   0.333   3.082
10730SOL    HW233090   4.943   0.332   3.151
10731SOL     OW33091   3.197   6.649   0.407
10731SOL    HW133092   3.235   6.604   0.488
10731SOL    HW233093   3.107   6.686   0.429
10732SOL     OW33094   0.497   3.257   6.088
10732SOL    HW133095   0.525   3.281   5.994
10732SOL    HW233096   0.559   3.302   6.153
10733SOL     OW33097   6.388   0.121   6.816
10733SOL    HW133098   6.368   0.042   6.874
10733SOL    HW233099   6.440   0.189   6.869
10734SOL     OW33100   5.516   2.832   1.784
10734SOL    HW133101   5.445   2.889   1.743
10734SOL    HW233102   5.479   2.781   1.862
10735SOL     OW33103   6.902   5.497   2.459
10735SOL    HW133104   6.864   5.509   2.367
10735SOL    HW233105   6.834   5.454   2.518
10736SOL     OW33106   2.317   1.610   5.377
10736SOL    HW133107   2.253   1.540   5.345
10736SOL    HW233108   2.275   1.700   5.369
10737SOL     OW33109   0.241   1.492   6.227
10737SOL    HW133110   0.247   1.516   6.323
10737SOL    HW233111   0.280   1.565   6.171
10738SOL     OW33112   4.056   6.788   4.419
10738SOL    HW133113   4.150   6.794   4.453
10738SOL    HW233114   4.000   6.858   4.462
10739SOL     OW33115   1.410   1.158   2.053
10739SOL    HW133116   1.442   1.101   1.978
10739SOL    HW233117   1.360   1.237   2.016
10740SOL     OW33118   4.062   6.239   3.735
10740SOL    HW133119   4.010   6.316   3.772
10740SOL    HW233120   4.099   6.184   3.810
10741SOL     OW33121   2.230   0.653   2.661
10741SOL    HW133122   2.256   0.584   2.593
10741SOL    HW233123   2.312   0.689   2.704
10742SOL     OW33124   6.515   5.486   6.993
10742SOL    HW133125   6.431   5.537   6.972
10742SOL    HW233126   6.515   5.460   0.061
10743SOL     OW33127   3.474   1.174   5.145
10743SOL    HW133128   3.510   1.112   5.075
10743SOL    HW233129   3.520   1.158   5.232
10744SOL     OW33130   5.659   1.185   0.404
10744SOL    HW133131   5.750   1.195   0.444
10744SOL    HW233132   5.600   1.134   0.467
10745SOL     OW33133   6.647   6.064   6.336
10745SOL    HW133134   6.643   6.158   6.302
10745SOL    HW233135   6.669   6.002   6.261
10746SOL     OW33136   1.844   4.269   5.273
10746SOL    HW133137   1.875   4.224   5.190
10746SOL    HW233138   1.900   4.349   5.290
10747SOL     OW33139   2.864   2.260   5.090
10747SOL    HW133140   2.960   2.286   5.083
10747SOL    HW233141   2.849   2.175   5.040
10748SOL     OW33142   5.680   1.458   2.721
10748SOL    HW133143   5.726   1.547   2.713
10748SOL    HW233144   5.602   1.457   2.659
10749SOL     OW33145   3.838   0.242   0.266
10749SOL    HW133146   3.779   0.216   0.189
10749SOL    HW233147   3.904   0.311   0.236
10750SOL     OW33148   4.902   5.725   6.772
10750SOL    HW133149   4.820   5.674   6.747
10750SOL    HW233150   4.896   5.818   6.737
10751SOL     OW33151   2.404   6.313   2.860
10751SOL    HW133152   2.354   6.316   2.773
10751SOL    HW233153   2.369   6.384   2.920
10752SOL     OW33154   4.801   5.633   4.301
10752SOL    HW133155   4.737   5.710   4.291
10752SOL    HW233156   4.789   5.591   4.391
10753SOL     OW33157   5.806   4.086   4.305
10753SOL    HW133158   5.791   4.024   4.383
10753SOL    HW233159   5.733   4.154   4.302
10754SOL     OW33160   1.214   6.720   2.568
10754SOL    HW133161   1.252   6.639   2.612
10754SOL    HW233162   1.116   6.706   2.551
10755SOL     OW33163   6.102   6.050   1.611
10755SOL    HW133164   6.169   6.056   1.537
10755SOL    HW233165   6.116   6.126   1.675
10756SOL     OW33166   6.892   6.956   4.911
10756SOL    HW133167   6.945   6.979   4.992
10756SOL    HW233168   6.892   0.005   4.848
10757SOL     OW33169   2.675   2.566   1.792
10757SOL    HW133170   2.760   2.536   1.836
10757SOL    HW233171   2.669   2.528   1.700
10758SOL     OW33172   6.758   5.344   4.120
10758SOL    HW133173   6.663   5.317   4.139
10758SOL    HW233174   6.815   5.324   4.200
10759SOL     OW33175   6.720   0.633   6.827
10759SOL    HW133176   6.767   0.721   6.824
10759SOL    HW233177   6.686   0.610   6.736
10760SOL     OW33178   5.729   2.038   4.374
10760SOL    HW133179   5.806   2.021   4.435
10760SOL    HW233180   5.655   2.084   4.424
10761SOL     OW33181   3.834   5.525   5.723
10761SOL    HW133182   3.787   5.602   5.681
10761SOL    HW233183   3.927   5.519   5.688
10762SOL     OW33184   3.435   0.622   6.448
10762SOL    HW133185   3.379   0.539   6.444
10762SOL    HW233186   3.417   0.669   6.534
10763SOL     OW33187   4.698   5.127   4.197
10763SOL    HW133188   4.681   5.211   4.248
10763SOL    HW233189   4.632   5.057   4.225
10764SOL     OW33190   5.251   0.636   4.645
10764SOL    HW133191   5.298   0.548   4.641
10764SOL    HW233192   5.246   0.676   4.553
10765SOL     OW33193   0.169   3.994   7.005
10765SOL    HW133194   0.070   3.979   7.014
10765SOL    HW233195   0.211   3.990   0.067
10766SOL     OW33196   2.916   3.713   2.446
10766SOL    HW133197   2.908   3.648   2.522
10766SOL    HW233198   2.899   3.666   2.360
10767SOL     OW33199   4.515   2.109   2.127
10767SOL    HW133200   4.579   2.153   2.064
10767SOL    HW233201   4.450   2.054   2.075
10768SOL     OW33202   6.049   4.757   6.294
10768SOL    HW133203   6.144   4.734   6.312
10768SOL    HW233204   5.994   4.674   6.288
10769SOL     OW33205   2.108   3.325   4.246
10769SOL    HW133206   2.051   3.402   4.277
10769SOL    HW233207   2.079   3.298   4.155
10770SOL     OW33208   4.295   6.031   3.770
10770SOL    HW133209   4.361   6.089   3.817
10770SOL    HW233210   4.298   6.050   3.671
10771SOL     OW33211   2.602   2.122   3.617
10771SOL    HW133212   2.575   2.046   3.676
10771SOL    HW233213   2.589   2.096   3.521
10772SOL     OW33214   5.169   6.053   3.742
10772SOL    HW133215   5.146   6.134   3.689
10772SOL    HW233216   5.266   6.055   3.766
10773SOL     OW33217   5.835   5.366   3.012
10773SOL    HW133218   5.830   5.288   3.074
10773SOL    HW233219   5.747   5.377   2.964
10774SOL     OW33220   0.168   0.058   3.396
10774SOL    HW133221   0.176   0.149   3.356
10774SOL    HW233222   0.109   0.061   3.476
10775SOL     OW33223   0.257   2.489   1.068
10775SOL    HW133224   0.308   2.508   1.152
10775SOL    HW233225   0.160   2.509   1.082
10776SOL     OW33226   2.141   0.560   5.308
10776SOL    HW133227   2.199   0.634   5.344
10776SOL    HW233228   2.151   0.556   5.208
10777SOL     OW33229   3.234   5.635   1.739
10777SOL    HW133230   3.144   5.600   1.767
10777SOL    HW233231   3.229   5.665   1.644
10778SOL     OW33232   5.535   5.795   1.911
10778SOL    HW133233   5.498   5.845   1.989
10778SOL    HW233234   5.544   5.857   1.833
10779SOL     OW33235   4.801   3.001   3.791
10779SOL    HW133236   4.702   2.998   3.782
10779SOL    HW233237   4.842   2.931   3.734
10780SOL     OW33238   6.832   0.375   2.157
10780SOL    HW133239   6.836   0.474   2.171
10780SOL    HW233240   6.741   0.350   2.124
10781SOL     OW33241   2.986   0.547   4.097
10781SOL    HW133242   3.029   0.516   4.012
10781SOL    HW233243   2.887   0.547   4.087
10782SOL     OW33244   0.067   5.708   3.385
10782SOL    HW133245   7.022   5.774   3.375
10782SOL    HW233246   0.140   5.727   3.319
10783SOL     OW33247   6.480   2.750   2.726
10783SOL    HW133248   6.462   2.807   2.806
10783SOL    HW233249   6.394   2.730   2.679
10784SOL     OW33250   1.829   1.538   5.047
10784SOL    HW133251   1.824   1.617   5.108
10784SOL    HW233252   1.840   1.455   5.101
10785SOL     OW33253   1.492   3.223   6.132
10785SOL    HW133254   1.444   3.136   6.128
10785SOL    HW233255   1.440   3.287   6.190
10786SOL     OW33256   6.630   4.675   4.832
10786SOL    HW133257   6.721   4.640   4.854
10786SOL    HW233258   6.605   4.646   4.740
10787SOL     OW33259   1.839   2.170   5.844
10787SOL    HW133260   1.917   2.191   5.902
10787SOL    HW233261   1.829   2.240   5.774
10788SOL     OW33262   5.789   3.799   6.294
10788SOL    HW133263   5.749   3.820   6.205
10788SOL    HW233264   5.717   3.804   6.364
10789SOL     OW33265   4.761   0.965   6.447
10789SOL    HW133266   4.671   0.931   6.475
10789SOL    HW233267   4.827   0.948   6.521
10790SOL     OW33268   5.313   6.828   2.372
10790SOL    HW133269   5.351   6.737   2.386
10790SOL    HW233270   5.381   6.897   2.394
10791SOL     OW33271   0.763   5.779   2.755
10791SOL    HW133272   0.700   5.707   2.726
10791SOL    HW233273   0.715   5.867   2.755
10792SOL     OW33274   4.355   4.859   6.430
10792SOL    HW133275   4.333   4.928   6.361
10792SOL    HW233276   4.271   4.820   6.466
10793SOL     OW33277   5.594   4.250   4.376
10793SOL    HW133278   5.615   4.203   4.462
10793SOL    HW233279   5.508   4.216   4.340
10794SOL     OW33280   3.378   3.403   4.421
10794SOL    HW133281   3.457   3.430   4.476
10794SOL    HW233282   3.387   3.442   4.329
10795SOL     OW33283   0.030   4.604   2.718
10795SOL    HW133284   6.963   4.593   2.743
10795SOL    HW233285   0.054   4.701   2.719
10796SOL     OW33286   0.849   6.705   5.441
10796SOL    HW133287   0.897   6.679   5.357
10796SOL    HW233288   0.901   6.777   5.487
10797SOL     OW33289   3.729   2.593   0.441
10797SOL    HW133290   3.725   2.494   0.456
10797SOL    HW233291   3.758   2.611   0.347
10798SOL     OW33292   5.753   1.254   0.767
10798SOL    HW133293   5.759   1.258   0.667
10798SOL    HW233294   5.660   1.279   0.795
10799SOL     OW33295   5.376   1.524   1.414
10799SOL    HW133296   5.285   1.498   1.447
10799SOL    HW233297   5.368   1.567   1.325
10800SOL     OW33298   6.339   6.665   1.311
10800SOL    HW133299   6.324   6.761   1.286
10800SOL    HW233300   6.276   6.607   1.259
10801SOL     OW33301   2.314   0.745   1.371
10801SOL    HW133302   2.278   0.665   1.323
10801SOL    HW233303   2.413   0.743   1.369
10802SOL     OW33304   5.243   1.405   3.911
10802SOL    HW133305   5.203   1.496   3.894
10802SOL    HW233306   5.302   1.410   3.991
10803SOL     OW33307   2.372   5.095   4.926
10803SOL    HW133308   2.410   5.003   4.940
10803SOL    HW233309   2.282   5.087   4.883
10804SOL     OW33310   6.097   3.416   4.085
10804SOL    HW133311   6.139   3.432   3.996
10804SOL    HW233312   6.063   3.322   4.090
10805SOL     OW33313   7.021   6.670   6.473
10805SOL    HW133314   6.968   6.731   6.414
10805SOL    HW233315   0.062   6.724   6.521
10806SOL     OW33316   2.079   5.167   1.299
10806SOL    HW133317   2.075   5.267   1.302
10806SOL    HW233318   2.052   5.136   1.208
10807SOL     OW33319   3.156   5.250   5.232
10807SOL    HW133320   3.211   5.334   5.237
10807SOL    HW233321   3.059   5.274   5.231
10808SOL     OW33322   1.996   3.053   0.559
10808SOL    HW133323   2.009   2.994   0.480
10808SOL    HW233324   1.938   3.130   0.534
10809SOL     OW33325   1.300   0.954   4.851
10809SOL    HW133326   1.371   1.019   4.878
10809SOL    HW233327   1.227   0.953   4.920
10810SOL     OW33328   0.190   0.321   3.309
10810SOL    HW133329   0.181   0.368   3.221
10810SOL    HW233330   0.144   0.374   3.380
10811SOL     OW33331   5.180   5.420   4.942
10811SOL    HW133332   5.165   5.509   4.899
10811SOL    HW233333   5.111   5.405   5.013
10812SOL     OW33334   0.599   2.899   1.170
10812SOL    HW133335   0.560   2.858   1.088
10812SOL    HW233336   0.678   2.956   1.146
10813SOL     OW33337   1.197   3.652   6.759
10813SOL    HW133338   1.291   3.643   6.727
10813SOL    HW233339   1.135   3.644   6.681
10814SOL     OW33340   3.284   1.902   2.488
10814SOL    HW133341   3.334   1.905   2.574
10814SOL    HW233342   3.280   1.993   2.448
10815SOL     OW33343   5.377   1.085   4.442
10815SOL    HW133344   5.413   1.139   4.519
10815SOL    HW233345   5.288   1.122   4.415
10816SOL     OW33346   2.953   2.993   5.560
10816SOL    HW133347   3.034   2.947   5.597
10816SOL    HW233348   2.885   3.005   5.632
10817SOL     OW33349   2.067   6.425   4.874
10817SOL    HW133350   2.023   6.404   4.787
10817SOL    HW233351   2.058   6.523   4.892
10818SOL     OW33352   4.813   3.816   0.613
10818SOL    HW133353   4.796   3.720   0.591
10818SOL    HW233354   4.727   3.860   0.639
10819SOL     OW33355   6.637   5.644   5.441
10819SOL    HW133356   6.555   5.674   5.490
10819SOL    HW233357   6.677   5.565   5.487
10820SOL     OW33358   1.633   4.843   6.034
10820SOL    HW133359   1.645   4.791   5.949
10820SOL    HW233360   1.699   4.810   6.102
10821SOL     OW33361   4.294   5.782   4.074
10821SOL    HW133362   4.375   5.839   4.058
10821SOL    HW233363   4.268   5.787   4.170
10822SOL     OW33364   5.345   0.127   2.969
10822SOL    HW133365   5.419   0.105   2.904
10822SOL    HW233366   5.268   0.065   2.954
10823SOL     OW33367   5.794   6.530   2.667
10823SOL    HW133368   5.714   6.470   2.665
10823SOL    HW233369   5.840   6.528   2.579
10824SOL     OW33370   1.865   1.856   3.969
10824SOL    HW133371   1.815   1.941   3.988
10824SOL    HW233372   1.940   1.846   4.034
10825SOL     OW33373   0.068   1.490   7.026
10825SOL    HW133374   0.022   1.577   7.009
10825SOL    HW233375   0.033   1.422   6.962
10826SOL     OW33376   6.664   3.500   2.964
10826SOL    HW133377   6.613   3.418   2.990
10826SOL    HW233378   6.616   3.581   2.995
10827SOL     OW33379   0.637   2.900   3.269
10827SOL    HW133380   0.655   2.903   3.368
10827SOL    HW233381   0.688   2.973   3.224
10828SOL     OW33382   6.922   4.184   4.903
10828SOL    HW133383   7.019   4.199   4.881
10828SOL    HW233384   6.868   4.187   4.819
10829SOL     OW33385   3.828   2.964   5.550
10829SOL    HW133386   3.750   2.993   5.494
10829SOL    HW233387   3.841   2.865   5.540
10830SOL     OW33388   5.225   1.994   3.940
10830SOL    HW133389   5.210   1.982   3.842
10830SOL    HW233390   5.270   1.913   3.977
10831SOL     OW33391   4.071   6.998   2.992
10831SOL    HW133392   4.111   7.008   3.083
10831SOL    HW233393   4.011   0.047   2.973
10832SOL     OW33394   6.757   3.616   6.452
10832SOL    HW133395   6.769   3.666   6.538
10832SOL    HW233396   6.731   3.681   6.380
10833SOL     OW33397   0.938   0.996   6.574
10833SOL    HW133398   0.950   1.001   6.474
10833SOL    HW233399   1.015   0.948   6.615
10834SOL     OW33400   6.917   6.347   2.380
10834SOL    HW133401   6.995   6.341   2.443
10834SOL    HW233402   6.895   6.255   2.346
10835SOL     OW33403   0.037   2.595   5.529
10835SOL    HW133404   0.101   2.590   5.606
10835SOL    HW233405   6.972   2.602   5.565
10836SOL     OW33406   6.743   1.941   3.179
10836SOL    HW133407   6.832   1.948   3.135
10836SOL    HW233408   6.740   2.003   3.258
10837SOL     OW33409   0.455   2.992   3.548
10837SOL    HW133410   0.454   2.904   3.502
10837SOL    HW233411   0.527   2.993   3.618
10838SOL     OW33412   0.077   6.702   2.761
10838SOL    HW133413   0.028   6.751   2.688
10838SOL    HW233414   0.151   6.760   2.796
10839SOL     OW33415   4.753   2.419   0.104
10839SOL    HW133416   4.839   2.410   0.053
10839SOL    HW233417   4.699   2.494   0.066
10840SOL     OW33418   3.106   0.566   2.049
10840SOL    HW133419   3.035   0.507   2.010
10840SOL    HW233420   3.177   0.510   2.091
10841SOL     OW33421   2.385   5.612   4.366
10841SOL    HW133422   2.416   5.538   4.306
10841SOL    HW233423   2.446   5.690   4.357
10842SOL     OW33424   6.666   4.670   1.825
10842SOL    HW133425   6.702   4.579   1.845
10842SOL    HW233426   6.567   4.666   1.815
10843SOL     OW33427   2.485   1.459   1.091
10843SOL    HW133428   2.427   1.484   1.168
10843SOL    HW233429   2.472   1.526   1.017
10844SOL     OW33430   1.663   5.492   4.328
10844SOL    HW133431   1.639   5.586   4.304
10844SOL    HW233432   1.579   5.436   4.330
10845SOL     OW33433   3.891   0.654   4.428
10845SOL    HW133434   3.922   0.749   4.430
10845SOL    HW233435   3.880   0.625   4.333
10846SOL     OW33436   5.526   6.812   6.164
10846SOL    HW133437   5.437   6.802   6.119
10846SOL    HW233438   5.528   6.897   6.216
10847SOL     OW33439   3.233   7.012   6.939
10847SOL    HW133440   3.305   6.991   7.006
10847SOL    HW233441   3.144   6.993   6.980
10848SOL     OW33442   1.472   2.844   2.197
10848SOL    HW133443   1.479   2.756   2.150
10848SOL    HW233444   1.433   2.830   2.289
10849SOL     OW33445   1.095   6.725   3.436
10849SOL    HW133446   1.070   6.633   3.406
10849SOL    HW233447   1.171   6.720   3.500
10850SOL     OW33448   4.869   4.173   0.083
10850SOL    HW133449   4.877   4.109   0.006
10850SOL    HW233450   4.810   4.249   0.058
10851SOL     OW33451   1.416   4.613   0.934
10851SOL    HW133452   1.510   4.608   0.969
10851SOL    HW233453   1.383   4.521   0.914
10852SOL     OW33454   2.903   0.668   1.404
10852SOL    HW133455   2.954   0.679   1.319
10852SOL    HW233456   2.947   0.720   1.477
10853SOL     OW33457   2.977   0.727   6.249
10853SOL    HW133458   2.878   0.724   6.260
10853SOL    HW233459   3.021   0.679   6.325
10854SOL     OW33460   2.954   6.434   5.828
10854SOL    HW133461   2.881   6.366   5.839
10854SOL    HW233462   3.043   6.391   5.843
10855SOL     OW33463   4.437   0.838   6.532
10855SOL    HW133464   4.338   0.840   6.543
10855SOL    HW233465   4.466   0.746   6.506
10856SOL     OW33466   0.430   0.270   0.732
10856SOL    HW133467   0.455   0.198   0.797
10856SOL    HW233468   0.495   0.345   0.738
10857SOL     OW33469   6.113   1.336   1.189
10857SOL    HW133470   6.060   1.264   1.235
10857SOL    HW233471   6.155   1.395   1.257
10858SOL     OW33472   2.260   6.299   1.870
10858SOL    HW133473   2.265   6.355   1.787
10858SOL    HW233474   2.225   6.354   1.946
10859SOL     OW33475   1.811   4.841   3.826
10859SOL    HW133476   1.911   4.836   3.827
10859SOL    HW233477   1.781   4.895   3.747
10860SOL     OW33478   0.672   3.530   2.928
10860SOL    HW133479   0.589   3.542   2.983
10860SOL    HW233480   0.752   3.553   2.982
10861SOL     OW33481   4.316   3.500   5.232
10861SOL    HW133482   4.302   3.567   5.159
10861SOL    HW233483   4.231   3.450   5.250
10862SOL     OW33484   1.084   0.467   5.744
10862SOL    HW133485   1.173   0.477   5.701
10862SOL    HW233486   1.064   0.546   5.801
10863SOL     OW33487   1.741   6.724   4.188
10863SOL    HW133488   1.764   6.726   4.091
10863SOL    HW233489   1.773   6.809   4.231
10864SOL     OW33490   3.179   0.108   3.965
10864SOL    HW133491   3.120   0.100   3.885
10864SOL    HW233492   3.258   0.165   3.942
10865SOL     OW33493   6.668   0.600   6.027
10865SOL    HW133494   6.646   0.666   6.098
10865SOL    HW233495   6.583   0.557   5.994
10866SOL     OW33496   6.399   4.816   0.009
10866SOL    HW133497   6.390   4.772   0.098
10866SOL    HW233498   6.420   4.747   6.968
10867SOL     OW33499   3.007   1.486   0.237
10867SOL    HW133500   3.081   1.419   0.232
10867SOL    HW233501   3.045   1.578   0.244
10868SOL     OW33502   1.734   2.464   3.652
10868SOL    HW133503   1.763   2.466   3.556
10868SOL    HW233504   1.635   2.478   3.656
10869NA      NA33505   6.734   2.297   5.195
10870NA      NA33506   4.527   4.485   5.200
10871NA      NA33507   2.029   3.371   1.982
10872NA      NA33508   4.983   3.466   4.901
10873NA      NA33509   4.369   2.375   5.186
10874NA      NA33510   3.861   4.840   2.101
10875NA      NA33511   6.586   6.442   4.863
10876NA      NA33512   3.565   3.285   5.075
10877NA      NA33513   4.684   6.000   6.217
10878NA      NA33514   2.819   6.714   4.830
10879NA      NA33515   0.411   4.871   3.246
10880NA      NA33516   2.029   0.618   1.961
10881NA      NA33517   4.158   4.213   1.241
10882NA      NA33518   3.943   3.382   3.239
   7.02875   7.02875   7.02875
