Generated by trjconv : CNT in water t=   2.00000
33518
    1C        C    1   2.842   2.770   4.745
    1C        C    2   2.896   2.717   4.865
    1C        C    3   2.846   2.773   4.983
    1C        C    4   2.849   2.772   4.261
    1C        C    5   2.903   2.730   4.384
    1C        C    6   2.845   2.774   4.505
    1C        C    7   3.016   2.643   4.624
    1C        C    8   2.899   2.722   4.625
    1C        C    9   3.076   2.605   4.746
    1C        C   10   3.008   2.630   4.867
    1C        C   11   3.182   2.491   4.976
    1C        C   12   3.059   2.560   4.977
    1C        C   13   2.851   2.772   3.773
    1C        C   14   2.901   2.722   3.895
    1C        C   15   2.851   2.778   4.014
    1C        C   16   3.017   2.650   4.137
    1C        C   17   2.900   2.728   4.136
    1C        C   18   3.082   2.618   4.259
    1C        C   19   3.020   2.651   4.381
    1C        C   20   3.210   2.554   4.504
    1C        C   21   3.081   2.611   4.503
    1C        C   22   3.280   2.536   4.625
    1C        C   23   3.207   2.549   4.745
    1C        C   24   3.412   2.484   4.864
    1C        C   25   3.270   2.504   4.864
    1C        C   26   3.489   2.480   4.981
    1C        C   27   2.849   2.772   3.281
    1C        C   28   2.905   2.726   3.402
    1C        C   29   2.857   2.771   3.527
    1C        C   30   3.020   2.643   3.650
    1C        C   31   2.906   2.726   3.651
    1C        C   32   3.075   2.601   3.773
    1C        C   33   3.015   2.639   3.896
    1C        C   34   3.208   2.550   4.017
    1C        C   35   3.079   2.607   4.018
    1C        C   36   3.277   2.535   4.140
    1C        C   37   3.212   2.561   4.262
    1C        C   38   3.418   2.508   4.383
    1C        C   39   3.279   2.534   4.382
    1C        C   40   3.491   2.493   4.503
    1C        C   41   3.418   2.507   4.623
    1C        C   42   3.630   2.483   4.746
    1C        C   43   3.488   2.486   4.744
    1C        C   44   3.706   2.486   4.865
    1C        C   45   3.628   2.480   4.981
    1C        C   46   2.839   2.750   2.792
    1C        C   47   2.894   2.711   2.916
    1C        C   48   2.846   2.760   3.040
    1C        C   49   3.019   2.637   3.163
    1C        C   50   2.902   2.716   3.163
    1C        C   51   3.079   2.600   3.285
    1C        C   52   3.018   2.641   3.406
    1C        C   53   3.209   2.546   3.529
    1C        C   54   3.081   2.606   3.528
    1C        C   55   3.278   2.525   3.651
    1C        C   56   3.205   2.547   3.770
    1C        C   57   3.412   2.506   3.895
    1C        C   58   3.273   2.530   3.893
    1C        C   59   3.487   2.506   4.015
    1C        C   60   3.416   2.510   4.138
    1C        C   61   3.628   2.504   4.261
    1C        C   62   3.487   2.502   4.260
    1C        C   63   3.701   2.509   4.382
    1C        C   64   3.633   2.494   4.504
    1C        C   65   3.838   2.541   4.622
    1C        C   66   3.704   2.495   4.626
    1C        C   67   3.906   2.565   4.743
    1C        C   68   3.840   2.531   4.863
    1C        C   69   4.053   2.583   4.976
    1C        C   70   3.923   2.530   4.976
    1C        C   71   2.828   2.734   2.307
    1C        C   72   2.884   2.693   2.431
    1C        C   73   2.830   2.745   2.550
    1C        C   74   3.008   2.623   2.674
    1C        C   75   2.888   2.697   2.670
    1C        C   76   3.071   2.592   2.797
    1C        C   77   3.012   2.634   2.918
    1C        C   78   3.206   2.542   3.037
    1C        C   79   3.079   2.604   3.039
    1C        C   80   3.272   2.521   3.160
    1C        C   81   3.208   2.543   3.284
    1C        C   82   3.414   2.497   3.401
    1C        C   83   3.275   2.519   3.406
    1C        C   84   3.481   2.494   3.525
    1C        C   85   3.418   2.504   3.651
    1C        C   86   3.626   2.503   3.768
    1C        C   87   3.485   2.496   3.774
    1C        C   88   3.694   2.514   3.892
    1C        C   89   3.628   2.509   4.016
    1C        C   90   3.834   2.554   4.135
    1C        C   91   3.698   2.513   4.139
    1C        C   92   3.903   2.570   4.257
    1C        C   93   3.838   2.545   4.379
    1C        C   94   4.030   2.636   4.500
    1C        C   95   3.906   2.568   4.501
    1C        C   96   4.095   2.667   4.621
    1C        C   97   4.034   2.627   4.741
    1C        C   98   4.192   2.768   4.865
    1C        C   99   4.100   2.658   4.863
    1C        C  100   4.216   2.843   4.980
    1C        C  101   2.822   2.729   2.065
    1C        C  102   2.993   2.597   2.189
    1C        C  103   2.879   2.683   2.185
    1C        C  104   3.064   2.574   2.310
    1C        C  105   3.003   2.617   2.429
    1C        C  106   3.198   2.534   2.551
    1C        C  107   3.070   2.593   2.551
    1C        C  108   3.270   2.516   2.671
    1C        C  109   3.201   2.537   2.793
    1C        C  110   3.411   2.498   2.917
    1C        C  111   3.271   2.519   2.914
    1C        C  112   3.482   2.492   3.038
    1C        C  113   3.412   2.501   3.161
    1C        C  114   3.628   2.497   3.283
    1C        C  115   3.487   2.491   3.280
    1C        C  116   3.694   2.513   3.407
    1C        C  117   3.622   2.502   3.528
    1C        C  118   3.835   2.544   3.648
    1C        C  119   3.699   2.507   3.647
    1C        C  120   3.898   2.571   3.772
    1C        C  121   3.832   2.545   3.894
    1C        C  122   4.026   2.643   4.015
    1C        C  123   3.899   2.581   4.013
    1C        C  124   4.090   2.676   4.136
    1C        C  125   4.029   2.634   4.257
    1C        C  126   4.197   2.767   4.377
    1C        C  127   4.089   2.676   4.378
    1C        C  128   4.244   2.821   4.499
    1C        C  129   4.197   2.766   4.620
    1C        C  130   4.326   2.933   4.742
    1C        C  131   4.245   2.816   4.743
    1C        C  132   4.359   3.001   4.862
    1C        C  133   4.291   2.961   4.977
    1C        C  134   3.171   2.461   2.087
    1C        C  135   3.039   2.508   2.087
    1C        C  136   3.262   2.481   2.192
    1C        C  137   3.198   2.525   2.310
    1C        C  138   3.406   2.480   2.425
    1C        C  139   3.267   2.504   2.431
    1C        C  140   3.478   2.480   2.547
    1C        C  141   3.410   2.497   2.669
    1C        C  142   3.619   2.495   2.792
    1C        C  143   3.478   2.494   2.793
    1C        C  144   3.694   2.503   2.911
    1C        C  145   3.624   2.491   3.033
    1C        C  146   3.828   2.539   3.158
    1C        C  147   3.692   2.500   3.157
    1C        C  148   3.897   2.566   3.279
    1C        C  149   3.831   2.547   3.402
    1C        C  150   4.026   2.630   3.526
    1C        C  151   3.899   2.566   3.524
    1C        C  152   4.085   2.670   3.647
    1C        C  153   4.023   2.637   3.769
    1C        C  154   4.193   2.766   3.887
    1C        C  155   4.083   2.678   3.890
    1C        C  156   4.246   2.811   4.010
    1C        C  157   4.201   2.764   4.134
    1C        C  158   4.344   2.921   4.252
    1C        C  159   4.251   2.815   4.256
    1C        C  160   4.378   2.981   4.375
    1C        C  161   4.329   2.934   4.499
    1C        C  162   4.437   3.116   4.615
    1C        C  163   4.366   2.994   4.621
    1C        C  164   4.465   3.183   4.737
    1C        C  165   4.432   3.121   4.859
    1C        C  166   4.512   3.321   4.972
    1C        C  167   4.474   3.188   4.976
    1C        C  168   3.477   2.434   2.074
    1C        C  169   3.402   2.463   2.188
    1C        C  170   3.622   2.466   2.307
    1C        C  171   3.480   2.463   2.306
    1C        C  172   3.695   2.485   2.427
    1C        C  173   3.619   2.487   2.547
    1C        C  174   3.825   2.538   2.669
    1C        C  175   3.689   2.501   2.669
    1C        C  176   3.893   2.567   2.789
    1C        C  177   3.829   2.543   2.913
    1C        C  178   4.022   2.625   3.037
    1C        C  179   3.895   2.562   3.036
    1C        C  180   4.089   2.664   3.155
    1C        C  181   4.024   2.628   3.276
    1C        C  182   4.193   2.749   3.402
    1C        C  183   4.083   2.660   3.400
    1C        C  184   4.249   2.805   3.519
    1C        C  185   4.196   2.758   3.641
    1C        C  186   4.339   2.915   3.767
    1C        C  187   4.248   2.806   3.763
    1C        C  188   4.383   2.978   3.885
    1C        C  189   4.337   2.920   4.005
    1C        C  190   4.445   3.103   4.131
    1C        C  191   4.378   2.978   4.127
    1C        C  192   4.468   3.173   4.251
    1C        C  193   4.442   3.108   4.373
    1C        C  194   4.510   3.314   4.493
    1C        C  195   4.467   3.179   4.492
    1C        C  196   4.527   3.387   4.613
    1C        C  197   4.511   3.317   4.735
    1C        C  198   4.554   3.534   4.850
    1C        C  199   4.530   3.393   4.853
    1C        C  200   4.590   3.621   4.958
    1C        C  201   3.616   2.419   2.073
    1C        C  202   3.830   2.508   2.185
    1C        C  203   3.696   2.459   2.186
    1C        C  204   3.902   2.539   2.304
    1C        C  205   3.831   2.520   2.425
    1C        C  206   4.022   2.614   2.544
    1C        C  207   3.895   2.554   2.547
    1C        C  208   4.080   2.658   2.666
    1C        C  209   4.022   2.626   2.790
    1C        C  210   4.192   2.749   2.908
    1C        C  211   4.080   2.662   2.914
    1C        C  212   4.247   2.796   3.029
    1C        C  213   4.198   2.753   3.155
    1C        C  214   4.332   2.910   3.272
    1C        C  215   4.242   2.800   3.280
    1C        C  216   4.371   2.973   3.392
    1C        C  217   4.331   2.920   3.517
    1C        C  218   4.434   3.099   3.640
    1C        C  219   4.372   2.973   3.642
    1C        C  220   4.470   3.170   3.757
    1C        C  221   4.448   3.104   3.880
    1C        C  222   4.500   3.303   4.005
    1C        C  223   4.468   3.165   4.006
    1C        C  224   4.513   3.380   4.123
    1C        C  225   4.503   3.310   4.245
    1C        C  226   4.520   3.520   4.366
    1C        C  227   4.515   3.378   4.368
    1C        C  228   4.517   3.596   4.485
    1C        C  229   4.529   3.528   4.608
    1C        C  230   4.507   3.743   4.728
    1C        C  231   4.535   3.603   4.727
    1C        C  232   4.497   3.819   4.846
    1C        C  233   4.545   3.754   4.961
    1C        C  234   4.020   2.604   2.066
    1C        C  235   3.893   2.546   2.066
    1C        C  236   4.083   2.652   2.181
    1C        C  237   4.023   2.613   2.303
    1C        C  238   4.202   2.733   2.422
    1C        C  239   4.088   2.648   2.424
    1C        C  240   4.249   2.783   2.546
    1C        C  241   4.194   2.741   2.669
    1C        C  242   4.337   2.906   2.785
    1C        C  243   4.249   2.795   2.787
    1C        C  244   4.378   2.959   2.909
    1C        C  245   4.337   2.905   3.033
    1C        C  246   4.442   3.094   3.147
    1C        C  247   4.378   2.969   3.153
    1C        C  248   4.463   3.158   3.271
    1C        C  249   4.432   3.100   3.397
    1C        C  250   4.496   3.303   3.513
    1C        C  251   4.459   3.167   3.518
    1C        C  252   4.505   3.373   3.635
    1C        C  253   4.502   3.307   3.760
    1C        C  254   4.524   3.515   3.877
    1C        C  255   4.514   3.374   3.884
    1C        C  256   4.519   3.587   3.999
    1C        C  257   4.519   3.521   4.124
    1C        C  258   4.489   3.732   4.240
    1C        C  259   4.515   3.593   4.246
    1C        C  260   4.472   3.800   4.363
    1C        C  261   4.485   3.734   4.487
    1C        C  262   4.425   3.940   4.605
    1C        C  263   4.473   3.807   4.607
    1C        C  264   4.401   4.011   4.725
    1C        C  265   4.433   3.945   4.845
    1C        C  266   4.320   4.134   4.960
    1C        C  267   4.387   4.012   4.959
    1C        C  268   4.267   2.776   2.067
    1C        C  269   4.195   2.737   2.181
    1C        C  270   4.346   2.890   2.302
    1C        C  271   4.257   2.779   2.301
    1C        C  272   4.383   2.954   2.422
    1C        C  273   4.337   2.893   2.541
    1C        C  274   4.441   3.084   2.662
    1C        C  275   4.378   2.958   2.660
    1C        C  276   4.470   3.150   2.784
    1C        C  277   4.447   3.082   2.906
    1C        C  278   4.506   3.293   3.024
    1C        C  279   4.470   3.157   3.023
    1C        C  280   4.516   3.361   3.148
    1C        C  281   4.501   3.294   3.272
    1C        C  282   4.514   3.512   3.385
    1C        C  283   4.512   3.371   3.390
    1C        C  284   4.516   3.578   3.510
    1C        C  285   4.515   3.514   3.636
    1C        C  286   4.491   3.727   3.751
    1C        C  287   4.518   3.588   3.756
    1C        C  288   4.472   3.791   3.875
    1C        C  289   4.492   3.725   3.999
    1C        C  290   4.426   3.933   4.117
    1C        C  291   4.476   3.801   4.117
    1C        C  292   4.396   3.998   4.239
    1C        C  293   4.425   3.933   4.361
    1C        C  294   4.326   4.124   4.480
    1C        C  295   4.398   4.002   4.481
    1C        C  296   4.282   4.187   4.598
    1C        C  297   4.324   4.131   4.721
    1C        C  298   4.202   4.315   4.838
    1C        C  299   4.281   4.196   4.840
    1C        C  300   4.171   4.403   4.947
    1C        C  301   4.357   2.882   2.062
    1C        C  302   4.475   3.064   2.179
    1C        C  303   4.401   2.942   2.181
    1C        C  304   4.487   3.140   2.298
    1C        C  305   4.450   3.078   2.420
    1C        C  306   4.508   3.284   2.539
    1C        C  307   4.475   3.147   2.540
    1C        C  308   4.514   3.358   2.659
    1C        C  309   4.500   3.288   2.781
    1C        C  310   4.518   3.503   2.904
    1C        C  311   4.513   3.362   2.901
    1C        C  312   4.513   3.575   3.025
    1C        C  313   4.520   3.502   3.146
    1C        C  314   4.485   3.720   3.267
    1C        C  315   4.509   3.581   3.262
    1C        C  316   4.472   3.788   3.390
    1C        C  317   4.492   3.717   3.511
    1C        C  318   4.424   3.927   3.629
    1C        C  319   4.475   3.795   3.628
    1C        C  320   4.390   3.987   3.752
    1C        C  321   4.425   3.924   3.874
    1C        C  322   4.322   4.114   3.989
    1C        C  323   4.396   3.994   3.994
    1C        C  324   4.278   4.167   4.112
    1C        C  325   4.319   4.117   4.238
    1C        C  326   4.190   4.287   4.353
    1C        C  327   4.283   4.181   4.358
    1C        C  328   4.139   4.340   4.473
    1C        C  329   4.190   4.294   4.597
    1C        C  330   4.023   4.433   4.713
    1C        C  331   4.141   4.353   4.716
    1C        C  332   3.970   4.489   4.831
    1C        C  333   4.051   4.475   4.945
    1C        C  334   4.555   3.267   2.062
    1C        C  335   4.538   3.128   2.067
    1C        C  336   4.543   3.350   2.175
    1C        C  337   4.513   3.280   2.294
    1C        C  338   4.517   3.493   2.412
    1C        C  339   4.516   3.352   2.415
    1C        C  340   4.517   3.569   2.531
    1C        C  341   4.517   3.500   2.654
    1C        C  342   4.501   3.707   2.776
    1C        C  343   4.518   3.567   2.778
    1C        C  344   4.481   3.786   2.892
    1C        C  345   4.494   3.715   3.014
    1C        C  346   4.421   3.909   3.141
    1C        C  347   4.471   3.777   3.138
    1C        C  348   4.390   3.983   3.258
    1C        C  349   4.430   3.922   3.379
    1C        C  350   4.324   4.103   3.507
    1C        C  351   4.405   3.987   3.502
    1C        C  352   4.276   4.166   3.624
    1C        C  353   4.317   4.108   3.746
    1C        C  354   4.182   4.273   3.871
    1C        C  355   4.278   4.170   3.867
    1C        C  356   4.125   4.320   3.992
    1C        C  357   4.180   4.269   4.112
    1C        C  358   4.014   4.406   4.229
    1C        C  359   4.132   4.329   4.231
    1C        C  360   3.953   4.444   4.350
    1C        C  361   4.020   4.416   4.471
    1C        C  362   3.831   4.519   4.593
    1C        C  363   3.960   4.463   4.590
    1C        C  364   3.761   4.547   4.713
    1C        C  365   3.839   4.543   4.831
    1C        C  366   3.629   4.592   4.947
    1C        C  367   3.768   4.578   4.946
    1C        C  368   4.507   3.563   2.053
    1C        C  369   4.531   3.490   2.170
    1C        C  370   4.503   3.705   2.286
    1C        C  371   4.518   3.564   2.290
    1C        C  372   4.482   3.775   2.407
    1C        C  373   4.496   3.709   2.531
    1C        C  374   4.419   3.905   2.647
    1C        C  375   4.476   3.775   2.654
    1C        C  376   4.396   3.971   2.770
    1C        C  377   4.428   3.916   2.896
    1C        C  378   4.319   4.095   3.010
    1C        C  379   4.394   3.976   3.020
    1C        C  380   4.274   4.151   3.131
    1C        C  381   4.314   4.103   3.258
    1C        C  382   4.179   4.256   3.376
    1C        C  383   4.275   4.153   3.384
    1C        C  384   4.123   4.308   3.495
    1C        C  385   4.178   4.267   3.619
    1C        C  386   4.010   4.384   3.744
    1C        C  387   4.131   4.311   3.744
    1C        C  388   3.945   4.430   3.861
    1C        C  389   4.011   4.402   3.983
    1C        C  390   3.820   4.491   4.107
    1C        C  391   3.949   4.434   4.106
    1C        C  392   3.751   4.516   4.228
    1C        C  393   3.822   4.498   4.349
    1C        C  394   3.620   4.547   4.474
    1C        C  395   3.760   4.528   4.472
    1C        C  396   3.545   4.563   4.593
    1C        C  397   3.621   4.565   4.712
    1C        C  398   3.409   4.555   4.840
    1C        C  399   3.549   4.576   4.833
    1C        C  400   3.338   4.526   4.957
    1C        C  401   4.502   3.702   2.049
    1C        C  402   4.453   3.914   2.167
    1C        C  403   4.490   3.778   2.166
    1C        C  404   4.411   3.978   2.286
    1C        C  405   4.439   3.909   2.407
    1C        C  406   4.324   4.093   2.527
    1C        C  407   4.400   3.974   2.526
    1C        C  408   4.278   4.149   2.649
    1C        C  409   4.320   4.090   2.770
    1C        C  410   4.175   4.252   2.891
    1C        C  411   4.277   4.154   2.888
    1C        C  412   4.122   4.301   3.012
    1C        C  413   4.175   4.252   3.134
    1C        C  414   4.004   4.379   3.253
    1C        C  415   4.121   4.300   3.255
    1C        C  416   3.943   4.413   3.376
    1C        C  417   4.006   4.387   3.500
    1C        C  418   3.819   4.480   3.618
    1C        C  419   3.949   4.425   3.623
    1C        C  420   3.751   4.504   3.740
    1C        C  421   3.816   4.488   3.864
    1C        C  422   3.611   4.535   3.984
    1C        C  423   3.750   4.512   3.986
    1C        C  424   3.542   4.542   4.108
    1C        C  425   3.612   4.537   4.231
    1C        C  426   3.404   4.545   4.355
    1C        C  427   3.545   4.549   4.354
    1C        C  428   3.333   4.550   4.478
    1C        C  429   3.404   4.554   4.600
    1C        C  430   3.194   4.517   4.722
    1C        C  431   3.333   4.544   4.722
    1C        C  432   3.124   4.499   4.845
    1C        C  433   3.205   4.488   4.959
    1C        C  434   4.381   4.120   2.053
    1C        C  435   4.446   3.996   2.054
    1C        C  436   4.299   4.160   2.164
    1C        C  437   4.335   4.098   2.286
    1C        C  438   4.182   4.251   2.400
    1C        C  439   4.283   4.152   2.406
    1C        C  440   4.129   4.297   2.523
    1C        C  441   4.181   4.251   2.645
    1C        C  442   4.008   4.377   2.763
    1C        C  443   4.123   4.295   2.767
    1C        C  444   3.947   4.414   2.885
    1C        C  445   4.005   4.380   3.009
    1C        C  446   3.811   4.467   3.129
    1C        C  447   3.942   4.415   3.131
    1C        C  448   3.746   4.490   3.252
    1C        C  449   3.814   4.470   3.375
    1C        C  450   3.610   4.529   3.495
    1C        C  451   3.748   4.496   3.497
    1C        C  452   3.544   4.539   3.619
    1C        C  453   3.612   4.532   3.743
    1C        C  454   3.398   4.543   3.865
    1C        C  455   3.539   4.546   3.863
    1C        C  456   3.331   4.534   3.989
    1C        C  457   3.401   4.542   4.111
    1C        C  458   3.194   4.506   4.238
    1C        C  459   3.332   4.535   4.234
    1C        C  460   3.128   4.483   4.362
    1C        C  461   3.197   4.514   4.481
    1C        C  462   2.998   4.432   4.605
    1C        C  463   3.126   4.492   4.601
    1C        C  464   2.930   4.404   4.726
    1C        C  465   2.989   4.452   4.846
    1C        C  466   2.803   4.337   4.960
    1C        C  467   2.909   4.429   4.962
    1C        C  468   4.121   4.284   2.042
    1C        C  469   4.188   4.251   2.160
    1C        C  470   4.008   4.376   2.282
    1C        C  471   4.127   4.298   2.279
    1C        C  472   3.944   4.411   2.403
    1C        C  473   4.009   4.372   2.522
    1C        C  474   3.812   4.463   2.645
    1C        C  475   3.941   4.406   2.642
    1C        C  476   3.745   4.491   2.767
    1C        C  477   3.816   4.466   2.886
    1C        C  478   3.608   4.521   3.011
    1C        C  479   3.746   4.491   3.006
    1C        C  480   3.536   4.527   3.132
    1C        C  481   3.608   4.520   3.253
    1C        C  482   3.396   4.530   3.378
    1C        C  483   3.537   4.533   3.374
    1C        C  484   3.328   4.529   3.502
    1C        C  485   3.402   4.539   3.622
    1C        C  486   3.191   4.502   3.746
    1C        C  487   3.328   4.536   3.742
    1C        C  488   3.126   4.476   3.868
    1C        C  489   3.194   4.501   3.990
    1C        C  490   3.005   4.416   4.116
    1C        C  491   3.130   4.480   4.115
    1C        C  492   2.943   4.382   4.238
    1C        C  493   3.001   4.422   4.361
    1C        C  494   2.826   4.306   4.483
    1C        C  495   2.935   4.396   4.483
    1C        C  496   2.772   4.259   4.605
    1C        C  497   2.818   4.316   4.725
    1C        C  498   2.664   4.167   4.844
    1C        C  499   2.756   4.274   4.844
    1C        C  500   2.600   4.119   4.959
    1C        C  501   4.001   4.355   2.044
    1C        C  502   3.816   4.467   2.155
    1C        C  503   3.943   4.407   2.161
    1C        C  504   3.744   4.481   2.276
    1C        C  505   3.812   4.461   2.398
    1C        C  506   3.607   4.504   2.521
    1C        C  507   3.746   4.478   2.521
    1C        C  508   3.534   4.516   2.641
    1C        C  509   3.606   4.517   2.763
    1C        C  510   3.398   4.524   2.888
    1C        C  511   3.539   4.523   2.887
    1C        C  512   3.321   4.521   3.006
    1C        C  513   3.394   4.527   3.126
    1C        C  514   3.193   4.495   3.257
    1C        C  515   3.331   4.524   3.253
    1C        C  516   3.123   4.469   3.377
    1C        C  517   3.191   4.496   3.498
    1C        C  518   3.001   4.412   3.626
    1C        C  519   3.127   4.477   3.622
    1C        C  520   2.944   4.373   3.748
    1C        C  521   2.999   4.414   3.872
    1C        C  522   2.836   4.284   3.996
    1C        C  523   2.943   4.376   3.996
    1C        C  524   2.788   4.237   4.120
    1C        C  525   2.835   4.291   4.242
    1C        C  526   2.696   4.132   4.366
    1C        C  527   2.782   4.244   4.364
    1C        C  528   2.654   4.076   4.489
    1C        C  529   2.686   4.146   4.607
    1C        C  530   2.582   3.962   4.733
    1C        C  531   2.635   4.093   4.727
    1C        C  532   2.541   3.901   4.854
    1C        C  533   2.537   3.994   4.963
    1C        C  534   3.618   4.561   2.039
    1C        C  535   3.750   4.513   2.040
    1C        C  536   3.538   4.536   2.155
    1C        C  537   3.605   4.509   2.278
    1C        C  538   3.394   4.520   2.399
    1C        C  539   3.535   4.517   2.400
    1C        C  540   3.323   4.517   2.521
    1C        C  541   3.392   4.514   2.643
    1C        C  542   3.188   4.477   2.764
    1C        C  543   3.326   4.507   2.768
    1C        C  544   3.123   4.461   2.888
    1C        C  545   3.183   4.488   3.013
    1C        C  546   2.996   4.401   3.134
    1C        C  547   3.121   4.468   3.138
    1C        C  548   2.941   4.364   3.258
    1C        C  549   2.996   4.407   3.381
    1C        C  550   2.829   4.284   3.507
    1C        C  551   2.937   4.374   3.505
    1C        C  552   2.777   4.235   3.629
    1C        C  553   2.832   4.286   3.749
    1C        C  554   2.701   4.123   3.878
    1C        C  555   2.789   4.233   3.872
    1C        C  556   2.666   4.061   4.000
    1C        C  557   2.703   4.125   4.121
    1C        C  558   2.598   3.943   4.247
    1C        C  559   2.659   4.070   4.244
    1C        C  560   2.569   3.880   4.370
    1C        C  561   2.595   3.948   4.491
    1C        C  562   2.531   3.749   4.616
    1C        C  563   2.569   3.885   4.615
    1C        C  564   2.513   3.681   4.739
    1C        C  565   2.521   3.759   4.858
    1C        C  566   2.525   3.546   4.979
    1C        C  567   2.523   3.685   4.977
    1C        C  568   3.328   4.480   2.041
    1C        C  569   3.397   4.517   2.156
    1C        C  570   3.184   4.478   2.281
    1C        C  571   3.322   4.511   2.277
    1C        C  572   3.116   4.455   2.403
    1C        C  573   3.185   4.484   2.523
    1C        C  574   2.989   4.399   2.648
    1C        C  575   3.116   4.462   2.644
    1C        C  576   2.931   4.362   2.771
    1C        C  577   2.997   4.397   2.891
    1C        C  578   2.826   4.272   3.015
    1C        C  579   2.938   4.358   3.012
    1C        C  580   2.780   4.223   3.139
    1C        C  581   2.831   4.276   3.260
    1C        C  582   2.701   4.115   3.384
    1C        C  583   2.787   4.227   3.385
    1C        C  584   2.661   4.058   3.508
    1C        C  585   2.695   4.120   3.630
    1C        C  586   2.598   3.939   3.755
    1C        C  587   2.658   4.067   3.755
    1C        C  588   2.572   3.874   3.878
    1C        C  589   2.603   3.935   4.001
    1C        C  590   2.539   3.738   4.128
    1C        C  591   2.573   3.875   4.126
    1C        C  592   2.527   3.671   4.252
    1C        C  593   2.534   3.743   4.373
    1C        C  594   2.517   3.533   4.500
    1C        C  595   2.525   3.674   4.496
    1C        C  596   2.514   3.463   4.623
    1C        C  597   2.511   3.539   4.742
    1C        C  598   2.536   3.327   4.865
    1C        C  599   2.521   3.468   4.863
    1C        C  600   2.524   3.245   4.978
    1C        C  601   3.196   4.439   2.044
    1C        C  602   2.984   4.392   2.160
    1C        C  603   3.118   4.440   2.161
    1C        C  604   2.925   4.355   2.284
    1C        C  605   2.988   4.395   2.404
    1C        C  606   2.817   4.273   2.528
    1C        C  607   2.925   4.364   2.527
    1C        C  608   2.773   4.217   2.650
    1C        C  609   2.823   4.270   2.771
    1C        C  610   2.685   4.112   2.895
    1C        C  611   2.773   4.222   2.894
    1C        C  612   2.650   4.054   3.019
    1C        C  613   2.691   4.112   3.141
    1C        C  614   2.591   3.928   3.267
    1C        C  615   2.655   4.054   3.265
    1C        C  616   2.567   3.867   3.392
    1C        C  617   2.594   3.935   3.513
    1C        C  618   2.537   3.731   3.638
    1C        C  619   2.569   3.868   3.636
    1C        C  620   2.520   3.665   3.762
    1C        C  621   2.531   3.739   3.882
    1C        C  622   2.513   3.529   4.010
    1C        C  623   2.525   3.670   4.006
    1C        C  624   2.514   3.457   4.132
    1C        C  625   2.515   3.530   4.253
    1C        C  626   2.542   3.324   4.378
    1C        C  627   2.519   3.463   4.377
    1C        C  628   2.561   3.256   4.501
    1C        C  629   2.538   3.324   4.623
    1C        C  630   2.592   3.118   4.746
    1C        C  631   2.548   3.254   4.745
    1C        C  632   2.616   3.049   4.868
    1C        C  633   2.562   3.111   4.985
    1C        C  634   2.781   4.301   2.054
    1C        C  635   2.890   4.388   2.052
    1C        C  636   2.743   4.232   2.170
    1C        C  637   2.807   4.276   2.288
    1C        C  638   2.675   4.110   2.412
    1C        C  639   2.759   4.224   2.410
    1C        C  640   2.641   4.045   2.533
    1C        C  641   2.685   4.106   2.653
    1C        C  642   2.588   3.919   2.779
    1C        C  643   2.648   4.047   2.775
    1C        C  644   2.564   3.853   2.902
    1C        C  645   2.589   3.927   3.019
    1C        C  646   2.534   3.726   3.151
    1C        C  647   2.566   3.864   3.144
    1C        C  648   2.515   3.655   3.271
    1C        C  649   2.530   3.731   3.389
    1C        C  650   2.511   3.524   3.519
    1C        C  651   2.522   3.665   3.514
    1C        C  652   2.517   3.453   3.642
    1C        C  653   2.517   3.524   3.764
    1C        C  654   2.539   3.318   3.889
    1C        C  655   2.517   3.458   3.888
    1C        C  656   2.553   3.251   4.012
    1C        C  657   2.537   3.318   4.136
    1C        C  658   2.611   3.121   4.258
    1C        C  659   2.556   3.251   4.258
    1C        C  660   2.637   3.058   4.382
    1C        C  661   2.606   3.122   4.504
    1C        C  662   2.708   2.937   4.625
    1C        C  663   2.627   3.053   4.626
    1C        C  664   2.750   2.878   4.746
    1C        C  665   2.700   2.933   4.868
    1C        C  666   2.745   2.869   4.984
    1C        C  667   2.689   4.021   2.060
    1C        C  668   2.677   4.107   2.170
    1C        C  669   2.591   3.912   2.293
    1C        C  670   2.638   4.046   2.291
    1C        C  671   2.556   3.849   2.414
    1C        C  672   2.575   3.921   2.535
    1C        C  673   2.515   3.719   2.659
    1C        C  674   2.554   3.855   2.658
    1C        C  675   2.510   3.650   2.782
    1C        C  676   2.528   3.716   2.906
    1C        C  677   2.508   3.511   3.028
    1C        C  678   2.518   3.652   3.031
    1C        C  679   2.512   3.446   3.153
    1C        C  680   2.505   3.514   3.276
    1C        C  681   2.529   3.308   3.401
    1C        C  682   2.506   3.447   3.401
    1C        C  683   2.548   3.244   3.525
    1C        C  684   2.531   3.313   3.648
    1C        C  685   2.610   3.115   3.771
    1C        C  686   2.556   3.245   3.769
    1C        C  687   2.640   3.051   3.894
    1C        C  688   2.604   3.119   4.013
    1C        C  689   2.712   2.937   4.141
    1C        C  690   2.641   3.058   4.135
    1C        C  691   2.755   2.877   4.261
    1C        C  692   2.712   2.939   4.381
    1C        C  693   2.755   2.883   4.504
    1C        C  694   2.634   3.892   2.060
    1C        C  695   2.530   3.703   2.178
    1C        C  696   2.578   3.835   2.175
    1C        C  697   2.502   3.639   2.300
    1C        C  698   2.523   3.712   2.419
    1C        C  699   2.493   3.502   2.544
    1C        C  700   2.505   3.643   2.541
    1C        C  701   2.500   3.434   2.668
    1C        C  702   2.503   3.509   2.787
    1C        C  703   2.526   3.297   2.914
    1C        C  704   2.505   3.437   2.908
    1C        C  705   2.544   3.230   3.037
    1C        C  706   2.533   3.306   3.155
    1C        C  707   2.604   3.109   3.280
    1C        C  708   2.550   3.240   3.279
    1C        C  709   2.637   3.048   3.403
    1C        C  710   2.605   3.114   3.523
    1C        C  711   2.712   2.934   3.646
    1C        C  712   2.638   3.054   3.647
    1C        C  713   2.757   2.878   3.768
    1C        C  714   2.715   2.932   3.891
    1C        C  715   2.755   2.882   4.018
    1C        C  716   2.449   3.500   2.066
    1C        C  717   2.494   3.632   2.062
    1C        C  718   2.469   3.421   2.184
    1C        C  719   2.483   3.498   2.302
    1C        C  720   2.519   3.289   2.426
    1C        C  721   2.488   3.427   2.425
    1C        C  722   2.536   3.221   2.549
    1C        C  723   2.523   3.294   2.669
    1C        C  724   2.592   3.095   2.790
    1C        C  725   2.546   3.228   2.792
    1C        C  726   2.623   3.033   2.913
    1C        C  727   2.595   3.098   3.035
    1C        C  728   2.703   2.919   3.157
    1C        C  729   2.629   3.040   3.159
    1C        C  730   2.749   2.872   3.282
    1C        C  731   2.712   2.928   3.406
    1C        C  732   2.761   2.875   3.528
    1C        C  733   2.487   3.196   2.074
    1C        C  734   2.485   3.279   2.187
    1C        C  735   2.584   3.084   2.307
    1C        C  736   2.524   3.213   2.307
    1C        C  737   2.616   3.020   2.428
    1C        C  738   2.588   3.090   2.548
    1C        C  739   2.703   2.911   2.672
    1C        C  740   2.627   3.030   2.669
    1C        C  741   2.747   2.857   2.794
    1C        C  742   2.702   2.915   2.915
    1C        C  743   2.746   2.859   3.037
    1C        C  744   2.542   3.069   2.076
    1C        C  745   2.684   2.894   2.186
    1C        C  746   2.607   3.013   2.187
    1C        C  747   2.726   2.833   2.305
    1C        C  748   2.690   2.900   2.424
    1C        C  749   2.737   2.852   2.548
    1C        C  750   2.739   2.840   2.069
    1C        C  751   3.653   2.295   2.002
    1C        O  752   3.676   2.183   2.056
    1C        O  753   3.612   2.278   1.869
    1C        C  754   4.604   3.056   1.955
    1C        O  755   4.538   3.052   1.848
    1C        O  756   4.741   3.068   1.932
    1C        C  757   4.458   4.221   1.977
    1C        O  758   4.511   4.327   2.018
    1C        O  759   4.449   4.220   1.838
    1C        C  760   3.591   4.678   1.953
    1C        O  761   3.580   4.794   2.002
    1C        O  762   3.540   4.656   1.824
    1C        C  763   2.880   4.494   1.949
    1C        O  764   2.922   4.472   1.832
    1C        O  765   2.776   4.588   1.951
    1C        C  766   2.322   3.484   1.990
    1C        O  767   2.316   3.432   1.876
    1C        O  768   2.196   3.483   2.051
    1C        C  769   4.697   3.586   5.054
    1C        O  770   4.692   3.623   5.174
    1C        O  771   4.831   3.568   5.016
    1C        C  772   4.267   4.436   5.055
    1C        O  773   4.234   4.418   5.175
    1C        O  774   4.342   4.554   5.046
    1C        C  775   4.152   2.513   5.061
    1C        O  776   4.257   2.471   5.005
    1C        O  777   4.134   2.481   5.196
    1C        C  778   2.912   4.507   5.088
    1C        O  779   2.927   4.632   5.091
    1C        O  780   2.932   4.439   5.209
    1C        C  781   2.515   3.060   5.116
    1C        O  782   2.404   3.003   5.130
    1C        O  783   2.597   3.037   5.226
    1C        C  784   2.416   3.994   5.048
    1C        O  785   2.316   4.057   5.005
    1C        O  786   2.428   4.015   5.186
    1C        C  787   2.952   2.436   1.991
    1C        O  788   2.949   2.479   1.872
    1C        O  789   2.891   2.313   2.013
    1C        C  790   3.172   2.365   5.053
    1C        O  791   3.136   2.262   4.991
    1C        O  792   3.166   2.363   5.193
    1C        H  793   4.257   3.038   5.044
    1C        H  794   4.229   2.790   5.072
    1C        H  795   4.461   3.141   5.071
    1C        H  796   4.497   3.377   5.062
    1C        H  797   4.574   3.822   5.038
    1C        H  798   4.397   3.963   5.054
    1C        H  799   4.349   4.200   5.038
    1C        H  800   4.015   4.513   5.038
    1C        H  801   3.814   4.564   5.041
    1C        H  802   3.581   4.629   5.035
    1C        H  803   3.392   4.513   5.049
    1C        H  804   3.175   4.415   5.033
    1C        H  805   3.880   2.541   5.073
    1C        H  806   3.679   2.468   5.074
    1C        H  807   3.013   2.579   5.071
    1C        H  808   3.439   2.467   5.075
    1C        H  809   2.862   2.726   5.077
    1C        H  810   2.668   2.840   5.053
    1C        H  811   2.451   3.279   5.049
    1C        H  812   2.488   3.501   5.069
    1C        H  813   2.490   3.735   5.065
    1C        H  814   2.597   4.180   5.047
    1C        H  815   2.740   4.336   5.046
    1C        H  816   2.697   2.869   1.975
    1C        H  817   2.819   2.671   1.975
    1C        H  818   3.213   2.430   1.993
    1C        H  819   3.431   2.429   1.977
    1C        H  820   3.829   2.567   1.983
    1C        H  821   4.057   2.630   1.969
    1C        H  822   4.274   2.702   1.989
    1C        H  823   4.355   2.944   1.975
    1C        H  824   4.593   3.306   1.970
    1C        H  825   4.522   3.519   1.957
    1C        H  826   4.529   3.753   1.959
    1C        H  827   3.818   4.545   1.964
    1C        H  828   3.942   4.345   1.955
    1C        H  829   4.147   4.228   1.955
    1C        H  830   4.490   3.967   1.961
    1C        H  831   2.694   3.828   1.998
    1C        H  832   2.774   4.040   1.998
    1C        H  833   2.704   4.328   1.985
    1C        H  834   3.371   4.496   1.944
    1C        H  835   3.152   4.414   1.950
    1C        H  836   2.513   3.008   1.993
    1C        H  837   2.435   3.219   1.983
    1C        H  838   2.492   3.687   1.970
    2V3OU   H29  839   2.797   3.543   0.703
    2V3OU   C27  840   2.779   3.503   0.806
    2V3OU   H27  841   2.722   3.574   0.872
    2V3OU   H28  842   2.727   3.405   0.788
    2V3OU   O11  843   2.907   3.479   0.863
    2V3OU   C15  844   2.921   3.401   0.977
    2V3OU   C13  845   3.054   3.382   1.018
    2V3OU   C14  846   3.082   3.273   1.102
    2V3OU   C16  847   2.975   3.193   1.140
    2V3OU    H6  848   2.996   3.103   1.199
    2V3OU   C12  849   3.221   3.236   1.136
    2V3OU    O2  850   3.240   3.127   1.193
    2V3OU   C10  851   3.326   3.308   1.063
    2V3OU    C8  852   3.460   3.272   1.077
    2V3OU   O10  853   3.488   3.151   1.132
    2V3OU   H26  854   3.401   3.116   1.154
    2V3OU    C6  855   3.569   3.347   1.023
    2V3OU    C5  856   3.540   3.465   0.954
    2V3OU    C4  857   3.707   3.293   1.013
    2V3OU    H4  858   3.734   3.237   1.107
    2V3OU    H5  859   3.712   3.227   0.921
    2V3OU    C2  860   3.817   3.399   1.008
    2V3OU    O6  861   3.803   3.473   1.130
    2V3OU   H21  862   3.768   3.556   1.093
    2V3OU    C3  863   3.785   3.498   0.895
    2V3OU    H2  864   3.868   3.573   0.890
    2V3OU    H3  865   3.783   3.441   0.799
    2V3OU   C25  866   3.952   3.330   0.996
    2V3OU    O7  867   4.000   3.291   0.890
    2V3OU   C26  868   4.031   3.291   1.121
    2V3OU   H22  869   4.057   3.386   1.174
    2V3OU   H23  870   4.121   3.231   1.091
    2V3OU    O8  871   3.960   3.211   1.212
    2V3OU   H24  872   3.926   3.268   1.282
    2V3OU    C1  873   3.647   3.561   0.909
    2V3OU    H1  874   3.629   3.617   0.813
    2V3OU    O3  875   3.659   3.659   1.012
    2V3OU   C19  876   3.617   3.795   0.995
    2V3OU    H9  877   3.516   3.793   0.944
    2V3OU    O4  878   3.711   3.855   0.909
    2V3OU   C20  879   3.845   3.873   0.956
    2V3OU   H10  880   3.894   3.771   0.968
    2V3OU   C24  881   3.612   3.856   1.135
    2V3OU   H16  882   3.543   3.796   1.199
    2V3OU   H17  883   3.562   3.954   1.114
    2V3OU   C23  884   3.753   3.875   1.193
    2V3OU   H15  885   3.797   3.771   1.206
    2V3OU    N1  886   3.741   3.951   1.316
    2V3OU   H19  887   3.811   3.923   1.382
    2V3OU   H20  888   3.651   3.935   1.358
    2V3OU   C21  889   3.845   3.947   1.090
    2V3OU   H11  890   3.948   3.932   1.133
    2V3OU    O5  891   3.828   4.088   1.090
    2V3OU   H18  892   3.782   4.102   1.175
    2V3OU   C22  893   3.912   3.948   0.842
    2V3OU   H12  894   3.864   4.048   0.831
    2V3OU   H13  895   3.902   3.890   0.747
    2V3OU   H14  896   4.022   3.960   0.863
    2V3OU   C11  897   3.159   3.473   0.970
    2V3OU    O1  898   3.139   3.588   0.924
    2V3OU    C9  899   3.297   3.421   0.982
    2V3OU    C7  900   3.403   3.495   0.929
    2V3OU    O9  901   3.391   3.619   0.870
    2V3OU   H25  902   3.295   3.633   0.870
    2V3OU   C17  903   2.816   3.321   1.026
    2V3OU    H7  904   2.714   3.339   0.993
    2V3OU   C18  905   2.840   3.214   1.113
    2V3OU    H8  906   2.764   3.141   1.143
    3SOL     OW  907   0.730   4.474   1.214
    3SOL    HW1  908   0.679   4.436   1.292
    3SOL    HW2  909   0.721   4.413   1.136
    4SOL     OW  910   6.175   1.943   2.671
    4SOL    HW1  911   6.195   2.004   2.595
    4SOL    HW2  912   6.260   1.903   2.706
    5SOL     OW  913   4.346   3.194   0.359
    5SOL    HW1  914   4.336   3.095   0.368
    5SOL    HW2  915   4.320   3.222   0.267
    6SOL     OW  916   3.374   2.701   0.451
    6SOL    HW1  917   3.345   2.759   0.376
    6SOL    HW2  918   3.294   2.656   0.491
    7SOL     OW  919   5.706   0.964   1.707
    7SOL    HW1  920   5.740   0.945   1.615
    7SOL    HW2  921   5.708   0.879   1.761
    8SOL     OW  922   3.015   2.201   3.089
    8SOL    HW1  923   3.026   2.160   3.179
    8SOL    HW2  924   3.082   2.161   3.026
    9SOL     OW  925   6.509   4.260   6.476
    9SOL    HW1  926   6.523   4.338   6.537
    9SOL    HW2  927   6.414   4.257   6.446
   10SOL     OW  928   6.613   3.997   1.667
   10SOL    HW1  929   6.609   4.090   1.630
   10SOL    HW2  930   6.672   3.941   1.609
   11SOL     OW  931   3.901   6.698   0.826
   11SOL    HW1  932   3.917   6.708   0.728
   11SOL    HW2  933   3.806   6.673   0.841
   12SOL     OW  934   5.461   6.658   2.180
   12SOL    HW1  935   5.500   6.727   2.119
   12SOL    HW2  936   5.487   6.679   2.275
   13SOL     OW  937   2.232   6.539   2.064
   13SOL    HW1  938   2.279   6.475   2.003
   13SOL    HW2  939   2.210   6.623   2.014
   14SOL     OW  940   2.775   0.351   3.110
   14SOL    HW1  941   2.678   0.326   3.110
   14SOL    HW2  942   2.822   0.306   3.186
   15SOL     OW  943   2.572   6.948   6.429
   15SOL    HW1  944   2.629   6.906   6.359
   15SOL    HW2  945   2.537   6.877   6.490
   16SOL     OW  946   6.298   1.628   0.374
   16SOL    HW1  947   6.359   1.707   0.366
   16SOL    HW2  948   6.277   1.594   0.282
   17SOL     OW  949   4.080   5.426   4.011
   17SOL    HW1  950   4.140   5.431   4.091
   17SOL    HW2  951   4.034   5.514   3.998
   18SOL     OW  952   1.172   0.131   6.923
   18SOL    HW1  953   1.136   0.054   6.975
   18SOL    HW2  954   1.105   0.160   6.855
   19SOL     OW  955   0.792   6.983   0.916
   19SOL    HW1  956   0.797   0.059   0.919
   19SOL    HW2  957   0.705   6.953   0.956
   20SOL     OW  958   3.468   0.107   4.540
   20SOL    HW1  959   3.516   0.089   4.627
   20SOL    HW2  960   3.423   0.196   4.545
   21SOL     OW  961   2.761   2.997   1.404
   21SOL    HW1  962   2.751   3.097   1.400
   21SOL    HW2  963   2.773   2.968   1.498
   22SOL     OW  964   1.953   1.074   5.230
   22SOL    HW1  965   1.933   1.015   5.309
   22SOL    HW2  966   1.952   1.020   5.146
   23SOL     OW  967   2.811   6.645   4.399
   23SOL    HW1  968   2.723   6.605   4.426
   23SOL    HW2  969   2.813   6.654   4.299
   24SOL     OW  970   4.924   1.495   5.227
   24SOL    HW1  971   4.846   1.480   5.166
   24SOL    HW2  972   5.007   1.462   5.183
   25SOL     OW  973   2.734   5.977   0.692
   25SOL    HW1  974   2.681   5.902   0.732
   25SOL    HW2  975   2.779   6.028   0.765
   26SOL     OW  976   5.983   0.853   3.066
   26SOL    HW1  977   5.945   0.859   3.158
   26SOL    HW2  978   6.066   0.797   3.067
   27SOL     OW  979   5.945   6.854   2.320
   27SOL    HW1  980   5.968   6.903   2.236
   27SOL    HW2  981   5.915   6.919   2.390
   28SOL     OW  982   2.468   1.109   0.296
   28SOL    HW1  983   2.542   1.136   0.234
   28SOL    HW2  984   2.457   1.009   0.294
   29SOL     OW  985   4.903   3.276   1.933
   29SOL    HW1  986   4.854   3.191   1.950
   29SOL    HW2  987   4.980   3.260   1.871
   30SOL     OW  988   4.039   1.128   0.076
   30SOL    HW1  989   3.956   1.134   0.021
   30SOL    HW2  990   4.094   1.049   0.046
   31SOL     OW  991   1.268   1.814   5.105
   31SOL    HW1  992   1.362   1.798   5.135
   31SOL    HW2  993   1.269   1.870   5.022
   32SOL     OW  994   6.244   1.657   2.425
   32SOL    HW1  995   6.258   1.596   2.347
   32SOL    HW2  996   6.322   1.718   2.435
   33SOL     OW  997   1.441   1.144   4.778
   33SOL    HW1  998   1.476   1.203   4.705
   33SOL    HW2  999   1.471   1.050   4.762
   34SOL     OW 1000   0.877   1.186   4.565
   34SOL    HW1 1001   0.942   1.248   4.609
   34SOL    HW2 1002   0.859   1.109   4.625
   35SOL     OW 1003   4.614   2.160   6.423
   35SOL    HW1 1004   4.554   2.209   6.359
   35SOL    HW2 1005   4.643   2.074   6.383
   36SOL     OW 1006   1.186   2.785   6.745
   36SOL    HW1 1007   1.228   2.707   6.697
   36SOL    HW2 1008   1.197   2.867   6.690
   37SOL     OW 1009   3.634   6.640   1.911
   37SOL    HW1 1010   3.652   6.736   1.894
   37SOL    HW2 1011   3.623   6.625   2.009
   38SOL     OW 1012   6.488   5.336   1.269
   38SOL    HW1 1013   6.506   5.259   1.330
   38SOL    HW2 1014   6.398   5.325   1.226
   39SOL     OW 1015   0.091   2.610   6.489
   39SOL    HW1 1016   0.014   2.640   6.545
   39SOL    HW2 1017   0.154   2.686   6.475
   40SOL     OW 1018   6.956   1.898   1.822
   40SOL    HW1 1019   6.896   1.907   1.902
   40SOL    HW2 1020   7.020   1.822   1.838
   41SOL     OW 1021   0.656   1.663   6.339
   41SOL    HW1 1022   0.733   1.599   6.334
   41SOL    HW2 1023   0.689   1.751   6.372
   42SOL     OW 1024   4.364   6.562   0.446
   42SOL    HW1 1025   4.284   6.602   0.401
   42SOL    HW2 1026   4.336   6.522   0.533
   43SOL     OW 1027   4.441   5.136   5.788
   43SOL    HW1 1028   4.448   5.122   5.887
   43SOL    HW2 1029   4.346   5.153   5.764
   44SOL     OW 1030   1.170   4.928   6.956
   44SOL    HW1 1031   1.267   4.907   6.948
   44SOL    HW2 1032   1.152   4.972   0.020
   45SOL     OW 1033   2.530   7.014   0.553
   45SOL    HW1 1034   2.434   6.987   0.547
   45SOL    HW2 1035   2.584   6.958   0.490
   46SOL     OW 1036   0.558   5.426   4.272
   46SOL    HW1 1037   0.506   5.347   4.239
   46SOL    HW2 1038   0.651   5.397   4.295
   47SOL     OW 1039   6.757   4.292   2.748
   47SOL    HW1 1040   6.778   4.370   2.689
   47SOL    HW2 1041   6.783   4.207   2.701
   48SOL     OW 1042   0.819   1.923   5.337
   48SOL    HW1 1043   0.815   2.022   5.325
   48SOL    HW2 1044   0.835   1.901   5.434
   49SOL     OW 1045   5.579   3.520   6.775
   49SOL    HW1 1046   5.626   3.532   6.688
   49SOL    HW2 1047   5.484   3.493   6.757
   50SOL     OW 1048   0.819   3.982   4.332
   50SOL    HW1 1049   0.765   3.988   4.416
   50SOL    HW2 1050   0.916   3.970   4.355
   51SOL     OW 1051   2.223   6.405   1.452
   51SOL    HW1 1052   2.238   6.473   1.380
   51SOL    HW2 1053   2.225   6.450   1.542
   52SOL     OW 1054   0.555   2.242   2.465
   52SOL    HW1 1055   0.645   2.261   2.426
   52SOL    HW2 1056   0.518   2.159   2.424
   53SOL     OW 1057   4.746   6.809   3.803
   53SOL    HW1 1058   4.788   6.792   3.892
   53SOL    HW2 1059   4.752   6.906   3.781
   54SOL     OW 1060   4.704   4.276   5.603
   54SOL    HW1 1061   4.606   4.269   5.583
   54SOL    HW2 1062   4.755   4.214   5.543
   55SOL     OW 1063   4.533   2.654   1.417
   55SOL    HW1 1064   4.470   2.584   1.384
   55SOL    HW2 1065   4.614   2.610   1.455
   56SOL     OW 1066   6.824   0.917   1.857
   56SOL    HW1 1067   6.838   0.845   1.926
   56SOL    HW2 1068   6.837   1.006   1.900
   57SOL     OW 1069   4.957   0.711   6.777
   57SOL    HW1 1070   5.043   0.747   6.814
   57SOL    HW2 1071   4.910   0.783   6.727
   58SOL     OW 1072   6.520   0.733   6.901
   58SOL    HW1 1073   6.454   0.674   6.947
   58SOL    HW2 1074   6.558   0.798   6.967
   59SOL     OW 1075   0.712   0.167   5.416
   59SOL    HW1 1076   0.703   0.157   5.516
   59SOL    HW2 1077   0.629   0.132   5.372
   60SOL     OW 1078   4.564   6.743   5.718
   60SOL    HW1 1079   4.644   6.772   5.666
   60SOL    HW2 1080   4.587   6.663   5.774
   61SOL     OW 1081   3.377   0.468   5.568
   61SOL    HW1 1082   3.355   0.372   5.551
   61SOL    HW2 1083   3.297   0.515   5.606
   62SOL     OW 1084   3.128   0.511   4.337
   62SOL    HW1 1085   3.187   0.577   4.290
   62SOL    HW2 1086   3.049   0.490   4.279
   63SOL     OW 1087   6.911   3.831   4.274
   63SOL    HW1 1088   7.005   3.835   4.240
   63SOL    HW2 1089   6.903   3.760   4.344
   64SOL     OW 1090   6.975   1.595   6.144
   64SOL    HW1 1091   0.016   1.669   6.127
   64SOL    HW2 1092   6.882   1.631   6.137
   65SOL     OW 1093   1.500   4.623   5.129
   65SOL    HW1 1094   1.469   4.692   5.064
   65SOL    HW2 1095   1.441   4.624   5.210
   66SOL     OW 1096   2.889   0.961   1.079
   66SOL    HW1 1097   2.791   0.967   1.096
   66SOL    HW2 1098   2.908   0.881   1.022
   67SOL     OW 1099   4.564   5.223   4.335
   67SOL    HW1 1100   4.497   5.215   4.408
   67SOL    HW2 1101   4.626   5.144   4.337
   68SOL     OW 1102   5.274   2.571   6.884
   68SOL    HW1 1103   5.313   2.622   6.961
   68SOL    HW2 1104   5.325   2.487   6.870
   69SOL     OW 1105   2.625   3.382   5.584
   69SOL    HW1 1106   2.539   3.400   5.633
   69SOL    HW2 1107   2.698   3.436   5.624
   70SOL     OW 1108   5.513   0.945   3.660
   70SOL    HW1 1109   5.580   0.893   3.713
   70SOL    HW2 1110   5.468   1.012   3.719
   71SOL     OW 1111   1.737   4.401   1.557
   71SOL    HW1 1112   1.654   4.348   1.571
   71SOL    HW2 1113   1.814   4.339   1.543
   72SOL     OW 1114   3.998   5.687   4.049
   72SOL    HW1 1115   3.978   5.747   3.971
   72SOL    HW2 1116   3.953   5.723   4.131
   73SOL     OW 1117   3.500   2.973   0.019
   73SOL    HW1 1118   3.576   2.936   6.990
   73SOL    HW2 1119   3.428   2.904   0.027
   74SOL     OW 1120   5.423   0.074   5.012
   74SOL    HW1 1121   5.497   0.090   4.947
   74SOL    HW2 1122   5.442   7.014   5.063
   75SOL     OW 1123   3.831   5.527   5.399
   75SOL    HW1 1124   3.821   5.557   5.304
   75SOL    HW2 1125   3.796   5.598   5.460
   76SOL     OW 1126   2.452   2.730   1.124
   76SOL    HW1 1127   2.411   2.810   1.080
   76SOL    HW2 1128   2.542   2.755   1.162
   77SOL     OW 1129   6.202   4.272   6.924
   77SOL    HW1 1130   6.280   4.230   6.877
   77SOL    HW2 1131   6.143   4.317   6.858
   78SOL     OW 1132   6.032   6.916   5.494
   78SOL    HW1 1133   6.016   6.993   5.432
   78SOL    HW2 1134   6.033   6.951   5.588
   79SOL     OW 1135   3.217   6.174   0.530
   79SOL    HW1 1136   3.263   6.086   0.521
   79SOL    HW2 1137   3.272   6.245   0.485
   80SOL     OW 1138   0.328   1.481   4.343
   80SOL    HW1 1139   0.362   1.573   4.323
   80SOL    HW2 1140   0.388   1.436   4.409
   81SOL     OW 1141   1.174   5.530   2.546
   81SOL    HW1 1142   1.231   5.607   2.516
   81SOL    HW2 1143   1.159   5.537   2.645
   82SOL     OW 1144   6.556   4.259   5.790
   82SOL    HW1 1145   6.617   4.281   5.714
   82SOL    HW2 1146   6.531   4.343   5.838
   83SOL     OW 1147   5.780   0.083   4.970
   83SOL    HW1 1148   5.874   0.115   4.967
   83SOL    HW2 1149   5.732   0.112   4.887
   84SOL     OW 1150   6.766   3.051   2.183
   84SOL    HW1 1151   6.819   3.004   2.112
   84SOL    HW2 1152   6.707   3.120   2.140
   85SOL     OW 1153   1.335   1.306   4.963
   85SOL    HW1 1154   1.425   1.341   4.990
   85SOL    HW2 1155   1.345   1.240   4.889
   86SOL     OW 1156   1.756   1.009   3.890
   86SOL    HW1 1157   1.771   0.922   3.842
   86SOL    HW2 1158   1.728   0.990   3.984
   87SOL     OW 1159   4.504   0.042   1.506
   87SOL    HW1 1160   4.500   0.016   1.602
   87SOL    HW2 1161   4.464   0.133   1.494
   88SOL     OW 1162   5.758   0.603   1.402
   88SOL    HW1 1163   5.836   0.559   1.358
   88SOL    HW2 1164   5.680   0.540   1.401
   89SOL     OW 1165   1.897   1.961   5.419
   89SOL    HW1 1166   1.870   2.046   5.466
   89SOL    HW2 1167   1.995   1.963   5.402
   90SOL     OW 1168   5.631   6.108   3.214
   90SOL    HW1 1169   5.542   6.084   3.253
   90SOL    HW2 1170   5.668   6.029   3.163
   91SOL     OW 1171   5.595   5.261   3.905
   91SOL    HW1 1172   5.528   5.273   3.978
   91SOL    HW2 1173   5.585   5.335   3.838
   92SOL     OW 1174   3.459   5.534   1.095
   92SOL    HW1 1175   3.513   5.606   1.138
   92SOL    HW2 1176   3.375   5.520   1.148
   93SOL     OW 1177   3.261   4.959   5.429
   93SOL    HW1 1178   3.293   4.920   5.515
   93SOL    HW2 1179   3.163   4.979   5.435
   94SOL     OW 1180   1.843   6.358   2.342
   94SOL    HW1 1181   1.934   6.325   2.368
   94SOL    HW2 1182   1.791   6.283   2.301
   95SOL     OW 1183   0.188   0.087   4.186
   95SOL    HW1 1184   0.158   0.143   4.263
   95SOL    HW2 1185   0.173   0.138   4.101
   96SOL     OW 1186   1.969   6.834   4.486
   96SOL    HW1 1187   1.881   6.845   4.532
   96SOL    HW2 1188   2.037   6.803   4.552
   97SOL     OW 1189   6.585   1.933   3.868
   97SOL    HW1 1190   6.644   1.879   3.808
   97SOL    HW2 1191   6.563   2.019   3.822
   98SOL     OW 1192   4.802   1.173   5.411
   98SOL    HW1 1193   4.814   1.216   5.321
   98SOL    HW2 1194   4.740   1.228   5.466
   99SOL     OW 1195   4.914   1.132   0.805
   99SOL    HW1 1196   4.971   1.050   0.806
   99SOL    HW2 1197   4.935   1.187   0.886
  100SOL     OW 1198   6.496   5.997   1.056
  100SOL    HW1 1199   6.396   5.994   1.052
  100SOL    HW2 1200   6.526   5.988   1.151
  101SOL     OW 1201   1.613   6.701   3.435
  101SOL    HW1 1202   1.703   6.723   3.473
  101SOL    HW2 1203   1.556   6.782   3.435
  102SOL     OW 1204   4.784   0.699   2.112
  102SOL    HW1 1205   4.793   0.615   2.165
  102SOL    HW2 1206   4.876   0.731   2.086
  103SOL     OW 1207   4.813   1.082   2.910
  103SOL    HW1 1208   4.807   0.989   2.873
  103SOL    HW2 1209   4.844   1.078   3.005
  104SOL     OW 1210   6.413   6.285   2.478
  104SOL    HW1 1211   6.464   6.365   2.445
  104SOL    HW2 1212   6.380   6.232   2.400
  105SOL     OW 1213   5.751   1.185   5.666
  105SOL    HW1 1214   5.777   1.211   5.573
  105SOL    HW2 1215   5.751   1.086   5.674
  106SOL     OW 1216   4.298   6.763   0.965
  106SOL    HW1 1217   4.266   6.802   1.051
  106SOL    HW2 1218   4.230   6.700   0.929
  107SOL     OW 1219   2.543   3.782   7.007
  107SOL    HW1 1220   2.637   3.768   0.015
  107SOL    HW2 1221   2.481   3.782   0.061
  108SOL     OW 1222   4.317   4.186   5.578
  108SOL    HW1 1223   4.302   4.097   5.534
  108SOL    HW2 1224   4.229   4.226   5.603
  109SOL     OW 1225   5.785   1.012   2.502
  109SOL    HW1 1226   5.853   0.998   2.431
  109SOL    HW2 1227   5.718   0.937   2.499
  110SOL     OW 1228   3.839   6.427   3.954
  110SOL    HW1 1229   3.931   6.410   3.917
  110SOL    HW2 1230   3.842   6.507   4.015
  111SOL     OW 1231   3.363   1.393   3.230
  111SOL    HW1 1232   3.282   1.359   3.184
  111SOL    HW2 1233   3.388   1.332   3.305
  112SOL     OW 1234   0.139   1.766   0.175
  112SOL    HW1 1235   0.052   1.728   0.203
  112SOL    HW2 1236   0.180   1.817   0.251
  113SOL     OW 1237   6.919   6.814   3.410
  113SOL    HW1 1238   6.978   6.858   3.478
  113SOL    HW2 1239   6.967   6.736   3.369
  114SOL     OW 1240   1.560   6.015   0.431
  114SOL    HW1 1241   1.479   6.068   0.408
  114SOL    HW2 1242   1.619   6.008   0.350
  115SOL     OW 1243   5.250   1.050   5.678
  115SOL    HW1 1244   5.262   1.096   5.590
  115SOL    HW2 1245   5.178   0.981   5.671
  116SOL     OW 1246   6.315   3.715   2.867
  116SOL    HW1 1247   6.218   3.739   2.860
  116SOL    HW2 1248   6.343   3.718   2.963
  117SOL     OW 1249   0.495   6.641   6.226
  117SOL    HW1 1250   0.546   6.562   6.193
  117SOL    HW2 1251   0.399   6.632   6.199
  118SOL     OW 1252   3.001   1.538   3.619
  118SOL    HW1 1253   2.968   1.497   3.534
  118SOL    HW2 1254   3.074   1.603   3.598
  119SOL     OW 1255   0.010   2.638   6.938
  119SOL    HW1 1256   6.937   2.636   6.915
  119SOL    HW2 1257   0.026   2.707   7.008
  120SOL     OW 1258   4.199   5.965   1.839
  120SOL    HW1 1259   4.140   6.009   1.772
  120SOL    HW2 1260   4.295   5.987   1.819
  121SOL     OW 1261   2.921   2.753   6.499
  121SOL    HW1 1262   2.886   2.691   6.569
  121SOL    HW2 1263   2.985   2.818   6.541
  122SOL     OW 1264   1.415   3.634   4.552
  122SOL    HW1 1265   1.475   3.713   4.555
  122SOL    HW2 1266   1.417   3.593   4.461
  123SOL     OW 1267   6.500   1.955   2.139
  123SOL    HW1 1268   6.401   1.943   2.147
  123SOL    HW2 1269   6.533   2.014   2.212
  124SOL     OW 1270   4.969   3.743   1.783
  124SOL    HW1 1271   4.904   3.668   1.795
  124SOL    HW2 1272   4.952   3.787   1.695
  125SOL     OW 1273   2.342   3.129   1.402
  125SOL    HW1 1274   2.396   3.077   1.467
  125SOL    HW2 1275   2.246   3.125   1.427
  126SOL     OW 1276   3.956   4.954   0.495
  126SOL    HW1 1277   3.974   4.993   0.405
  126SOL    HW2 1278   4.012   4.871   0.508
  127SOL     OW 1279   0.175   5.952   6.421
  127SOL    HW1 1280   0.098   5.888   6.408
  127SOL    HW2 1281   0.168   6.026   6.354
  128SOL     OW 1282   5.159   1.933   7.021
  128SOL    HW1 1283   5.122   1.902   6.933
  128SOL    HW2 1284   5.253   1.900   0.007
  129SOL     OW 1285   2.361   3.888   6.751
  129SOL    HW1 1286   2.323   3.944   6.678
  129SOL    HW2 1287   2.288   3.840   6.799
  130SOL     OW 1288   1.251   1.854   4.696
  130SOL    HW1 1289   1.326   1.812   4.644
  130SOL    HW2 1290   1.164   1.811   4.670
  131SOL     OW 1291   6.113   1.406   2.598
  131SOL    HW1 1292   6.153   1.497   2.591
  131SOL    HW2 1293   6.186   1.338   2.592
  132SOL     OW 1294   0.850   1.371   2.592
  132SOL    HW1 1295   0.868   1.274   2.574
  132SOL    HW2 1296   0.847   1.387   2.690
  133SOL     OW 1297   0.115   5.907   2.881
  133SOL    HW1 1298   0.049   5.842   2.919
  133SOL    HW2 1299   0.093   5.999   2.911
  134SOL     OW 1300   1.097   3.696   2.966
  134SOL    HW1 1301   1.035   3.663   2.895
  134SOL    HW2 1302   1.137   3.618   3.015
  135SOL     OW 1303   4.914   0.648   4.545
  135SOL    HW1 1304   4.875   0.556   4.552
  135SOL    HW2 1305   4.986   0.649   4.476
  136SOL     OW 1306   4.973   5.640   5.953
  136SOL    HW1 1307   4.982   5.727   6.001
  136SOL    HW2 1308   4.979   5.565   6.019
  137SOL     OW 1309   4.112   1.272   5.706
  137SOL    HW1 1310   4.088   1.234   5.795
  137SOL    HW2 1311   4.029   1.303   5.660
  138SOL     OW 1312   5.452   4.913   5.508
  138SOL    HW1 1313   5.448   4.982   5.436
  138SOL    HW2 1314   5.545   4.878   5.517
  139SOL     OW 1315   3.637   5.289   5.067
  139SOL    HW1 1316   3.720   5.280   5.011
  139SOL    HW2 1317   3.654   5.253   5.159
  140SOL     OW 1318   6.557   4.073   4.305
  140SOL    HW1 1319   6.512   3.986   4.328
  140SOL    HW2 1320   6.494   4.148   4.322
  141SOL     OW 1321   1.741   2.280   2.845
  141SOL    HW1 1322   1.840   2.276   2.830
  141SOL    HW2 1323   1.714   2.375   2.863
  142SOL     OW 1324   1.200   4.701   0.743
  142SOL    HW1 1325   1.285   4.689   0.795
  142SOL    HW2 1326   1.171   4.796   0.747
  143SOL     OW 1327   5.403   4.889   1.917
  143SOL    HW1 1328   5.338   4.963   1.901
  143SOL    HW2 1329   5.496   4.922   1.896
  144SOL     OW 1330   3.288   6.683   0.470
  144SOL    HW1 1331   3.324   6.719   0.384
  144SOL    HW2 1332   3.228   6.606   0.452
  145SOL     OW 1333   6.224   6.058   1.000
  145SOL    HW1 1334   6.253   6.126   1.068
  145SOL    HW2 1335   6.139   6.015   1.031
  146SOL     OW 1336   0.383   4.298   0.752
  146SOL    HW1 1337   0.305   4.263   0.804
  146SOL    HW2 1338   0.411   4.230   0.684
  147SOL     OW 1339   5.998   2.697   1.145
  147SOL    HW1 1340   5.932   2.701   1.071
  147SOL    HW2 1341   6.085   2.660   1.111
  148SOL     OW 1342   0.769   5.542   5.212
  148SOL    HW1 1343   0.692   5.602   5.233
  148SOL    HW2 1344   0.792   5.488   5.292
  149SOL     OW 1345   3.020   1.113   0.039
  149SOL    HW1 1346   3.105   1.160   0.066
  149SOL    HW2 1347   2.953   1.119   0.113
  150SOL     OW 1348   6.388   5.755   5.399
  150SOL    HW1 1349   6.315   5.775   5.334
  150SOL    HW2 1350   6.403   5.835   5.457
  151SOL     OW 1351   5.087   0.563   1.932
  151SOL    HW1 1352   5.097   0.658   1.960
  151SOL    HW2 1353   5.118   0.552   1.837
  152SOL     OW 1354   3.080   0.844   4.254
  152SOL    HW1 1355   3.174   0.872   4.271
  152SOL    HW2 1356   3.077   0.783   4.174
  153SOL     OW 1357   0.821   0.206   2.584
  153SOL    HW1 1358   0.738   0.262   2.590
  153SOL    HW2 1359   0.900   0.260   2.611
  154SOL     OW 1360   0.659   1.133   2.772
  154SOL    HW1 1361   0.566   1.096   2.764
  154SOL    HW2 1362   0.708   1.118   2.686
  155SOL     OW 1363   1.508   1.436   3.601
  155SOL    HW1 1364   1.554   1.399   3.682
  155SOL    HW2 1365   1.441   1.505   3.630
  156SOL     OW 1366   6.730   2.177   1.288
  156SOL    HW1 1367   6.739   2.217   1.197
  156SOL    HW2 1368   6.753   2.080   1.285
  157SOL     OW 1369   0.722   2.403   3.095
  157SOL    HW1 1370   0.653   2.423   3.026
  157SOL    HW2 1371   0.702   2.453   3.179
  158SOL     OW 1372   2.193   1.127   3.138
  158SOL    HW1 1373   2.129   1.125   3.216
  158SOL    HW2 1374   2.285   1.150   3.171
  159SOL     OW 1375   4.908   4.055   1.084
  159SOL    HW1 1376   4.825   4.010   1.117
  159SOL    HW2 1377   4.919   4.037   0.986
  160SOL     OW 1378   6.764   4.725   6.490
  160SOL    HW1 1379   6.788   4.642   6.440
  160SOL    HW2 1380   6.665   4.731   6.499
  161SOL     OW 1381   2.669   4.724   5.047
  161SOL    HW1 1382   2.755   4.688   5.083
  161SOL    HW2 1383   2.621   4.776   5.117
  162SOL     OW 1384   4.413   6.146   2.550
  162SOL    HW1 1385   4.482   6.210   2.516
  162SOL    HW2 1386   4.448   6.098   2.630
  163SOL     OW 1387   6.043   6.745   1.351
  163SOL    HW1 1388   5.957   6.699   1.327
  163SOL    HW2 1389   6.023   6.825   1.407
  164SOL     OW 1390   6.242   3.229   2.117
  164SOL    HW1 1391   6.321   3.270   2.072
  164SOL    HW2 1392   6.177   3.197   2.048
  165SOL     OW 1393   6.584   3.901   6.758
  165SOL    HW1 1394   6.633   3.922   6.843
  165SOL    HW2 1395   6.497   3.857   6.780
  166SOL     OW 1396   1.383   7.008   0.871
  166SOL    HW1 1397   1.411   6.985   0.964
  166SOL    HW2 1398   1.428   0.069   0.843
  167SOL     OW 1399   6.590   2.584   2.337
  167SOL    HW1 1400   6.492   2.602   2.325
  167SOL    HW2 1401   6.607   2.553   2.430
  168SOL     OW 1402   2.306   4.995   1.070
  168SOL    HW1 1403   2.258   4.993   1.158
  168SOL    HW2 1404   2.403   5.014   1.086
  169SOL     OW 1405   1.153   0.486   1.262
  169SOL    HW1 1406   1.236   0.493   1.207
  169SOL    HW2 1407   1.083   0.436   1.212
  170SOL     OW 1408   0.063   1.990   3.919
  170SOL    HW1 1409   0.063   1.890   3.929
  170SOL    HW2 1410   0.152   2.026   3.946
  171SOL     OW 1411   3.316   3.934   0.918
  171SOL    HW1 1412   3.309   3.975   1.009
  171SOL    HW2 1413   3.399   3.966   0.873
  172SOL     OW 1414   0.060   3.036   1.389
  172SOL    HW1 1415   7.002   2.981   1.405
  172SOL    HW2 1416   0.039   3.132   1.407
  173SOL     OW 1417   0.058   6.543   5.165
  173SOL    HW1 1418   0.024   6.462   5.117
  173SOL    HW2 1419   0.072   6.522   5.262
  174SOL     OW 1420   2.540   5.769   3.190
  174SOL    HW1 1421   2.610   5.753   3.120
  174SOL    HW2 1422   2.492   5.854   3.170
  175SOL     OW 1423   0.008   5.150   3.586
  175SOL    HW1 1424   6.974   5.215   3.635
  175SOL    HW2 1425   6.995   5.134   3.495
  176SOL     OW 1426   2.552   6.172   6.820
  176SOL    HW1 1427   2.483   6.144   6.887
  176SOL    HW2 1428   2.567   6.271   6.826
  177SOL     OW 1429   4.710   1.911   2.344
  177SOL    HW1 1430   4.668   1.823   2.321
  177SOL    HW2 1431   4.638   1.979   2.359
  178SOL     OW 1432   5.949   4.024   6.290
  178SOL    HW1 1433   6.044   3.998   6.304
  178SOL    HW2 1434   5.912   3.972   6.212
  179SOL     OW 1435   3.736   6.871   0.502
  179SOL    HW1 1436   3.676   6.932   0.553
  179SOL    HW2 1437   3.728   6.778   0.538
  180SOL     OW 1438   0.931   2.811   0.374
  180SOL    HW1 1439   1.019   2.774   0.404
  180SOL    HW2 1440   0.860   2.743   0.389
  181SOL     OW 1441   2.888   3.422   3.911
  181SOL    HW1 1442   2.984   3.446   3.894
  181SOL    HW2 1443   2.849   3.381   3.829
  182SOL     OW 1444   5.358   2.544   4.997
  182SOL    HW1 1445   5.296   2.601   5.050
  182SOL    HW2 1446   5.343   2.448   5.019
  183SOL     OW 1447   6.211   1.279   3.309
  183SOL    HW1 1448   6.129   1.300   3.256
  183SOL    HW2 1449   6.246   1.189   3.282
  184SOL     OW 1450   6.925   4.498   2.249
  184SOL    HW1 1451   6.932   4.429   2.321
  184SOL    HW2 1452   6.968   4.464   2.166
  185SOL     OW 1453   3.277   4.075   6.033
  185SOL    HW1 1454   3.266   4.026   5.946
  185SOL    HW2 1455   3.357   4.135   6.028
  186SOL     OW 1456   5.913   0.058   3.878
  186SOL    HW1 1457   5.816   0.073   3.896
  186SOL    HW2 1458   5.944   7.000   3.925
  187SOL     OW 1459   5.672   0.034   4.314
  187SOL    HW1 1460   5.682   0.126   4.275
  187SOL    HW2 1461   5.606   7.006   4.261
  188SOL     OW 1462   6.216   2.482   5.364
  188SOL    HW1 1463   6.219   2.582   5.374
  188SOL    HW2 1464   6.198   2.458   5.269
  189SOL     OW 1465   1.461   5.090   3.540
  189SOL    HW1 1466   1.438   5.181   3.573
  189SOL    HW2 1467   1.556   5.088   3.509
  190SOL     OW 1468   3.278   1.241   0.047
  190SOL    HW1 1469   3.305   1.335   0.026
  190SOL    HW2 1470   3.330   1.178   7.015
  191SOL     OW 1471   5.255   5.608   6.910
  191SOL    HW1 1472   5.216   5.635   6.998
  191SOL    HW2 1473   5.243   5.683   6.844
  192SOL     OW 1474   6.302   1.033   6.710
  192SOL    HW1 1475   6.218   1.042   6.763
  192SOL    HW2 1476   6.381   1.052   6.769
  193SOL     OW 1477   6.485   3.987   7.023
  193SOL    HW1 1478   6.442   4.036   0.075
  193SOL    HW2 1479   6.580   3.966   0.023
  194SOL     OW 1480   4.345   6.952   4.328
  194SOL    HW1 1481   4.293   7.018   4.274
  194SOL    HW2 1482   4.398   7.000   4.397
  195SOL     OW 1483   0.013   5.783   3.337
  195SOL    HW1 1484   0.092   5.723   3.347
  195SOL    HW2 1485   6.983   5.781   3.421
  196SOL     OW 1486   0.305   0.585   1.104
  196SOL    HW1 1487   0.401   0.595   1.077
  196SOL    HW2 1488   0.300   0.578   1.204
  197SOL     OW 1489   1.966   0.874   0.380
  197SOL    HW1 1490   1.907   0.950   0.352
  197SOL    HW2 1491   1.910   0.799   0.415
  198SOL     OW 1492   3.160   1.376   4.866
  198SOL    HW1 1493   3.197   1.468   4.857
  198SOL    HW2 1494   3.161   1.330   4.777
  199SOL     OW 1495   2.356   0.768   4.316
  199SOL    HW1 1496   2.418   0.841   4.286
  199SOL    HW2 1497   2.318   0.791   4.405
  200SOL     OW 1498   6.429   1.784   0.743
  200SOL    HW1 1499   6.340   1.827   0.730
  200SOL    HW2 1500   6.501   1.852   0.727
  201SOL     OW 1501   0.828   2.190   5.858
  201SOL    HW1 1502   0.852   2.221   5.766
  201SOL    HW2 1503   0.766   2.112   5.851
  202SOL     OW 1504   6.324   6.574   6.907
  202SOL    HW1 1505   6.378   6.490   6.908
  202SOL    HW2 1506   6.349   6.631   6.986
  203SOL     OW 1507   6.167   3.708   7.016
  203SOL    HW1 1508   6.174   3.609   7.007
  203SOL    HW2 1509   6.196   3.735   0.084
  204SOL     OW 1510   6.484   0.357   5.336
  204SOL    HW1 1511   6.553   0.344   5.264
  204SOL    HW2 1512   6.490   0.450   5.371
  205SOL     OW 1513   2.403   5.144   3.208
  205SOL    HW1 1514   2.380   5.140   3.111
  205SOL    HW2 1515   2.493   5.102   3.223
  206SOL     OW 1516   1.078   3.692   1.530
  206SOL    HW1 1517   1.092   3.710   1.628
  206SOL    HW2 1518   1.067   3.779   1.482
  207SOL     OW 1519   0.283   3.096   4.317
  207SOL    HW1 1520   0.262   3.032   4.243
  207SOL    HW2 1521   0.326   3.178   4.279
  208SOL     OW 1522   1.720   3.160   4.903
  208SOL    HW1 1523   1.675   3.071   4.904
  208SOL    HW2 1524   1.732   3.190   4.808
  209SOL     OW 1525   5.837   4.334   2.395
  209SOL    HW1 1526   5.848   4.237   2.372
  209SOL    HW2 1527   5.764   4.344   2.462
  210SOL     OW 1528   4.631   4.340   1.252
  210SOL    HW1 1529   4.644   4.293   1.340
  210SOL    HW2 1530   4.664   4.434   1.260
  211SOL     OW 1531   1.765   1.028   2.001
  211SOL    HW1 1532   1.810   0.983   2.078
  211SOL    HW2 1533   1.834   1.056   1.934
  212SOL     OW 1534   2.530   4.623   2.017
  212SOL    HW1 1535   2.487   4.625   1.927
  212SOL    HW2 1536   2.626   4.595   2.007
  213SOL     OW 1537   0.909   5.631   1.332
  213SOL    HW1 1538   0.854   5.659   1.254
  213SOL    HW2 1539   0.985   5.575   1.301
  214SOL     OW 1540   5.555   6.444   2.040
  214SOL    HW1 1541   5.498   6.519   2.075
  214SOL    HW2 1542   5.636   6.482   1.995
  215SOL     OW 1543   2.437   4.946   2.859
  215SOL    HW1 1544   2.485   4.881   2.918
  215SOL    HW2 1545   2.352   4.974   2.902
  216SOL     OW 1546   1.665   5.916   3.107
  216SOL    HW1 1547   1.654   6.002   3.156
  216SOL    HW2 1548   1.669   5.934   3.009
  217SOL     OW 1549   0.040   4.510   4.309
  217SOL    HW1 1550   0.080   4.461   4.231
  217SOL    HW2 1551   7.016   4.591   4.276
  218SOL     OW 1552   3.614   3.127   5.893
  218SOL    HW1 1553   3.662   3.214   5.900
  218SOL    HW2 1554   3.603   3.102   5.797
  219SOL     OW 1555   5.266   2.045   1.174
  219SOL    HW1 1556   5.206   2.102   1.116
  219SOL    HW2 1557   5.255   2.071   1.269
  220SOL     OW 1558   2.297   6.907   0.561
  220SOL    HW1 1559   2.236   6.837   0.523
  220SOL    HW2 1560   2.274   6.922   0.658
  221SOL     OW 1561   5.055   4.516   1.879
  221SOL    HW1 1562   5.148   4.554   1.884
  221SOL    HW2 1563   5.060   4.417   1.875
  222SOL     OW 1564   1.122   4.381   6.558
  222SOL    HW1 1565   1.091   4.416   6.469
  222SOL    HW2 1566   1.215   4.348   6.550
  223SOL     OW 1567   6.003   1.566   5.574
  223SOL    HW1 1568   6.088   1.560   5.626
  223SOL    HW2 1569   5.941   1.630   5.620
  224SOL     OW 1570   4.066   2.982   5.876
  224SOL    HW1 1571   4.001   3.022   5.941
  224SOL    HW2 1572   4.027   2.983   5.784
  225SOL     OW 1573   4.082   6.345   6.329
  225SOL    HW1 1574   4.108   6.440   6.310
  225SOL    HW2 1575   4.090   6.291   6.245
  226SOL     OW 1576   1.731   2.291   0.705
  226SOL    HW1 1577   1.723   2.378   0.752
  226SOL    HW2 1578   1.775   2.305   0.616
  227SOL     OW 1579   1.149   3.512   1.810
  227SOL    HW1 1580   1.212   3.481   1.739
  227SOL    HW2 1581   1.132   3.610   1.798
  228SOL     OW 1582   0.849   6.981   2.656
  228SOL    HW1 1583   0.840   0.049   2.617
  228SOL    HW2 1584   0.933   6.938   2.623
  229SOL     OW 1585   4.093   0.963   6.068
  229SOL    HW1 1586   4.144   1.017   6.135
  229SOL    HW2 1587   4.154   0.938   5.993
  230SOL     OW 1588   5.685   3.559   5.791
  230SOL    HW1 1589   5.620   3.565   5.867
  230SOL    HW2 1590   5.666   3.477   5.737
  231SOL     OW 1591   4.872   1.719   0.751
  231SOL    HW1 1592   4.946   1.752   0.692
  231SOL    HW2 1593   4.894   1.739   0.847
  232SOL     OW 1594   1.612   2.918   4.933
  232SOL    HW1 1595   1.670   2.913   5.014
  232SOL    HW2 1596   1.559   2.834   4.924
  233SOL     OW 1597   3.229   1.695   3.484
  233SOL    HW1 1598   3.280   1.655   3.560
  233SOL    HW2 1599   3.293   1.726   3.414
  234SOL     OW 1600   5.533   6.211   0.387
  234SOL    HW1 1601   5.586   6.203   0.302
  234SOL    HW2 1602   5.442   6.171   0.373
  235SOL     OW 1603   5.029   3.287   2.703
  235SOL    HW1 1604   4.990   3.198   2.727
  235SOL    HW2 1605   5.037   3.343   2.785
  236SOL     OW 1606   3.911   3.121   6.035
  236SOL    HW1 1607   3.843   3.194   6.035
  236SOL    HW2 1608   3.866   3.033   6.052
  237SOL     OW 1609   5.957   3.566   3.289
  237SOL    HW1 1610   6.051   3.546   3.315
  237SOL    HW2 1611   5.895   3.513   3.347
  238SOL     OW 1612   6.435   2.117   0.817
  238SOL    HW1 1613   6.513   2.127   0.755
  238SOL    HW2 1614   6.361   2.069   0.769
  239SOL     OW 1615   1.566   3.534   0.390
  239SOL    HW1 1616   1.578   3.465   0.320
  239SOL    HW2 1617   1.511   3.497   0.465
  240SOL     OW 1618   4.924   3.229   4.050
  240SOL    HW1 1619   4.912   3.133   4.075
  240SOL    HW2 1620   4.897   3.288   4.126
  241SOL     OW 1621   1.869   2.599   3.843
  241SOL    HW1 1622   1.950   2.657   3.854
  241SOL    HW2 1623   1.788   2.650   3.871
  242SOL     OW 1624   4.054   3.164   1.957
  242SOL    HW1 1625   4.143   3.166   1.911
  242SOL    HW2 1626   3.988   3.217   1.903
  243SOL     OW 1627   4.457   2.876   6.288
  243SOL    HW1 1628   4.469   2.921   6.377
  243SOL    HW2 1629   4.539   2.823   6.267
  244SOL     OW 1630   4.856   3.518   4.706
  244SOL    HW1 1631   4.874   3.425   4.673
  244SOL    HW2 1632   4.833   3.514   4.803
  245SOL     OW 1633   3.033   0.950   2.963
  245SOL    HW1 1634   3.025   0.851   2.952
  245SOL    HW2 1635   3.005   0.976   3.055
  246SOL     OW 1636   6.842   1.419   2.425
  246SOL    HW1 1637   6.802   1.473   2.498
  246SOL    HW2 1638   6.917   1.364   2.461
  247SOL     OW 1639   2.421   0.239   1.886
  247SOL    HW1 1640   2.449   0.327   1.849
  247SOL    HW2 1641   2.492   0.170   1.870
  248SOL     OW 1642   3.250   3.417   1.399
  248SOL    HW1 1643   3.325   3.465   1.353
  248SOL    HW2 1644   3.163   3.459   1.373
  249SOL     OW 1645   4.551   6.186   6.001
  249SOL    HW1 1646   4.510   6.172   5.911
  249SOL    HW2 1647   4.588   6.099   6.034
  250SOL     OW 1648   4.251   2.435   6.956
  250SOL    HW1 1649   4.310   2.395   6.886
  250SOL    HW2 1650   4.229   2.366   0.000
  251SOL     OW 1651   4.254   5.029   4.680
  251SOL    HW1 1652   4.257   5.125   4.708
  251SOL    HW2 1653   4.226   4.972   4.757
  252SOL     OW 1654   6.211   5.998   5.243
  252SOL    HW1 1655   6.120   5.963   5.264
  252SOL    HW2 1656   6.205   6.069   5.173
  253SOL     OW 1657   4.334   5.486   5.742
  253SOL    HW1 1658   4.242   5.483   5.704
  253SOL    HW2 1659   4.401   5.484   5.668
  254SOL     OW 1660   6.813   2.354   5.521
  254SOL    HW1 1661   6.736   2.416   5.533
  254SOL    HW2 1662   6.845   2.322   5.610
  255SOL     OW 1663   1.497   5.071   6.726
  255SOL    HW1 1664   1.525   5.118   6.642
  255SOL    HW2 1665   1.398   5.053   6.723
  256SOL     OW 1666   4.865   2.144   5.308
  256SOL    HW1 1667   4.861   2.200   5.391
  256SOL    HW2 1668   4.918   2.061   5.326
  257SOL     OW 1669   5.027   6.728   2.017
  257SOL    HW1 1670   5.049   6.633   2.037
  257SOL    HW2 1671   5.037   6.782   2.101
  258SOL     OW 1672   2.241   3.418   6.078
  258SOL    HW1 1673   2.258   3.412   6.176
  258SOL    HW2 1674   2.176   3.347   6.050
  259SOL     OW 1675   2.991   0.413   3.802
  259SOL    HW1 1676   2.942   0.439   3.886
  259SOL    HW2 1677   2.949   0.460   3.724
  260SOL     OW 1678   4.117   5.425   3.328
  260SOL    HW1 1679   4.125   5.332   3.292
  260SOL    HW2 1680   4.043   5.428   3.396
  261SOL     OW 1681   3.498   4.984   6.373
  261SOL    HW1 1682   3.449   4.997   6.287
  261SOL    HW2 1683   3.567   4.912   6.361
  262SOL     OW 1684   0.765   3.503   6.089
  262SOL    HW1 1685   0.712   3.428   6.048
  262SOL    HW2 1686   0.855   3.508   6.046
  263SOL     OW 1687   1.996   0.338   3.355
  263SOL    HW1 1688   1.995   0.242   3.328
  263SOL    HW2 1689   2.082   0.379   3.325
  264SOL     OW 1690   6.623   3.411   6.441
  264SOL    HW1 1691   6.699   3.381   6.384
  264SOL    HW2 1692   6.638   3.505   6.471
  265SOL     OW 1693   6.839   0.567   2.899
  265SOL    HW1 1694   6.908   0.613   2.842
  265SOL    HW2 1695   6.879   0.485   2.940
  266SOL     OW 1696   2.833   0.557   5.557
  266SOL    HW1 1697   2.917   0.523   5.515
  266SOL    HW2 1698   2.786   0.618   5.494
  267SOL     OW 1699   2.130   6.850   2.024
  267SOL    HW1 1700   2.059   6.867   2.093
  267SOL    HW2 1701   2.175   6.937   2.001
  268SOL     OW 1702   4.012   2.324   0.327
  268SOL    HW1 1703   3.964   2.401   0.369
  268SOL    HW2 1704   4.067   2.277   0.396
  269SOL     OW 1705   5.618   1.943   6.862
  269SOL    HW1 1706   5.578   1.890   6.937
  269SOL    HW2 1707   5.547   1.996   6.817
  270SOL     OW 1708   5.612   1.087   0.598
  270SOL    HW1 1709   5.531   1.071   0.542
  270SOL    HW2 1710   5.667   1.160   0.558
  271SOL     OW 1711   0.713   5.240   6.684
  271SOL    HW1 1712   0.725   5.194   6.772
  271SOL    HW2 1713   0.726   5.174   6.610
  272SOL     OW 1714   3.578   5.556   3.377
  272SOL    HW1 1715   3.523   5.580   3.297
  272SOL    HW2 1716   3.612   5.462   3.367
  273SOL     OW 1717   1.687   5.937   6.233
  273SOL    HW1 1718   1.641   5.869   6.175
  273SOL    HW2 1719   1.784   5.911   6.243
  274SOL     OW 1720   4.522   1.584   3.626
  274SOL    HW1 1721   4.618   1.614   3.632
  274SOL    HW2 1722   4.463   1.663   3.614
  275SOL     OW 1723   5.975   0.900   1.110
  275SOL    HW1 1724   5.875   0.907   1.112
  275SOL    HW2 1725   6.014   0.960   1.181
  276SOL     OW 1726   0.754   6.389   4.024
  276SOL    HW1 1727   0.789   6.357   3.936
  276SOL    HW2 1728   0.712   6.478   4.013
  277SOL     OW 1729   2.118   4.770   1.471
  277SOL    HW1 1730   2.108   4.695   1.405
  277SOL    HW2 1731   2.046   4.764   1.539
  278SOL     OW 1732   1.293   3.352   3.820
  278SOL    HW1 1733   1.232   3.291   3.770
  278SOL    HW2 1734   1.265   3.355   3.916
  279SOL     OW 1735   6.138   1.148   3.646
  279SOL    HW1 1736   6.137   1.051   3.667
  279SOL    HW2 1737   6.227   1.174   3.610
  280SOL     OW 1738   1.717   5.383   2.241
  280SOL    HW1 1739   1.738   5.388   2.144
  280SOL    HW2 1740   1.644   5.316   2.255
  281SOL     OW 1741   2.314   4.593   1.066
  281SOL    HW1 1742   2.320   4.667   0.999
  281SOL    HW2 1743   2.227   4.601   1.116
  282SOL     OW 1744   1.757   1.675   4.814
  282SOL    HW1 1745   1.714   1.741   4.876
  282SOL    HW2 1746   1.823   1.620   4.865
  283SOL     OW 1747   2.563   2.665   6.787
  283SOL    HW1 1748   2.536   2.761   6.785
  283SOL    HW2 1749   2.651   2.655   6.739
  284SOL     OW 1750   0.267   4.024   3.610
  284SOL    HW1 1751   0.208   3.973   3.674
  284SOL    HW2 1752   0.241   4.120   3.611
  285SOL     OW 1753   5.431   3.976   4.176
  285SOL    HW1 1754   5.375   4.046   4.220
  285SOL    HW2 1755   5.382   3.941   4.096
  286SOL     OW 1756   2.673   3.776   1.442
  286SOL    HW1 1757   2.593   3.829   1.471
  286SOL    HW2 1758   2.715   3.733   1.522
  287SOL     OW 1759   0.150   3.276   6.972
  287SOL    HW1 1760   0.173   3.236   0.037
  287SOL    HW2 1761   0.088   3.353   6.986
  288SOL     OW 1762   5.747   3.694   2.389
  288SOL    HW1 1763   5.681   3.657   2.454
  288SOL    HW2 1764   5.703   3.764   2.332
  289SOL     OW 1765   3.720   6.048   6.692
  289SOL    HW1 1766   3.672   6.118   6.747
  289SOL    HW2 1767   3.710   6.071   6.595
  290SOL     OW 1768   1.800   0.546   4.885
  290SOL    HW1 1769   1.817   0.499   4.799
  290SOL    HW2 1770   1.725   0.612   4.873
  291SOL     OW 1771   6.719   1.129   3.150
  291SOL    HW1 1772   6.818   1.123   3.144
  291SOL    HW2 1773   6.678   1.070   3.080
  292SOL     OW 1774   3.874   6.788   3.765
  292SOL    HW1 1775   3.864   6.741   3.677
  292SOL    HW2 1776   3.812   6.866   3.768
  293SOL     OW 1777   3.460   4.940   2.910
  293SOL    HW1 1778   3.392   4.933   2.984
  293SOL    HW2 1779   3.413   4.934   2.822
  294SOL     OW 1780   4.782   0.541   0.302
  294SOL    HW1 1781   4.842   0.481   0.250
  294SOL    HW2 1782   4.693   0.497   0.313
  295SOL     OW 1783   5.986   0.523   4.644
  295SOL    HW1 1784   5.888   0.527   4.661
  295SOL    HW2 1785   6.004   0.465   4.565
  296SOL     OW 1786   2.429   2.005   2.718
  296SOL    HW1 1787   2.480   1.949   2.784
  296SOL    HW2 1788   2.443   1.969   2.626
  297SOL     OW 1789   1.812   4.689   1.927
  297SOL    HW1 1790   1.837   4.779   1.963
  297SOL    HW2 1791   1.894   4.640   1.899
  298SOL     OW 1792   6.328   5.175   0.636
  298SOL    HW1 1793   6.399   5.210   0.576
  298SOL    HW2 1794   6.368   5.147   0.723
  299SOL     OW 1795   5.446   2.794   3.469
  299SOL    HW1 1796   5.420   2.833   3.557
  299SOL    HW2 1797   5.407   2.702   3.461
  300SOL     OW 1798   5.999   0.118   1.753
  300SOL    HW1 1799   6.079   0.064   1.781
  300SOL    HW2 1800   5.978   0.186   1.823
  301SOL     OW 1801   5.540   2.722   5.900
  301SOL    HW1 1802   5.451   2.765   5.885
  301SOL    HW2 1803   5.533   2.624   5.881
  302SOL     OW 1804   1.465   5.661   4.963
  302SOL    HW1 1805   1.533   5.715   5.013
  302SOL    HW2 1806   1.452   5.700   4.872
  303SOL     OW 1807   6.382   0.196   3.319
  303SOL    HW1 1808   6.337   0.136   3.385
  303SOL    HW2 1809   6.345   0.179   3.228
  304SOL     OW 1810   3.896   0.719   4.249
  304SOL    HW1 1811   3.846   0.803   4.270
  304SOL    HW2 1812   3.866   0.647   4.310
  305SOL     OW 1813   1.188   3.625   0.073
  305SOL    HW1 1814   1.274   3.602   0.120
  305SOL    HW2 1815   1.199   3.710   0.022
  306SOL     OW 1816   1.474   1.267   3.157
  306SOL    HW1 1817   1.398   1.206   3.179
  306SOL    HW2 1818   1.532   1.225   3.088
  307SOL     OW 1819   3.010   0.003   1.048
  307SOL    HW1 1820   3.026   6.931   1.068
  307SOL    HW2 1821   3.095   0.054   1.057
  308SOL     OW 1822   0.757   4.953   4.182
  308SOL    HW1 1823   0.693   5.027   4.160
  308SOL    HW2 1824   0.820   4.985   4.252
  309SOL     OW 1825   3.652   4.742   5.293
  309SOL    HW1 1826   3.738   4.793   5.301
  309SOL    HW2 1827   3.671   4.644   5.307
  310SOL     OW 1828   1.289   5.882   6.816
  310SOL    HW1 1829   1.266   5.914   6.907
  310SOL    HW2 1830   1.278   5.782   6.812
  311SOL     OW 1831   6.426   0.870   1.148
  311SOL    HW1 1832   6.402   0.828   1.235
  311SOL    HW2 1833   6.434   0.799   1.077
  312SOL     OW 1834   3.807   1.356   6.550
  312SOL    HW1 1835   3.763   1.432   6.596
  312SOL    HW2 1836   3.880   1.391   6.491
  313SOL     OW 1837   6.869   5.017   1.054
  313SOL    HW1 1838   6.784   4.976   1.088
  313SOL    HW2 1839   6.853   5.053   0.961
  314SOL     OW 1840   3.521   6.232   2.891
  314SOL    HW1 1841   3.583   6.267   2.821
  314SOL    HW2 1842   3.545   6.272   2.980
  315SOL     OW 1843   0.523   3.876   3.192
  315SOL    HW1 1844   0.564   3.797   3.238
  315SOL    HW2 1845   0.456   3.918   3.253
  316SOL     OW 1846   2.201   3.338   4.215
  316SOL    HW1 1847   2.170   3.366   4.306
  316SOL    HW2 1848   2.182   3.241   4.202
  317SOL     OW 1849   6.787   1.432   0.857
  317SOL    HW1 1850   6.855   1.397   0.922
  317SOL    HW2 1851   6.697   1.396   0.881
  318SOL     OW 1852   2.515   4.137   0.588
  318SOL    HW1 1853   2.536   4.231   0.560
  318SOL    HW2 1854   2.599   4.093   0.620
  319SOL     OW 1855   0.381   1.643   6.306
  319SOL    HW1 1856   0.479   1.659   6.320
  319SOL    HW2 1857   0.362   1.639   6.208
  320SOL     OW 1858   5.781   3.599   3.071
  320SOL    HW1 1859   5.851   3.586   3.142
  320SOL    HW2 1860   5.728   3.515   3.060
  321SOL     OW 1861   1.892   1.284   2.175
  321SOL    HW1 1862   1.797   1.318   2.175
  321SOL    HW2 1863   1.918   1.260   2.269
  322SOL     OW 1864   3.693   3.370   5.638
  322SOL    HW1 1865   3.738   3.428   5.706
  322SOL    HW2 1866   3.652   3.427   5.566
  323SOL     OW 1867   1.604   4.544   2.918
  323SOL    HW1 1868   1.683   4.517   2.863
  323SOL    HW2 1869   1.521   4.504   2.878
  324SOL     OW 1870   0.281   2.627   4.278
  324SOL    HW1 1871   0.239   2.635   4.187
  324SOL    HW2 1872   0.220   2.668   4.346
  325SOL     OW 1873   2.178   1.587   2.517
  325SOL    HW1 1874   2.257   1.589   2.578
  325SOL    HW2 1875   2.094   1.583   2.571
  326SOL     OW 1876   2.150   3.879   4.559
  326SOL    HW1 1877   2.197   3.964   4.580
  326SOL    HW2 1878   2.155   3.861   4.461
  327SOL     OW 1879   6.163   4.331   6.010
  327SOL    HW1 1880   6.088   4.299   6.067
  327SOL    HW2 1881   6.199   4.254   5.956
  328SOL     OW 1882   3.680   5.303   3.261
  328SOL    HW1 1883   3.591   5.258   3.254
  328SOL    HW2 1884   3.746   5.255   3.204
  329SOL     OW 1885   3.469   3.905   1.723
  329SOL    HW1 1886   3.518   3.896   1.810
  329SOL    HW2 1887   3.371   3.890   1.739
  330SOL     OW 1888   2.767   2.179   0.881
  330SOL    HW1 1889   2.720   2.200   0.966
  330SOL    HW2 1890   2.822   2.096   0.893
  331SOL     OW 1891   6.529   3.713   5.177
  331SOL    HW1 1892   6.476   3.796   5.166
  331SOL    HW2 1893   6.483   3.651   5.240
  332SOL     OW 1894   3.971   1.751   3.179
  332SOL    HW1 1895   3.890   1.778   3.232
  332SOL    HW2 1896   4.026   1.687   3.232
  333SOL     OW 1897   4.554   6.390   0.386
  333SOL    HW1 1898   4.469   6.432   0.419
  333SOL    HW2 1899   4.579   6.430   0.298
  334SOL     OW 1900   4.940   0.043   2.589
  334SOL    HW1 1901   4.889   0.030   2.503
  334SOL    HW2 1902   4.899   7.011   2.660
  335SOL     OW 1903   3.147   0.259   2.112
  335SOL    HW1 1904   3.051   0.287   2.115
  335SOL    HW2 1905   3.205   0.338   2.094
  336SOL     OW 1906   3.718   0.979   4.926
  336SOL    HW1 1907   3.752   0.958   5.017
  336SOL    HW2 1908   3.745   1.072   4.900
  337SOL     OW 1909   0.927   3.612   2.391
  337SOL    HW1 1910   0.994   3.566   2.450
  337SOL    HW2 1911   0.836   3.603   2.430
  338SOL     OW 1912   2.424   2.512   1.261
  338SOL    HW1 1913   2.421   2.598   1.211
  338SOL    HW2 1914   2.511   2.466   1.244
  339SOL     OW 1915   4.698   0.406   2.672
  339SOL    HW1 1916   4.779   0.454   2.638
  339SOL    HW2 1917   4.634   0.391   2.597
  340SOL     OW 1918   5.179   3.605   4.474
  340SOL    HW1 1919   5.263   3.590   4.422
  340SOL    HW2 1920   5.170   3.702   4.496
  341SOL     OW 1921   3.843   4.384   5.468
  341SOL    HW1 1922   3.883   4.342   5.387
  341SOL    HW2 1923   3.758   4.431   5.443
  342SOL     OW 1924   5.788   3.371   1.080
  342SOL    HW1 1925   5.788   3.320   0.994
  342SOL    HW2 1926   5.703   3.423   1.088
  343SOL     OW 1927   2.227   0.209   2.250
  343SOL    HW1 1928   2.136   0.196   2.287
  343SOL    HW2 1929   2.289   0.238   2.323
  344SOL     OW 1930   4.718   6.713   0.120
  344SOL    HW1 1931   4.727   6.801   0.073
  344SOL    HW2 1932   4.798   6.699   0.179
  345SOL     OW 1933   1.326   0.988   4.989
  345SOL    HW1 1934   1.365   1.046   4.918
  345SOL    HW2 1935   1.227   0.999   4.991
  346SOL     OW 1936   2.068   0.299   5.205
  346SOL    HW1 1937   2.113   0.255   5.128
  346SOL    HW2 1938   2.100   0.394   5.213
  347SOL     OW 1939   5.356   5.550   5.858
  347SOL    HW1 1940   5.447   5.513   5.873
  347SOL    HW2 1941   5.343   5.632   5.914
  348SOL     OW 1942   2.698   6.735   3.849
  348SOL    HW1 1943   2.688   6.747   3.751
  348SOL    HW2 1944   2.611   6.749   3.895
  349SOL     OW 1945   2.575   5.244   1.690
  349SOL    HW1 1946   2.589   5.305   1.612
  349SOL    HW2 1947   2.649   5.178   1.694
  350SOL     OW 1948   5.107   3.202   1.773
  350SOL    HW1 1949   5.050   3.140   1.719
  350SOL    HW2 1950   5.194   3.217   1.727
  351SOL     OW 1951   3.117   1.801   0.330
  351SOL    HW1 1952   3.116   1.708   0.294
  351SOL    HW2 1953   3.034   1.816   0.384
  352SOL     OW 1954   3.160   1.754   6.304
  352SOL    HW1 1955   3.085   1.818   6.285
  352SOL    HW2 1956   3.123   1.662   6.311
  353SOL     OW 1957   1.795   6.292   1.355
  353SOL    HW1 1958   1.841   6.223   1.300
  353SOL    HW2 1959   1.752   6.360   1.296
  354SOL     OW 1960   5.372   0.241   2.509
  354SOL    HW1 1961   5.446   0.235   2.575
  354SOL    HW2 1962   5.308   0.165   2.523
  355SOL     OW 1963   0.812   0.852   2.533
  355SOL    HW1 1964   0.835   0.935   2.584
  355SOL    HW2 1965   0.715   0.833   2.543
  356SOL     OW 1966   2.795   7.024   2.959
  356SOL    HW1 1967   2.704   0.009   2.919
  356SOL    HW2 1968   2.825   6.928   2.952
  357SOL     OW 1969   1.243   4.819   4.237
  357SOL    HW1 1970   1.338   4.807   4.268
  357SOL    HW2 1971   1.203   4.730   4.216
  358SOL     OW 1972   4.828   0.755   3.443
  358SOL    HW1 1973   4.756   0.690   3.467
  358SOL    HW2 1974   4.803   0.802   3.359
  359SOL     OW 1975   0.747   1.789   0.231
  359SOL    HW1 1976   0.840   1.755   0.246
  359SOL    HW2 1977   0.694   1.718   0.184
  360SOL     OW 1978   5.483   6.670   6.434
  360SOL    HW1 1979   5.446   6.709   6.349
  360SOL    HW2 1980   5.439   6.583   6.452
  361SOL     OW 1981   2.839   0.081   2.258
  361SOL    HW1 1982   2.856   0.154   2.192
  361SOL    HW2 1983   2.741   0.061   2.260
  362SOL     OW 1984   2.730   3.551   0.386
  362SOL    HW1 1985   2.793   3.627   0.366
  362SOL    HW2 1986   2.782   3.470   0.413
  363SOL     OW 1987   4.723   4.674   4.368
  363SOL    HW1 1988   4.635   4.632   4.348
  363SOL    HW2 1989   4.788   4.651   4.295
  364SOL     OW 1990   2.721   5.973   6.227
  364SOL    HW1 1991   2.706   6.035   6.304
  364SOL    HW2 1992   2.706   6.023   6.141
  365SOL     OW 1993   4.902   6.427   2.780
  365SOL    HW1 1994   4.879   6.441   2.683
  365SOL    HW2 1995   4.831   6.469   2.837
  366SOL     OW 1996   5.358   1.415   0.597
  366SOL    HW1 1997   5.449   1.426   0.557
  366SOL    HW2 1998   5.358   1.448   0.691
  367SOL     OW 1999   0.267   2.331   2.806
  367SOL    HW1 2000   0.206   2.409   2.791
  367SOL    HW2 2001   0.347   2.340   2.747
  368SOL     OW 2002   6.856   5.049   4.408
  368SOL    HW1 2003   6.784   4.996   4.364
  368SOL    HW2 2004   6.815   5.121   4.464
  369SOL     OW 2005   0.718   3.691   2.143
  369SOL    HW1 2006   0.691   3.597   2.123
  369SOL    HW2 2007   0.696   3.713   2.238
  370SOL     OW 2008   3.808   2.203   6.419
  370SOL    HW1 2009   3.726   2.259   6.427
  370SOL    HW2 2010   3.844   2.210   6.325
  371SOL     OW 2011   3.343   2.203   5.857
  371SOL    HW1 2012   3.397   2.196   5.940
  371SOL    HW2 2013   3.402   2.187   5.778
  372SOL     OW 2014   2.476   5.737   0.182
  372SOL    HW1 2015   2.463   5.642   0.208
  372SOL    HW2 2016   2.573   5.754   0.163
  373SOL     OW 2017   6.433   0.038   6.933
  373SOL    HW1 2018   6.466   0.013   6.842
  373SOL    HW2 2019   6.341   0.001   6.946
  374SOL     OW 2020   5.103   0.894   0.513
  374SOL    HW1 2021   5.032   0.952   0.471
  374SOL    HW2 2022   5.076   0.798   0.507
  375SOL     OW 2023   6.724   3.615   2.596
  375SOL    HW1 2024   6.702   3.664   2.512
  375SOL    HW2 2025   6.790   3.543   2.576
  376SOL     OW 2026   2.598   4.132   5.347
  376SOL    HW1 2027   2.561   4.225   5.353
  376SOL    HW2 2028   2.550   4.081   5.276
  377SOL     OW 2029   4.468   0.762   3.405
  377SOL    HW1 2030   4.408   0.825   3.453
  377SOL    HW2 2031   4.549   0.811   3.372
  378SOL     OW 2032   6.083   2.245   5.901
  378SOL    HW1 2033   6.067   2.325   5.959
  378SOL    HW2 2034   6.107   2.275   5.809
  379SOL     OW 2035   6.571   2.431   0.925
  379SOL    HW1 2036   6.585   2.436   1.024
  379SOL    HW2 2037   6.478   2.398   0.907
  380SOL     OW 2038   6.820   2.285   6.984
  380SOL    HW1 2039   6.812   2.355   0.032
  380SOL    HW2 2040   6.835   2.196   0.002
  381SOL     OW 2041   4.407   4.713   6.646
  381SOL    HW1 2042   4.396   4.700   6.547
  381SOL    HW2 2043   4.495   4.758   6.663
  382SOL     OW 2044   1.663   5.155   6.983
  382SOL    HW1 2045   1.666   5.216   6.904
  382SOL    HW2 2046   1.568   5.132   7.004
  383SOL     OW 2047   5.787   2.160   0.226
  383SOL    HW1 2048   5.773   2.121   0.135
  383SOL    HW2 2049   5.799   2.259   0.218
  384SOL     OW 2050   1.332   5.297   4.661
  384SOL    HW1 2051   1.347   5.219   4.722
  384SOL    HW2 2052   1.420   5.331   4.628
  385SOL     OW 2053   4.654   4.488   0.562
  385SOL    HW1 2054   4.689   4.580   0.581
  385SOL    HW2 2055   4.726   4.421   0.579
  386SOL     OW 2056   2.751   5.902   3.896
  386SOL    HW1 2057   2.779   5.890   3.992
  386SOL    HW2 2058   2.654   5.924   3.893
  387SOL     OW 2059   0.439   0.474   5.631
  387SOL    HW1 2060   0.341   0.490   5.645
  387SOL    HW2 2061   0.451   0.409   5.556
  388SOL     OW 2062   0.074   2.022   4.885
  388SOL    HW1 2063   0.170   2.021   4.910
  388SOL    HW2 2064   0.056   2.095   4.819
  389SOL     OW 2065   5.237   4.200   2.745
  389SOL    HW1 2066   5.229   4.266   2.670
  389SOL    HW2 2067   5.159   4.210   2.806
  390SOL     OW 2068   3.008   2.857   6.941
  390SOL    HW1 2069   2.932   2.909   6.902
  390SOL    HW2 2070   2.974   2.768   6.972
  391SOL     OW 2071   3.703   4.049   3.188
  391SOL    HW1 2072   3.682   4.098   3.273
  391SOL    HW2 2073   3.619   4.037   3.135
  392SOL     OW 2074   1.907   3.018   1.780
  392SOL    HW1 2075   1.831   3.003   1.716
  392SOL    HW2 2076   1.971   2.942   1.773
  393SOL     OW 2077   1.381   6.318   0.635
  393SOL    HW1 2078   1.400   6.274   0.548
  393SOL    HW2 2079   1.287   6.351   0.636
  394SOL     OW 2080   6.245   2.458   6.852
  394SOL    HW1 2081   6.333   2.430   6.812
  394SOL    HW2 2082   6.224   2.551   6.825
  395SOL     OW 2083   0.108   6.003   6.857
  395SOL    HW1 2084   0.088   5.907   6.876
  395SOL    HW2 2085   0.151   6.011   6.767
  396SOL     OW 2086   0.516   1.000   1.429
  396SOL    HW1 2087   0.585   1.058   1.473
  396SOL    HW2 2088   0.426   1.040   1.442
  397SOL     OW 2089   4.917   1.980   4.834
  397SOL    HW1 2090   4.844   2.023   4.780
  397SOL    HW2 2091   4.953   1.901   4.784
  398SOL     OW 2092   0.381   1.653   3.443
  398SOL    HW1 2093   0.429   1.642   3.530
  398SOL    HW2 2094   0.422   1.592   3.374
  399SOL     OW 2095   5.292   5.096   5.363
  399SOL    HW1 2096   5.195   5.117   5.375
  399SOL    HW2 2097   5.332   5.161   5.298
  400SOL     OW 2098   6.585   6.370   3.553
  400SOL    HW1 2099   6.517   6.343   3.485
  400SOL    HW2 2100   6.672   6.391   3.507
  401SOL     OW 2101   1.059   5.699   4.076
  401SOL    HW1 2102   1.094   5.642   4.151
  401SOL    HW2 2103   1.119   5.778   4.064
  402SOL     OW 2104   6.800   0.613   5.079
  402SOL    HW1 2105   6.742   0.653   5.008
  402SOL    HW2 2106   6.889   0.590   5.041
  403SOL     OW 2107   2.785   1.523   5.063
  403SOL    HW1 2108   2.760   1.605   5.011
  403SOL    HW2 2109   2.885   1.513   5.063
  404SOL     OW 2110   3.915   5.590   3.575
  404SOL    HW1 2111   4.003   5.628   3.604
  404SOL    HW2 2112   3.883   5.639   3.494
  405SOL     OW 2113   3.556   4.945   3.710
  405SOL    HW1 2114   3.589   5.024   3.761
  405SOL    HW2 2115   3.547   4.867   3.771
  406SOL     OW 2116   1.301   0.350   0.735
  406SOL    HW1 2117   1.373   0.385   0.794
  406SOL    HW2 2118   1.341   0.300   0.659
  407SOL     OW 2119   2.171   4.450   3.996
  407SOL    HW1 2120   2.175   4.351   4.010
  407SOL    HW2 2121   2.178   4.470   3.898
  408SOL     OW 2122   3.110   1.732   1.917
  408SOL    HW1 2123   3.145   1.822   1.943
  408SOL    HW2 2124   3.060   1.692   1.994
  409SOL     OW 2125   0.598   2.495   2.222
  409SOL    HW1 2126   0.591   2.450   2.133
  409SOL    HW2 2127   0.629   2.429   2.290
  410SOL     OW 2128   1.763   3.631   1.745
  410SOL    HW1 2129   1.774   3.606   1.649
  410SOL    HW2 2130   1.841   3.597   1.798
  411SOL     OW 2131   6.505   1.481   1.986
  411SOL    HW1 2132   6.450   1.425   2.047
  411SOL    HW2 2133   6.563   1.542   2.040
  412SOL     OW 2134   2.971   4.806   3.154
  412SOL    HW1 2135   2.899   4.778   3.217
  412SOL    HW2 2136   2.933   4.817   3.062
  413SOL     OW 2137   6.815   4.562   3.242
  413SOL    HW1 2138   6.790   4.648   3.197
  413SOL    HW2 2139   6.818   4.489   3.174
  414SOL     OW 2140   1.821   0.379   2.434
  414SOL    HW1 2141   1.870   0.294   2.457
  414SOL    HW2 2142   1.869   0.426   2.360
  415SOL     OW 2143   5.839   3.006   1.967
  415SOL    HW1 2144   5.835   2.944   2.045
  415SOL    HW2 2145   5.865   3.097   1.998
  416SOL     OW 2146   6.569   3.712   6.279
  416SOL    HW1 2147   6.561   3.699   6.378
  416SOL    HW2 2148   6.639   3.651   6.243
  417SOL     OW 2149   2.974   2.153   6.127
  417SOL    HW1 2150   2.886   2.199   6.136
  417SOL    HW2 2151   3.003   2.156   6.031
  418SOL     OW 2152   4.118   5.492   6.310
  418SOL    HW1 2153   4.207   5.536   6.299
  418SOL    HW2 2154   4.100   5.475   6.407
  419SOL     OW 2155   5.603   6.657   0.745
  419SOL    HW1 2156   5.532   6.680   0.679
  419SOL    HW2 2157   5.585   6.705   0.831
  420SOL     OW 2158   3.035   6.133   0.724
  420SOL    HW1 2159   2.938   6.145   0.700
  420SOL    HW2 2160   3.091   6.144   0.642
  421SOL     OW 2161   5.297   4.576   3.656
  421SOL    HW1 2162   5.376   4.516   3.643
  421SOL    HW2 2163   5.272   4.617   3.568
  422SOL     OW 2164   4.256   1.380   2.342
  422SOL    HW1 2165   4.225   1.416   2.254
  422SOL    HW2 2166   4.188   1.399   2.412
  423SOL     OW 2167   2.733   0.973   6.737
  423SOL    HW1 2168   2.695   0.884   6.712
  423SOL    HW2 2169   2.820   0.960   6.785
  424SOL     OW 2170   1.968   5.043   3.706
  424SOL    HW1 2171   2.066   5.033   3.724
  424SOL    HW2 2172   1.918   4.973   3.757
  425SOL     OW 2173   3.276   1.325   6.764
  425SOL    HW1 2174   3.177   1.316   6.777
  425SOL    HW2 2175   3.324   1.284   6.842
  426SOL     OW 2176   2.287   2.923   3.501
  426SOL    HW1 2177   2.277   2.972   3.414
  426SOL    HW2 2178   2.264   2.985   3.576
  427SOL     OW 2179   5.038   0.782   5.192
  427SOL    HW1 2180   5.056   0.694   5.234
  427SOL    HW2 2181   5.015   0.850   5.262
  428SOL     OW 2182   2.436   1.263   6.022
  428SOL    HW1 2183   2.517   1.208   6.004
  428SOL    HW2 2184   2.379   1.216   6.090
  429SOL     OW 2185   0.024   6.963   3.869
  429SOL    HW1 2186   0.114   7.000   3.891
  429SOL    HW2 2187   0.028   6.863   3.871
  430SOL     OW 2188   1.809   1.294   4.099
  430SOL    HW1 2189   1.902   1.310   4.068
  430SOL    HW2 2190   1.745   1.317   4.025
  431SOL     OW 2191   2.784   0.520   1.291
  431SOL    HW1 2192   2.765   0.574   1.209
  431SOL    HW2 2193   2.758   0.425   1.275
  432SOL     OW 2194   6.246   1.881   2.141
  432SOL    HW1 2195   6.285   1.798   2.180
  432SOL    HW2 2196   6.216   1.942   2.215
  433SOL     OW 2197   1.436   3.527   6.764
  433SOL    HW1 2198   1.388   3.448   6.725
  433SOL    HW2 2199   1.432   3.522   6.864
  434SOL     OW 2200   4.149   6.179   2.536
  434SOL    HW1 2201   4.118   6.191   2.630
  434SOL    HW2 2202   4.238   6.223   2.524
  435SOL     OW 2203   2.331   1.965   5.999
  435SOL    HW1 2204   2.351   2.001   6.090
  435SOL    HW2 2205   2.352   2.035   5.930
  436SOL     OW 2206   5.594   5.969   2.542
  436SOL    HW1 2207   5.634   5.938   2.628
  436SOL    HW2 2208   5.577   6.068   2.546
  437SOL     OW 2209   6.485   1.758   6.262
  437SOL    HW1 2210   6.543   1.755   6.343
  437SOL    HW2 2211   6.392   1.785   6.289
  438SOL     OW 2212   0.636   2.801   1.662
  438SOL    HW1 2213   0.602   2.891   1.688
  438SOL    HW2 2214   0.672   2.753   1.742
  439SOL     OW 2215   0.511   1.371   6.263
  439SOL    HW1 2216   0.544   1.340   6.174
  439SOL    HW2 2217   0.434   1.434   6.250
  440SOL     OW 2218   2.911   1.673   1.749
  440SOL    HW1 2219   2.983   1.704   1.811
  440SOL    HW2 2220   2.824   1.716   1.774
  441SOL     OW 2221   1.388   4.394   2.848
  441SOL    HW1 2222   1.426   4.327   2.784
  441SOL    HW2 2223   1.314   4.444   2.803
  442SOL     OW 2224   3.490   3.379   4.493
  442SOL    HW1 2225   3.545   3.311   4.443
  442SOL    HW2 2226   3.401   3.389   4.448
  443SOL     OW 2227   5.466   2.943   2.466
  443SOL    HW1 2228   5.528   2.939   2.387
  443SOL    HW2 2229   5.464   3.037   2.501
  444SOL     OW 2230   4.026   2.206   1.180
  444SOL    HW1 2231   3.953   2.158   1.229
  444SOL    HW2 2232   3.999   2.301   1.165
  445SOL     OW 2233   2.848   6.424   3.962
  445SOL    HW1 2234   2.820   6.453   3.871
  445SOL    HW2 2235   2.780   6.454   4.029
  446SOL     OW 2236   6.473   0.299   6.896
  446SOL    HW1 2237   6.491   0.306   6.798
  446SOL    HW2 2238   6.443   0.206   6.917
  447SOL     OW 2239   5.925   3.285   0.097
  447SOL    HW1 2240   5.846   3.242   0.143
  447SOL    HW2 2241   5.991   3.314   0.166
  448SOL     OW 2242   3.718   6.850   5.141
  448SOL    HW1 2243   3.705   6.752   5.125
  448SOL    HW2 2244   3.642   6.901   5.100
  449SOL     OW 2245   1.155   4.545   4.743
  449SOL    HW1 2246   1.072   4.579   4.787
  449SOL    HW2 2247   1.177   4.602   4.664
  450SOL     OW 2248   6.508   3.482   4.751
  450SOL    HW1 2249   6.598   3.450   4.720
  450SOL    HW2 2250   6.494   3.454   4.846
  451SOL     OW 2251   3.140   1.330   6.227
  451SOL    HW1 2252   3.065   1.266   6.240
  451SOL    HW2 2253   3.226   1.287   6.254
  452SOL     OW 2254   4.218   4.841   0.425
  452SOL    HW1 2255   4.278   4.789   0.486
  452SOL    HW2 2256   4.259   4.844   0.334
  453SOL     OW 2257   4.408   0.652   0.078
  453SOL    HW1 2258   4.347   0.592   0.026
  453SOL    HW2 2259   4.497   0.608   0.090
  454SOL     OW 2260   0.390   2.556   3.631
  454SOL    HW1 2261   0.408   2.608   3.548
  454SOL    HW2 2262   0.388   2.459   3.610
  455SOL     OW 2263   5.887   5.908   0.076
  455SOL    HW1 2264   5.907   5.892   0.173
  455SOL    HW2 2265   5.934   5.991   0.046
  456SOL     OW 2266   0.919   1.106   2.564
  456SOL    HW1 2267   0.996   1.088   2.625
  456SOL    HW2 2268   0.945   1.085   2.470
  457SOL     OW 2269   2.973   5.629   0.367
  457SOL    HW1 2270   2.979   5.675   0.456
  457SOL    HW2 2271   3.010   5.536   0.375
  458SOL     OW 2272   3.531   1.433   4.769
  458SOL    HW1 2273   3.530   1.460   4.866
  458SOL    HW2 2274   3.464   1.488   4.719
  459SOL     OW 2275   3.839   0.755   3.814
  459SOL    HW1 2276   3.762   0.794   3.864
  459SOL    HW2 2277   3.915   0.820   3.815
  460SOL     OW 2278   0.832   1.404   6.130
  460SOL    HW1 2279   0.886   1.402   6.046
  460SOL    HW2 2280   0.892   1.421   6.208
  461SOL     OW 2281   0.695   0.667   5.025
  461SOL    HW1 2282   0.653   0.588   5.069
  461SOL    HW2 2283   0.794   0.657   5.026
  462SOL     OW 2284   3.615   4.013   5.333
  462SOL    HW1 2285   3.678   3.936   5.330
  462SOL    HW2 2286   3.524   3.981   5.359
  463SOL     OW 2287   5.415   6.301   2.858
  463SOL    HW1 2288   5.464   6.261   2.781
  463SOL    HW2 2289   5.327   6.337   2.827
  464SOL     OW 2290   4.771   5.807   5.107
  464SOL    HW1 2291   4.856   5.781   5.153
  464SOL    HW2 2292   4.775   5.904   5.081
  465SOL     OW 2293   1.251   5.593   1.067
  465SOL    HW1 2294   1.163   5.609   1.023
  465SOL    HW2 2295   1.235   5.558   1.160
  466SOL     OW 2296   4.121   4.801   3.925
  466SOL    HW1 2297   4.048   4.733   3.926
  466SOL    HW2 2298   4.081   4.893   3.929
  467SOL     OW 2299   6.570   0.227   0.735
  467SOL    HW1 2300   6.605   0.144   0.691
  467SOL    HW2 2301   6.628   0.249   0.813
  468SOL     OW 2302   2.207   6.930   6.403
  468SOL    HW1 2303   2.263   7.011   6.384
  468SOL    HW2 2304   2.214   6.866   6.326
  469SOL     OW 2305   4.375   4.869   5.405
  469SOL    HW1 2306   4.355   4.773   5.386
  469SOL    HW2 2307   4.416   4.912   5.324
  470SOL     OW 2308   2.902   4.834   2.441
  470SOL    HW1 2309   2.927   4.921   2.484
  470SOL    HW2 2310   2.838   4.785   2.501
  471SOL     OW 2311   1.764   2.450   4.351
  471SOL    HW1 2312   1.830   2.375   4.358
  471SOL    HW2 2313   1.736   2.460   4.256
  472SOL     OW 2314   4.359   3.953   5.808
  472SOL    HW1 2315   4.292   3.925   5.877
  472SOL    HW2 2316   4.379   4.051   5.819
  473SOL     OW 2317   6.027   3.809   2.670
  473SOL    HW1 2318   6.015   3.784   2.766
  473SOL    HW2 2319   6.076   3.736   2.622
  474SOL     OW 2320   4.473   5.296   4.072
  474SOL    HW1 2321   4.513   5.284   4.163
  474SOL    HW2 2322   4.446   5.206   4.036
  475SOL     OW 2323   5.022   1.859   0.566
  475SOL    HW1 2324   5.053   1.775   0.523
  475SOL    HW2 2325   5.101   1.917   0.587
  476SOL     OW 2326   0.737   3.026   0.353
  476SOL    HW1 2327   0.727   3.008   0.451
  476SOL    HW2 2328   0.825   2.989   0.321
  477SOL     OW 2329   6.118   6.008   4.372
  477SOL    HW1 2330   6.203   6.040   4.329
  477SOL    HW2 2331   6.140   5.951   4.450
  478SOL     OW 2332   6.477   5.764   1.440
  478SOL    HW1 2333   6.395   5.782   1.385
  478SOL    HW2 2334   6.457   5.690   1.505
  479SOL     OW 2335   4.069   3.596   2.326
  479SOL    HW1 2336   4.085   3.554   2.236
  479SOL    HW2 2337   4.005   3.539   2.378
  480SOL     OW 2338   6.420   6.970   0.971
  480SOL    HW1 2339   6.488   6.952   0.900
  480SOL    HW2 2340   6.458   6.944   1.060
  481SOL     OW 2341   5.846   6.543   6.825
  481SOL    HW1 2342   5.772   6.536   6.891
  481SOL    HW2 2343   5.810   6.575   6.737
  482SOL     OW 2344   4.075   5.537   2.419
  482SOL    HW1 2345   4.140   5.580   2.357
  482SOL    HW2 2346   3.983   5.573   2.402
  483SOL     OW 2347   6.534   2.754   5.450
  483SOL    HW1 2348   6.555   2.763   5.353
  483SOL    HW2 2349   6.587   2.822   5.502
  484SOL     OW 2350   2.398   5.671   4.201
  484SOL    HW1 2351   2.490   5.639   4.222
  484SOL    HW2 2352   2.389   5.688   4.103
  485SOL     OW 2353   5.299   3.134   0.741
  485SOL    HW1 2354   5.315   3.100   0.834
  485SOL    HW2 2355   5.387   3.154   0.698
  486SOL     OW 2356   6.230   6.397   5.624
  486SOL    HW1 2357   6.146   6.342   5.619
  486SOL    HW2 2358   6.309   6.336   5.618
  487SOL     OW 2359   5.877   1.642   6.984
  487SOL    HW1 2360   5.931   1.575   6.933
  487SOL    HW2 2361   5.934   1.721   7.006
  488SOL     OW 2362   2.019   6.457   3.796
  488SOL    HW1 2363   1.934   6.445   3.744
  488SOL    HW2 2364   2.024   6.386   3.867
  489SOL     OW 2365   2.495   4.526   5.110
  489SOL    HW1 2366   2.547   4.596   5.062
  489SOL    HW2 2367   2.428   4.485   5.048
  490SOL     OW 2368   0.684   4.027   4.827
  490SOL    HW1 2369   0.740   4.040   4.746
  490SOL    HW2 2370   0.721   3.952   4.881
  491SOL     OW 2371   6.529   3.392   2.254
  491SOL    HW1 2372   6.470   3.463   2.216
  491SOL    HW2 2373   6.623   3.426   2.259
  492SOL     OW 2374   1.733   2.013   6.049
  492SOL    HW1 2375   1.829   1.991   6.065
  492SOL    HW2 2376   1.702   1.965   5.966
  493SOL     OW 2377   2.239   5.503   3.804
  493SOL    HW1 2378   2.188   5.439   3.746
  493SOL    HW2 2379   2.324   5.461   3.835
  494SOL     OW 2380   2.445   6.581   2.478
  494SOL    HW1 2381   2.402   6.602   2.566
  494SOL    HW2 2382   2.544   6.593   2.485
  495SOL     OW 2383   3.588   4.635   6.132
  495SOL    HW1 2384   3.561   4.613   6.038
  495SOL    HW2 2385   3.523   4.595   6.196
  496SOL     OW 2386   4.984   0.259   2.411
  496SOL    HW1 2387   5.025   0.191   2.349
  496SOL    HW2 2388   4.980   0.222   2.504
  497SOL     OW 2389   4.343   2.753   1.154
  497SOL    HW1 2390   4.396   2.815   1.213
  497SOL    HW2 2391   4.258   2.798   1.126
  498SOL     OW 2392   0.575   0.272   0.348
  498SOL    HW1 2393   0.542   0.257   0.255
  498SOL    HW2 2394   0.645   0.343   0.348
  499SOL     OW 2395   2.638   6.548   6.488
  499SOL    HW1 2396   2.579   6.623   6.515
  499SOL    HW2 2397   2.584   6.465   6.474
  500SOL     OW 2398   6.214   1.818   6.403
  500SOL    HW1 2399   6.115   1.818   6.417
  500SOL    HW2 2400   6.257   1.873   6.475
  501SOL     OW 2401   2.105   2.033   5.011
  501SOL    HW1 2402   2.116   2.029   4.912
  501SOL    HW2 2403   2.015   2.073   5.032
  502SOL     OW 2404   3.385   2.857   6.423
  502SOL    HW1 2405   3.371   2.781   6.358
  502SOL    HW2 2406   3.341   2.939   6.387
  503SOL     OW 2407   3.822   4.914   1.608
  503SOL    HW1 2408   3.769   4.954   1.534
  503SOL    HW2 2409   3.821   4.814   1.599
  504SOL     OW 2410   6.310   0.261   6.603
  504SOL    HW1 2411   6.296   0.181   6.545
  504SOL    HW2 2412   6.407   0.285   6.602
  505SOL     OW 2413   0.272   3.778   5.696
  505SOL    HW1 2414   0.181   3.750   5.723
  505SOL    HW2 2415   0.316   3.704   5.644
  506SOL     OW 2416   3.333   6.085   2.299
  506SOL    HW1 2417   3.299   6.109   2.208
  506SOL    HW2 2418   3.368   6.168   2.344
  507SOL     OW 2419   2.112   6.981   3.376
  507SOL    HW1 2420   2.172   7.006   3.452
  507SOL    HW2 2421   2.066   0.038   3.341
  508SOL     OW 2422   0.378   4.623   2.696
  508SOL    HW1 2423   0.307   4.689   2.672
  508SOL    HW2 2424   0.395   4.562   2.618
  509SOL     OW 2425   4.353   0.212   5.446
  509SOL    HW1 2426   4.338   0.254   5.535
  509SOL    HW2 2427   4.442   0.165   5.445
  510SOL     OW 2428   6.554   4.872   6.817
  510SOL    HW1 2429   6.644   4.895   6.854
  510SOL    HW2 2430   6.539   4.923   6.733
  511SOL     OW 2431   6.998   2.526   0.862
  511SOL    HW1 2432   6.902   2.501   0.871
  511SOL    HW2 2433   0.029   2.471   0.924
  512SOL     OW 2434   1.955   1.460   4.684
  512SOL    HW1 2435   2.036   1.487   4.632
  512SOL    HW2 2436   1.874   1.469   4.626
  513SOL     OW 2437   5.912   5.807   2.119
  513SOL    HW1 2438   5.848   5.867   2.167
  513SOL    HW2 2439   5.932   5.845   2.029
  514SOL     OW 2440   5.230   0.967   5.063
  514SOL    HW1 2441   5.216   1.061   5.095
  514SOL    HW2 2442   5.171   0.905   5.114
  515SOL     OW 2443   3.392   0.254   6.620
  515SOL    HW1 2444   3.365   0.300   6.535
  515SOL    HW2 2445   3.311   0.227   6.671
  516SOL     OW 2446   0.559   5.555   2.442
  516SOL    HW1 2447   0.524   5.462   2.442
  516SOL    HW2 2448   0.531   5.602   2.526
  517SOL     OW 2449   3.346   4.973   0.155
  517SOL    HW1 2450   3.263   4.986   0.210
  517SOL    HW2 2451   3.379   5.062   0.123
  518SOL     OW 2452   2.473   0.237   3.347
  518SOL    HW1 2453   2.533   0.289   3.286
  518SOL    HW2 2454   2.380   0.275   3.342
  519SOL     OW 2455   0.630   6.604   3.599
  519SOL    HW1 2456   0.631   6.643   3.507
  519SOL    HW2 2457   0.714   6.627   3.647
  520SOL     OW 2458   3.086   5.615   7.020
  520SOL    HW1 2459   3.124   5.667   0.072
  520SOL    HW2 2460   3.070   5.677   6.943
  521SOL     OW 2461   0.061   0.108   5.057
  521SOL    HW1 2462   0.080   0.022   5.011
  521SOL    HW2 2463   0.000   0.164   5.000
  522SOL     OW 2464   3.214   5.946   5.525
  522SOL    HW1 2465   3.148   6.007   5.570
  522SOL    HW2 2466   3.166   5.891   5.456
  523SOL     OW 2467   1.847   0.200   6.179
  523SOL    HW1 2468   1.795   0.257   6.116
  523SOL    HW2 2469   1.818   0.104   6.170
  524SOL     OW 2470   6.416   1.986   1.849
  524SOL    HW1 2471   6.326   2.000   1.807
  524SOL    HW2 2472   6.422   2.041   1.933
  525SOL     OW 2473   6.880   3.186   3.888
  525SOL    HW1 2474   6.887   3.089   3.867
  525SOL    HW2 2475   6.857   3.237   3.805
  526SOL     OW 2476   4.149   6.031   5.104
  526SOL    HW1 2477   4.166   5.995   5.196
  526SOL    HW2 2478   4.069   6.091   5.107
  527SOL     OW 2479   6.643   1.829   0.299
  527SOL    HW1 2480   6.718   1.799   0.357
  527SOL    HW2 2481   6.592   1.750   0.266
  528SOL     OW 2482   6.976   1.542   3.256
  528SOL    HW1 2483   6.895   1.559   3.201
  528SOL    HW2 2484   6.967   1.456   3.305
  529SOL     OW 2485   1.138   1.892   5.443
  529SOL    HW1 2486   1.202   1.820   5.416
  529SOL    HW2 2487   1.165   1.929   5.532
  530SOL     OW 2488   3.354   4.542   1.680
  530SOL    HW1 2489   3.370   4.444   1.673
  530SOL    HW2 2490   3.433   4.585   1.725
  531SOL     OW 2491   0.224   1.111   5.817
  531SOL    HW1 2492   0.269   1.192   5.854
  531SOL    HW2 2493   0.154   1.079   5.882
  532SOL     OW 2494   3.274   1.207   6.514
  532SOL    HW1 2495   3.277   1.249   6.604
  532SOL    HW2 2496   3.250   1.110   6.523
  533SOL     OW 2497   3.463   6.840   4.581
  533SOL    HW1 2498   3.446   6.928   4.536
  533SOL    HW2 2499   3.516   6.855   4.664
  534SOL     OW 2500   1.412   4.241   0.825
  534SOL    HW1 2501   1.434   4.327   0.779
  534SOL    HW2 2502   1.435   4.164   0.766
  535SOL     OW 2503   5.031   3.883   3.512
  535SOL    HW1 2504   4.988   3.942   3.581
  535SOL    HW2 2505   4.977   3.800   3.501
  536SOL     OW 2506   6.390   0.447   0.692
  536SOL    HW1 2507   6.444   0.363   0.700
  536SOL    HW2 2508   6.310   0.441   0.751
  537SOL     OW 2509   3.538   1.971   2.525
  537SOL    HW1 2510   3.535   1.894   2.589
  537SOL    HW2 2511   3.632   1.986   2.495
  538SOL     OW 2512   4.270   5.686   6.727
  538SOL    HW1 2513   4.304   5.779   6.744
  538SOL    HW2 2514   4.229   5.682   6.636
  539SOL     OW 2515   2.991   6.758   6.908
  539SOL    HW1 2516   3.055   6.682   6.897
  539SOL    HW2 2517   2.923   6.756   6.835
  540SOL     OW 2518   1.605   1.542   5.322
  540SOL    HW1 2519   1.566   1.500   5.404
  540SOL    HW2 2520   1.700   1.568   5.340
  541SOL     OW 2521   6.236   5.740   1.877
  541SOL    HW1 2522   6.173   5.816   1.862
  541SOL    HW2 2523   6.270   5.743   1.971
  542SOL     OW 2524   4.062   5.743   6.532
  542SOL    HW1 2525   4.005   5.662   6.521
  542SOL    HW2 2526   4.025   5.817   6.476
  543SOL     OW 2527   6.680   2.269   5.069
  543SOL    HW1 2528   6.721   2.198   5.127
  543SOL    HW2 2529   6.684   2.356   5.117
  544SOL     OW 2530   1.193   2.065   0.965
  544SOL    HW1 2531   1.210   1.991   1.030
  544SOL    HW2 2532   1.100   2.059   0.930
  545SOL     OW 2533   6.883   4.801   0.781
  545SOL    HW1 2534   6.832   4.834   0.702
  545SOL    HW2 2535   6.825   4.806   0.863
  546SOL     OW 2536   0.124   5.776   2.461
  546SOL    HW1 2537   0.033   5.775   2.503
  546SOL    HW2 2538   0.188   5.823   2.522
  547SOL     OW 2539   3.312   6.393   0.379
  547SOL    HW1 2540   3.215   6.416   0.369
  547SOL    HW2 2541   3.362   6.426   0.300
  548SOL     OW 2542   3.995   3.083   6.402
  548SOL    HW1 2543   4.063   3.014   6.429
  548SOL    HW2 2544   4.016   3.170   6.447
  549SOL     OW 2545   4.759   2.792   3.737
  549SOL    HW1 2546   4.727   2.775   3.644
  549SOL    HW2 2547   4.750   2.708   3.791
  550SOL     OW 2548   6.904   5.817   4.317
  550SOL    HW1 2549   6.832   5.878   4.285
  550SOL    HW2 2550   6.892   5.726   4.277
  551SOL     OW 2551   5.248   0.748   6.593
  551SOL    HW1 2552   5.296   0.661   6.592
  551SOL    HW2 2553   5.221   0.772   6.500
  552SOL     OW 2554   1.270   0.368   4.078
  552SOL    HW1 2555   1.331   0.358   4.000
  552SOL    HW2 2556   1.175   0.367   4.047
  553SOL     OW 2557   4.571   2.544   5.761
  553SOL    HW1 2558   4.494   2.535   5.824
  553SOL    HW2 2559   4.655   2.553   5.813
  554SOL     OW 2560   6.689   4.685   0.365
  554SOL    HW1 2561   6.692   4.622   0.443
  554SOL    HW2 2562   6.657   4.635   0.284
  555SOL     OW 2563   4.083   4.546   5.491
  555SOL    HW1 2564   4.143   4.540   5.411
  555SOL    HW2 2565   3.998   4.496   5.472
  556SOL     OW 2566   5.126   6.068   2.779
  556SOL    HW1 2567   5.136   6.077   2.878
  556SOL    HW2 2568   5.212   6.037   2.739
  557SOL     OW 2569   0.197   3.628   6.814
  557SOL    HW1 2570   0.127   3.564   6.784
  557SOL    HW2 2571   0.155   3.714   6.843
  558SOL     OW 2572   3.626   3.622   1.501
  558SOL    HW1 2573   3.707   3.619   1.443
  558SOL    HW2 2574   3.587   3.714   1.498
  559SOL     OW 2575   5.541   1.331   5.772
  559SOL    HW1 2576   5.527   1.406   5.708
  559SOL    HW2 2577   5.614   1.271   5.739
  560SOL     OW 2578   1.861   2.536   3.004
  560SOL    HW1 2579   1.943   2.574   2.961
  560SOL    HW2 2580   1.781   2.559   2.948
  561SOL     OW 2581   6.473   3.935   0.712
  561SOL    HW1 2582   6.447   4.028   0.685
  561SOL    HW2 2583   6.411   3.869   0.671
  562SOL     OW 2584   3.020   6.189   2.692
  562SOL    HW1 2585   2.958   6.130   2.744
  562SOL    HW2 2586   3.106   6.199   2.743
  563SOL     OW 2587   0.527   0.313   4.010
  563SOL    HW1 2588   0.560   0.262   4.089
  563SOL    HW2 2589   0.511   0.408   4.036
  564SOL     OW 2590   6.173   2.987   6.142
  564SOL    HW1 2591   6.182   3.034   6.230
  564SOL    HW2 2592   6.089   2.934   6.142
  565SOL     OW 2593   3.556   3.207   3.414
  565SOL    HW1 2594   3.633   3.242   3.466
  565SOL    HW2 2595   3.555   3.107   3.417
  566SOL     OW 2596   0.934   2.413   3.255
  566SOL    HW1 2597   0.894   2.366   3.333
  566SOL    HW2 2598   0.873   2.407   3.176
  567SOL     OW 2599   1.950   2.458   5.308
  567SOL    HW1 2600   1.905   2.507   5.234
  567SOL    HW2 2601   2.042   2.495   5.322
  568SOL     OW 2602   0.719   0.157   6.670
  568SOL    HW1 2603   0.671   0.244   6.680
  568SOL    HW2 2604   0.684   0.109   6.589
  569SOL     OW 2605   5.156   3.375   4.961
  569SOL    HW1 2606   5.138   3.429   4.879
  569SOL    HW2 2607   5.084   3.391   5.028
  570SOL     OW 2608   2.628   0.408   5.635
  570SOL    HW1 2609   2.716   0.455   5.637
  570SOL    HW2 2610   2.569   0.444   5.707
  571SOL     OW 2611   2.382   4.306   2.451
  571SOL    HW1 2612   2.358   4.247   2.529
  571SOL    HW2 2613   2.304   4.310   2.388
  572SOL     OW 2614   2.751   1.483   4.750
  572SOL    HW1 2615   2.808   1.561   4.726
  572SOL    HW2 2616   2.801   1.424   4.814
  573SOL     OW 2617   0.342   0.143   5.763
  573SOL    HW1 2618   0.313   0.060   5.811
  573SOL    HW2 2619   0.426   0.125   5.712
  574SOL     OW 2620   3.288   1.449   5.539
  574SOL    HW1 2621   3.238   1.385   5.481
  574SOL    HW2 2622   3.264   1.543   5.514
  575SOL     OW 2623   3.745   4.114   6.836
  575SOL    HW1 2624   3.822   4.101   6.899
  575SOL    HW2 2625   3.732   4.212   6.819
  576SOL     OW 2626   0.029   1.121   4.162
  576SOL    HW1 2627   0.015   1.112   4.063
  576SOL    HW2 2628   6.989   1.188   4.199
  577SOL     OW 2629   6.241   0.352   1.436
  577SOL    HW1 2630   6.217   0.261   1.403
  577SOL    HW2 2631   6.294   0.399   1.366
  578SOL     OW 2632   4.333   6.314   1.065
  578SOL    HW1 2633   4.359   6.408   1.041
  578SOL    HW2 2634   4.397   6.250   1.023
  579SOL     OW 2635   0.353   4.082   2.028
  579SOL    HW1 2636   0.426   4.014   2.034
  579SOL    HW2 2637   0.389   4.173   2.050
  580SOL     OW 2638   4.737   4.304   5.002
  580SOL    HW1 2639   4.766   4.211   5.022
  580SOL    HW2 2640   4.689   4.342   5.082
  581SOL     OW 2641   2.786   1.734   4.077
  581SOL    HW1 2642   2.844   1.795   4.131
  581SOL    HW2 2643   2.838   1.698   4.000
  582SOL     OW 2644   6.515   4.715   5.349
  582SOL    HW1 2645   6.427   4.726   5.302
  582SOL    HW2 2646   6.575   4.791   5.326
  583SOL     OW 2647   2.880   6.173   4.869
  583SOL    HW1 2648   2.940   6.246   4.837
  583SOL    HW2 2649   2.919   6.084   4.841
  584SOL     OW 2650   4.040   0.687   4.741
  584SOL    HW1 2651   3.944   0.659   4.750
  584SOL    HW2 2652   4.095   0.608   4.715
  585SOL     OW 2653   3.864   6.648   1.668
  585SOL    HW1 2654   3.786   6.666   1.609
  585SOL    HW2 2655   3.865   6.716   1.742
  586SOL     OW 2656   3.362   6.451   1.226
  586SOL    HW1 2657   3.321   6.386   1.290
  586SOL    HW2 2658   3.295   6.477   1.157
  587SOL     OW 2659   5.861   0.689   3.508
  587SOL    HW1 2660   5.792   0.668   3.577
  587SOL    HW2 2661   5.938   0.626   3.516
  588SOL     OW 2662   2.279   4.196   2.940
  588SOL    HW1 2663   2.335   4.276   2.919
  588SOL    HW2 2664   2.224   4.215   3.021
  589SOL     OW 2665   3.535   5.098   5.473
  589SOL    HW1 2666   3.437   5.079   5.468
  589SOL    HW2 2667   3.561   5.119   5.567
  590SOL     OW 2668   1.729   0.714   6.522
  590SOL    HW1 2669   1.768   0.805   6.508
  590SOL    HW2 2670   1.791   0.659   6.576
  591SOL     OW 2671   2.660   0.294   3.789
  591SOL    HW1 2672   2.652   0.311   3.887
  591SOL    HW2 2673   2.714   0.367   3.747
  592SOL     OW 2674   4.932   1.163   4.128
  592SOL    HW1 2675   4.934   1.262   4.111
  592SOL    HW2 2676   4.856   1.142   4.190
  593SOL     OW 2677   1.219   6.721   6.918
  593SOL    HW1 2678   1.236   6.628   6.885
  593SOL    HW2 2679   1.173   6.774   6.847
  594SOL     OW 2680   2.477   1.222   4.692
  594SOL    HW1 2681   2.478   1.322   4.695
  594SOL    HW2 2682   2.569   1.187   4.709
  595SOL     OW 2683   5.697   3.787   2.916
  595SOL    HW1 2684   5.663   3.751   2.829
  595SOL    HW2 2685   5.726   3.712   2.975
  596SOL     OW 2686   6.715   5.192   4.951
  596SOL    HW1 2687   6.768   5.107   4.955
  596SOL    HW2 2688   6.628   5.174   4.905
  597SOL     OW 2689   3.252   0.972   6.852
  597SOL    HW1 2690   3.262   0.872   6.850
  597SOL    HW2 2691   3.164   0.996   6.810
  598SOL     OW 2692   3.241   2.971   2.225
  598SOL    HW1 2693   3.210   3.005   2.136
  598SOL    HW2 2694   3.164   2.932   2.275
  599SOL     OW 2695   1.722   5.601   1.914
  599SOL    HW1 2696   1.781   5.576   1.838
  599SOL    HW2 2697   1.720   5.700   1.925
  600SOL     OW 2698   0.821   4.515   5.325
  600SOL    HW1 2699   0.788   4.426   5.359
  600SOL    HW2 2700   0.884   4.554   5.392
  601SOL     OW 2701   6.747   6.962   5.943
  601SOL    HW1 2702   6.732   6.882   6.000
  601SOL    HW2 2703   6.699   6.951   5.856
  602SOL     OW 2704   0.489   0.723   3.078
  602SOL    HW1 2705   0.573   0.685   3.116
  602SOL    HW2 2706   0.426   0.746   3.151
  603SOL     OW 2707   1.212   1.346   3.740
  603SOL    HW1 2708   1.250   1.428   3.784
  603SOL    HW2 2709   1.286   1.284   3.716
  604SOL     OW 2710   5.332   2.782   1.078
  604SOL    HW1 2711   5.297   2.762   1.170
  604SOL    HW2 2712   5.269   2.748   1.009
  605SOL     OW 2713   6.179   6.756   1.636
  605SOL    HW1 2714   6.158   6.797   1.547
  605SOL    HW2 2715   6.236   6.818   1.689
  606SOL     OW 2716   2.318   6.628   5.551
  606SOL    HW1 2717   2.282   6.587   5.636
  606SOL    HW2 2718   2.404   6.675   5.571
  607SOL     OW 2719   1.806   3.677   5.710
  607SOL    HW1 2720   1.726   3.690   5.651
  607SOL    HW2 2721   1.867   3.609   5.669
  608SOL     OW 2722   2.493   1.178   6.802
  608SOL    HW1 2723   2.560   1.144   6.735
  608SOL    HW2 2724   2.520   1.269   6.833
  609SOL     OW 2725   3.794   3.065   2.519
  609SOL    HW1 2726   3.786   3.013   2.433
  609SOL    HW2 2727   3.720   3.131   2.524
  610SOL     OW 2728   5.613   2.937   2.812
  610SOL    HW1 2729   5.697   2.918   2.863
  610SOL    HW2 2730   5.567   2.850   2.791
  611SOL     OW 2731   4.183   1.205   2.072
  611SOL    HW1 2732   4.274   1.188   2.110
  611SOL    HW2 2733   4.175   1.302   2.048
  612SOL     OW 2734   4.270   5.439   4.209
  612SOL    HW1 2735   4.294   5.436   4.306
  612SOL    HW2 2736   4.326   5.372   4.160
  613SOL     OW 2737   4.149   6.965   6.243
  613SOL    HW1 2738   4.085   0.017   6.249
  613SOL    HW2 2739   4.100   6.882   6.218
  614SOL     OW 2740   3.162   6.671   6.138
  614SOL    HW1 2741   3.204   6.737   6.200
  614SOL    HW2 2742   3.168   6.579   6.177
  615SOL     OW 2743   0.067   5.117   4.251
  615SOL    HW1 2744   0.152   5.133   4.302
  615SOL    HW2 2745   0.003   5.066   4.307
  616SOL     OW 2746   6.860   2.908   3.818
  616SOL    HW1 2747   6.798   2.902   3.740
  616SOL    HW2 2748   6.850   2.826   3.875
  617SOL     OW 2749   2.686   7.013   6.054
  617SOL    HW1 2750   2.717   6.923   6.023
  617SOL    HW2 2751   2.587   7.021   6.042
  618SOL     OW 2752   2.309   6.824   3.287
  618SOL    HW1 2753   2.228   6.880   3.306
  618SOL    HW2 2754   2.350   6.793   3.373
  619SOL     OW 2755   1.121   3.382   6.963
  619SOL    HW1 2756   1.133   3.471   7.007
  619SOL    HW2 2757   1.128   3.310   0.007
  620SOL     OW 2758   5.022   3.737   1.145
  620SOL    HW1 2759   5.072   3.657   1.177
  620SOL    HW2 2760   5.029   3.743   1.046
  621SOL     OW 2761   0.181   5.851   1.387
  621SOL    HW1 2762   0.098   5.881   1.340
  621SOL    HW2 2763   0.227   5.930   1.428
  622SOL     OW 2764   1.660   1.449   6.972
  622SOL    HW1 2765   1.562   1.434   6.957
  622SOL    HW2 2766   1.674   1.540   7.011
  623SOL     OW 2767   6.016   5.689   5.573
  623SOL    HW1 2768   5.991   5.731   5.487
  623SOL    HW2 2769   5.936   5.646   5.615
  624SOL     OW 2770   6.910   1.430   1.289
  624SOL    HW1 2771   6.816   1.420   1.320
  624SOL    HW2 2772   6.916   1.404   1.192
  625SOL     OW 2773   1.970   1.068   1.800
  625SOL    HW1 2774   2.029   1.122   1.860
  625SOL    HW2 2775   1.943   1.123   1.721
  626SOL     OW 2776   4.078   6.045   5.642
  626SOL    HW1 2777   4.107   5.965   5.695
  626SOL    HW2 2778   4.037   6.015   5.556
  627SOL     OW 2779   3.834   5.261   6.891
  627SOL    HW1 2780   3.742   5.300   6.894
  627SOL    HW2 2781   3.828   5.164   6.867
  628SOL     OW 2782   5.067   3.545   4.080
  628SOL    HW1 2783   5.018   3.607   4.018
  628SOL    HW2 2784   5.087   3.459   4.032
  629SOL     OW 2785   0.874   0.281   1.586
  629SOL    HW1 2786   0.960   0.251   1.546
  629SOL    HW2 2787   0.884   0.373   1.623
  630SOL     OW 2788   2.357   1.247   2.301
  630SOL    HW1 2789   2.402   1.203   2.223
  630SOL    HW2 2790   2.402   1.219   2.385
  631SOL     OW 2791   2.975   1.235   3.694
  631SOL    HW1 2792   2.917   1.316   3.702
  631SOL    HW2 2793   3.031   1.227   3.776
  632SOL     OW 2794   2.866   1.105   0.271
  632SOL    HW1 2795   2.922   1.173   0.318
  632SOL    HW2 2796   2.838   1.033   0.335
  633SOL     OW 2797   2.098   0.202   4.085
  633SOL    HW1 2798   2.164   0.128   4.095
  633SOL    HW2 2799   2.011   0.176   4.126
  634SOL     OW 2800   2.785   5.410   1.833
  634SOL    HW1 2801   2.808   5.497   1.789
  634SOL    HW2 2802   2.803   5.335   1.769
  635SOL     OW 2803   2.810   7.011   1.492
  635SOL    HW1 2804   2.894   0.001   1.544
  635SOL    HW2 2805   2.778   6.917   1.507
  636SOL     OW 2806   5.011   5.320   6.505
  636SOL    HW1 2807   4.942   5.281   6.445
  636SOL    HW2 2808   4.986   5.414   6.529
  637SOL     OW 2809   5.970   4.608   6.474
  637SOL    HW1 2810   5.926   4.696   6.455
  637SOL    HW2 2811   5.918   4.560   6.545
  638SOL     OW 2812   5.655   1.742   3.532
  638SOL    HW1 2813   5.681   1.702   3.619
  638SOL    HW2 2814   5.716   1.819   3.511
  639SOL     OW 2815   3.514   3.475   1.319
  639SOL    HW1 2816   3.531   3.532   1.400
  639SOL    HW2 2817   3.601   3.454   1.274
  640SOL     OW 2818   3.139   3.048   5.327
  640SOL    HW1 2819   3.059   3.108   5.336
  640SOL    HW2 2820   3.139   2.982   5.402
  641SOL     OW 2821   0.774   0.698   4.714
  641SOL    HW1 2822   0.744   0.649   4.633
  641SOL    HW2 2823   0.709   0.684   4.788
  642SOL     OW 2824   0.394   5.061   6.875
  642SOL    HW1 2825   0.425   5.150   6.909
  642SOL    HW2 2826   0.469   5.016   6.827
  643SOL     OW 2827   5.356   6.832   4.494
  643SOL    HW1 2828   5.284   6.776   4.535
  643SOL    HW2 2829   5.433   6.837   4.558
  644SOL     OW 2830   3.220   5.921   2.047
  644SOL    HW1 2831   3.316   5.903   2.069
  644SOL    HW2 2832   3.167   5.925   2.132
  645SOL     OW 2833   0.665   3.120   3.415
  645SOL    HW1 2834   0.745   3.105   3.357
  645SOL    HW2 2835   0.679   3.077   3.504
  646SOL     OW 2836   1.878   3.508   4.176
  646SOL    HW1 2837   1.843   3.454   4.099
  646SOL    HW2 2838   1.818   3.497   4.255
  647SOL     OW 2839   5.684   5.259   1.132
  647SOL    HW1 2840   5.768   5.257   1.078
  647SOL    HW2 2841   5.624   5.331   1.098
  648SOL     OW 2842   4.613   2.208   3.890
  648SOL    HW1 2843   4.608   2.245   3.797
  648SOL    HW2 2844   4.588   2.280   3.956
  649SOL     OW 2845   4.220   4.331   1.386
  649SOL    HW1 2846   4.156   4.405   1.404
  649SOL    HW2 2847   4.175   4.259   1.334
  650SOL     OW 2848   6.047   5.258   0.674
  650SOL    HW1 2849   6.145   5.240   0.684
  650SOL    HW2 2850   6.031   5.315   0.594
  651SOL     OW 2851   1.043   5.445   6.448
  651SOL    HW1 2852   1.066   5.542   6.441
  651SOL    HW2 2853   1.116   5.391   6.406
  652SOL     OW 2854   5.079   2.972   1.585
  652SOL    HW1 2855   4.990   3.002   1.618
  652SOL    HW2 2856   5.103   2.885   1.628
  653SOL     OW 2857   3.797   5.751   2.502
  653SOL    HW1 2858   3.708   5.706   2.511
  653SOL    HW2 2859   3.834   5.768   2.593
  654SOL     OW 2860   7.023   4.227   6.722
  654SOL    HW1 2861   0.034   4.151   6.667
  654SOL    HW2 2862   7.023   4.310   6.667
  655SOL     OW 2863   2.035   1.481   0.957
  655SOL    HW1 2864   1.980   1.544   1.013
  655SOL    HW2 2865   2.123   1.466   1.001
  656SOL     OW 2866   2.611   6.056   0.435
  656SOL    HW1 2867   2.651   6.035   0.525
  656SOL    HW2 2868   2.544   5.985   0.411
  657SOL     OW 2869   3.864   0.505   6.380
  657SOL    HW1 2870   3.815   0.529   6.296
  657SOL    HW2 2871   3.961   0.527   6.368
  658SOL     OW 2872   4.190   5.494   0.128
  658SOL    HW1 2873   4.231   5.527   0.043
  658SOL    HW2 2874   4.236   5.538   0.206
  659SOL     OW 2875   2.915   0.910   6.167
  659SOL    HW1 2876   2.945   1.004   6.148
  659SOL    HW2 2877   2.815   0.904   6.158
  660SOL     OW 2878   2.945   6.030   3.619
  660SOL    HW1 2879   2.927   5.934   3.640
  660SOL    HW2 2880   2.858   6.078   3.609
  661SOL     OW 2881   0.115   5.364   3.213
  661SOL    HW1 2882   0.056   5.392   3.138
  661SOL    HW2 2883   0.106   5.428   3.289
  662SOL     OW 2884   3.773   2.288   6.993
  662SOL    HW1 2885   3.719   2.357   6.944
  662SOL    HW2 2886   3.737   2.278   0.061
  663SOL     OW 2887   1.483   3.705   4.927
  663SOL    HW1 2888   1.486   3.779   4.994
  663SOL    HW2 2889   1.557   3.716   4.860
  664SOL     OW 2890   5.619   0.110   6.133
  664SOL    HW1 2891   5.623   0.078   6.038
  664SOL    HW2 2892   5.566   0.046   6.188
  665SOL     OW 2893   1.496   4.227   2.649
  665SOL    HW1 2894   1.507   4.133   2.617
  665SOL    HW2 2895   1.494   4.289   2.570
  666SOL     OW 2896   4.135   1.385   2.785
  666SOL    HW1 2897   4.113   1.470   2.833
  666SOL    HW2 2898   4.147   1.312   2.852
  667SOL     OW 2899   5.952   6.814   1.075
  667SOL    HW1 2900   6.009   6.815   1.157
  667SOL    HW2 2901   5.924   6.721   1.054
  668SOL     OW 2902   5.038   3.464   6.625
  668SOL    HW1 2903   5.072   3.553   6.654
  668SOL    HW2 2904   5.078   3.440   6.536
  669SOL     OW 2905   5.978   0.676   3.870
  669SOL    HW1 2906   5.924   0.594   3.884
  669SOL    HW2 2907   6.074   0.651   3.856
  670SOL     OW 2908   4.163   1.895   2.107
  670SOL    HW1 2909   4.073   1.934   2.127
  670SOL    HW2 2910   4.234   1.954   2.148
  671SOL     OW 2911   0.855   5.379   1.882
  671SOL    HW1 2912   0.866   5.443   1.806
  671SOL    HW2 2913   0.834   5.288   1.846
  672SOL     OW 2914   0.078   0.107   1.458
  672SOL    HW1 2915   0.113   0.108   1.552
  672SOL    HW2 2916   0.035   0.019   1.439
  673SOL     OW 2917   6.688   6.791   6.152
  673SOL    HW1 2918   6.704   6.847   6.233
  673SOL    HW2 2919   6.589   6.774   6.143
  674SOL     OW 2920   4.964   6.759   4.342
  674SOL    HW1 2921   5.032   6.738   4.271
  674SOL    HW2 2922   4.901   6.682   4.351
  675SOL     OW 2923   0.265   4.803   2.226
  675SOL    HW1 2924   0.169   4.813   2.201
  675SOL    HW2 2925   0.290   4.874   2.293
  676SOL     OW 2926   2.267   6.181   6.575
  676SOL    HW1 2927   2.247   6.112   6.644
  676SOL    HW2 2928   2.204   6.258   6.586
  677SOL     OW 2929   5.330   0.864   1.016
  677SOL    HW1 2930   5.256   0.861   0.949
  677SOL    HW2 2931   5.413   0.826   0.976
  678SOL     OW 2932   0.142   5.532   4.201
  678SOL    HW1 2933   0.186   5.597   4.264
  678SOL    HW2 2934   0.055   5.502   4.240
  679SOL     OW 2935   5.768   0.376   6.058
  679SOL    HW1 2936   5.737   0.293   6.105
  679SOL    HW2 2937   5.796   0.445   6.125
  680SOL     OW 2938   6.121   0.234   3.859
  680SOL    HW1 2939   6.096   0.309   3.920
  680SOL    HW2 2940   6.042   0.174   3.845
  681SOL     OW 2941   4.769   4.777   3.215
  681SOL    HW1 2942   4.678   4.754   3.250
  681SOL    HW2 2943   4.761   4.852   3.149
  682SOL     OW 2944   6.228   2.346   3.798
  682SOL    HW1 2945   6.240   2.256   3.758
  682SOL    HW2 2946   6.183   2.406   3.732
  683SOL     OW 2947   2.827   5.914   6.740
  683SOL    HW1 2948   2.745   5.860   6.761
  683SOL    HW2 2949   2.908   5.861   6.764
  684SOL     OW 2950   5.613   2.209   6.105
  684SOL    HW1 2951   5.688   2.240   6.162
  684SOL    HW2 2952   5.643   2.132   6.049
  685SOL     OW 2953   3.421   6.549   3.258
  685SOL    HW1 2954   3.322   6.539   3.256
  685SOL    HW2 2955   3.446   6.643   3.235
  686SOL     OW 2956   2.524   0.858   5.619
  686SOL    HW1 2957   2.448   0.846   5.556
  686SOL    HW2 2958   2.610   0.862   5.568
  687SOL     OW 2959   0.497   1.371   4.533
  687SOL    HW1 2960   0.536   1.369   4.625
  687SOL    HW2 2961   0.570   1.384   4.466
  688SOL     OW 2962   4.842   3.746   6.632
  688SOL    HW1 2963   4.803   3.665   6.589
  688SOL    HW2 2964   4.937   3.757   6.603
  689SOL     OW 2965   2.183   6.238   6.949
  689SOL    HW1 2966   2.103   6.191   6.912
  689SOL    HW2 2967   2.225   6.182   7.020
  690SOL     OW 2968   5.629   3.126   4.148
  690SOL    HW1 2969   5.649   3.043   4.096
  690SOL    HW2 2970   5.595   3.197   4.087
  691SOL     OW 2971   5.515   6.755   2.714
  691SOL    HW1 2972   5.615   6.751   2.713
  691SOL    HW2 2973   5.481   6.703   2.792
  692SOL     OW 2974   1.869   6.871   3.482
  692SOL    HW1 2975   1.910   6.803   3.542
  692SOL    HW2 2976   1.932   6.893   3.407
  693SOL     OW 2977   5.895   4.113   1.971
  693SOL    HW1 2978   5.854   4.185   1.914
  693SOL    HW2 2979   5.974   4.150   2.019
  694SOL     OW 2980   4.268   5.043   4.375
  694SOL    HW1 2981   4.201   5.107   4.336
  694SOL    HW2 2982   4.261   5.045   4.475
  695SOL     OW 2983   4.790   0.147   4.498
  695SOL    HW1 2984   4.843   0.108   4.574
  695SOL    HW2 2985   4.846   0.217   4.453
  696SOL     OW 2986   6.608   4.296   1.607
  696SOL    HW1 2987   6.641   4.325   1.517
  696SOL    HW2 2988   6.670   4.330   1.677
  697SOL     OW 2989   0.989   6.398   3.412
  697SOL    HW1 2990   0.906   6.344   3.425
  697SOL    HW2 2991   0.966   6.483   3.365
  698SOL     OW 2992   5.807   6.744   5.386
  698SOL    HW1 2993   5.750   6.679   5.336
  698SOL    HW2 2994   5.782   6.837   5.361
  699SOL     OW 2995   4.434   2.804   0.814
  699SOL    HW1 2996   4.338   2.777   0.814
  699SOL    HW2 2997   4.491   2.728   0.845
  700SOL     OW 2998   3.624   0.036   5.358
  700SOL    HW1 2999   3.648   6.981   5.301
  700SOL    HW2 3000   3.570   0.006   5.436
  701SOL     OW 3001   4.475   4.239   1.525
  701SOL    HW1 3002   4.426   4.320   1.492
  701SOL    HW2 3003   4.459   4.227   1.623
  702SOL     OW 3004   3.293   0.803   5.267
  702SOL    HW1 3005   3.350   0.876   5.228
  702SOL    HW2 3006   3.350   0.739   5.317
  703SOL     OW 3007   3.836   3.130   0.720
  703SOL    HW1 3008   3.894   3.127   0.801
  703SOL    HW2 3009   3.889   3.163   0.642
  704SOL     OW 3010   3.387   1.841   0.287
  704SOL    HW1 3011   3.398   1.793   0.200
  704SOL    HW2 3012   3.291   1.838   0.315
  705SOL     OW 3013   6.687   6.877   6.416
  705SOL    HW1 3014   6.768   6.836   6.459
  705SOL    HW2 3015   6.698   6.976   6.410
  706SOL     OW 3016   3.610   6.989   4.774
  706SOL    HW1 3017   3.570   6.965   4.862
  706SOL    HW2 3018   3.701   0.005   4.789
  707SOL     OW 3019   3.804   5.209   4.299
  707SOL    HW1 3020   3.903   5.207   4.281
  707SOL    HW2 3021   3.768   5.116   4.294
  708SOL     OW 3022   2.886   5.646   4.144
  708SOL    HW1 3023   2.926   5.561   4.108
  708SOL    HW2 3024   2.958   5.713   4.161
  709SOL     OW 3025   1.770   6.999   1.716
  709SOL    HW1 3026   1.754   6.947   1.799
  709SOL    HW2 3027   1.689   0.028   1.693
  710SOL     OW 3028   4.841   2.825   3.040
  710SOL    HW1 3029   4.854   2.924   3.042
  710SOL    HW2 3030   4.747   2.805   3.012
  711SOL     OW 3031   6.347   1.172   0.547
  711SOL    HW1 3032   6.422   1.105   0.555
  711SOL    HW2 3033   6.266   1.135   0.592
  712SOL     OW 3034   4.741   4.689   6.322
  712SOL    HW1 3035   4.725   4.606   6.268
  712SOL    HW2 3036   4.742   4.667   6.419
  713SOL     OW 3037   2.548   2.792   5.282
  713SOL    HW1 3038   2.515   2.786   5.377
  713SOL    HW2 3039   2.567   2.887   5.260
  714SOL     OW 3040   3.864   6.838   2.431
  714SOL    HW1 3041   3.924   6.918   2.435
  714SOL    HW2 3042   3.777   6.863   2.390
  715SOL     OW 3043   6.335   4.090   5.874
  715SOL    HW1 3044   6.421   4.135   5.849
  715SOL    HW2 3045   6.355   4.010   5.930
  716SOL     OW 3046   3.144   0.792   3.396
  716SOL    HW1 3047   3.218   0.811   3.460
  716SOL    HW2 3048   3.182   0.752   3.312
  717SOL     OW 3049   5.220   4.508   3.384
  717SOL    HW1 3050   5.178   4.599   3.388
  717SOL    HW2 3051   5.265   4.497   3.296
  718SOL     OW 3052   6.956   2.179   5.706
  718SOL    HW1 3053   6.965   2.122   5.788
  718SOL    HW2 3054   6.946   2.120   5.626
  719SOL     OW 3055   4.578   5.550   2.409
  719SOL    HW1 3056   4.511   5.504   2.467
  719SOL    HW2 3057   4.549   5.545   2.313
  720SOL     OW 3058   3.219   1.408   1.107
  720SOL    HW1 3059   3.153   1.440   1.176
  720SOL    HW2 3060   3.180   1.332   1.056
  721SOL     OW 3061   0.364   2.229   3.070
  721SOL    HW1 3062   0.440   2.167   3.051
  721SOL    HW2 3063   0.348   2.286   2.989
  722SOL     OW 3064   5.721   5.988   2.185
  722SOL    HW1 3065   5.658   5.933   2.240
  722SOL    HW2 3066   5.669   6.055   2.132
  723SOL     OW 3067   2.043   0.524   4.334
  723SOL    HW1 3068   2.023   0.621   4.329
  723SOL    HW2 3069   2.033   0.482   4.244
  724SOL     OW 3070   1.544   1.982   4.524
  724SOL    HW1 3071   1.644   1.978   4.527
  724SOL    HW2 3072   1.507   1.890   4.514
  725SOL     OW 3073   2.145   3.678   3.629
  725SOL    HW1 3074   2.106   3.685   3.721
  725SOL    HW2 3075   2.166   3.770   3.594
  726SOL     OW 3076   1.733   3.211   0.431
  726SOL    HW1 3077   1.664   3.140   0.422
  726SOL    HW2 3078   1.823   3.169   0.444
  727SOL     OW 3079   4.010   5.203   5.381
  727SOL    HW1 3080   4.035   5.113   5.415
  727SOL    HW2 3081   3.918   5.200   5.343
  728SOL     OW 3082   5.800   3.303   3.880
  728SOL    HW1 3083   5.861   3.357   3.938
  728SOL    HW2 3084   5.727   3.361   3.845
  729SOL     OW 3085   6.967   4.508   0.770
  729SOL    HW1 3086   6.945   4.598   0.734
  729SOL    HW2 3087   7.008   4.517   0.861
  730SOL     OW 3088   3.731   0.941   3.991
  730SOL    HW1 3089   3.769   1.028   3.959
  730SOL    HW2 3090   3.722   0.944   4.091
  731SOL     OW 3091   4.897   4.403   4.689
  731SOL    HW1 3092   4.952   4.372   4.766
  731SOL    HW2 3093   4.917   4.347   4.608
  732SOL     OW 3094   4.595   0.592   4.680
  732SOL    HW1 3095   4.566   0.610   4.774
  732SOL    HW2 3096   4.660   0.516   4.679
  733SOL     OW 3097   0.322   5.127   4.376
  733SOL    HW1 3098   0.377   5.078   4.308
  733SOL    HW2 3099   0.363   5.117   4.466
  734SOL     OW 3100   6.683   5.661   3.447
  734SOL    HW1 3101   6.584   5.675   3.436
  734SOL    HW2 3102   6.722   5.739   3.495
  735SOL     OW 3103   4.861   0.546   2.339
  735SOL    HW1 3104   4.885   0.449   2.327
  735SOL    HW2 3105   4.945   0.600   2.346
  736SOL     OW 3106   2.069   1.549   2.949
  736SOL    HW1 3107   2.027   1.592   2.869
  736SOL    HW2 3108   2.165   1.575   2.955
  737SOL     OW 3109   3.337   2.014   6.723
  737SOL    HW1 3110   3.343   2.060   6.811
  737SOL    HW2 3111   3.307   1.920   6.736
  738SOL     OW 3112   1.749   5.025   0.536
  738SOL    HW1 3113   1.720   5.021   0.441
  738SOL    HW2 3114   1.678   5.070   0.591
  739SOL     OW 3115   1.749   0.877   2.582
  739SOL    HW1 3116   1.681   0.861   2.653
  739SOL    HW2 3117   1.832   0.914   2.623
  740SOL     OW 3118   4.431   2.496   2.551
  740SOL    HW1 3119   4.477   2.458   2.471
  740SOL    HW2 3120   4.499   2.523   2.619
  741SOL     OW 3121   3.836   1.350   2.244
  741SOL    HW1 3122   3.823   1.359   2.343
  741SOL    HW2 3123   3.881   1.263   2.224
  742SOL     OW 3124   2.227   0.100   2.000
  742SOL    HW1 3125   2.298   0.157   1.959
  742SOL    HW2 3126   2.225   0.116   2.099
  743SOL     OW 3127   0.049   6.329   3.147
  743SOL    HW1 3128   0.044   6.271   3.229
  743SOL    HW2 3129   0.144   6.356   3.132
  744SOL     OW 3130   6.002   1.342   0.438
  744SOL    HW1 3131   6.071   1.308   0.502
  744SOL    HW2 3132   5.998   1.442   0.444
  745SOL     OW 3133   0.869   6.372   5.246
  745SOL    HW1 3134   0.800   6.390   5.175
  745SOL    HW2 3135   0.892   6.458   5.291
  746SOL     OW 3136   6.744   5.498   5.953
  746SOL    HW1 3137   6.727   5.492   5.855
  746SOL    HW2 3138   6.657   5.498   6.002
  747SOL     OW 3139   3.079   5.024   2.271
  747SOL    HW1 3140   3.010   5.029   2.199
  747SOL    HW2 3141   3.138   5.105   2.266
  748SOL     OW 3142   6.416   5.541   3.018
  748SOL    HW1 3143   6.437   5.634   3.050
  748SOL    HW2 3144   6.417   5.478   3.096
  749SOL     OW 3145   5.019   4.044   4.973
  749SOL    HW1 3146   5.005   3.949   4.948
  749SOL    HW2 3147   5.080   4.050   5.052
  750SOL     OW 3148   2.860   1.917   2.242
  750SOL    HW1 3149   2.772   1.918   2.290
  750SOL    HW2 3150   2.901   2.008   2.246
  751SOL     OW 3151   3.920   0.191   0.531
  751SOL    HW1 3152   3.931   0.097   0.500
  751SOL    HW2 3153   3.828   0.224   0.506
  752SOL     OW 3154   3.059   3.123   4.061
  752SOL    HW1 3155   3.035   3.091   3.969
  752SOL    HW2 3156   2.991   3.088   4.127
  753SOL     OW 3157   3.167   4.104   3.571
  753SOL    HW1 3158   3.215   4.019   3.596
  753SOL    HW2 3159   3.070   4.095   3.592
  754SOL     OW 3160   4.709   0.306   5.553
  754SOL    HW1 3161   4.642   0.365   5.598
  754SOL    HW2 3162   4.665   0.220   5.529
  755SOL     OW 3163   5.047   4.387   5.201
  755SOL    HW1 3164   5.057   4.287   5.202
  755SOL    HW2 3165   4.959   4.412   5.242
  756SOL     OW 3166   3.068   5.907   6.314
  756SOL    HW1 3167   2.983   5.946   6.351
  756SOL    HW2 3168   3.070   5.919   6.215
  757SOL     OW 3169   0.419   6.913   1.306
  757SOL    HW1 3170   0.342   6.884   1.363
  757SOL    HW2 3171   0.437   7.010   1.322
  758SOL     OW 3172   3.727   1.196   6.004
  758SOL    HW1 3173   3.674   1.113   5.986
  758SOL    HW2 3174   3.665   1.275   6.008
  759SOL     OW 3175   0.089   1.967   3.465
  759SOL    HW1 3176   0.183   1.993   3.443
  759SOL    HW2 3177   0.074   1.872   3.439
  760SOL     OW 3178   6.950   6.300   4.539
  760SOL    HW1 3179   0.008   6.245   4.546
  760SOL    HW2 3180   6.870   6.240   4.532
  761SOL     OW 3181   4.900   4.515   6.107
  761SOL    HW1 3182   4.889   4.496   6.204
  761SOL    HW2 3183   4.862   4.440   6.053
  762SOL     OW 3184   4.161   5.982   3.981
  762SOL    HW1 3185   4.122   6.067   4.018
  762SOL    HW2 3186   4.091   5.933   3.929
  763SOL     OW 3187   5.880   1.299   0.030
  763SOL    HW1 3188   5.809   1.273   6.989
  763SOL    HW2 3189   5.849   1.377   0.084
  764SOL     OW 3190   4.795   6.493   4.443
  764SOL    HW1 3191   4.792   6.464   4.347
  764SOL    HW2 3192   4.708   6.470   4.487
  765SOL     OW 3193   5.245   6.603   7.023
  765SOL    HW1 3194   5.271   6.604   0.095
  765SOL    HW2 3195   5.188   6.683   7.003
  766SOL     OW 3196   3.371   1.052   3.732
  766SOL    HW1 3197   3.370   0.953   3.719
  766SOL    HW2 3198   3.465   1.086   3.718
  767SOL     OW 3199   6.379   6.628   3.630
  767SOL    HW1 3200   6.346   6.706   3.683
  767SOL    HW2 3201   6.316   6.551   3.641
  768SOL     OW 3202   3.162   6.079   1.131
  768SOL    HW1 3203   3.142   6.176   1.119
  768SOL    HW2 3204   3.078   6.026   1.120
  769SOL     OW 3205   3.493   2.068   5.342
  769SOL    HW1 3206   3.531   2.035   5.428
  769SOL    HW2 3207   3.434   2.147   5.360
  770SOL     OW 3208   0.053   5.196   5.903
  770SOL    HW1 3209   0.099   5.219   5.817
  770SOL    HW2 3210   0.107   5.127   5.952
  771SOL     OW 3211   1.920   4.685   2.601
  771SOL    HW1 3212   1.873   4.774   2.599
  771SOL    HW2 3213   2.015   4.699   2.627
  772SOL     OW 3214   6.198   4.943   6.975
  772SOL    HW1 3215   6.273   5.004   7.001
  772SOL    HW2 3216   6.217   4.904   6.885
  773SOL     OW 3217   1.285   4.479   3.481
  773SOL    HW1 3218   1.378   4.486   3.446
  773SOL    HW2 3219   1.283   4.505   3.578
  774SOL     OW 3220   1.737   2.941   3.543
  774SOL    HW1 3221   1.713   2.844   3.535
  774SOL    HW2 3222   1.798   2.953   3.622
  775SOL     OW 3223   1.026   5.028   2.478
  775SOL    HW1 3224   1.077   5.113   2.467
  775SOL    HW2 3225   1.037   4.995   2.572
  776SOL     OW 3226   2.360   4.448   0.440
  776SOL    HW1 3227   2.372   4.510   0.517
  776SOL    HW2 3228   2.397   4.489   0.357
  777SOL     OW 3229   1.134   3.366   6.360
  777SOL    HW1 3230   1.102   3.305   6.432
  777SOL    HW2 3231   1.151   3.314   6.277
  778SOL     OW 3232   3.410   5.727   0.251
  778SOL    HW1 3233   3.467   5.669   0.310
  778SOL    HW2 3234   3.437   5.713   0.156
  779SOL     OW 3235   5.517   2.348   3.892
  779SOL    HW1 3236   5.439   2.313   3.841
  779SOL    HW2 3237   5.601   2.304   3.859
  780SOL     OW 3238   6.149   1.661   5.306
  780SOL    HW1 3239   6.143   1.576   5.254
  780SOL    HW2 3240   6.104   1.650   5.394
  781SOL     OW 3241   0.151   4.992   6.545
  781SOL    HW1 3242   0.160   4.963   6.640
  781SOL    HW2 3243   0.196   4.925   6.485
  782SOL     OW 3244   2.250   4.249   5.697
  782SOL    HW1 3245   2.342   4.211   5.705
  782SOL    HW2 3246   2.219   4.240   5.602
  783SOL     OW 3247   0.544   5.179   5.521
  783SOL    HW1 3248   0.466   5.233   5.489
  783SOL    HW2 3249   0.531   5.083   5.496
  784SOL     OW 3250   0.993   5.839   5.934
  784SOL    HW1 3251   0.936   5.757   5.932
  784SOL    HW2 3252   0.993   5.882   5.844
  785SOL     OW 3253   0.572   0.508   3.806
  785SOL    HW1 3254   0.504   0.529   3.876
  785SOL    HW2 3255   0.623   0.426   3.831
  786SOL     OW 3256   6.337   2.169   5.211
  786SOL    HW1 3257   6.367   2.212   5.296
  786SOL    HW2 3258   6.344   2.070   5.218
  787SOL     OW 3259   2.721   6.348   0.439
  787SOL    HW1 3260   2.632   6.375   0.402
  787SOL    HW2 3261   2.738   6.397   0.524
  788SOL     OW 3262   2.155   3.321   2.517
  788SOL    HW1 3263   2.101   3.308   2.434
  788SOL    HW2 3264   2.252   3.319   2.494
  789SOL     OW 3265   3.181   5.414   1.990
  789SOL    HW1 3266   3.238   5.495   1.979
  789SOL    HW2 3267   3.147   5.386   1.900
  790SOL     OW 3268   0.121   3.616   3.417
  790SOL    HW1 3269   0.078   3.695   3.461
  790SOL    HW2 3270   0.159   3.643   3.328
  791SOL     OW 3271   3.841   0.494   3.910
  791SOL    HW1 3272   3.763   0.498   3.972
  791SOL    HW2 3273   3.848   0.581   3.859
  792SOL     OW 3274   3.171   0.819   0.606
  792SOL    HW1 3275   3.215   0.870   0.532
  792SOL    HW2 3276   3.230   0.823   0.688
  793SOL     OW 3277   2.704   5.840   4.220
  793SOL    HW1 3278   2.635   5.859   4.150
  793SOL    HW2 3279   2.760   5.762   4.192
  794SOL     OW 3280   3.693   2.946   1.558
  794SOL    HW1 3281   3.764   2.925   1.626
  794SOL    HW2 3282   3.604   2.914   1.592
  795SOL     OW 3283   3.659   6.285   6.222
  795SOL    HW1 3284   3.732   6.226   6.188
  795SOL    HW2 3285   3.571   6.254   6.185
  796SOL     OW 3286   1.276   2.555   6.610
  796SOL    HW1 3287   1.360   2.569   6.557
  796SOL    HW2 3288   1.208   2.509   6.553
  797SOL     OW 3289   2.599   6.738   6.948
  797SOL    HW1 3290   2.643   6.780   6.869
  797SOL    HW2 3291   2.506   6.709   6.923
  798SOL     OW 3292   5.448   4.262   1.883
  798SOL    HW1 3293   5.369   4.304   1.925
  798SOL    HW2 3294   5.433   4.254   1.784
  799SOL     OW 3295   3.627   3.180   4.354
  799SOL    HW1 3296   3.658   3.103   4.409
  799SOL    HW2 3297   3.665   3.174   4.261
  800SOL     OW 3298   5.203   3.423   3.800
  800SOL    HW1 3299   5.255   3.339   3.786
  800SOL    HW2 3300   5.105   3.404   3.796
  801SOL     OW 3301   1.625   4.303   0.238
  801SOL    HW1 3302   1.546   4.320   0.297
  801SOL    HW2 3303   1.611   4.218   0.187
  802SOL     OW 3304   4.094   2.636   5.879
  802SOL    HW1 3305   4.086   2.537   5.884
  802SOL    HW2 3306   4.112   2.673   5.970
  803SOL     OW 3307   3.163   2.027   3.385
  803SOL    HW1 3308   3.135   1.931   3.381
  803SOL    HW2 3309   3.232   2.044   3.315
  804SOL     OW 3310   4.067   0.001   2.901
  804SOL    HW1 3311   4.008   7.021   2.982
  804SOL    HW2 3312   4.149   6.970   2.917
  805SOL     OW 3313   3.777   1.721   3.872
  805SOL    HW1 3314   3.747   1.810   3.838
  805SOL    HW2 3315   3.736   1.704   3.962
  806SOL     OW 3316   4.537   6.350   5.737
  806SOL    HW1 3317   4.510   6.430   5.683
  806SOL    HW2 3318   4.488   6.270   5.705
  807SOL     OW 3319   1.323   6.668   6.227
  807SOL    HW1 3320   1.259   6.719   6.285
  807SOL    HW2 3321   1.296   6.572   6.223
  808SOL     OW 3322   5.304   1.442   5.290
  808SOL    HW1 3323   5.273   1.444   5.195
  808SOL    HW2 3324   5.403   1.456   5.293
  809SOL     OW 3325   2.654   6.151   4.025
  809SOL    HW1 3326   2.625   6.243   4.054
  809SOL    HW2 3327   2.578   6.104   3.982
  810SOL     OW 3328   3.167   3.273   6.182
  810SOL    HW1 3329   3.104   3.196   6.194
  810SOL    HW2 3330   3.186   3.286   6.085
  811SOL     OW 3331   6.020   5.020   5.540
  811SOL    HW1 3332   6.076   5.060   5.468
  811SOL    HW2 3333   6.041   4.923   5.549
  812SOL     OW 3334   1.682   2.120   0.383
  812SOL    HW1 3335   1.637   2.200   0.345
  812SOL    HW2 3336   1.752   2.149   0.448
  813SOL     OW 3337   3.098   1.223   4.631
  813SOL    HW1 3338   3.013   1.250   4.586
  813SOL    HW2 3339   3.089   1.130   4.665
  814SOL     OW 3340   1.073   4.536   1.679
  814SOL    HW1 3341   1.133   4.484   1.619
  814SOL    HW2 3342   1.087   4.634   1.664
  815SOL     OW 3343   3.998   0.253   3.847
  815SOL    HW1 3344   3.970   0.212   3.760
  815SOL    HW2 3345   3.928   0.317   3.878
  816SOL     OW 3346   4.614   3.809   6.409
  816SOL    HW1 3347   4.666   3.772   6.332
  816SOL    HW2 3348   4.516   3.799   6.392
  817SOL     OW 3349   6.452   5.434   0.871
  817SOL    HW1 3350   6.508   5.512   0.842
  817SOL    HW2 3351   6.358   5.447   0.840
  818SOL     OW 3352   6.848   1.127   5.171
  818SOL    HW1 3353   6.790   1.066   5.118
  818SOL    HW2 3354   6.805   1.217   5.176
  819SOL     OW 3355   5.379   3.955   1.969
  819SOL    HW1 3356   5.434   3.918   2.044
  819SOL    HW2 3357   5.288   3.979   2.002
  820SOL     OW 3358   2.333   1.786   5.519
  820SOL    HW1 3359   2.343   1.782   5.420
  820SOL    HW2 3360   2.423   1.803   5.560
  821SOL     OW 3361   4.445   4.070   6.253
  821SOL    HW1 3362   4.518   4.091   6.318
  821SOL    HW2 3363   4.369   4.132   6.268
  822SOL     OW 3364   0.231   4.033   2.690
  822SOL    HW1 3365   0.193   4.025   2.598
  822SOL    HW2 3366   0.156   4.037   2.757
  823SOL     OW 3367   1.815   3.317   5.156
  823SOL    HW1 3368   1.794   3.263   5.075
  823SOL    HW2 3369   1.911   3.305   5.180
  824SOL     OW 3370   4.612   0.456   6.345
  824SOL    HW1 3371   4.536   0.393   6.361
  824SOL    HW2 3372   4.674   0.452   6.423
  825SOL     OW 3373   6.627   6.596   1.742
  825SOL    HW1 3374   6.702   6.541   1.705
  825SOL    HW2 3375   6.604   6.563   1.834
  826SOL     OW 3376   3.656   2.279   0.473
  826SOL    HW1 3377   3.631   2.372   0.444
  826SOL    HW2 3378   3.661   2.219   0.393
  827SOL     OW 3379   3.624   3.172   4.787
  827SOL    HW1 3380   3.629   3.121   4.873
  827SOL    HW2 3381   3.530   3.169   4.753
  828SOL     OW 3382   0.035   6.278   5.863
  828SOL    HW1 3383   6.998   6.206   5.829
  828SOL    HW2 3384   0.130   6.251   5.846
  829SOL     OW 3385   3.546   2.888   2.231
  829SOL    HW1 3386   3.494   2.952   2.288
  829SOL    HW2 3387   3.492   2.805   2.216
  830SOL     OW 3388   0.961   4.411   6.194
  830SOL    HW1 3389   0.964   4.311   6.199
  830SOL    HW2 3390   0.999   4.442   6.107
  831SOL     OW 3391   5.533   1.756   3.842
  831SOL    HW1 3392   5.576   1.682   3.895
  831SOL    HW2 3393   5.603   1.823   3.818
  832SOL     OW 3394   2.924   2.093   5.013
  832SOL    HW1 3395   3.012   2.141   5.018
  832SOL    HW2 3396   2.932   2.005   5.059
  833SOL     OW 3397   3.051   2.168   6.453
  833SOL    HW1 3398   3.112   2.244   6.474
  833SOL    HW2 3399   3.014   2.180   6.361
  834SOL     OW 3400   6.084   3.266   1.167
  834SOL    HW1 3401   6.172   3.265   1.215
  834SOL    HW2 3402   6.050   3.173   1.159
  835SOL     OW 3403   6.820   6.446   5.053
  835SOL    HW1 3404   6.846   6.437   4.957
  835SOL    HW2 3405   6.803   6.355   5.091
  836SOL     OW 3406   0.017   0.224   3.931
  836SOL    HW1 3407   0.014   0.296   3.861
  836SOL    HW2 3408   0.005   0.135   3.888
  837SOL     OW 3409   0.373   6.983   6.575
  837SOL    HW1 3410   0.427   6.964   6.494
  837SOL    HW2 3411   0.425   6.960   6.657
  838SOL     OW 3412   0.544   5.572   3.353
  838SOL    HW1 3413   0.562   5.544   3.259
  838SOL    HW2 3414   0.565   5.497   3.415
  839SOL     OW 3415   1.964   1.772   0.077
  839SOL    HW1 3416   1.938   1.862   0.113
  839SOL    HW2 3417   2.058   1.775   0.044
  840SOL     OW 3418   4.683   5.068   0.303
  840SOL    HW1 3419   4.747   5.006   0.260
  840SOL    HW2 3420   4.595   5.022   0.318
  841SOL     OW 3421   3.156   4.584   0.528
  841SOL    HW1 3422   3.203   4.499   0.554
  841SOL    HW2 3423   3.222   4.657   0.516
  842SOL     OW 3424   3.812   5.299   1.043
  842SOL    HW1 3425   3.729   5.322   0.993
  842SOL    HW2 3426   3.863   5.228   0.993
  843SOL     OW 3427   1.943   6.822   2.223
  843SOL    HW1 3428   1.864   6.840   2.164
  843SOL    HW2 3429   1.947   6.725   2.244
  844SOL     OW 3430   0.154   6.766   1.658
  844SOL    HW1 3431   0.172   6.863   1.668
  844SOL    HW2 3432   0.226   6.713   1.703
  845SOL     OW 3433   4.233   1.745   1.474
  845SOL    HW1 3434   4.269   1.651   1.471
  845SOL    HW2 3435   4.152   1.747   1.532
  846SOL     OW 3436   1.350   0.208   1.299
  846SOL    HW1 3437   1.318   0.113   1.290
  846SOL    HW2 3438   1.427   0.211   1.363
  847SOL     OW 3439   2.524   2.683   1.508
  847SOL    HW1 3440   2.605   2.703   1.563
  847SOL    HW2 3441   2.544   2.608   1.445
  848SOL     OW 3442   6.543   6.574   1.201
  848SOL    HW1 3443   6.583   6.634   1.132
  848SOL    HW2 3444   6.456   6.612   1.232
  849SOL     OW 3445   5.082   3.076   6.488
  849SOL    HW1 3446   5.011   3.064   6.418
  849SOL    HW2 3447   5.136   2.992   6.495
  850SOL     OW 3448   2.543   0.819   3.998
  850SOL    HW1 3449   2.452   0.777   4.005
  850SOL    HW2 3450   2.551   0.891   4.066
  851SOL     OW 3451   4.795   2.744   5.907
  851SOL    HW1 3452   4.827   2.739   6.002
  851SOL    HW2 3453   4.847   2.679   5.851
  852SOL     OW 3454   0.845   4.400   1.523
  852SOL    HW1 3455   0.807   4.313   1.491
  852SOL    HW2 3456   0.876   4.389   1.618
  853SOL     OW 3457   3.393   2.940   0.608
  853SOL    HW1 3458   3.342   2.921   0.692
  853SOL    HW2 3459   3.421   2.853   0.566
  854SOL     OW 3460   6.807   0.863   6.100
  854SOL    HW1 3461   6.874   0.930   6.069
  854SOL    HW2 3462   6.854   0.783   6.137
  855SOL     OW 3463   3.988   1.940   6.794
  855SOL    HW1 3464   4.071   1.885   6.794
  855SOL    HW2 3465   3.986   1.997   6.876
  856SOL     OW 3466   0.817   6.204   1.410
  856SOL    HW1 3467   0.886   6.275   1.405
  856SOL    HW2 3468   0.829   6.151   1.495
  857SOL     OW 3469   6.785   6.136   5.652
  857SOL    HW1 3470   6.851   6.075   5.695
  857SOL    HW2 3471   6.819   6.230   5.658
  858SOL     OW 3472   2.932   4.707   0.684
  858SOL    HW1 3473   2.980   4.622   0.662
  858SOL    HW2 3474   2.836   4.700   0.657
  859SOL     OW 3475   4.627   5.944   6.090
  859SOL    HW1 3476   4.595   5.918   6.181
  859SOL    HW2 3477   4.699   5.880   6.060
  860SOL     OW 3478   3.925   3.019   6.962
  860SOL    HW1 3479   3.904   3.033   0.034
  860SOL    HW2 3480   4.009   2.964   6.954
  861SOL     OW 3481   0.893   5.032   2.245
  861SOL    HW1 3482   0.852   5.123   2.250
  861SOL    HW2 3483   0.948   5.016   2.327
  862SOL     OW 3484   0.939   5.062   4.351
  862SOL    HW1 3485   0.984   5.099   4.432
  862SOL    HW2 3486   1.007   5.045   4.280
  863SOL     OW 3487   5.069   0.277   1.346
  863SOL    HW1 3488   5.000   0.207   1.326
  863SOL    HW2 3489   5.142   0.238   1.401
  864SOL     OW 3490   5.506   3.583   3.575
  864SOL    HW1 3491   5.582   3.639   3.609
  864SOL    HW2 3492   5.476   3.619   3.487
  865SOL     OW 3493   1.942   4.760   5.033
  865SOL    HW1 3494   1.883   4.727   4.959
  865SOL    HW2 3495   2.010   4.823   4.995
  866SOL     OW 3496   3.647   6.370   0.736
  866SOL    HW1 3497   3.586   6.293   0.719
  866SOL    HW2 3498   3.731   6.338   0.779
  867SOL     OW 3499   5.885   3.321   4.443
  867SOL    HW1 3500   5.901   3.262   4.365
  867SOL    HW2 3501   5.961   3.313   4.508
  868SOL     OW 3502   0.093   1.644   1.840
  868SOL    HW1 3503   0.121   1.556   1.800
  868SOL    HW2 3504   0.004   1.633   1.885
  869SOL     OW 3505   1.277   2.624   2.380
  869SOL    HW1 3506   1.359   2.569   2.393
  869SOL    HW2 3507   1.229   2.593   2.298
  870SOL     OW 3508   3.666   4.334   1.729
  870SOL    HW1 3509   3.629   4.417   1.769
  870SOL    HW2 3510   3.674   4.345   1.630
  871SOL     OW 3511   4.699   1.763   3.391
  871SOL    HW1 3512   4.615   1.731   3.347
  871SOL    HW2 3513   4.733   1.844   3.343
  872SOL     OW 3514   2.377   2.174   5.816
  872SOL    HW1 3515   2.470   2.198   5.787
  872SOL    HW2 3516   2.321   2.257   5.822
  873SOL     OW 3517   3.996   1.222   5.954
  873SOL    HW1 3518   4.018   1.168   6.035
  873SOL    HW2 3519   3.897   1.221   5.940
  874SOL     OW 3520   5.255   4.238   3.158
  874SOL    HW1 3521   5.349   4.204   3.151
  874SOL    HW2 3522   5.250   4.331   3.124
  875SOL     OW 3523   4.797   5.257   2.245
  875SOL    HW1 3524   4.845   5.285   2.329
  875SOL    HW2 3525   4.757   5.167   2.259
  876SOL     OW 3526   5.844   1.762   5.697
  876SOL    HW1 3527   5.891   1.836   5.648
  876SOL    HW2 3528   5.747   1.784   5.704
  877SOL     OW 3529   1.005   3.384   5.929
  877SOL    HW1 3530   1.068   3.323   5.977
  877SOL    HW2 3531   0.943   3.331   5.872
  878SOL     OW 3532   4.352   6.619   4.798
  878SOL    HW1 3533   4.401   6.533   4.784
  878SOL    HW2 3534   4.343   6.667   4.710
  879SOL     OW 3535   6.000   6.900   5.796
  879SOL    HW1 3536   6.018   6.979   5.855
  879SOL    HW2 3537   6.019   6.816   5.846
  880SOL     OW 3538   3.729   2.907   2.989
  880SOL    HW1 3539   3.709   2.831   2.927
  880SOL    HW2 3540   3.644   2.939   3.031
  881SOL     OW 3541   5.451   2.372   6.815
  881SOL    HW1 3542   5.470   2.293   6.756
  881SOL    HW2 3543   5.517   2.373   6.890
  882SOL     OW 3544   1.666   2.442   4.042
  882SOL    HW1 3545   1.683   2.539   4.024
  882SOL    HW2 3546   1.681   2.389   3.958
  883SOL     OW 3547   2.886   6.522   3.139
  883SOL    HW1 3548   2.823   6.599   3.148
  883SOL    HW2 3549   2.835   6.439   3.117
  884SOL     OW 3550   2.687   3.447   6.170
  884SOL    HW1 3551   2.751   3.393   6.115
  884SOL    HW2 3552   2.621   3.492   6.109
  885SOL     OW 3553   4.796   3.182   6.753
  885SOL    HW1 3554   4.698   3.195   6.738
  885SOL    HW2 3555   4.831   3.253   6.814
  886SOL     OW 3556   3.814   1.575   5.814
  886SOL    HW1 3557   3.796   1.662   5.768
  886SOL    HW2 3558   3.861   1.513   5.751
  887SOL     OW 3559   3.090   0.842   5.463
  887SOL    HW1 3560   3.133   0.875   5.379
  887SOL    HW2 3561   3.019   0.907   5.492
  888SOL     OW 3562   0.385   6.513   2.145
  888SOL    HW1 3563   0.424   6.421   2.150
  888SOL    HW2 3564   0.289   6.507   2.117
  889SOL     OW 3565   0.412   4.268   1.053
  889SOL    HW1 3566   0.352   4.250   1.130
  889SOL    HW2 3567   0.361   4.315   0.980
  890SOL     OW 3568   2.500   6.741   4.548
  890SOL    HW1 3569   2.479   6.712   4.455
  890SOL    HW2 3570   2.522   6.660   4.603
  891SOL     OW 3571   4.190   4.756   2.274
  891SOL    HW1 3572   4.091   4.768   2.285
  891SOL    HW2 3573   4.237   4.798   2.351
  892SOL     OW 3574   2.724   4.275   1.135
  892SOL    HW1 3575   2.679   4.335   1.201
  892SOL    HW2 3576   2.741   4.325   1.050
  893SOL     OW 3577   1.299   5.045   2.317
  893SOL    HW1 3578   1.293   4.949   2.345
  893SOL    HW2 3579   1.294   5.104   2.398
  894SOL     OW 3580   1.176   4.314   0.570
  894SOL    HW1 3581   1.253   4.378   0.582
  894SOL    HW2 3582   1.155   4.271   0.657
  895SOL     OW 3583   6.563   5.857   5.917
  895SOL    HW1 3584   6.511   5.941   5.897
  895SOL    HW2 3585   6.537   5.786   5.852
  896SOL     OW 3586   6.721   0.718   5.776
  896SOL    HW1 3587   6.701   0.625   5.745
  896SOL    HW2 3588   6.676   0.734   5.864
  897SOL     OW 3589   6.055   1.228   0.204
  897SOL    HW1 3590   6.023   1.256   0.294
  897SOL    HW2 3591   5.980   1.233   0.138
  898SOL     OW 3592   4.045   1.684   3.925
  898SOL    HW1 3593   4.105   1.706   3.848
  898SOL    HW2 3594   3.950   1.702   3.900
  899SOL     OW 3595   6.497   6.736   6.759
  899SOL    HW1 3596   6.423   6.691   6.808
  899SOL    HW2 3597   6.583   6.726   6.809
  900SOL     OW 3598   4.768   4.409   5.873
  900SOL    HW1 3599   4.801   4.364   5.790
  900SOL    HW2 3600   4.680   4.453   5.854
  901SOL     OW 3601   1.182   0.515   2.306
  901SOL    HW1 3602   1.183   0.418   2.330
  901SOL    HW2 3603   1.093   0.554   2.330
  902SOL     OW 3604   0.125   2.558   2.743
  902SOL    HW1 3605   0.166   2.613   2.671
  902SOL    HW2 3606   0.061   2.615   2.796
  903SOL     OW 3607   5.637   1.675   0.057
  903SOL    HW1 3608   5.729   1.669   0.019
  903SOL    HW2 3609   5.642   1.700   0.154
  904SOL     OW 3610   3.023   0.521   3.257
  904SOL    HW1 3611   2.989   0.539   3.350
  904SOL    HW2 3612   2.983   0.587   3.194
  905SOL     OW 3613   4.996   2.589   5.766
  905SOL    HW1 3614   5.079   2.570   5.713
  905SOL    HW2 3615   5.012   2.565   5.862
  906SOL     OW 3616   5.959   3.277   1.972
  906SOL    HW1 3617   5.927   3.361   2.016
  906SOL    HW2 3618   6.027   3.299   1.902
  907SOL     OW 3619   5.925   5.031   0.756
  907SOL    HW1 3620   5.960   5.120   0.725
  907SOL    HW2 3621   5.880   4.985   0.680
  908SOL     OW 3622   0.897   4.062   3.672
  908SOL    HW1 3623   0.881   4.158   3.692
  908SOL    HW2 3624   0.994   4.048   3.649
  909SOL     OW 3625   5.292   4.291   5.944
  909SOL    HW1 3626   5.252   4.361   5.885
  909SOL    HW2 3627   5.379   4.324   5.980
  910SOL     OW 3628   3.427   4.747   0.549
  910SOL    HW1 3629   3.406   4.794   0.463
  910SOL    HW2 3630   3.522   4.765   0.574
  911SOL     OW 3631   0.673   4.542   5.743
  911SOL    HW1 3632   0.660   4.638   5.765
  911SOL    HW2 3633   0.638   4.485   5.818
  912SOL     OW 3634   5.529   1.857   4.617
  912SOL    HW1 3635   5.521   1.919   4.539
  912SOL    HW2 3636   5.605   1.887   4.676
  913SOL     OW 3637   5.389   6.062   3.318
  913SOL    HW1 3638   5.354   6.121   3.245
  913SOL    HW2 3639   5.384   6.110   3.405
  914SOL     OW 3640   2.502   6.518   4.731
  914SOL    HW1 3641   2.506   6.420   4.712
  914SOL    HW2 3642   2.415   6.540   4.775
  915SOL     OW 3643   5.497   5.385   2.341
  915SOL    HW1 3644   5.403   5.414   2.362
  915SOL    HW2 3645   5.561   5.450   2.381
  916SOL     OW 3646   1.835   3.892   3.387
  916SOL    HW1 3647   1.878   3.972   3.428
  916SOL    HW2 3648   1.765   3.921   3.322
  917SOL     OW 3649   0.103   6.826   0.131
  917SOL    HW1 3650   0.036   6.777   0.186
  917SOL    HW2 3651   0.068   6.917   0.108
  918SOL     OW 3652   3.279   5.539   5.707
  918SOL    HW1 3653   3.258   5.521   5.611
  918SOL    HW2 3654   3.348   5.473   5.738
  919SOL     OW 3655   4.436   0.138   5.862
  919SOL    HW1 3656   4.418   0.071   5.790
  919SOL    HW2 3657   4.449   0.228   5.821
  920SOL     OW 3658   3.148   4.402   1.060
  920SOL    HW1 3659   3.226   4.463   1.072
  920SOL    HW2 3660   3.162   4.319   1.114
  921SOL     OW 3661   5.665   5.495   5.517
  921SOL    HW1 3662   5.658   5.581   5.467
  921SOL    HW2 3663   5.718   5.509   5.601
  922SOL     OW 3664   3.477   3.613   3.148
  922SOL    HW1 3665   3.560   3.557   3.140
  922SOL    HW2 3666   3.476   3.657   3.237
  923SOL     OW 3667   2.713   3.788   5.690
  923SOL    HW1 3668   2.621   3.823   5.670
  923SOL    HW2 3669   2.766   3.782   5.606
  924SOL     OW 3670   0.265   2.119   0.957
  924SOL    HW1 3671   0.318   2.192   0.914
  924SOL    HW2 3672   0.269   2.037   0.900
  925SOL     OW 3673   1.299   1.397   0.435
  925SOL    HW1 3674   1.338   1.489   0.446
  925SOL    HW2 3675   1.205   1.396   0.469
  926SOL     OW 3676   1.819   1.936   1.418
  926SOL    HW1 3677   1.765   2.020   1.414
  926SOL    HW2 3678   1.829   1.898   1.327
  927SOL     OW 3679   0.788   4.275   5.432
  927SOL    HW1 3680   0.829   4.238   5.515
  927SOL    HW2 3681   0.820   4.223   5.353
  928SOL     OW 3682   2.777   5.358   5.864
  928SOL    HW1 3683   2.807   5.408   5.783
  928SOL    HW2 3684   2.678   5.341   5.859
  929SOL     OW 3685   2.302   2.360   4.703
  929SOL    HW1 3686   2.252   2.437   4.664
  929SOL    HW2 3687   2.400   2.374   4.689
  930SOL     OW 3688   5.651   5.860   6.214
  930SOL    HW1 3689   5.586   5.793   6.249
  930SOL    HW2 3690   5.725   5.872   6.281
  931SOL     OW 3691   5.903   6.970   2.654
  931SOL    HW1 3692   5.856   6.882   2.669
  931SOL    HW2 3693   5.938   7.004   2.741
  932SOL     OW 3694   4.192   0.170   3.990
  932SOL    HW1 3695   4.262   0.154   3.920
  932SOL    HW2 3696   4.109   0.204   3.946
  933SOL     OW 3697   1.119   5.708   2.183
  933SOL    HW1 3698   1.101   5.769   2.260
  933SOL    HW2 3699   1.044   5.714   2.117
  934SOL     OW 3700   1.940   2.551   1.163
  934SOL    HW1 3701   1.875   2.598   1.224
  934SOL    HW2 3702   1.961   2.610   1.085
  935SOL     OW 3703   5.516   3.062   6.083
  935SOL    HW1 3704   5.608   3.070   6.119
  935SOL    HW2 3705   5.520   3.040   5.985
  936SOL     OW 3706   1.273   1.399   5.746
  936SOL    HW1 3707   1.221   1.357   5.821
  936SOL    HW2 3708   1.210   1.440   5.680
  937SOL     OW 3709   3.479   2.138   6.100
  937SOL    HW1 3710   3.480   2.107   6.195
  937SOL    HW2 3711   3.573   2.153   6.069
  938SOL     OW 3712   5.185   6.946   4.041
  938SOL    HW1 3713   5.132   6.867   4.074
  938SOL    HW2 3714   5.148   6.977   3.954
  939SOL     OW 3715   1.749   0.110   4.556
  939SOL    HW1 3716   1.690   0.179   4.515
  939SOL    HW2 3717   1.829   0.096   4.498
  940SOL     OW 3718   2.294   4.873   0.836
  940SOL    HW1 3719   2.290   4.915   0.927
  940SOL    HW2 3720   2.305   4.944   0.767
  941SOL     OW 3721   3.854   0.317   1.412
  941SOL    HW1 3722   3.827   0.223   1.429
  941SOL    HW2 3723   3.915   0.348   1.486
  942SOL     OW 3724   0.296   4.753   0.234
  942SOL    HW1 3725   0.289   4.681   0.303
  942SOL    HW2 3726   0.211   4.758   0.182
  943SOL     OW 3727   3.480   6.932   1.579
  943SOL    HW1 3728   3.443   7.019   1.546
  943SOL    HW2 3729   3.438   6.857   1.528
  944SOL     OW 3730   6.026   5.757   3.621
  944SOL    HW1 3731   5.982   5.696   3.554
  944SOL    HW2 3732   6.048   5.844   3.577
  945SOL     OW 3733   0.566   4.889   6.717
  945SOL    HW1 3734   0.560   4.899   6.618
  945SOL    HW2 3735   0.560   4.792   6.741
  946SOL     OW 3736   6.261   1.737   4.453
  946SOL    HW1 3737   6.195   1.723   4.379
  946SOL    HW2 3738   6.235   1.819   4.504
  947SOL     OW 3739   3.294   4.004   2.665
  947SOL    HW1 3740   3.213   3.999   2.606
  947SOL    HW2 3741   3.357   4.073   2.630
  948SOL     OW 3742   4.234   2.134   3.787
  948SOL    HW1 3743   4.309   2.183   3.743
  948SOL    HW2 3744   4.258   2.113   3.881
  949SOL     OW 3745   1.793   0.708   5.574
  949SOL    HW1 3746   1.711   0.727   5.628
  949SOL    HW2 3747   1.806   0.609   5.568
  950SOL     OW 3748   6.109   0.104   1.370
  950SOL    HW1 3749   6.064   0.120   1.282
  950SOL    HW2 3750   6.046   0.054   1.430
  951SOL     OW 3751   0.814   0.113   2.313
  951SOL    HW1 3752   0.818   0.181   2.240
  951SOL    HW2 3753   0.809   0.159   2.401
  952SOL     OW 3754   2.867   1.715   3.076
  952SOL    HW1 3755   2.905   1.805   3.053
  952SOL    HW2 3756   2.918   1.676   3.153
  953SOL     OW 3757   0.097   5.730   4.923
  953SOL    HW1 3758   0.053   5.661   4.980
  953SOL    HW2 3759   0.101   5.817   4.973
  954SOL     OW 3760   4.198   6.869   2.328
  954SOL    HW1 3761   4.174   6.776   2.354
  954SOL    HW2 3762   4.144   6.897   2.249
  955SOL     OW 3763   3.477   3.848   1.469
  955SOL    HW1 3764   3.394   3.882   1.425
  955SOL    HW2 3765   3.488   3.892   1.558
  956SOL     OW 3766   3.621   6.682   0.830
  956SOL    HW1 3767   3.539   6.632   0.801
  956SOL    HW2 3768   3.625   6.769   0.780
  957SOL     OW 3769   6.692   0.451   3.216
  957SOL    HW1 3770   6.608   0.447   3.270
  957SOL    HW2 3771   6.671   0.433   3.120
  958SOL     OW 3772   5.292   5.729   2.390
  958SOL    HW1 3773   5.319   5.768   2.302
  958SOL    HW2 3774   5.372   5.727   2.450
  959SOL     OW 3775   4.767   5.696   2.006
  959SOL    HW1 3776   4.833   5.743   2.063
  959SOL    HW2 3777   4.746   5.606   2.046
  960SOL     OW 3778   0.987   6.584   6.081
  960SOL    HW1 3779   0.904   6.588   6.027
  960SOL    HW2 3780   1.067   6.583   6.021
  961SOL     OW 3781   4.543   0.929   4.031
  961SOL    HW1 3782   4.528   0.918   3.932
  961SOL    HW2 3783   4.466   0.887   4.080
  962SOL     OW 3784   0.246   1.268   5.411
  962SOL    HW1 3785   0.171   1.204   5.397
  962SOL    HW2 3786   0.231   1.320   5.495
  963SOL     OW 3787   5.554   2.557   1.954
  963SOL    HW1 3788   5.581   2.467   1.920
  963SOL    HW2 3789   5.484   2.596   1.894
  964SOL     OW 3790   3.547   6.410   4.374
  964SOL    HW1 3791   3.557   6.507   4.399
  964SOL    HW2 3792   3.567   6.399   4.276
  965SOL     OW 3793   4.940   1.215   4.559
  965SOL    HW1 3794   4.905   1.187   4.648
  965SOL    HW2 3795   4.973   1.310   4.563
  966SOL     OW 3796   5.093   1.471   3.154
  966SOL    HW1 3797   5.099   1.373   3.173
  966SOL    HW2 3798   5.049   1.518   3.231
  967SOL     OW 3799   4.578   5.889   6.352
  967SOL    HW1 3800   4.497   5.945   6.368
  967SOL    HW2 3801   4.595   5.831   6.431
  968SOL     OW 3802   4.389   6.591   1.351
  968SOL    HW1 3803   4.296   6.559   1.367
  968SOL    HW2 3804   4.417   6.568   1.257
  969SOL     OW 3805   3.454   3.537   6.705
  969SOL    HW1 3806   3.516   3.487   6.765
  969SOL    HW2 3807   3.400   3.472   6.652
  970SOL     OW 3808   3.932   6.156   5.934
  970SOL    HW1 3809   3.912   6.254   5.929
  970SOL    HW2 3810   3.991   6.130   5.859
  971SOL     OW 3811   4.818   4.057   3.675
  971SOL    HW1 3812   4.773   4.034   3.761
  971SOL    HW2 3813   4.880   4.135   3.689
  972SOL     OW 3814   1.018   1.661   0.744
  972SOL    HW1 3815   0.969   1.747   0.732
  972SOL    HW2 3816   1.116   1.679   0.744
  973SOL     OW 3817   7.006   2.738   4.943
  973SOL    HW1 3818   0.051   2.797   4.900
  973SOL    HW2 3819   6.933   2.720   4.878
  974SOL     OW 3820   1.440   3.275   1.290
  974SOL    HW1 3821   1.412   3.183   1.262
  974SOL    HW2 3822   1.379   3.308   1.362
  975SOL     OW 3823   3.275   0.535   2.161
  975SOL    HW1 3824   3.223   0.557   2.243
  975SOL    HW2 3825   3.372   0.553   2.176
  976SOL     OW 3826   6.940   3.425   3.418
  976SOL    HW1 3827   7.018   3.487   3.418
  976SOL    HW2 3828   6.938   3.374   3.505
  977SOL     OW 3829   0.177   1.574   2.313
  977SOL    HW1 3830   0.184   1.503   2.244
  977SOL    HW2 3831   0.173   1.664   2.269
  978SOL     OW 3832   6.137   1.777   0.716
  978SOL    HW1 3833   6.150   1.704   0.649
  978SOL    HW2 3834   6.077   1.745   0.789
  979SOL     OW 3835   0.190   5.330   6.687
  979SOL    HW1 3836   0.290   5.332   6.684
  979SOL    HW2 3837   0.153   5.395   6.621
  980SOL     OW 3838   4.855   1.453   4.011
  980SOL    HW1 3839   4.764   1.413   4.001
  980SOL    HW2 3840   4.848   1.538   4.062
  981SOL     OW 3841   0.188   6.092   6.102
  981SOL    HW1 3842   0.274   6.136   6.130
  981SOL    HW2 3843   0.148   6.143   6.026
  982SOL     OW 3844   6.926   0.651   6.211
  982SOL    HW1 3845   7.009   0.595   6.206
  982SOL    HW2 3846   6.863   0.612   6.278
  983SOL     OW 3847   0.356   3.519   2.036
  983SOL    HW1 3848   0.431   3.522   1.969
  983SOL    HW2 3849   0.279   3.573   2.001
  984SOL     OW 3850   0.213   3.699   4.721
  984SOL    HW1 3851   0.196   3.748   4.806
  984SOL    HW2 3852   0.136   3.638   4.702
  985SOL     OW 3853   5.065   5.444   6.142
  985SOL    HW1 3854   5.136   5.374   6.153
  985SOL    HW2 3855   4.981   5.414   6.188
  986SOL     OW 3856   3.678   5.296   1.299
  986SOL    HW1 3857   3.670   5.383   1.348
  986SOL    HW2 3858   3.725   5.312   1.212
  987SOL     OW 3859   4.716   4.991   4.294
  987SOL    HW1 3860   4.629   4.945   4.311
  987SOL    HW2 3861   4.792   4.935   4.328
  988SOL     OW 3862   3.351   4.825   1.760
  988SOL    HW1 3863   3.421   4.758   1.787
  988SOL    HW2 3864   3.311   4.866   1.841
  989SOL     OW 3865   0.638   2.014   0.855
  989SOL    HW1 3866   0.619   1.936   0.796
  989SOL    HW2 3867   0.564   2.081   0.848
  990SOL     OW 3868   3.944   0.251   5.244
  990SOL    HW1 3869   3.892   0.328   5.205
  990SOL    HW2 3870   3.926   0.245   5.342
  991SOL     OW 3871   1.217   6.536   3.730
  991SOL    HW1 3872   1.269   6.451   3.729
  991SOL    HW2 3873   1.265   6.603   3.787
  992SOL     OW 3874   6.309   3.570   1.499
  992SOL    HW1 3875   6.403   3.564   1.533
  992SOL    HW2 3876   6.309   3.585   1.401
  993SOL     OW 3877   2.049   4.097   6.861
  993SOL    HW1 3878   1.965   4.115   6.911
  993SOL    HW2 3879   2.087   4.009   6.891
  994SOL     OW 3880   2.083   6.417   1.169
  994SOL    HW1 3881   2.048   6.360   1.244
  994SOL    HW2 3882   2.131   6.496   1.207
  995SOL     OW 3883   5.045   4.312   4.882
  995SOL    HW1 3884   5.034   4.222   4.925
  995SOL    HW2 3885   5.032   4.383   4.951
  996SOL     OW 3886   3.965   6.745   5.259
  996SOL    HW1 3887   3.954   6.834   5.215
  996SOL    HW2 3888   3.919   6.674   5.205
  997SOL     OW 3889   0.942   6.616   3.654
  997SOL    HW1 3890   1.039   6.602   3.677
  997SOL    HW2 3891   0.891   6.532   3.673
  998SOL     OW 3892   4.524   0.460   0.339
  998SOL    HW1 3893   4.518   0.467   0.240
  998SOL    HW2 3894   4.469   0.382   0.370
  999SOL     OW 3895   6.111   2.774   2.957
  999SOL    HW1 3896   6.159   2.792   2.871
  999SOL    HW2 3897   6.153   2.828   3.030
 1000SOL     OW 3898   6.144   1.595   2.984
 1000SOL    HW1 3899   6.106   1.682   2.951
 1000SOL    HW2 3900   6.069   1.534   3.011
 1001SOL     OW 3901   2.720   6.711   3.268
 1001SOL    HW1 3902   2.653   6.781   3.241
 1001SOL    HW2 3903   2.807   6.756   3.291
 1002SOL     OW 3904   4.821   2.492   0.313
 1002SOL    HW1 3905   4.840   2.506   0.410
 1002SOL    HW2 3906   4.848   2.400   0.286
 1003SOL     OW 3907   1.977   1.770   3.985
 1003SOL    HW1 3908   1.879   1.760   4.002
 1003SOL    HW2 3909   2.000   1.730   3.897
 1004SOL     OW 3910   4.473   1.748   4.834
 1004SOL    HW1 3911   4.436   1.675   4.891
 1004SOL    HW2 3912   4.537   1.803   4.889
 1005SOL     OW 3913   0.700   5.467   2.101
 1005SOL    HW1 3914   0.607   5.430   2.105
 1005SOL    HW2 3915   0.754   5.414   2.036
 1006SOL     OW 3916   1.873   3.817   2.405
 1006SOL    HW1 3917   1.939   3.761   2.455
 1006SOL    HW2 3918   1.857   3.777   2.315
 1007SOL     OW 3919   4.467   0.716   6.298
 1007SOL    HW1 3920   4.480   0.806   6.255
 1007SOL    HW2 3921   4.489   0.645   6.231
 1008SOL     OW 3922   0.222   4.293   4.157
 1008SOL    HW1 3923   0.223   4.239   4.073
 1008SOL    HW2 3924   0.176   4.243   4.230
 1009SOL     OW 3925   6.795   6.111   0.568
 1009SOL    HW1 3926   6.805   6.049   0.490
 1009SOL    HW2 3927   6.709   6.091   0.615
 1010SOL     OW 3928   3.096   4.211   0.305
 1010SOL    HW1 3929   3.098   4.182   0.401
 1010SOL    HW2 3930   3.179   4.179   0.259
 1011SOL     OW 3931   6.420   4.630   2.681
 1011SOL    HW1 3932   6.497   4.598   2.626
 1011SOL    HW2 3933   6.450   4.705   2.740
 1012SOL     OW 3934   5.161   6.344   2.758
 1012SOL    HW1 3935   5.162   6.246   2.737
 1012SOL    HW2 3936   5.067   6.376   2.764
 1013SOL     OW 3937   0.294   1.058   6.187
 1013SOL    HW1 3938   0.305   1.131   6.119
 1013SOL    HW2 3939   0.349   1.079   6.268
 1014SOL     OW 3940   0.634   4.712   4.305
 1014SOL    HW1 3941   0.561   4.753   4.360
 1014SOL    HW2 3942   0.654   4.771   4.227
 1015SOL     OW 3943   2.985   6.285   6.056
 1015SOL    HW1 3944   3.039   6.244   6.130
 1015SOL    HW2 3945   3.042   6.292   5.974
 1016SOL     OW 3946   6.787   4.408   0.412
 1016SOL    HW1 3947   6.829   4.439   0.326
 1016SOL    HW2 3948   6.779   4.309   0.410
 1017SOL     OW 3949   1.350   6.933   1.740
 1017SOL    HW1 3950   1.344   6.866   1.814
 1017SOL    HW2 3951   1.355   6.886   1.652
 1018SOL     OW 3952   5.485   5.883   6.470
 1018SOL    HW1 3953   5.518   5.977   6.476
 1018SOL    HW2 3954   5.548   5.822   6.518
 1019SOL     OW 3955   6.937   3.753   2.757
 1019SOL    HW1 3956   7.017   3.721   2.807
 1019SOL    HW2 3957   6.876   3.675   2.739
 1020SOL     OW 3958   5.277   1.734   1.408
 1020SOL    HW1 3959   5.181   1.714   1.389
 1020SOL    HW2 3960   5.319   1.777   1.328
 1021SOL     OW 3961   0.874   6.800   1.119
 1021SOL    HW1 3962   0.873   6.702   1.099
 1021SOL    HW2 3963   0.866   6.851   1.034
 1022SOL     OW 3964   2.467   5.061   5.567
 1022SOL    HW1 3965   2.378   5.035   5.604
 1022SOL    HW2 3966   2.539   5.005   5.609
 1023SOL     OW 3967   0.973   2.256   2.556
 1023SOL    HW1 3968   1.062   2.301   2.564
 1023SOL    HW2 3969   0.941   2.228   2.647
 1024SOL     OW 3970   2.008   3.230   4.795
 1024SOL    HW1 3971   2.077   3.208   4.865
 1024SOL    HW2 3972   1.917   3.230   4.836
 1025SOL     OW 3973   4.446   3.883   0.482
 1025SOL    HW1 3974   4.441   3.786   0.503
 1025SOL    HW2 3975   4.421   3.898   0.386
 1026SOL     OW 3976   3.054   2.707   1.764
 1026SOL    HW1 3977   3.154   2.697   1.771
 1026SOL    HW2 3978   3.010   2.632   1.814
 1027SOL     OW 3979   6.331   0.504   0.435
 1027SOL    HW1 3980   6.364   0.483   0.527
 1027SOL    HW2 3981   6.343   0.424   0.376
 1028SOL     OW 3982   0.236   5.675   4.442
 1028SOL    HW1 3983   0.189   5.709   4.523
 1028SOL    HW2 3984   0.315   5.733   4.422
 1029SOL     OW 3985   1.136   0.045   4.993
 1029SOL    HW1 3986   1.119   7.012   4.913
 1029SOL    HW2 3987   1.079   0.014   5.069
 1030SOL     OW 3988   4.356   3.356   0.585
 1030SOL    HW1 3989   4.375   3.333   0.490
 1030SOL    HW2 3990   4.378   3.278   0.644
 1031SOL     OW 3991   4.530   2.373   0.284
 1031SOL    HW1 3992   4.593   2.450   0.291
 1031SOL    HW2 3993   4.563   2.309   0.215
 1032SOL     OW 3994   1.215   1.513   1.415
 1032SOL    HW1 3995   1.159   1.549   1.490
 1032SOL    HW2 3996   1.312   1.528   1.436
 1033SOL     OW 3997   6.162   0.046   2.025
 1033SOL    HW1 3998   6.195   0.056   2.119
 1033SOL    HW2 3999   6.193   0.125   1.970
 1034SOL     OW 4000   1.963   0.772   4.339
 1034SOL    HW1 4001   1.865   0.763   4.356
 1034SOL    HW2 4002   1.995   0.858   4.379
 1035SOL     OW 4003   1.024   6.988   0.053
 1035SOL    HW1 4004   0.987   6.897   0.037
 1035SOL    HW2 4005   0.985   0.002   0.137
 1036SOL     OW 4006   5.499   1.448   2.355
 1036SOL    HW1 4007   5.402   1.450   2.331
 1036SOL    HW2 4008   5.550   1.508   2.293
 1037SOL     OW 4009   0.521   4.048   2.396
 1037SOL    HW1 4010   0.492   3.969   2.342
 1037SOL    HW2 4011   0.524   4.022   2.493
 1038SOL     OW 4012   1.006   6.062   6.927
 1038SOL    HW1 4013   0.933   6.050   6.995
 1038SOL    HW2 4014   1.047   6.153   6.938
 1039SOL     OW 4015   3.012   3.892   2.729
 1039SOL    HW1 4016   2.941   3.821   2.722
 1039SOL    HW2 4017   3.005   3.953   2.651
 1040SOL     OW 4018   4.438   1.411   2.753
 1040SOL    HW1 4019   4.346   1.392   2.786
 1040SOL    HW2 4020   4.505   1.364   2.811
 1041SOL     OW 4021   0.038   0.423   6.520
 1041SOL    HW1 4022   0.104   0.385   6.585
 1041SOL    HW2 4023   0.052   0.381   6.430
 1042SOL     OW 4024   5.341   2.967   3.886
 1042SOL    HW1 4025   5.325   3.040   3.952
 1042SOL    HW2 4026   5.309   2.880   3.923
 1043SOL     OW 4027   2.374   2.333   3.738
 1043SOL    HW1 4028   2.377   2.425   3.699
 1043SOL    HW2 4029   2.373   2.339   3.838
 1044SOL     OW 4030   4.929   4.513   2.409
 1044SOL    HW1 4031   4.970   4.465   2.331
 1044SOL    HW2 4032   4.993   4.510   2.486
 1045SOL     OW 4033   1.682   0.223   2.906
 1045SOL    HW1 4034   1.657   0.236   2.810
 1045SOL    HW2 4035   1.656   0.304   2.959
 1046SOL     OW 4036   4.187   2.912   0.403
 1046SOL    HW1 4037   4.190   2.895   0.304
 1046SOL    HW2 4038   4.231   2.836   0.451
 1047SOL     OW 4039   4.432   1.077   4.385
 1047SOL    HW1 4040   4.342   1.069   4.344
 1047SOL    HW2 4041   4.454   0.992   4.434
 1048SOL     OW 4042   6.674   0.557   1.854
 1048SOL    HW1 4043   6.604   0.623   1.827
 1048SOL    HW2 4044   6.743   0.603   1.910
 1049SOL     OW 4045   3.797   5.783   0.127
 1049SOL    HW1 4046   3.777   5.693   0.166
 1049SOL    HW2 4047   3.723   5.810   0.065
 1050SOL     OW 4048   2.698   1.387   4.120
 1050SOL    HW1 4049   2.654   1.408   4.032
 1050SOL    HW2 4050   2.795   1.411   4.115
 1051SOL     OW 4051   1.892   2.441   6.176
 1051SOL    HW1 4052   1.803   2.478   6.150
 1051SOL    HW2 4053   1.927   2.384   6.102
 1052SOL     OW 4054   4.501   2.320   6.171
 1052SOL    HW1 4055   4.455   2.391   6.118
 1052SOL    HW2 4056   4.467   2.230   6.143
 1053SOL     OW 4057   4.564   2.641   4.781
 1053SOL    HW1 4058   4.655   2.652   4.821
 1053SOL    HW2 4059   4.508   2.721   4.802
 1054SOL     OW 4060   5.300   5.136   6.786
 1054SOL    HW1 4061   5.377   5.074   6.777
 1054SOL    HW2 4062   5.233   5.099   6.851
 1055SOL     OW 4063   5.268   5.753   6.550
 1055SOL    HW1 4064   5.272   5.665   6.504
 1055SOL    HW2 4065   5.352   5.804   6.533
 1056SOL     OW 4066   3.395   3.530   0.342
 1056SOL    HW1 4067   3.434   3.603   0.286
 1056SOL    HW2 4068   3.306   3.503   0.306
 1057SOL     OW 4069   3.086   3.598   6.619
 1057SOL    HW1 4070   3.077   3.517   6.677
 1057SOL    HW2 4071   3.166   3.651   6.647
 1058SOL     OW 4072   3.637   1.782   2.011
 1058SOL    HW1 4073   3.729   1.820   2.022
 1058SOL    HW2 4074   3.643   1.695   1.961
 1059SOL     OW 4075   1.688   6.566   2.696
 1059SOL    HW1 4076   1.665   6.652   2.741
 1059SOL    HW2 4077   1.674   6.490   2.760
 1060SOL     OW 4078   6.548   6.362   5.079
 1060SOL    HW1 4079   6.527   6.280   5.133
 1060SOL    HW2 4080   6.573   6.436   5.141
 1061SOL     OW 4081   0.734   4.336   6.351
 1061SOL    HW1 4082   0.738   4.285   6.437
 1061SOL    HW2 4083   0.827   4.359   6.322
 1062SOL     OW 4084   3.906   4.758   5.711
 1062SOL    HW1 4085   3.886   4.676   5.765
 1062SOL    HW2 4086   4.004   4.776   5.715
 1063SOL     OW 4087   3.388   6.093   3.664
 1063SOL    HW1 4088   3.327   6.068   3.589
 1063SOL    HW2 4089   3.389   6.019   3.731
 1064SOL     OW 4090   1.297   3.907   6.934
 1064SOL    HW1 4091   1.266   3.980   6.995
 1064SOL    HW2 4092   1.232   3.897   6.859
 1065SOL     OW 4093   6.013   1.087   5.386
 1065SOL    HW1 4094   6.034   1.055   5.478
 1065SOL    HW2 4095   5.919   1.062   5.362
 1066SOL     OW 4096   4.497   6.098   1.074
 1066SOL    HW1 4097   4.595   6.121   1.080
 1066SOL    HW2 4098   4.456   6.105   1.165
 1067SOL     OW 4099   4.294   1.158   0.528
 1067SOL    HW1 4100   4.203   1.176   0.490
 1067SOL    HW2 4101   4.346   1.101   0.464
 1068SOL     OW 4102   6.153   2.539   3.609
 1068SOL    HW1 4103   6.182   2.634   3.596
 1068SOL    HW2 4104   6.078   2.518   3.546
 1069SOL     OW 4105   0.737   1.296   3.233
 1069SOL    HW1 4106   0.749   1.201   3.206
 1069SOL    HW2 4107   0.767   1.356   3.159
 1070SOL     OW 4108   1.407   0.268   2.108
 1070SOL    HW1 4109   1.406   0.318   2.022
 1070SOL    HW2 4110   1.313   0.246   2.135
 1071SOL     OW 4111   1.131   3.096   5.183
 1071SOL    HW1 4112   1.069   3.121   5.109
 1071SOL    HW2 4113   1.167   3.179   5.226
 1072SOL     OW 4114   2.282   1.177   1.656
 1072SOL    HW1 4115   2.379   1.157   1.642
 1072SOL    HW2 4116   2.270   1.219   1.746
 1073SOL     OW 4117   5.359   2.276   2.565
 1073SOL    HW1 4118   5.375   2.269   2.663
 1073SOL    HW2 4119   5.369   2.186   2.523
 1074SOL     OW 4120   3.688   6.695   1.445
 1074SOL    HW1 4121   3.745   6.758   1.393
 1074SOL    HW2 4122   3.592   6.722   1.439
 1075SOL     OW 4123   6.900   3.893   4.661
 1075SOL    HW1 4124   6.855   3.982   4.660
 1075SOL    HW2 4125   6.923   3.868   4.756
 1076SOL     OW 4126   2.886   4.747   6.015
 1076SOL    HW1 4127   2.970   4.782   6.056
 1076SOL    HW2 4128   2.892   4.647   6.004
 1077SOL     OW 4129   7.017   6.609   0.743
 1077SOL    HW1 4130   0.033   6.529   0.697
 1077SOL    HW2 4131   6.954   6.577   0.814
 1078SOL     OW 4132   5.503   6.520   3.827
 1078SOL    HW1 4133   5.547   6.565   3.749
 1078SOL    HW2 4134   5.531   6.564   3.912
 1079SOL     OW 4135   1.370   5.268   1.130
 1079SOL    HW1 4136   1.296   5.231   1.074
 1079SOL    HW2 4137   1.362   5.232   1.223
 1080SOL     OW 4138   5.062   5.770   0.494
 1080SOL    HW1 4139   5.000   5.710   0.444
 1080SOL    HW2 4140   5.144   5.719   0.519
 1081SOL     OW 4141   6.860   6.992   3.234
 1081SOL    HW1 4142   6.836   0.054   3.280
 1081SOL    HW2 4143   6.899   6.929   3.301
 1082SOL     OW 4144   4.917   0.020   0.154
 1082SOL    HW1 4145   4.925   0.003   0.252
 1082SOL    HW2 4146   4.988   0.085   0.126
 1083SOL     OW 4147   6.699   3.821   2.391
 1083SOL    HW1 4148   6.783   3.855   2.348
 1083SOL    HW2 4149   6.619   3.860   2.344
 1084SOL     OW 4150   4.448   6.980   5.280
 1084SOL    HW1 4151   4.386   7.004   5.355
 1084SOL    HW2 4152   4.415   7.021   5.195
 1085SOL     OW 4153   1.936   3.462   4.673
 1085SOL    HW1 4154   1.959   3.370   4.703
 1085SOL    HW2 4155   2.007   3.526   4.705
 1086SOL     OW 4156   4.909   4.543   2.846
 1086SOL    HW1 4157   4.898   4.475   2.918
 1086SOL    HW2 4158   4.826   4.546   2.790
 1087SOL     OW 4159   3.510   0.409   6.122
 1087SOL    HW1 4160   3.538   0.314   6.139
 1087SOL    HW2 4161   3.590   0.468   6.123
 1088SOL     OW 4162   5.916   5.687   4.535
 1088SOL    HW1 4163   5.946   5.633   4.456
 1088SOL    HW2 4164   5.820   5.713   4.522
 1089SOL     OW 4165   5.683   4.855   4.849
 1089SOL    HW1 4166   5.651   4.944   4.818
 1089SOL    HW2 4167   5.779   4.843   4.822
 1090SOL     OW 4168   6.442   3.036   5.131
 1090SOL    HW1 4169   6.529   3.015   5.175
 1090SOL    HW2 4170   6.379   2.959   5.142
 1091SOL     OW 4171   1.853   3.358   3.804
 1091SOL    HW1 4172   1.849   3.350   3.704
 1091SOL    HW2 4173   1.772   3.407   3.837
 1092SOL     OW 4174   0.610   6.050   0.461
 1092SOL    HW1 4175   0.521   6.051   0.507
 1092SOL    HW2 4176   0.598   6.027   0.364
 1093SOL     OW 4177   1.747   0.684   3.185
 1093SOL    HW1 4178   1.656   0.723   3.173
 1093SOL    HW2 4179   1.739   0.588   3.211
 1094SOL     OW 4180   0.348   0.502   3.400
 1094SOL    HW1 4181   0.348   0.596   3.366
 1094SOL    HW2 4182   0.427   0.453   3.363
 1095SOL     OW 4183   6.455   4.368   0.807
 1095SOL    HW1 4184   6.526   4.428   0.771
 1095SOL    HW2 4185   6.439   4.293   0.743
 1096SOL     OW 4186   2.020   5.936   1.893
 1096SOL    HW1 4187   1.949   5.935   1.963
 1096SOL    HW2 4188   2.095   5.876   1.920
 1097SOL     OW 4189   3.217   5.350   4.715
 1097SOL    HW1 4190   3.239   5.317   4.624
 1097SOL    HW2 4191   3.294   5.330   4.777
 1098SOL     OW 4192   6.806   4.228   0.025
 1098SOL    HW1 4193   6.759   4.279   6.977
 1098SOL    HW2 4194   6.905   4.238   0.013
 1099SOL     OW 4195   5.644   0.162   6.818
 1099SOL    HW1 4196   5.598   0.096   6.878
 1099SOL    HW2 4197   5.645   0.252   6.863
 1100SOL     OW 4198   5.017   0.646   4.302
 1100SOL    HW1 4199   5.027   0.576   4.231
 1100SOL    HW2 4200   5.052   0.733   4.267
 1101SOL     OW 4201   5.101   2.475   0.079
 1101SOL    HW1 4202   5.065   2.382   0.074
 1101SOL    HW2 4203   5.169   2.488   0.007
 1102SOL     OW 4204   3.817   1.499   4.750
 1102SOL    HW1 4205   3.865   1.496   4.662
 1102SOL    HW2 4206   3.719   1.484   4.735
 1103SOL     OW 4207   2.961   6.271   0.346
 1103SOL    HW1 4208   2.862   6.288   0.354
 1103SOL    HW2 4209   2.983   6.182   0.384
 1104SOL     OW 4210   6.370   0.452   4.145
 1104SOL    HW1 4211   6.344   0.385   4.215
 1104SOL    HW2 4212   6.468   0.471   4.152
 1105SOL     OW 4213   4.836   0.217   6.111
 1105SOL    HW1 4214   4.936   0.220   6.114
 1105SOL    HW2 4215   4.807   0.208   6.016
 1106SOL     OW 4216   6.350   1.285   2.154
 1106SOL    HW1 4217   6.291   1.205   2.157
 1106SOL    HW2 4218   6.395   1.297   2.243
 1107SOL     OW 4219   1.198   2.947   6.946
 1107SOL    HW1 4220   1.102   2.972   6.939
 1107SOL    HW2 4221   1.220   2.876   6.880
 1108SOL     OW 4222   2.483   1.084   2.121
 1108SOL    HW1 4223   2.410   1.019   2.104
 1108SOL    HW2 4224   2.513   1.125   2.035
 1109SOL     OW 4225   5.259   1.191   5.433
 1109SOL    HW1 4226   5.335   1.151   5.382
 1109SOL    HW2 4227   5.254   1.289   5.412
 1110SOL     OW 4228   1.569   0.364   1.504
 1110SOL    HW1 4229   1.620   0.419   1.570
 1110SOL    HW2 4230   1.568   0.268   1.533
 1111SOL     OW 4231   5.186   3.457   6.328
 1111SOL    HW1 4232   5.210   3.366   6.295
 1111SOL    HW2 4233   5.261   3.520   6.308
 1112SOL     OW 4234   5.707   0.434   2.571
 1112SOL    HW1 4235   5.712   0.341   2.536
 1112SOL    HW2 4236   5.795   0.458   2.613
 1113SOL     OW 4237   0.309   0.958   2.909
 1113SOL    HW1 4238   0.370   0.896   2.958
 1113SOL    HW2 4239   0.322   1.051   2.942
 1114SOL     OW 4240   3.795   3.356   4.600
 1114SOL    HW1 4241   3.740   3.276   4.625
 1114SOL    HW2 4242   3.769   3.433   4.657
 1115SOL     OW 4243   1.884   5.885   5.945
 1115SOL    HW1 4244   1.982   5.869   5.953
 1115SOL    HW2 4245   1.865   5.983   5.947
 1116SOL     OW 4246   4.394   0.238   0.410
 1116SOL    HW1 4247   4.388   0.138   0.408
 1116SOL    HW2 4248   4.306   0.275   0.440
 1117SOL     OW 4249   2.085   2.341   1.683
 1117SOL    HW1 4250   2.058   2.371   1.592
 1117SOL    HW2 4251   2.184   2.325   1.685
 1118SOL     OW 4252   4.616   6.951   7.016
 1118SOL    HW1 4253   4.563   6.967   0.075
 1118SOL    HW2 4254   4.554   6.922   6.943
 1119SOL     OW 4255   3.164   6.336   3.472
 1119SOL    HW1 4256   3.223   6.257   3.492
 1119SOL    HW2 4257   3.068   6.307   3.478
 1120SOL     OW 4258   0.686   2.756   1.950
 1120SOL    HW1 4259   0.645   2.751   2.040
 1120SOL    HW2 4260   0.762   2.821   1.951
 1121SOL     OW 4261   5.455   4.714   6.174
 1121SOL    HW1 4262   5.373   4.712   6.116
 1121SOL    HW2 4263   5.535   4.691   6.118
 1122SOL     OW 4264   6.115   0.884   2.621
 1122SOL    HW1 4265   6.211   0.860   2.633
 1122SOL    HW2 4266   6.067   0.870   2.708
 1123SOL     OW 4267   3.355   2.100   4.944
 1123SOL    HW1 4268   3.425   2.157   4.985
 1123SOL    HW2 4269   3.265   2.138   4.964
 1124SOL     OW 4270   2.684   2.406   3.516
 1124SOL    HW1 4271   2.651   2.355   3.595
 1124SOL    HW2 4272   2.783   2.416   3.522
 1125SOL     OW 4273   1.368   3.266   3.553
 1125SOL    HW1 4274   1.320   3.199   3.611
 1125SOL    HW2 4275   1.466   3.250   3.559
 1126SOL     OW 4276   4.985   4.795   3.898
 1126SOL    HW1 4277   5.073   4.788   3.946
 1126SOL    HW2 4278   4.920   4.844   3.955
 1127SOL     OW 4279   5.502   0.362   0.765
 1127SOL    HW1 4280   5.404   0.366   0.781
 1127SOL    HW2 4281   5.519   0.331   0.671
 1128SOL     OW 4282   3.219   1.678   4.861
 1128SOL    HW1 4283   3.281   1.731   4.920
 1128SOL    HW2 4284   3.254   1.677   4.768
 1129SOL     OW 4285   1.380   0.525   6.930
 1129SOL    HW1 4286   1.469   0.479   6.927
 1129SOL    HW2 4287   1.391   0.617   6.966
 1130SOL     OW 4288   2.404   5.629   0.581
 1130SOL    HW1 4289   2.449   5.630   0.670
 1130SOL    HW2 4290   2.400   5.536   0.546
 1131SOL     OW 4291   1.296   5.739   3.344
 1131SOL    HW1 4292   1.315   5.835   3.366
 1131SOL    HW2 4293   1.263   5.692   3.426
 1132SOL     OW 4294   1.428   2.671   2.943
 1132SOL    HW1 4295   1.413   2.695   3.039
 1132SOL    HW2 4296   1.365   2.598   2.917
 1133SOL     OW 4297   1.313   6.023   0.143
 1133SOL    HW1 4298   1.253   5.945   0.123
 1133SOL    HW2 4299   1.371   6.041   0.064
 1134SOL     OW 4300   4.045   4.977   0.976
 1134SOL    HW1 4301   4.058   5.032   0.893
 1134SOL    HW2 4302   4.128   4.981   1.032
 1135SOL     OW 4303   1.616   6.471   2.422
 1135SOL    HW1 4304   1.690   6.459   2.356
 1135SOL    HW2 4305   1.651   6.515   2.504
 1136SOL     OW 4306   1.452   4.930   2.978
 1136SOL    HW1 4307   1.515   4.994   3.023
 1136SOL    HW2 4308   1.490   4.904   2.889
 1137SOL     OW 4309   1.369   5.219   4.080
 1137SOL    HW1 4310   1.436   5.161   4.035
 1137SOL    HW2 4311   1.324   5.278   4.012
 1138SOL     OW 4312   2.591   4.681   4.469
 1138SOL    HW1 4313   2.518   4.750   4.464
 1138SOL    HW2 4314   2.581   4.629   4.554
 1139SOL     OW 4315   3.581   5.933   4.841
 1139SOL    HW1 4316   3.566   6.012   4.782
 1139SOL    HW2 4317   3.495   5.905   4.883
 1140SOL     OW 4318   1.803   2.707   1.372
 1140SOL    HW1 4319   1.739   2.772   1.333
 1140SOL    HW2 4320   1.811   2.722   1.471
 1141SOL     OW 4321   6.297   5.072   6.371
 1141SOL    HW1 4322   6.252   4.987   6.344
 1141SOL    HW2 4323   6.305   5.132   6.291
 1142SOL     OW 4324   0.908   5.725   3.326
 1142SOL    HW1 4325   0.980   5.733   3.257
 1142SOL    HW2 4326   0.829   5.779   3.297
 1143SOL     OW 4327   6.962   3.624   1.661
 1143SOL    HW1 4328   0.030   3.613   1.626
 1143SOL    HW2 4329   6.941   3.721   1.671
 1144SOL     OW 4330   4.970   4.619   0.105
 1144SOL    HW1 4331   5.033   4.541   0.104
 1144SOL    HW2 4332   4.876   4.585   0.102
 1145SOL     OW 4333   5.971   0.260   1.156
 1145SOL    HW1 4334   5.967   0.360   1.146
 1145SOL    HW2 4335   5.961   0.217   1.067
 1146SOL     OW 4336   1.787   0.285   1.281
 1146SOL    HW1 4337   1.718   0.339   1.328
 1146SOL    HW2 4338   1.809   0.204   1.335
 1147SOL     OW 4339   1.148   5.763   0.469
 1147SOL    HW1 4340   1.238   5.772   0.425
 1147SOL    HW2 4341   1.096   5.691   0.423
 1148SOL     OW 4342   3.530   5.883   1.666
 1148SOL    HW1 4343   3.575   5.970   1.647
 1148SOL    HW2 4344   3.585   5.831   1.732
 1149SOL     OW 4345   6.166   2.700   1.836
 1149SOL    HW1 4346   6.168   2.628   1.905
 1149SOL    HW2 4347   6.081   2.752   1.843
 1150SOL     OW 4348   0.596   1.413   0.562
 1150SOL    HW1 4349   0.661   1.383   0.632
 1150SOL    HW2 4350   0.603   1.513   0.551
 1151SOL     OW 4351   5.695   5.458   4.559
 1151SOL    HW1 4352   5.679   5.483   4.654
 1151SOL    HW2 4353   5.773   5.396   4.553
 1152SOL     OW 4354   3.376   6.325   5.593
 1152SOL    HW1 4355   3.343   6.312   5.686
 1152SOL    HW2 4356   3.472   6.297   5.587
 1153SOL     OW 4357   5.731   0.032   1.090
 1153SOL    HW1 4358   5.758   0.129   1.095
 1153SOL    HW2 4359   5.809   7.002   1.059
 1154SOL     OW 4360   1.329   2.906   0.935
 1154SOL    HW1 4361   1.229   2.902   0.933
 1154SOL    HW2 4362   1.359   2.973   1.003
 1155SOL     OW 4363   4.151   5.756   3.648
 1155SOL    HW1 4364   4.164   5.839   3.594
 1155SOL    HW2 4365   4.210   5.684   3.612
 1156SOL     OW 4366   3.234   0.159   1.035
 1156SOL    HW1 4367   3.326   0.198   1.027
 1156SOL    HW2 4368   3.169   0.231   1.058
 1157SOL     OW 4369   2.454   1.860   0.847
 1157SOL    HW1 4370   2.492   1.950   0.867
 1157SOL    HW2 4371   2.399   1.829   0.924
 1158SOL     OW 4372   5.482   5.083   3.727
 1158SOL    HW1 4373   5.557   5.123   3.779
 1158SOL    HW2 4374   5.512   4.996   3.686
 1159SOL     OW 4375   5.312   4.903   0.300
 1159SOL    HW1 4376   5.263   4.885   0.215
 1159SOL    HW2 4377   5.393   4.845   0.306
 1160SOL     OW 4378   4.267   2.271   1.030
 1160SOL    HW1 4379   4.360   2.235   1.034
 1160SOL    HW2 4380   4.216   2.242   1.111
 1161SOL     OW 4381   0.287   3.982   0.812
 1161SOL    HW1 4382   0.271   3.910   0.879
 1161SOL    HW2 4383   0.369   3.961   0.759
 1162SOL     OW 4384   2.170   3.103   5.004
 1162SOL    HW1 4385   2.246   3.049   5.043
 1162SOL    HW2 4386   2.093   3.042   4.986
 1163SOL     OW 4387   4.379   2.044   2.198
 1163SOL    HW1 4388   4.400   2.113   2.129
 1163SOL    HW2 4389   4.423   2.069   2.285
 1164SOL     OW 4390   3.978   2.258   6.713
 1164SOL    HW1 4391   3.947   2.353   6.702
 1164SOL    HW2 4392   3.935   2.219   6.795
 1165SOL     OW 4393   4.032   0.256   2.715
 1165SOL    HW1 4394   4.057   0.352   2.704
 1165SOL    HW2 4395   4.106   0.198   2.683
 1166SOL     OW 4396   3.949   4.117   0.028
 1166SOL    HW1 4397   4.003   4.105   0.112
 1166SOL    HW2 4398   3.946   4.214   0.005
 1167SOL     OW 4399   5.349   3.979   3.923
 1167SOL    HW1 4400   5.383   4.022   3.839
 1167SOL    HW2 4401   5.249   3.985   3.925
 1168SOL     OW 4402   0.105   0.295   0.489
 1168SOL    HW1 4403   0.048   0.275   0.409
 1168SOL    HW2 4404   0.176   0.225   0.497
 1169SOL     OW 4405   5.015   1.787   5.622
 1169SOL    HW1 4406   5.031   1.883   5.597
 1169SOL    HW2 4407   5.096   1.733   5.600
 1170SOL     OW 4408   5.266   4.501   3.091
 1170SOL    HW1 4409   5.339   4.496   3.023
 1170SOL    HW2 4410   5.211   4.583   3.075
 1171SOL     OW 4411   0.201   6.716   0.939
 1171SOL    HW1 4412   0.116   6.704   0.888
 1171SOL    HW2 4413   0.218   6.635   0.996
 1172SOL     OW 4414   5.762   2.352   6.823
 1172SOL    HW1 4415   5.789   2.319   6.732
 1172SOL    HW2 4416   5.732   2.447   6.815
 1173SOL     OW 4417   5.264   3.066   1.975
 1173SOL    HW1 4418   5.217   3.089   2.061
 1173SOL    HW2 4419   5.219   3.111   1.899
 1174SOL     OW 4420   2.756   5.407   6.302
 1174SOL    HW1 4421   2.783   5.495   6.262
 1174SOL    HW2 4422   2.673   5.419   6.356
 1175SOL     OW 4423   3.235   3.418   4.343
 1175SOL    HW1 4424   3.169   3.405   4.268
 1175SOL    HW2 4425   3.282   3.505   4.331
 1176SOL     OW 4426   5.293   3.882   6.881
 1176SOL    HW1 4427   5.296   3.980   6.861
 1176SOL    HW2 4428   5.385   3.844   6.877
 1177SOL     OW 4429   1.435   0.440   4.264
 1177SOL    HW1 4430   1.424   0.539   4.257
 1177SOL    HW2 4431   1.369   0.395   4.204
 1178SOL     OW 4432   4.046   6.763   6.933
 1178SOL    HW1 4433   4.002   6.823   6.866
 1178SOL    HW2 4434   4.050   6.670   6.896
 1179SOL     OW 4435   0.698   6.254   0.937
 1179SOL    HW1 4436   0.670   6.252   1.033
 1179SOL    HW2 4437   0.782   6.202   0.925
 1180SOL     OW 4438   3.981   6.435   0.508
 1180SOL    HW1 4439   4.058   6.480   0.552
 1180SOL    HW2 4440   4.011   6.392   0.423
 1181SOL     OW 4441   6.157   6.626   5.790
 1181SOL    HW1 4442   6.187   6.545   5.741
 1181SOL    HW2 4443   6.099   6.599   5.867
 1182SOL     OW 4444   5.339   3.541   4.198
 1182SOL    HW1 4445   5.391   3.595   4.131
 1182SOL    HW2 4446   5.242   3.539   4.171
 1183SOL     OW 4447   1.517   4.081   0.094
 1183SOL    HW1 4448   1.582   4.022   0.045
 1183SOL    HW2 4449   1.463   4.026   0.158
 1184SOL     OW 4450   0.508   1.832   4.744
 1184SOL    HW1 4451   0.486   1.738   4.771
 1184SOL    HW2 4452   0.474   1.895   4.813
 1185SOL     OW 4453   0.200   2.230   0.066
 1185SOL    HW1 4454   0.156   2.264   7.007
 1185SOL    HW2 4455   0.264   2.156   0.043
 1186SOL     OW 4456   4.879   6.287   3.565
 1186SOL    HW1 4457   4.807   6.357   3.564
 1186SOL    HW2 4458   4.968   6.331   3.577
 1187SOL     OW 4459   6.287   2.042   6.864
 1187SOL    HW1 4460   6.189   2.026   6.875
 1187SOL    HW2 4461   6.326   2.067   6.953
 1188SOL     OW 4462   4.332   1.439   6.753
 1188SOL    HW1 4463   4.246   1.416   6.797
 1188SOL    HW2 4464   4.408   1.399   6.804
 1189SOL     OW 4465   6.033   3.856   4.029
 1189SOL    HW1 4466   6.126   3.853   4.065
 1189SOL    HW2 4467   6.007   3.951   4.011
 1190SOL     OW 4468   2.377   0.998   3.695
 1190SOL    HW1 4469   2.282   1.017   3.670
 1190SOL    HW2 4470   2.404   1.055   3.772
 1191SOL     OW 4471   2.796   0.381   2.821
 1191SOL    HW1 4472   2.847   0.300   2.794
 1191SOL    HW2 4473   2.779   0.378   2.919
 1192SOL     OW 4474   5.885   5.216   4.454
 1192SOL    HW1 4475   5.898   5.214   4.355
 1192SOL    HW2 4476   5.963   5.262   4.497
 1193SOL     OW 4477   6.725   6.213   3.869
 1193SOL    HW1 4478   6.747   6.289   3.929
 1193SOL    HW2 4479   6.793   6.208   3.795
 1194SOL     OW 4480   3.639   0.184   1.171
 1194SOL    HW1 4481   3.606   0.093   1.199
 1194SOL    HW2 4482   3.729   0.201   1.211
 1195SOL     OW 4483   5.249   3.312   3.305
 1195SOL    HW1 4484   5.251   3.255   3.388
 1195SOL    HW2 4485   5.258   3.253   3.224
 1196SOL     OW 4486   0.113   6.319   5.479
 1196SOL    HW1 4487   0.183   6.384   5.509
 1196SOL    HW2 4488   0.027   6.338   5.528
 1197SOL     OW 4489   2.854   6.509   6.639
 1197SOL    HW1 4490   2.777   6.536   6.582
 1197SOL    HW2 4491   2.822   6.492   6.732
 1198SOL     OW 4492   1.498   2.622   0.564
 1198SOL    HW1 4493   1.467   2.529   0.584
 1198SOL    HW2 4494   1.459   2.685   0.631
 1199SOL     OW 4495   5.715   4.373   2.643
 1199SOL    HW1 4496   5.658   4.449   2.612
 1199SOL    HW2 4497   5.659   4.309   2.695
 1200SOL     OW 4498   3.189   3.876   1.780
 1200SOL    HW1 4499   3.153   3.928   1.857
 1200SOL    HW2 4500   3.175   3.927   1.695
 1201SOL     OW 4501   1.332   2.275   4.866
 1201SOL    HW1 4502   1.284   2.362   4.868
 1201SOL    HW2 4503   1.415   2.283   4.811
 1202SOL     OW 4504   0.823   6.570   5.025
 1202SOL    HW1 4505   0.854   6.562   4.930
 1202SOL    HW2 4506   0.895   6.537   5.086
 1203SOL     OW 4507   4.454   5.192   5.151
 1203SOL    HW1 4508   4.367   5.240   5.143
 1203SOL    HW2 4509   4.496   5.213   5.240
 1204SOL     OW 4510   1.826   0.468   2.705
 1204SOL    HW1 4511   1.825   0.455   2.606
 1204SOL    HW2 4512   1.767   0.545   2.729
 1205SOL     OW 4513   6.173   3.142   2.595
 1205SOL    HW1 4514   6.084   3.185   2.585
 1205SOL    HW2 4515   6.224   3.150   2.510
 1206SOL     OW 4516   3.285   2.976   4.291
 1206SOL    HW1 4517   3.224   2.909   4.248
 1206SOL    HW2 4518   3.379   2.944   4.286
 1207SOL     OW 4519   1.125   5.706   3.143
 1207SOL    HW1 4520   1.162   5.741   3.057
 1207SOL    HW2 4521   1.182   5.735   3.219
 1208SOL     OW 4522   3.575   2.443   6.886
 1208SOL    HW1 4523   3.586   2.534   6.844
 1208SOL    HW2 4524   3.597   2.373   6.819
 1209SOL     OW 4525   4.229   6.677   5.335
 1209SOL    HW1 4526   4.293   6.692   5.261
 1209SOL    HW2 4527   4.136   6.701   5.305
 1210SOL     OW 4528   2.407   1.213   3.324
 1210SOL    HW1 4529   2.401   1.279   3.399
 1210SOL    HW2 4530   2.448   1.128   3.357
 1211SOL     OW 4531   1.040   2.935   0.959
 1211SOL    HW1 4532   0.967   2.893   1.011
 1211SOL    HW2 4533   1.025   2.920   0.861
 1212SOL     OW 4534   0.559   6.921   0.245
 1212SOL    HW1 4535   0.607   6.852   0.191
 1212SOL    HW2 4536   0.580   7.012   0.209
 1213SOL     OW 4537   6.434   2.847   3.005
 1213SOL    HW1 4538   6.393   2.882   2.921
 1213SOL    HW2 4539   6.531   2.872   3.008
 1214SOL     OW 4540   1.409   2.871   2.454
 1214SOL    HW1 4541   1.381   2.776   2.439
 1214SOL    HW2 4542   1.441   2.911   2.368
 1215SOL     OW 4543   2.167   5.459   2.752
 1215SOL    HW1 4544   2.146   5.399   2.675
 1215SOL    HW2 4545   2.134   5.418   2.837
 1216SOL     OW 4546   3.620   0.275   2.007
 1216SOL    HW1 4547   3.700   0.309   2.058
 1216SOL    HW2 4548   3.561   0.225   2.070
 1217SOL     OW 4549   2.806   4.124   0.364
 1217SOL    HW1 4550   2.856   4.190   0.308
 1217SOL    HW2 4551   2.871   4.065   0.412
 1218SOL     OW 4552   2.019   4.888   4.187
 1218SOL    HW1 4553   2.064   4.923   4.269
 1218SOL    HW2 4554   1.932   4.847   4.211
 1219SOL     OW 4555   3.579   5.307   2.037
 1219SOL    HW1 4556   3.616   5.262   1.956
 1219SOL    HW2 4557   3.516   5.380   2.010
 1220SOL     OW 4558   0.858   4.889   1.974
 1220SOL    HW1 4559   0.854   4.797   2.012
 1220SOL    HW2 4560   0.930   4.941   2.019
 1221SOL     OW 4561   3.978   3.648   6.138
 1221SOL    HW1 4562   3.997   3.580   6.066
 1221SOL    HW2 4563   3.880   3.661   6.146
 1222SOL     OW 4564   0.021   1.972   6.745
 1222SOL    HW1 4565   0.115   1.989   6.716
 1222SOL    HW2 4566   0.021   1.936   6.838
 1223SOL     OW 4567   4.267   5.414   1.328
 1223SOL    HW1 4568   4.241   5.326   1.288
 1223SOL    HW2 4569   4.248   5.487   1.262
 1224SOL     OW 4570   3.357   1.033   1.457
 1224SOL    HW1 4571   3.444   0.994   1.485
 1224SOL    HW2 4572   3.329   1.104   1.522
 1225SOL     OW 4573   3.485   4.614   5.800
 1225SOL    HW1 4574   3.471   4.518   5.777
 1225SOL    HW2 4575   3.561   4.651   5.746
 1226SOL     OW 4576   2.199   5.437   0.911
 1226SOL    HW1 4577   2.164   5.346   0.931
 1226SOL    HW2 4578   2.133   5.487   0.855
 1227SOL     OW 4579   1.366   4.528   5.390
 1227SOL    HW1 4580   1.361   4.453   5.456
 1227SOL    HW2 4581   1.289   4.521   5.326
 1228SOL     OW 4582   3.200   2.426   0.738
 1228SOL    HW1 4583   3.126   2.408   0.803
 1228SOL    HW2 4584   3.167   2.486   0.666
 1229SOL     OW 4585   3.025   4.219   0.042
 1229SOL    HW1 4586   3.028   4.212   0.142
 1229SOL    HW2 4587   3.013   4.315   0.016
 1230SOL     OW 4588   3.961   0.284   3.197
 1230SOL    HW1 4589   3.872   0.326   3.185
 1230SOL    HW2 4590   4.015   0.339   3.262
 1231SOL     OW 4591   0.984   3.109   3.477
 1231SOL    HW1 4592   0.984   3.209   3.483
 1231SOL    HW2 4593   0.996   3.082   3.382
 1232SOL     OW 4594   1.804   1.301   2.438
 1232SOL    HW1 4595   1.755   1.385   2.459
 1232SOL    HW2 4596   1.902   1.313   2.452
 1233SOL     OW 4597   0.997   2.410   4.510
 1233SOL    HW1 4598   1.005   2.510   4.501
 1233SOL    HW2 4599   0.967   2.388   4.603
 1234SOL     OW 4600   6.568   4.534   3.990
 1234SOL    HW1 4601   6.601   4.453   3.942
 1234SOL    HW2 4602   6.638   4.566   4.053
 1235SOL     OW 4603   6.978   4.994   3.363
 1235SOL    HW1 4604   6.971   5.010   3.265
 1235SOL    HW2 4605   0.028   4.929   3.382
 1236SOL     OW 4606   5.959   0.605   6.829
 1236SOL    HW1 4607   5.930   0.628   6.736
 1236SOL    HW2 4608   6.055   0.578   6.829
 1237SOL     OW 4609   2.594   3.936   0.330
 1237SOL    HW1 4610   2.653   4.011   0.357
 1237SOL    HW2 4611   2.541   3.963   0.249
 1238SOL     OW 4612   1.954   1.072   1.508
 1238SOL    HW1 4613   2.019   1.143   1.481
 1238SOL    HW2 4614   1.997   0.982   1.499
 1239SOL     OW 4615   0.863   1.099   5.130
 1239SOL    HW1 4616   0.847   1.172   5.196
 1239SOL    HW2 4617   0.784   1.037   5.130
 1240SOL     OW 4618   6.184   5.502   0.791
 1240SOL    HW1 4619   6.135   5.589   0.793
 1240SOL    HW2 4620   6.183   5.466   0.697
 1241SOL     OW 4621   0.711   1.972   3.996
 1241SOL    HW1 4622   0.686   1.876   3.981
 1241SOL    HW2 4623   0.664   2.006   4.078
 1242SOL     OW 4624   1.957   1.876   6.325
 1242SOL    HW1 4625   1.909   1.873   6.412
 1242SOL    HW2 4626   1.940   1.792   6.274
 1243SOL     OW 4627   3.183   5.042   5.145
 1243SOL    HW1 4628   3.162   5.127   5.194
 1243SOL    HW2 4629   3.227   4.977   5.207
 1244SOL     OW 4630   1.348   1.486   2.971
 1244SOL    HW1 4631   1.422   1.455   3.031
 1244SOL    HW2 4632   1.263   1.493   3.023
 1245SOL     OW 4633   3.417   2.896   4.966
 1245SOL    HW1 4634   3.433   2.839   4.885
 1245SOL    HW2 4635   3.331   2.867   5.010
 1246SOL     OW 4636   1.202   6.561   1.704
 1246SOL    HW1 4637   1.109   6.559   1.741
 1246SOL    HW2 4638   1.245   6.471   1.716
 1247SOL     OW 4639   0.333   6.588   6.469
 1247SOL    HW1 4640   0.307   6.496   6.442
 1247SOL    HW2 4641   0.395   6.627   6.401
 1248SOL     OW 4642   2.221   6.928   4.107
 1248SOL    HW1 4643   2.236   6.972   4.195
 1248SOL    HW2 4644   2.297   6.949   4.045
 1249SOL     OW 4645   6.480   3.080   3.848
 1249SOL    HW1 4646   6.437   3.166   3.875
 1249SOL    HW2 4647   6.515   3.033   3.929
 1250SOL     OW 4648   6.297   3.378   4.600
 1250SOL    HW1 4649   6.382   3.399   4.647
 1250SOL    HW2 4650   6.283   3.443   4.526
 1251SOL     OW 4651   2.952   0.632   0.235
 1251SOL    HW1 4652   3.007   0.715   0.223
 1251SOL    HW2 4653   3.010   0.552   0.229
 1252SOL     OW 4654   3.841   3.727   0.144
 1252SOL    HW1 4655   3.814   3.690   0.233
 1252SOL    HW2 4656   3.793   3.813   0.128
 1253SOL     OW 4657   5.204   1.799   3.270
 1253SOL    HW1 4658   5.258   1.757   3.197
 1253SOL    HW2 4659   5.185   1.730   3.341
 1254SOL     OW 4660   5.353   1.091   3.859
 1254SOL    HW1 4661   5.278   1.025   3.852
 1254SOL    HW2 4662   5.322   1.170   3.912
 1255SOL     OW 4663   5.896   0.527   1.073
 1255SOL    HW1 4664   5.944   0.613   1.089
 1255SOL    HW2 4665   5.894   0.507   0.975
 1256SOL     OW 4666   5.502   2.908   3.230
 1256SOL    HW1 4667   5.551   2.845   3.170
 1256SOL    HW2 4668   5.476   2.862   3.314
 1257SOL     OW 4669   5.875   1.589   5.052
 1257SOL    HW1 4670   5.870   1.536   5.137
 1257SOL    HW2 4671   5.933   1.543   4.986
 1258SOL     OW 4672   0.180   5.135   4.007
 1258SOL    HW1 4673   0.135   5.115   4.094
 1258SOL    HW2 4674   0.228   5.223   4.014
 1259SOL     OW 4675   5.938   2.475   5.435
 1259SOL    HW1 4676   5.901   2.568   5.435
 1259SOL    HW2 4677   6.036   2.478   5.418
 1260SOL     OW 4678   0.956   1.581   4.487
 1260SOL    HW1 4679   1.029   1.514   4.500
 1260SOL    HW2 4680   0.995   1.670   4.462
 1261SOL     OW 4681   6.611   2.964   1.279
 1261SOL    HW1 4682   6.542   3.011   1.224
 1261SOL    HW2 4683   6.605   2.866   1.263
 1262SOL     OW 4684   5.375   5.587   1.634
 1262SOL    HW1 4685   5.465   5.630   1.631
 1262SOL    HW2 4686   5.366   5.522   1.559
 1263SOL     OW 4687   1.206   2.496   2.878
 1263SOL    HW1 4688   1.108   2.509   2.896
 1263SOL    HW2 4689   1.224   2.507   2.781
 1264SOL     OW 4690   1.435   3.022   5.419
 1264SOL    HW1 4691   1.401   2.974   5.338
 1264SOL    HW2 4692   1.397   2.978   5.501
 1265SOL     OW 4693   6.214   1.577   6.238
 1265SOL    HW1 4694   6.280   1.511   6.275
 1265SOL    HW2 4695   6.206   1.654   6.301
 1266SOL     OW 4696   3.848   1.845   6.030
 1266SOL    HW1 4697   3.814   1.890   6.113
 1266SOL    HW2 4698   3.859   1.747   6.048
 1267SOL     OW 4699   2.841   0.947   1.985
 1267SOL    HW1 4700   2.811   0.954   1.890
 1267SOL    HW2 4701   2.831   0.852   2.016
 1268SOL     OW 4702   4.269   2.064   5.015
 1268SOL    HW1 4703   4.343   2.127   4.993
 1268SOL    HW2 4704   4.198   2.069   4.945
 1269SOL     OW 4705   5.708   2.083   3.532
 1269SOL    HW1 4706   5.624   2.034   3.512
 1269SOL    HW2 4707   5.766   2.085   3.450
 1270SOL     OW 4708   5.664   5.490   3.740
 1270SOL    HW1 4709   5.710   5.531   3.819
 1270SOL    HW2 4710   5.728   5.482   3.664
 1271SOL     OW 4711   1.538   0.105   1.612
 1271SOL    HW1 4712   1.519   0.025   1.556
 1271SOL    HW2 4713   1.480   0.105   1.694
 1272SOL     OW 4714   5.544   2.295   1.336
 1272SOL    HW1 4715   5.452   2.257   1.350
 1272SOL    HW2 4716   5.578   2.267   1.247
 1273SOL     OW 4717   2.086   4.189   5.063
 1273SOL    HW1 4718   2.058   4.133   5.142
 1273SOL    HW2 4719   2.167   4.149   5.021
 1274SOL     OW 4720   6.800   4.355   4.136
 1274SOL    HW1 4721   6.867   4.358   4.062
 1274SOL    HW2 4722   6.779   4.259   4.158
 1275SOL     OW 4723   1.974   1.642   2.693
 1275SOL    HW1 4724   2.018   1.732   2.687
 1275SOL    HW2 4725   1.877   1.653   2.712
 1276SOL     OW 4726   5.713   3.997   3.786
 1276SOL    HW1 4727   5.743   4.000   3.881
 1276SOL    HW2 4728   5.766   4.064   3.732
 1277SOL     OW 4729   1.208   6.308   5.948
 1277SOL    HW1 4730   1.221   6.219   5.905
 1277SOL    HW2 4731   1.136   6.358   5.901
 1278SOL     OW 4732   7.015   6.169   2.937
 1278SOL    HW1 4733   0.034   6.230   2.870
 1278SOL    HW2 4734   7.012   6.213   3.026
 1279SOL     OW 4735   2.656   2.799   0.780
 1279SOL    HW1 4736   2.715   2.731   0.824
 1279SOL    HW2 4737   2.691   2.891   0.799
 1280SOL     OW 4738   2.825   2.165   2.755
 1280SOL    HW1 4739   2.775   2.252   2.756
 1280SOL    HW2 4740   2.922   2.183   2.774
 1281SOL     OW 4741   5.742   5.843   5.959
 1281SOL    HW1 4742   5.840   5.837   5.976
 1281SOL    HW2 4743   5.692   5.830   6.045
 1282SOL     OW 4744   0.937   2.345   1.354
 1282SOL    HW1 4745   0.980   2.423   1.399
 1282SOL    HW2 4746   1.007   2.280   1.324
 1283SOL     OW 4747   1.340   0.220   5.141
 1283SOL    HW1 4748   1.326   0.258   5.049
 1283SOL    HW2 4749   1.296   0.131   5.147
 1284SOL     OW 4750   3.839   2.263   1.475
 1284SOL    HW1 4751   3.811   2.168   1.465
 1284SOL    HW2 4752   3.788   2.320   1.411
 1285SOL     OW 4753   3.626   1.544   4.400
 1285SOL    HW1 4754   3.587   1.453   4.412
 1285SOL    HW2 4755   3.710   1.552   4.453
 1286SOL     OW 4756   5.356   0.598   2.165
 1286SOL    HW1 4757   5.415   0.550   2.231
 1286SOL    HW2 4758   5.371   0.561   2.074
 1287SOL     OW 4759   5.546   4.348   6.662
 1287SOL    HW1 4760   5.608   4.320   6.735
 1287SOL    HW2 4761   5.491   4.270   6.633
 1288SOL     OW 4762   5.102   4.356   5.592
 1288SOL    HW1 4763   5.184   4.304   5.567
 1288SOL    HW2 4764   5.110   4.388   5.686
 1289SOL     OW 4765   1.036   6.892   0.743
 1289SOL    HW1 4766   0.950   6.937   0.770
 1289SOL    HW2 4767   1.099   6.959   0.705
 1290SOL     OW 4768   1.149   6.911   4.543
 1290SOL    HW1 4769   1.102   6.948   4.462
 1290SOL    HW2 4770   1.152   6.811   4.536
 1291SOL     OW 4771   4.755   6.251   3.841
 1291SOL    HW1 4772   4.803   6.254   3.753
 1291SOL    HW2 4773   4.791   6.175   3.895
 1292SOL     OW 4774   6.853   6.490   3.121
 1292SOL    HW1 4775   6.943   6.447   3.126
 1292SOL    HW2 4776   6.792   6.434   3.064
 1293SOL     OW 4777   4.744   0.187   0.845
 1293SOL    HW1 4778   4.702   0.249   0.778
 1293SOL    HW2 4779   4.683   0.110   0.862
 1294SOL     OW 4780   2.212   4.267   5.407
 1294SOL    HW1 4781   2.296   4.301   5.365
 1294SOL    HW2 4782   2.188   4.179   5.367
 1295SOL     OW 4783   0.085   4.445   0.375
 1295SOL    HW1 4784   0.013   4.461   0.307
 1295SOL    HW2 4785   0.175   4.447   0.330
 1296SOL     OW 4786   3.701   0.590   6.132
 1296SOL    HW1 4787   3.679   0.667   6.193
 1296SOL    HW2 4788   3.777   0.617   6.072
 1297SOL     OW 4789   6.008   6.667   0.197
 1297SOL    HW1 4790   6.047   6.689   0.107
 1297SOL    HW2 4791   6.035   6.574   0.223
 1298SOL     OW 4792   4.766   7.022   2.392
 1298SOL    HW1 4793   4.767   6.969   2.307
 1298SOL    HW2 4794   4.694   0.067   2.387
 1299SOL     OW 4795   1.035   4.981   5.469
 1299SOL    HW1 4796   1.064   4.992   5.564
 1299SOL    HW2 4797   1.114   4.957   5.412
 1300SOL     OW 4798   1.456   5.726   0.740
 1300SOL    HW1 4799   1.358   5.729   0.724
 1300SOL    HW2 4800   1.476   5.655   0.808
 1301SOL     OW 4801   6.518   2.157   6.735
 1301SOL    HW1 4802   6.511   2.253   6.761
 1301SOL    HW2 4803   6.444   2.105   6.778
 1302SOL     OW 4804   6.846   6.721   5.016
 1302SOL    HW1 4805   6.826   6.781   5.093
 1302SOL    HW2 4806   6.866   6.629   5.049
 1303SOL     OW 4807   2.425   6.560   0.886
 1303SOL    HW1 4808   2.449   6.525   0.795
 1303SOL    HW2 4809   2.365   6.495   0.932
 1304SOL     OW 4810   6.296   1.338   6.827
 1304SOL    HW1 4811   6.254   1.343   6.736
 1304SOL    HW2 4812   6.359   1.260   6.830
 1305SOL     OW 4813   3.516   4.304   6.190
 1305SOL    HW1 4814   3.518   4.241   6.268
 1305SOL    HW2 4815   3.578   4.272   6.119
 1306SOL     OW 4816   2.609   6.436   4.152
 1306SOL    HW1 4817   2.561   6.517   4.184
 1306SOL    HW2 4818   2.654   6.391   4.228
 1307SOL     OW 4819   2.092   3.522   2.951
 1307SOL    HW1 4820   2.006   3.566   2.978
 1307SOL    HW2 4821   2.168   3.585   2.962
 1308SOL     OW 4822   0.673   3.860   5.877
 1308SOL    HW1 4823   0.630   3.801   5.808
 1308SOL    HW2 4824   0.751   3.908   5.836
 1309SOL     OW 4825   6.035   4.299   0.352
 1309SOL    HW1 4826   6.036   4.255   0.262
 1309SOL    HW2 4827   6.111   4.264   0.407
 1310SOL     OW 4828   2.387   2.701   3.406
 1310SOL    HW1 4829   2.378   2.720   3.308
 1310SOL    HW2 4830   2.380   2.787   3.457
 1311SOL     OW 4831   6.416   5.386   6.967
 1311SOL    HW1 4832   6.370   5.413   6.882
 1311SOL    HW2 4833   6.482   5.456   6.993
 1312SOL     OW 4834   2.230   1.658   6.562
 1312SOL    HW1 4835   2.294   1.622   6.495
 1312SOL    HW2 4836   2.280   1.710   6.632
 1313SOL     OW 4837   4.536   5.204   3.425
 1313SOL    HW1 4838   4.514   5.199   3.328
 1313SOL    HW2 4839   4.623   5.159   3.442
 1314SOL     OW 4840   2.933   1.903   3.542
 1314SOL    HW1 4841   3.017   1.885   3.593
 1314SOL    HW2 4842   2.878   1.970   3.593
 1315SOL     OW 4843   5.512   6.903   3.714
 1315SOL    HW1 4844   5.525   7.000   3.690
 1315SOL    HW2 4845   5.566   6.881   3.795
 1316SOL     OW 4846   4.978   0.327   6.418
 1316SOL    HW1 4847   4.924   0.244   6.406
 1316SOL    HW2 4848   5.011   0.333   6.513
 1317SOL     OW 4849   4.004   3.165   3.804
 1317SOL    HW1 4850   4.057   3.129   3.881
 1317SOL    HW2 4851   3.950   3.243   3.834
 1318SOL     OW 4852   1.812   1.076   0.410
 1318SOL    HW1 4853   1.812   1.160   0.354
 1318SOL    HW2 4854   1.730   1.075   0.467
 1319SOL     OW 4855   6.473   1.475   0.037
 1319SOL    HW1 4856   6.450   1.559   0.086
 1319SOL    HW2 4857   6.438   1.396   0.087
 1320SOL     OW 4858   2.867   2.889   6.013
 1320SOL    HW1 4859   2.791   2.954   6.009
 1320SOL    HW2 4860   2.839   2.808   6.065
 1321SOL     OW 4861   0.009   2.360   1.565
 1321SOL    HW1 4862   0.072   2.436   1.582
 1321SOL    HW2 4863   0.050   2.275   1.599
 1322SOL     OW 4864   1.969   2.739   0.031
 1322SOL    HW1 4865   1.984   2.827   0.075
 1322SOL    HW2 4866   1.980   2.749   6.956
 1323SOL     OW 4867   4.652   0.980   1.181
 1323SOL    HW1 4868   4.663   0.889   1.223
 1323SOL    HW2 4869   4.565   1.019   1.210
 1324SOL     OW 4870   2.313   3.845   5.958
 1324SOL    HW1 4871   2.306   3.894   5.871
 1324SOL    HW2 4872   2.238   3.779   5.965
 1325SOL     OW 4873   4.636   5.219   4.736
 1325SOL    HW1 4874   4.605   5.137   4.785
 1325SOL    HW2 4875   4.615   5.300   4.791
 1326SOL     OW 4876   3.866   1.499   5.008
 1326SOL    HW1 4877   3.800   1.449   5.064
 1326SOL    HW2 4878   3.841   1.491   4.912
 1327SOL     OW 4879   4.452   5.168   1.895
 1327SOL    HW1 4880   4.415   5.195   1.806
 1327SOL    HW2 4881   4.552   5.176   1.893
 1328SOL     OW 4882   1.353   2.570   5.535
 1328SOL    HW1 4883   1.279   2.623   5.493
 1328SOL    HW2 4884   1.348   2.475   5.502
 1329SOL     OW 4885   1.547   2.368   4.485
 1329SOL    HW1 4886   1.465   2.421   4.465
 1329SOL    HW2 4887   1.624   2.406   4.435
 1330SOL     OW 4888   6.469   2.966   2.551
 1330SOL    HW1 4889   6.538   2.921   2.494
 1330SOL    HW2 4890   6.478   3.065   2.541
 1331SOL     OW 4891   4.089   1.638   2.909
 1331SOL    HW1 4892   4.061   1.682   2.994
 1331SOL    HW2 4893   4.187   1.618   2.912
 1332SOL     OW 4894   2.461   6.755   6.586
 1332SOL    HW1 4895   2.441   6.663   6.619
 1332SOL    HW2 4896   2.399   6.821   6.629
 1333SOL     OW 4897   3.287   3.562   2.585
 1333SOL    HW1 4898   3.362   3.609   2.538
 1333SOL    HW2 4899   3.291   3.583   2.683
 1334SOL     OW 4900   0.392   4.444   1.520
 1334SOL    HW1 4901   0.442   4.469   1.603
 1334SOL    HW2 4902   0.457   4.408   1.452
 1335SOL     OW 4903   6.692   3.454   3.289
 1335SOL    HW1 4904   6.773   3.444   3.347
 1335SOL    HW2 4905   6.702   3.395   3.209
 1336SOL     OW 4906   1.802   6.507   5.810
 1336SOL    HW1 4907   1.801   6.522   5.909
 1336SOL    HW2 4908   1.732   6.564   5.767
 1337SOL     OW 4909   6.818   0.085   1.748
 1337SOL    HW1 4910   6.820   0.184   1.762
 1337SOL    HW2 4911   6.784   0.065   1.656
 1338SOL     OW 4912   0.400   3.993   4.832
 1338SOL    HW1 4913   0.496   4.019   4.834
 1338SOL    HW2 4914   0.343   4.073   4.811
 1339SOL     OW 4915   5.165   1.258   6.881
 1339SOL    HW1 4916   5.096   1.328   6.902
 1339SOL    HW2 4917   5.254   1.302   6.872
 1340SOL     OW 4918   2.574   2.771   0.512
 1340SOL    HW1 4919   2.654   2.796   0.458
 1340SOL    HW2 4920   2.589   2.798   0.608
 1341SOL     OW 4921   6.185   6.277   0.455
 1341SOL    HW1 4922   6.124   6.292   0.533
 1341SOL    HW2 4923   6.268   6.229   0.486
 1342SOL     OW 4924   1.787   6.126   0.581
 1342SOL    HW1 4925   1.710   6.104   0.521
 1342SOL    HW2 4926   1.760   6.199   0.644
 1343SOL     OW 4927   4.804   6.181   2.905
 1343SOL    HW1 4928   4.812   6.121   2.826
 1343SOL    HW2 4929   4.813   6.276   2.876
 1344SOL     OW 4930   1.528   0.815   3.107
 1344SOL    HW1 4931   1.450   0.752   3.115
 1344SOL    HW2 4932   1.516   0.873   3.027
 1345SOL     OW 4933   1.137   6.549   5.267
 1345SOL    HW1 4934   1.235   6.562   5.286
 1345SOL    HW2 4935   1.126   6.519   5.172
 1346SOL     OW 4936   3.868   6.203   3.756
 1346SOL    HW1 4937   3.954   6.243   3.788
 1346SOL    HW2 4938   3.796   6.221   3.823
 1347SOL     OW 4939   6.666   0.922   5.609
 1347SOL    HW1 4940   6.701   0.845   5.663
 1347SOL    HW2 4941   6.597   0.889   5.544
 1348SOL     OW 4942   1.409   6.417   4.325
 1348SOL    HW1 4943   1.405   6.318   4.339
 1348SOL    HW2 4944   1.497   6.451   4.360
 1349SOL     OW 4945   5.074   4.186   4.212
 1349SOL    HW1 4946   5.158   4.196   4.159
 1349SOL    HW2 4947   5.021   4.109   4.176
 1350SOL     OW 4948   5.309   4.544   6.982
 1350SOL    HW1 4949   5.249   4.621   7.003
 1350SOL    HW2 4950   5.255   4.459   6.981
 1351SOL     OW 4951   6.130   4.039   6.660
 1351SOL    HW1 4952   6.172   4.125   6.689
 1351SOL    HW2 4953   6.201   3.979   6.622
 1352SOL     OW 4954   0.346   0.943   4.348
 1352SOL    HW1 4955   0.314   1.022   4.296
 1352SOL    HW2 4956   0.283   0.866   4.332
 1353SOL     OW 4957   6.642   3.393   6.040
 1353SOL    HW1 4958   6.693   3.464   6.089
 1353SOL    HW2 4959   6.604   3.328   6.106
 1354SOL     OW 4960   4.932   5.276   3.342
 1354SOL    HW1 4961   4.872   5.346   3.303
 1354SOL    HW2 4962   4.930   5.282   3.441
 1355SOL     OW 4963   3.875   3.345   4.027
 1355SOL    HW1 4964   3.819   3.379   3.951
 1355SOL    HW2 4965   3.831   3.369   4.114
 1356SOL     OW 4966   2.770   3.464   6.849
 1356SOL    HW1 4967   2.863   3.427   6.846
 1356SOL    HW2 4968   2.717   3.414   6.917
 1357SOL     OW 4969   0.122   3.354   4.656
 1357SOL    HW1 4970   0.101   3.285   4.587
 1357SOL    HW2 4971   0.127   3.311   4.746
 1358SOL     OW 4972   2.737   6.175   6.011
 1358SOL    HW1 4973   2.669   6.225   6.064
 1358SOL    HW2 4974   2.828   6.211   6.031
 1359SOL     OW 4975   6.172   5.317   0.078
 1359SOL    HW1 4976   6.256   5.357   0.042
 1359SOL    HW2 4977   6.151   5.233   0.028
 1360SOL     OW 4978   2.349   1.687   5.922
 1360SOL    HW1 4979   2.321   1.776   5.957
 1360SOL    HW2 4980   2.271   1.624   5.921
 1361SOL     OW 4981   5.956   5.014   5.140
 1361SOL    HW1 4982   5.896   5.074   5.088
 1361SOL    HW2 4983   5.916   4.922   5.144
 1362SOL     OW 4984   3.343   4.228   4.613
 1362SOL    HW1 4985   3.392   4.225   4.701
 1362SOL    HW2 4986   3.284   4.308   4.610
 1363SOL     OW 4987   6.787   6.497   3.389
 1363SOL    HW1 4988   6.795   6.492   3.290
 1363SOL    HW2 4989   6.724   6.571   3.414
 1364SOL     OW 4990   3.396   4.275   0.258
 1364SOL    HW1 4991   3.398   4.276   0.158
 1364SOL    HW2 4992   3.446   4.354   0.292
 1365SOL     OW 4993   6.025   2.495   6.038
 1365SOL    HW1 4994   6.038   2.566   6.107
 1365SOL    HW2 4995   5.927   2.483   6.021
 1366SOL     OW 4996   2.257   0.731   4.075
 1366SOL    HW1 4997   2.174   0.676   4.082
 1366SOL    HW2 4998   2.292   0.749   4.167
 1367SOL     OW 4999   2.529   1.129   1.535
 1367SOL    HW1 5000   2.629   1.127   1.534
 1367SOL    HW2 5001   2.494   1.043   1.498
 1368SOL     OW 5002   0.393   1.012   3.373
 1368SOL    HW1 5003   0.356   0.926   3.340
 1368SOL    HW2 5004   0.408   1.007   3.472
 1369SOL     OW 5005   0.143   6.678   2.539
 1369SOL    HW1 5006   0.142   6.775   2.514
 1369SOL    HW2 5007   0.236   6.653   2.567
 1370SOL     OW 5008   0.505   0.885   2.526
 1370SOL    HW1 5009   0.429   0.858   2.585
 1370SOL    HW2 5010   0.487   0.977   2.489
 1371SOL     OW 5011   1.822   6.720   4.914
 1371SOL    HW1 5012   1.808   6.621   4.918
 1371SOL    HW2 5013   1.823   6.750   4.819
 1372SOL     OW 5014   3.383   1.758   1.063
 1372SOL    HW1 5015   3.406   1.745   1.160
 1372SOL    HW2 5016   3.346   1.851   1.051
 1373SOL     OW 5017   0.862   5.729   6.298
 1373SOL    HW1 5018   0.833   5.743   6.393
 1373SOL    HW2 5019   0.811   5.653   6.258
 1374SOL     OW 5020   5.538   2.938   4.641
 1374SOL    HW1 5021   5.445   2.904   4.630
 1374SOL    HW2 5022   5.538   3.021   4.697
 1375SOL     OW 5023   0.881   4.609   3.536
 1375SOL    HW1 5024   0.782   4.615   3.519
 1375SOL    HW2 5025   0.898   4.618   3.634
 1376SOL     OW 5026   5.300   0.224   2.229
 1376SOL    HW1 5027   5.231   0.152   2.229
 1376SOL    HW2 5028   5.321   0.249   2.324
 1377SOL     OW 5029   6.820   3.646   5.644
 1377SOL    HW1 5030   6.776   3.651   5.555
 1377SOL    HW2 5031   6.837   3.550   5.667
 1378SOL     OW 5032   2.188   1.398   0.459
 1378SOL    HW1 5033   2.170   1.424   0.364
 1378SOL    HW2 5034   2.282   1.366   0.468
 1379SOL     OW 5035   4.348   5.294   1.658
 1379SOL    HW1 5036   4.434   5.332   1.624
 1379SOL    HW2 5037   4.274   5.317   1.594
 1380SOL     OW 5038   6.280   5.467   2.765
 1380SOL    HW1 5039   6.345   5.400   2.729
 1380SOL    HW2 5040   6.299   5.482   2.862
 1381SOL     OW 5041   3.853   6.853   1.870
 1381SOL    HW1 5042   3.897   6.934   1.832
 1381SOL    HW2 5043   3.887   6.837   1.963
 1382SOL     OW 5044   6.473   3.620   0.388
 1382SOL    HW1 5045   6.419   3.582   0.463
 1382SOL    HW2 5046   6.501   3.713   0.411
 1383SOL     OW 5047   3.556   6.933   0.712
 1383SOL    HW1 5048   3.478   6.881   0.746
 1383SOL    HW2 5049   3.580   7.004   0.778
 1384SOL     OW 5050   1.123   1.828   3.041
 1384SOL    HW1 5051   1.153   1.923   3.045
 1384SOL    HW2 5052   1.029   1.821   3.074
 1385SOL     OW 5053   4.901   3.286   4.540
 1385SOL    HW1 5054   4.880   3.290   4.442
 1385SOL    HW2 5055   5.000   3.280   4.552
 1386SOL     OW 5056   2.355   2.730   3.132
 1386SOL    HW1 5057   2.308   2.817   3.117
 1386SOL    HW2 5058   2.288   2.658   3.148
 1387SOL     OW 5059   3.935   0.951   4.696
 1387SOL    HW1 5060   3.880   0.966   4.778
 1387SOL    HW2 5061   3.989   0.867   4.707
 1388SOL     OW 5062   4.813   2.220   3.552
 1388SOL    HW1 5063   4.736   2.187   3.498
 1388SOL    HW2 5064   4.894   2.164   3.531
 1389SOL     OW 5065   0.371   1.775   5.192
 1389SOL    HW1 5066   0.343   1.756   5.286
 1389SOL    HW2 5067   0.470   1.779   5.186
 1390SOL     OW 5068   6.259   2.457   3.226
 1390SOL    HW1 5069   6.207   2.462   3.141
 1390SOL    HW2 5070   6.308   2.544   3.241
 1391SOL     OW 5071   5.763   0.891   5.527
 1391SOL    HW1 5072   5.835   0.827   5.501
 1391SOL    HW2 5073   5.716   0.856   5.608
 1392SOL     OW 5074   3.126   0.195   4.636
 1392SOL    HW1 5075   3.222   0.223   4.634
 1392SOL    HW2 5076   3.119   0.100   4.605
 1393SOL     OW 5077   4.748   0.211   6.986
 1393SOL    HW1 5078   4.836   0.207   0.010
 1393SOL    HW2 5079   4.697   0.127   7.004
 1394SOL     OW 5080   4.081   0.847   4.946
 1394SOL    HW1 5081   4.083   0.807   5.038
 1394SOL    HW2 5082   4.057   0.776   4.880
 1395SOL     OW 5083   1.008   4.690   2.708
 1395SOL    HW1 5084   1.004   4.652   2.616
 1395SOL    HW2 5085   0.928   4.749   2.723
 1396SOL     OW 5086   1.569   2.184   3.332
 1396SOL    HW1 5087   1.572   2.106   3.395
 1396SOL    HW2 5088   1.635   2.170   3.259
 1397SOL     OW 5089   2.231   5.638   5.649
 1397SOL    HW1 5090   2.225   5.738   5.646
 1397SOL    HW2 5091   2.248   5.608   5.743
 1398SOL     OW 5092   2.889   0.024   6.258
 1398SOL    HW1 5093   2.920   6.961   6.295
 1398SOL    HW2 5094   2.807   0.009   6.201
 1399SOL     OW 5095   3.978   6.977   0.416
 1399SOL    HW1 5096   4.064   6.928   0.432
 1399SOL    HW2 5097   3.902   6.923   0.452
 1400SOL     OW 5098   0.675   2.410   5.974
 1400SOL    HW1 5099   0.741   2.352   5.927
 1400SOL    HW2 5100   0.617   2.456   5.907
 1401SOL     OW 5101   4.317   0.063   3.166
 1401SOL    HW1 5102   4.304   7.021   3.093
 1401SOL    HW2 5103   4.343   0.151   3.127
 1402SOL     OW 5104   4.825   3.882   3.018
 1402SOL    HW1 5105   4.803   3.934   2.935
 1402SOL    HW2 5106   4.759   3.904   3.090
 1403SOL     OW 5107   2.810   3.051   6.895
 1403SOL    HW1 5108   2.860   3.110   6.831
 1403SOL    HW2 5109   2.722   3.094   6.918
 1404SOL     OW 5110   3.629   6.260   6.849
 1404SOL    HW1 5111   3.606   6.256   6.946
 1404SOL    HW2 5112   3.619   6.354   6.816
 1405SOL     OW 5113   1.365   4.944   0.177
 1405SOL    HW1 5114   1.325   4.866   0.128
 1405SOL    HW2 5115   1.323   4.950   0.268
 1406SOL     OW 5116   1.937   2.218   0.922
 1406SOL    HW1 5117   2.033   2.238   0.902
 1406SOL    HW2 5118   1.885   2.217   0.836
 1407SOL     OW 5119   6.325   3.497   1.846
 1407SOL    HW1 5120   6.331   3.524   1.942
 1407SOL    HW2 5121   6.331   3.578   1.788
 1408SOL     OW 5122   6.250   6.085   1.467
 1408SOL    HW1 5123   6.240   5.998   1.516
 1408SOL    HW2 5124   6.330   6.134   1.501
 1409SOL     OW 5125   6.180   2.686   5.884
 1409SOL    HW1 5126   6.122   2.741   5.824
 1409SOL    HW2 5127   6.135   2.600   5.906
 1410SOL     OW 5128   3.250   0.334   0.444
 1410SOL    HW1 5129   3.257   0.301   0.538
 1410SOL    HW2 5130   3.316   0.285   0.386
 1411SOL     OW 5131   3.809   0.192   6.852
 1411SOL    HW1 5132   3.818   0.198   6.753
 1411SOL    HW2 5133   3.842   0.276   6.894
 1412SOL     OW 5134   1.491   0.996   6.400
 1412SOL    HW1 5135   1.573   1.053   6.395
 1412SOL    HW2 5136   1.416   1.040   6.350
 1413SOL     OW 5137   1.705   1.015   4.152
 1413SOL    HW1 5138   1.621   1.019   4.207
 1413SOL    HW2 5139   1.749   1.105   4.152
 1414SOL     OW 5140   0.130   5.059   2.691
 1414SOL    HW1 5141   0.225   5.030   2.701
 1414SOL    HW2 5142   0.070   4.992   2.735
 1415SOL     OW 5143   3.031   1.883   5.142
 1415SOL    HW1 5144   3.087   1.964   5.155
 1415SOL    HW2 5145   3.083   1.801   5.166
 1416SOL     OW 5146   4.393   0.679   5.375
 1416SOL    HW1 5147   4.415   0.653   5.469
 1416SOL    HW2 5148   4.472   0.726   5.335
 1417SOL     OW 5149   3.823   3.812   4.264
 1417SOL    HW1 5150   3.728   3.782   4.271
 1417SOL    HW2 5151   3.843   3.878   4.336
 1418SOL     OW 5152   3.247   3.851   6.398
 1418SOL    HW1 5153   3.333   3.802   6.380
 1418SOL    HW2 5154   3.219   3.834   6.492
 1419SOL     OW 5155   0.201   5.256   1.582
 1419SOL    HW1 5156   0.232   5.294   1.669
 1419SOL    HW2 5157   0.262   5.287   1.509
 1420SOL     OW 5158   2.693   6.477   3.433
 1420SOL    HW1 5159   2.709   6.559   3.378
 1420SOL    HW2 5160   2.635   6.414   3.382
 1421SOL     OW 5161   1.439   4.835   1.226
 1421SOL    HW1 5162   1.355   4.867   1.181
 1421SOL    HW2 5163   1.419   4.811   1.321
 1422SOL     OW 5164   1.703   3.497   6.638
 1422SOL    HW1 5165   1.623   3.509   6.696
 1422SOL    HW2 5166   1.682   3.434   6.563
 1423SOL     OW 5167   5.009   0.467   5.599
 1423SOL    HW1 5168   4.949   0.387   5.604
 1423SOL    HW2 5169   5.066   0.471   5.681
 1424SOL     OW 5170   5.767   3.913   1.603
 1424SOL    HW1 5171   5.716   3.934   1.686
 1424SOL    HW2 5172   5.799   3.998   1.560
 1425SOL     OW 5173   5.522   6.626   2.443
 1425SOL    HW1 5174   5.534   6.685   2.523
 1425SOL    HW2 5175   5.596   6.559   2.440
 1426SOL     OW 5176   3.595   0.570   0.451
 1426SOL    HW1 5177   3.610   0.606   0.359
 1426SOL    HW2 5178   3.505   0.598   0.483
 1427SOL     OW 5179   0.995   0.366   3.999
 1427SOL    HW1 5180   0.956   0.456   4.021
 1427SOL    HW2 5181   0.969   0.341   3.906
 1428SOL     OW 5182   2.915   4.889   3.738
 1428SOL    HW1 5183   3.013   4.875   3.752
 1428SOL    HW2 5184   2.866   4.863   3.820
 1429SOL     OW 5185   5.919   0.912   0.840
 1429SOL    HW1 5186   5.952   0.903   0.934
 1429SOL    HW2 5187   5.944   0.830   0.787
 1430SOL     OW 5188   2.127   3.836   4.283
 1430SOL    HW1 5189   2.167   3.777   4.214
 1430SOL    HW2 5190   2.031   3.854   4.261
 1431SOL     OW 5191   3.608   2.012   0.651
 1431SOL    HW1 5192   3.552   1.966   0.583
 1431SOL    HW2 5193   3.606   1.960   0.736
 1432SOL     OW 5194   2.507   6.838   2.747
 1432SOL    HW1 5195   2.472   6.898   2.676
 1432SOL    HW2 5196   2.601   6.811   2.724
 1433SOL     OW 5197   3.984   1.638   3.545
 1433SOL    HW1 5198   3.910   1.593   3.596
 1433SOL    HW2 5199   4.023   1.573   3.479
 1434SOL     OW 5200   6.384   3.575   1.147
 1434SOL    HW1 5201   6.408   3.500   1.208
 1434SOL    HW2 5202   6.335   3.539   1.067
 1435SOL     OW 5203   6.765   5.982   4.121
 1435SOL    HW1 5204   6.807   5.970   4.031
 1435SOL    HW2 5205   6.669   5.956   4.117
 1436SOL     OW 5206   6.044   1.029   6.811
 1436SOL    HW1 5207   6.035   1.017   6.712
 1436SOL    HW2 5208   5.953   1.032   6.853
 1437SOL     OW 5209   3.824   1.016   0.492
 1437SOL    HW1 5210   3.728   1.042   0.486
 1437SOL    HW2 5211   3.879   1.096   0.515
 1438SOL     OW 5212   2.625   5.668   3.446
 1438SOL    HW1 5213   2.548   5.690   3.387
 1438SOL    HW2 5214   2.710   5.671   3.394
 1439SOL     OW 5215   6.541   4.936   4.569
 1439SOL    HW1 5216   6.509   4.864   4.507
 1439SOL    HW2 5217   6.551   5.021   4.517
 1440SOL     OW 5218   3.559   2.971   1.976
 1440SOL    HW1 5219   3.551   2.937   2.070
 1440SOL    HW2 5220   3.640   3.029   1.969
 1441SOL     OW 5221   0.763   2.382   6.939
 1441SOL    HW1 5222   0.837   2.364   6.873
 1441SOL    HW2 5223   0.748   2.480   6.946
 1442SOL     OW 5224   5.805   5.632   7.010
 1442SOL    HW1 5225   5.833   5.728   7.017
 1442SOL    HW2 5226   5.715   5.626   6.966
 1443SOL     OW 5227   2.121   3.425   4.468
 1443SOL    HW1 5228   2.059   3.423   4.547
 1443SOL    HW2 5229   2.212   3.455   4.498
 1444SOL     OW 5230   4.791   6.612   5.350
 1444SOL    HW1 5231   4.786   6.557   5.433
 1444SOL    HW2 5232   4.719   6.682   5.351
 1445SOL     OW 5233   6.606   3.205   7.011
 1445SOL    HW1 5234   6.550   3.282   6.978
 1445SOL    HW2 5235   6.593   3.194   0.085
 1446SOL     OW 5236   3.141   5.969   2.821
 1446SOL    HW1 5237   3.206   5.960   2.897
 1446SOL    HW2 5238   3.191   5.976   2.735
 1447SOL     OW 5239   6.557   1.113   4.881
 1447SOL    HW1 5240   6.489   1.099   4.810
 1447SOL    HW2 5241   6.648   1.118   4.840
 1448SOL     OW 5242   5.197   1.623   1.032
 1448SOL    HW1 5243   5.188   1.570   1.116
 1448SOL    HW2 5244   5.142   1.706   1.040
 1449SOL     OW 5245   4.920   6.076   6.743
 1449SOL    HW1 5246   4.997   6.012   6.738
 1449SOL    HW2 5247   4.951   6.163   6.779
 1450SOL     OW 5248   5.273   1.261   4.077
 1450SOL    HW1 5249   5.259   1.215   4.165
 1450SOL    HW2 5250   5.371   1.280   4.065
 1451SOL     OW 5251   0.415   6.283   2.704
 1451SOL    HW1 5252   0.489   6.292   2.638
 1451SOL    HW2 5253   0.405   6.368   2.756
 1452SOL     OW 5254   1.405   0.394   5.983
 1452SOL    HW1 5255   1.308   0.416   5.991
 1452SOL    HW2 5256   1.432   0.332   6.057
 1453SOL     OW 5257   6.283   4.574   4.270
 1453SOL    HW1 5258   6.184   4.560   4.274
 1453SOL    HW2 5259   6.318   4.542   4.183
 1454SOL     OW 5260   6.487   4.854   1.462
 1454SOL    HW1 5261   6.530   4.944   1.470
 1454SOL    HW2 5262   6.551   4.790   1.419
 1455SOL     OW 5263   2.774   0.947   1.731
 1455SOL    HW1 5264   2.742   1.004   1.655
 1455SOL    HW2 5265   2.866   0.913   1.710
 1456SOL     OW 5266   5.564   4.659   5.241
 1456SOL    HW1 5267   5.626   4.592   5.202
 1456SOL    HW2 5268   5.544   4.730   5.173
 1457SOL     OW 5269   2.517   1.523   4.385
 1457SOL    HW1 5270   2.520   1.500   4.483
 1457SOL    HW2 5271   2.609   1.517   4.347
 1458SOL     OW 5272   6.392   5.501   6.600
 1458SOL    HW1 5273   6.325   5.494   6.674
 1458SOL    HW2 5274   6.445   5.586   6.611
 1459SOL     OW 5275   3.499   6.863   1.076
 1459SOL    HW1 5276   3.538   6.808   1.002
 1459SOL    HW2 5277   3.404   6.835   1.092
 1460SOL     OW 5278   0.915   1.438   0.170
 1460SOL    HW1 5279   0.990   1.415   0.108
 1460SOL    HW2 5280   0.940   1.517   0.225
 1461SOL     OW 5281   5.486   4.008   2.444
 1461SOL    HW1 5282   5.574   4.012   2.491
 1461SOL    HW2 5283   5.412   4.011   2.511
 1462SOL     OW 5284   6.110   0.402   5.069
 1462SOL    HW1 5285   6.105   0.343   5.149
 1462SOL    HW2 5286   6.206   0.430   5.055
 1463SOL     OW 5287   1.007   2.803   5.669
 1463SOL    HW1 5288   0.977   2.858   5.591
 1463SOL    HW2 5289   1.006   2.706   5.643
 1464SOL     OW 5290   0.298   0.621   1.376
 1464SOL    HW1 5291   0.297   0.721   1.371
 1464SOL    HW2 5292   0.283   0.592   1.470
 1465SOL     OW 5293   2.663   0.035   4.088
 1465SOL    HW1 5294   2.695   0.129   4.078
 1465SOL    HW2 5295   2.660   0.010   4.185
 1466SOL     OW 5296   5.684   6.035   4.729
 1466SOL    HW1 5297   5.779   6.067   4.729
 1466SOL    HW2 5298   5.623   6.112   4.741
 1467SOL     OW 5299   0.865   4.754   4.473
 1467SOL    HW1 5300   0.893   4.849   4.460
 1467SOL    HW2 5301   0.782   4.737   4.419
 1468SOL     OW 5302   4.661   0.245   2.293
 1468SOL    HW1 5303   4.760   0.255   2.299
 1468SOL    HW2 5304   4.628   0.292   2.211
 1469SOL     OW 5305   6.556   0.362   2.020
 1469SOL    HW1 5306   6.596   0.441   1.974
 1469SOL    HW2 5307   6.629   0.299   2.048
 1470SOL     OW 5308   6.847   0.994   2.317
 1470SOL    HW1 5309   6.819   0.912   2.266
 1470SOL    HW2 5310   6.785   1.069   2.294
 1471SOL     OW 5311   6.895   1.258   1.062
 1471SOL    HW1 5312   6.825   1.191   1.036
 1471SOL    HW2 5313   6.976   1.210   1.095
 1472SOL     OW 5314   4.537   4.932   5.166
 1472SOL    HW1 5315   4.635   4.924   5.186
 1472SOL    HW2 5316   4.512   5.028   5.160
 1473SOL     OW 5317   0.493   3.317   3.597
 1473SOL    HW1 5318   0.542   3.298   3.681
 1473SOL    HW2 5319   0.552   3.297   3.518
 1474SOL     OW 5320   4.607   6.568   2.216
 1474SOL    HW1 5321   4.562   6.653   2.188
 1474SOL    HW2 5322   4.547   6.516   2.276
 1475SOL     OW 5323   6.370   6.950   2.825
 1475SOL    HW1 5324   6.429   6.874   2.798
 1475SOL    HW2 5325   6.275   6.928   2.800
 1476SOL     OW 5326   1.375   2.274   0.908
 1476SOL    HW1 5327   1.295   2.219   0.935
 1476SOL    HW2 5328   1.450   2.256   0.971
 1477SOL     OW 5329   3.158   6.452   4.112
 1477SOL    HW1 5330   3.182   6.399   4.194
 1477SOL    HW2 5331   3.128   6.543   4.140
 1478SOL     OW 5332   0.015   4.403   1.064
 1478SOL    HW1 5333   0.008   4.306   1.042
 1478SOL    HW2 5334   0.096   4.442   1.020
 1479SOL     OW 5335   1.748   4.683   6.616
 1479SOL    HW1 5336   1.731   4.613   6.685
 1479SOL    HW2 5337   1.747   4.774   6.659
 1480SOL     OW 5338   3.234   0.678   6.861
 1480SOL    HW1 5339   3.170   0.602   6.871
 1480SOL    HW2 5340   3.279   0.696   6.949
 1481SOL     OW 5341   6.843   2.919   1.109
 1481SOL    HW1 5342   6.821   2.921   1.207
 1481SOL    HW2 5343   6.789   2.848   1.065
 1482SOL     OW 5344   6.393   0.524   5.786
 1482SOL    HW1 5345   6.417   0.604   5.841
 1482SOL    HW2 5346   6.453   0.520   5.706
 1483SOL     OW 5347   0.102   1.916   0.665
 1483SOL    HW1 5348   0.021   1.962   0.627
 1483SOL    HW2 5349   0.073   1.852   0.737
 1484SOL     OW 5350   5.412   6.616   2.936
 1484SOL    HW1 5351   5.495   6.650   2.981
 1484SOL    HW2 5352   5.402   6.518   2.953
 1485SOL     OW 5353   5.333   3.943   4.775
 1485SOL    HW1 5354   5.363   3.850   4.798
 1485SOL    HW2 5355   5.389   3.978   4.700
 1486SOL     OW 5356   5.248   2.784   2.388
 1486SOL    HW1 5357   5.331   2.835   2.409
 1486SOL    HW2 5358   5.228   2.793   2.290
 1487SOL     OW 5359   0.435   6.579   5.595
 1487SOL    HW1 5360   0.338   6.597   5.610
 1487SOL    HW2 5361   0.469   6.640   5.524
 1488SOL     OW 5362   4.769   2.014   4.362
 1488SOL    HW1 5363   4.679   1.978   4.337
 1488SOL    HW2 5364   4.838   1.943   4.353
 1489SOL     OW 5365   3.318   5.239   4.490
 1489SOL    HW1 5366   3.324   5.141   4.511
 1489SOL    HW2 5367   3.322   5.253   4.391
 1490SOL     OW 5368   3.129   3.146   0.760
 1490SOL    HW1 5369   3.178   3.066   0.796
 1490SOL    HW2 5370   3.186   3.192   0.692
 1491SOL     OW 5371   2.068   1.702   3.694
 1491SOL    HW1 5372   2.002   1.678   3.623
 1491SOL    HW2 5373   2.089   1.621   3.749
 1492SOL     OW 5374   6.768   2.403   2.022
 1492SOL    HW1 5375   6.688   2.421   2.079
 1492SOL    HW2 5376   6.821   2.328   2.062
 1493SOL     OW 5377   6.725   3.268   4.704
 1493SOL    HW1 5378   6.794   3.200   4.681
 1493SOL    HW2 5379   6.656   3.227   4.764
 1494SOL     OW 5380   5.869   1.885   4.685
 1494SOL    HW1 5381   5.850   1.858   4.590
 1494SOL    HW2 5382   5.922   1.970   4.685
 1495SOL     OW 5383   1.153   3.807   1.772
 1495SOL    HW1 5384   1.119   3.825   1.864
 1495SOL    HW2 5385   1.253   3.815   1.771
 1496SOL     OW 5386   6.750   0.227   2.173
 1496SOL    HW1 5387   6.724   0.132   2.193
 1496SOL    HW2 5388   6.845   0.241   2.200
 1497SOL     OW 5389   5.553   4.267   6.055
 1497SOL    HW1 5390   5.584   4.173   6.040
 1497SOL    HW2 5391   5.560   4.289   6.152
 1498SOL     OW 5392   3.305   6.213   6.182
 1498SOL    HW1 5393   3.325   6.140   6.117
 1498SOL    HW2 5394   3.259   6.175   6.262
 1499SOL     OW 5395   2.140   4.328   3.748
 1499SOL    HW1 5396   2.057   4.272   3.754
 1499SOL    HW2 5397   2.123   4.405   3.686
 1500SOL     OW 5398   4.157   5.778   4.982
 1500SOL    HW1 5399   4.159   5.872   5.016
 1500SOL    HW2 5400   4.237   5.761   4.925
 1501SOL     OW 5401   3.468   1.325   1.671
 1501SOL    HW1 5402   3.381   1.335   1.624
 1501SOL    HW2 5403   3.485   1.229   1.691
 1502SOL     OW 5404   6.781   0.434   6.033
 1502SOL    HW1 5405   6.777   0.499   6.110
 1502SOL    HW2 5406   6.721   0.357   6.052
 1503SOL     OW 5407   3.154   3.719   5.750
 1503SOL    HW1 5408   3.144   3.741   5.847
 1503SOL    HW2 5409   3.120   3.795   5.694
 1504SOL     OW 5410   2.252   0.512   3.079
 1504SOL    HW1 5411   2.203   0.425   3.075
 1504SOL    HW2 5412   2.206   0.579   3.021
 1505SOL     OW 5413   5.972   6.096   3.105
 1505SOL    HW1 5414   5.943   6.114   3.011
 1505SOL    HW2 5415   5.933   6.009   3.135
 1506SOL     OW 5416   6.598   0.355   3.870
 1506SOL    HW1 5417   6.509   0.338   3.827
 1506SOL    HW2 5418   6.614   0.287   3.942
 1507SOL     OW 5419   2.698   2.018   6.366
 1507SOL    HW1 5420   2.609   1.973   6.356
 1507SOL    HW2 5421   2.696   2.107   6.319
 1508SOL     OW 5422   3.762   6.492   0.973
 1508SOL    HW1 5423   3.700   6.544   0.914
 1508SOL    HW2 5424   3.810   6.423   0.918
 1509SOL     OW 5425   4.906   2.206   6.020
 1509SOL    HW1 5426   4.807   2.199   6.031
 1509SOL    HW2 5427   4.948   2.230   6.107
 1510SOL     OW 5428   6.699   1.801   2.450
 1510SOL    HW1 5429   6.781   1.818   2.505
 1510SOL    HW2 5430   6.655   1.888   2.428
 1511SOL     OW 5431   6.988   2.550   0.350
 1511SOL    HW1 5432   0.004   2.490   0.419
 1511SOL    HW2 5433   6.913   2.602   0.390
 1512SOL     OW 5434   0.355   0.021   2.641
 1512SOL    HW1 5435   0.446   7.008   2.661
 1512SOL    HW2 5436   0.360   0.121   2.641
 1513SOL     OW 5437   2.391   0.050   2.938
 1513SOL    HW1 5438   2.429   0.077   2.850
 1513SOL    HW2 5439   2.326   6.999   2.925
 1514SOL     OW 5440   4.285   0.342   5.678
 1514SOL    HW1 5441   4.314   0.428   5.721
 1514SOL    HW2 5442   4.185   0.335   5.682
 1515SOL     OW 5443   5.477   5.576   4.839
 1515SOL    HW1 5444   5.413   5.554   4.766
 1515SOL    HW2 5445   5.471   5.674   4.861
 1516SOL     OW 5446   6.345   2.184   2.823
 1516SOL    HW1 5447   6.341   2.105   2.885
 1516SOL    HW2 5448   6.384   2.262   2.872
 1517SOL     OW 5449   2.631   5.446   1.497
 1517SOL    HW1 5450   2.570   5.481   1.567
 1517SOL    HW2 5451   2.708   5.508   1.485
 1518SOL     OW 5452   0.827   5.085   0.396
 1518SOL    HW1 5453   0.814   4.996   0.441
 1518SOL    HW2 5454   0.738   5.124   0.375
 1519SOL     OW 5455   1.418   4.113   1.873
 1519SOL    HW1 5456   1.424   4.019   1.906
 1519SOL    HW2 5457   1.327   4.130   1.836
 1520SOL     OW 5458   1.877   3.890   3.700
 1520SOL    HW1 5459   1.840   3.807   3.658
 1520SOL    HW2 5460   1.943   3.865   3.771
 1521SOL     OW 5461   2.030   6.061   5.603
 1521SOL    HW1 5462   2.004   6.157   5.592
 1521SOL    HW2 5463   1.954   6.010   5.642
 1522SOL     OW 5464   1.495   2.068   6.194
 1522SOL    HW1 5465   1.566   2.069   6.124
 1522SOL    HW2 5466   1.537   2.078   6.284
 1523SOL     OW 5467   5.080   1.644   0.415
 1523SOL    HW1 5468   4.996   1.637   0.360
 1523SOL    HW2 5469   5.110   1.552   0.440
 1524SOL     OW 5470   1.917   1.860   1.973
 1524SOL    HW1 5471   1.871   1.780   2.011
 1524SOL    HW2 5472   1.857   1.904   1.906
 1525SOL     OW 5473   4.495   2.382   5.233
 1525SOL    HW1 5474   4.517   2.452   5.166
 1525SOL    HW2 5475   4.506   2.419   5.325
 1526SOL     OW 5476   5.855   2.852   1.343
 1526SOL    HW1 5477   5.864   2.830   1.440
 1526SOL    HW2 5478   5.909   2.787   1.290
 1527SOL     OW 5479   1.902   6.895   5.120
 1527SOL    HW1 5480   1.854   6.838   5.053
 1527SOL    HW2 5481   1.888   6.992   5.097
 1528SOL     OW 5482   5.157   5.951   3.589
 1528SOL    HW1 5483   5.233   6.016   3.587
 1528SOL    HW2 5484   5.086   5.980   3.525
 1529SOL     OW 5485   0.880   0.203   6.142
 1529SOL    HW1 5486   0.902   0.251   6.057
 1529SOL    HW2 5487   0.782   0.209   6.160
 1530SOL     OW 5488   4.109   0.197   1.255
 1530SOL    HW1 5489   4.037   0.233   1.195
 1530SOL    HW2 5490   4.198   0.212   1.212
 1531SOL     OW 5491   4.997   1.801   6.800
 1531SOL    HW1 5492   4.926   1.732   6.815
 1531SOL    HW2 5493   4.997   1.830   6.705
 1532SOL     OW 5494   2.897   1.290   4.914
 1532SOL    HW1 5495   2.872   1.272   5.009
 1532SOL    HW2 5496   2.997   1.291   4.905
 1533SOL     OW 5497   4.116   2.619   1.628
 1533SOL    HW1 5498   4.106   2.673   1.544
 1533SOL    HW2 5499   4.037   2.634   1.687
 1534SOL     OW 5500   5.672   0.965   0.102
 1534SOL    HW1 5501   5.579   0.959   0.064
 1534SOL    HW2 5502   5.730   0.895   0.060
 1535SOL     OW 5503   4.525   4.523   4.251
 1535SOL    HW1 5504   4.507   4.543   4.347
 1535SOL    HW2 5505   4.444   4.546   4.196
 1536SOL     OW 5506   2.775   6.270   3.142
 1536SOL    HW1 5507   2.708   6.244   3.212
 1536SOL    HW2 5508   2.734   6.258   3.052
 1537SOL     OW 5509   1.825   5.088   5.083
 1537SOL    HW1 5510   1.776   5.134   5.157
 1537SOL    HW2 5511   1.920   5.118   5.084
 1538SOL     OW 5512   3.557   6.106   0.342
 1538SOL    HW1 5513   3.488   6.155   0.395
 1538SOL    HW2 5514   3.642   6.101   0.393
 1539SOL     OW 5515   1.895   6.336   0.988
 1539SOL    HW1 5516   1.911   6.267   0.917
 1539SOL    HW2 5517   1.981   6.356   1.035
 1540SOL     OW 5518   6.121   1.090   6.235
 1540SOL    HW1 5519   6.066   1.012   6.204
 1540SOL    HW2 5520   6.209   1.089   6.187
 1541SOL     OW 5521   5.097   2.081   2.388
 1541SOL    HW1 5522   5.110   2.026   2.305
 1541SOL    HW2 5523   5.038   2.159   2.367
 1542SOL     OW 5524   0.235   5.651   1.128
 1542SOL    HW1 5525   0.203   5.650   1.223
 1542SOL    HW2 5526   0.280   5.565   1.107
 1543SOL     OW 5527   3.440   2.849   2.793
 1543SOL    HW1 5528   3.346   2.856   2.759
 1543SOL    HW2 5529   3.502   2.831   2.716
 1544SOL     OW 5530   3.158   3.268   1.644
 1544SOL    HW1 5531   3.169   3.340   1.712
 1544SOL    HW2 5532   3.180   3.304   1.554
 1545SOL     OW 5533   0.520   6.375   5.750
 1545SOL    HW1 5534   0.596   6.317   5.719
 1545SOL    HW2 5535   0.495   6.439   5.678
 1546SOL     OW 5536   0.074   6.413   1.105
 1546SOL    HW1 5537   0.112   6.322   1.093
 1546SOL    HW2 5538   7.023   6.427   1.041
 1547SOL     OW 5539   2.902   6.662   0.535
 1547SOL    HW1 5540   2.977   6.634   0.475
 1547SOL    HW2 5541   2.815   6.658   0.486
 1548SOL     OW 5542   6.333   4.120   3.159
 1548SOL    HW1 5543   6.431   4.120   3.177
 1548SOL    HW2 5544   6.317   4.131   3.061
 1549SOL     OW 5545   6.040   2.144   1.539
 1549SOL    HW1 5546   5.967   2.106   1.482
 1549SOL    HW2 5547   6.037   2.244   1.536
 1550SOL     OW 5548   2.838   4.796   2.145
 1550SOL    HW1 5549   2.807   4.756   2.231
 1550SOL    HW2 5550   2.812   4.736   2.069
 1551SOL     OW 5551   0.935   2.147   2.168
 1551SOL    HW1 5552   0.903   2.144   2.073
 1551SOL    HW2 5553   1.035   2.152   2.168
 1552SOL     OW 5554   1.707   6.483   1.976
 1552SOL    HW1 5555   1.793   6.506   2.022
 1552SOL    HW2 5556   1.661   6.567   1.947
 1553SOL     OW 5557   6.267   1.299   5.399
 1553SOL    HW1 5558   6.208   1.333   5.326
 1553SOL    HW2 5559   6.216   1.299   5.485
 1554SOL     OW 5560   2.164   3.165   0.083
 1554SOL    HW1 5561   2.220   3.196   0.007
 1554SOL    HW2 5562   2.223   3.119   0.151
 1555SOL     OW 5563   4.415   1.295   0.936
 1555SOL    HW1 5564   4.432   1.307   0.838
 1555SOL    HW2 5565   4.386   1.382   0.976
 1556SOL     OW 5566   2.604   1.813   0.519
 1556SOL    HW1 5567   2.540   1.890   0.523
 1556SOL    HW2 5568   2.574   1.742   0.583
 1557SOL     OW 5569   2.406   2.086   1.568
 1557SOL    HW1 5570   2.332   2.081   1.501
 1557SOL    HW2 5571   2.368   2.107   1.658
 1558SOL     OW 5572   4.871   1.578   0.248
 1558SOL    HW1 5573   4.822   1.563   0.333
 1558SOL    HW2 5574   4.806   1.603   0.176
 1559SOL     OW 5575   2.254   6.121   3.756
 1559SOL    HW1 5576   2.218   6.115   3.849
 1559SOL    HW2 5577   2.280   6.031   3.723
 1560SOL     OW 5578   4.609   3.127   1.604
 1560SOL    HW1 5579   4.706   3.151   1.609
 1560SOL    HW2 5580   4.581   3.079   1.687
 1561SOL     OW 5581   6.244   6.818   0.630
 1561SOL    HW1 5582   6.183   6.869   0.691
 1561SOL    HW2 5583   6.260   6.727   0.667
 1562SOL     OW 5584   2.357   6.491   3.284
 1562SOL    HW1 5585   2.267   6.483   3.241
 1562SOL    HW2 5586   2.345   6.516   3.380
 1563SOL     OW 5587   2.352   4.858   4.099
 1563SOL    HW1 5588   2.259   4.870   4.132
 1563SOL    HW2 5589   2.374   4.760   4.095
 1564SOL     OW 5590   2.163   2.573   3.214
 1564SOL    HW1 5591   2.089   2.615   3.268
 1564SOL    HW2 5592   2.132   2.485   3.178
 1565SOL     OW 5593   5.577   1.786   5.707
 1565SOL    HW1 5594   5.535   1.870   5.673
 1565SOL    HW2 5595   5.527   1.707   5.672
 1566SOL     OW 5596   0.990   3.392   3.500
 1566SOL    HW1 5597   0.928   3.428   3.569
 1566SOL    HW2 5598   1.085   3.404   3.531
 1567SOL     OW 5599   5.135   1.012   3.425
 1567SOL    HW1 5600   5.213   0.967   3.470
 1567SOL    HW2 5601   5.169   1.073   3.353
 1568SOL     OW 5602   2.343   4.413   0.869
 1568SOL    HW1 5603   2.248   4.392   0.847
 1568SOL    HW2 5604   2.346   4.470   0.952
 1569SOL     OW 5605   2.186   1.004   2.177
 1569SOL    HW1 5606   2.153   1.027   2.268
 1569SOL    HW2 5607   2.159   1.076   2.113
 1570SOL     OW 5608   2.497   6.392   5.557
 1570SOL    HW1 5609   2.413   6.338   5.563
 1570SOL    HW2 5610   2.477   6.487   5.581
 1571SOL     OW 5611   2.094   1.772   4.227
 1571SOL    HW1 5612   2.040   1.756   4.145
 1571SOL    HW2 5613   2.156   1.849   4.212
 1572SOL     OW 5614   2.703   5.328   4.435
 1572SOL    HW1 5615   2.654   5.240   4.432
 1572SOL    HW2 5616   2.793   5.315   4.475
 1573SOL     OW 5617   5.693   6.080   6.752
 1573SOL    HW1 5618   5.754   6.134   6.810
 1573SOL    HW2 5619   5.605   6.128   6.743
 1574SOL     OW 5620   0.996   2.678   3.430
 1574SOL    HW1 5621   1.018   2.736   3.352
 1574SOL    HW2 5622   0.991   2.583   3.400
 1575SOL     OW 5623   6.978   2.018   0.968
 1575SOL    HW1 5624   7.010   2.112   0.980
 1575SOL    HW2 5625   6.880   2.018   0.952
 1576SOL     OW 5626   1.393   6.470   2.782
 1576SOL    HW1 5627   1.348   6.425   2.705
 1576SOL    HW2 5628   1.383   6.569   2.773
 1577SOL     OW 5629   4.429   5.836   3.622
 1577SOL    HW1 5630   4.380   5.787   3.693
 1577SOL    HW2 5631   4.481   5.912   3.662
 1578SOL     OW 5632   5.641   1.702   2.246
 1578SOL    HW1 5633   5.575   1.778   2.248
 1578SOL    HW2 5634   5.670   1.687   2.151
 1579SOL     OW 5635   1.915   3.957   2.860
 1579SOL    HW1 5636   1.821   3.960   2.826
 1579SOL    HW2 5637   1.920   4.004   2.948
 1580SOL     OW 5638   3.940   3.374   4.382
 1580SOL    HW1 5639   3.881   3.343   4.457
 1580SOL    HW2 5640   3.884   3.414   4.310
 1581SOL     OW 5641   5.146   4.078   5.214
 1581SOL    HW1 5642   5.095   3.994   5.229
 1581SOL    HW2 5643   5.243   4.063   5.236
 1582SOL     OW 5644   3.944   6.365   4.257
 1582SOL    HW1 5645   3.909   6.454   4.225
 1582SOL    HW2 5646   4.040   6.356   4.232
 1583SOL     OW 5647   0.118   4.672   4.072
 1583SOL    HW1 5648   0.064   4.737   4.020
 1583SOL    HW2 5649   0.122   4.585   4.023
 1584SOL     OW 5650   0.595   4.466   0.707
 1584SOL    HW1 5651   0.599   4.479   0.608
 1584SOL    HW2 5652   0.514   4.412   0.730
 1585SOL     OW 5653   4.170   6.248   4.426
 1585SOL    HW1 5654   4.237   6.208   4.488
 1585SOL    HW2 5655   4.120   6.174   4.380
 1586SOL     OW 5656   3.248   6.280   2.816
 1586SOL    HW1 5657   3.225   6.358   2.875
 1586SOL    HW2 5658   3.343   6.254   2.831
 1587SOL     OW 5659   4.026   0.580   0.531
 1587SOL    HW1 5660   3.945   0.585   0.590
 1587SOL    HW2 5661   4.003   0.617   0.441
 1588SOL     OW 5662   6.167   1.679   3.929
 1588SOL    HW1 5663   6.145   1.582   3.913
 1588SOL    HW2 5664   6.265   1.689   3.944
 1589SOL     OW 5665   0.075   1.360   3.753
 1589SOL    HW1 5666   0.123   1.305   3.685
 1589SOL    HW2 5667   7.019   1.403   3.710
 1590SOL     OW 5668   5.581   6.825   4.031
 1590SOL    HW1 5669   5.669   6.805   4.074
 1590SOL    HW2 5670   5.521   6.869   4.097
 1591SOL     OW 5671   6.490   4.939   0.497
 1591SOL    HW1 5672   6.392   4.943   0.477
 1591SOL    HW2 5673   6.529   4.859   0.452
 1592SOL     OW 5674   6.959   4.406   3.895
 1592SOL    HW1 5675   6.920   4.433   3.807
 1592SOL    HW2 5676   0.034   4.400   3.887
 1593SOL     OW 5677   4.256   4.697   0.829
 1593SOL    HW1 5678   4.269   4.602   0.857
 1593SOL    HW2 5679   4.285   4.757   0.904
 1594SOL     OW 5680   5.384   1.313   2.747
 1594SOL    HW1 5681   5.403   1.278   2.656
 1594SOL    HW2 5682   5.466   1.303   2.804
 1595SOL     OW 5683   6.931   3.852   0.566
 1595SOL    HW1 5684   7.006   3.919   0.573
 1595SOL    HW2 5685   6.921   3.824   0.471
 1596SOL     OW 5686   5.587   4.264   4.754
 1596SOL    HW1 5687   5.544   4.223   4.834
 1596SOL    HW2 5688   5.591   4.197   4.680
 1597SOL     OW 5689   4.233   6.493   0.676
 1597SOL    HW1 5690   4.192   6.537   0.755
 1597SOL    HW2 5691   4.262   6.400   0.701
 1598SOL     OW 5692   0.563   6.390   6.149
 1598SOL    HW1 5693   0.504   6.384   6.068
 1598SOL    HW2 5694   0.538   6.318   6.213
 1599SOL     OW 5695   4.987   5.642   4.027
 1599SOL    HW1 5696   4.998   5.708   3.952
 1599SOL    HW2 5697   4.913   5.578   4.003
 1600SOL     OW 5698   5.696   0.865   1.369
 1600SOL    HW1 5699   5.688   0.857   1.269
 1600SOL    HW2 5700   5.726   0.777   1.407
 1601SOL     OW 5701   6.506   0.833   5.423
 1601SOL    HW1 5702   6.428   0.771   5.415
 1601SOL    HW2 5703   6.589   0.786   5.395
 1602SOL     OW 5704   3.788   5.955   3.225
 1602SOL    HW1 5705   3.852   6.025   3.193
 1602SOL    HW2 5706   3.697   5.994   3.236
 1603SOL     OW 5707   3.063   5.817   1.644
 1603SOL    HW1 5708   3.063   5.913   1.674
 1603SOL    HW2 5709   3.081   5.813   1.546
 1604SOL     OW 5710   4.222   5.006   1.954
 1604SOL    HW1 5711   4.189   4.983   1.863
 1604SOL    HW2 5712   4.307   5.058   1.947
 1605SOL     OW 5713   3.340   4.585   7.023
 1605SOL    HW1 5714   3.293   4.554   6.940
 1605SOL    HW2 5715   3.430   4.540   0.004
 1606SOL     OW 5716   5.212   5.844   5.102
 1606SOL    HW1 5717   5.225   5.850   5.003
 1606SOL    HW2 5718   5.273   5.775   5.140
 1607SOL     OW 5719   4.372   4.689   4.092
 1607SOL    HW1 5720   4.288   4.699   4.040
 1607SOL    HW2 5721   4.442   4.644   4.035
 1608SOL     OW 5722   5.969   3.245   3.077
 1608SOL    HW1 5723   5.995   3.249   3.173
 1608SOL    HW2 5724   6.017   3.317   3.026
 1609SOL     OW 5725   1.130   0.159   0.866
 1609SOL    HW1 5726   1.192   0.233   0.842
 1609SOL    HW2 5727   1.182   0.079   0.895
 1610SOL     OW 5728   4.923   4.923   0.942
 1610SOL    HW1 5729   4.863   4.989   0.987
 1610SOL    HW2 5730   4.926   4.838   0.994
 1611SOL     OW 5731   0.773   4.453   0.276
 1611SOL    HW1 5732   0.738   4.544   0.252
 1611SOL    HW2 5733   0.859   4.463   0.325
 1612SOL     OW 5734   4.907   0.066   2.028
 1612SOL    HW1 5735   4.944   0.159   2.028
 1612SOL    HW2 5736   4.942   0.016   1.949
 1613SOL     OW 5737   6.477   6.129   2.860
 1613SOL    HW1 5738   6.396   6.091   2.815
 1613SOL    HW2 5739   6.547   6.147   2.790
 1614SOL     OW 5740   6.191   1.227   5.872
 1614SOL    HW1 5741   6.225   1.139   5.841
 1614SOL    HW2 5742   6.091   1.226   5.871
 1615SOL     OW 5743   6.160   3.064   5.875
 1615SOL    HW1 5744   6.177   3.032   5.968
 1615SOL    HW2 5745   6.226   3.135   5.851
 1616SOL     OW 5746   2.258   0.803   3.444
 1616SOL    HW1 5747   2.336   0.864   3.435
 1616SOL    HW2 5748   2.191   0.825   3.373
 1617SOL     OW 5749   0.187   6.619   4.302
 1617SOL    HW1 5750   0.256   6.577   4.361
 1617SOL    HW2 5751   0.147   6.549   4.243
 1618SOL     OW 5752   3.388   5.147   2.655
 1618SOL    HW1 5753   3.343   5.173   2.740
 1618SOL    HW2 5754   3.454   5.219   2.630
 1619SOL     OW 5755   1.337   3.885   6.146
 1619SOL    HW1 5756   1.278   3.894   6.226
 1619SOL    HW2 5757   1.323   3.795   6.104
 1620SOL     OW 5758   3.292   0.115   5.017
 1620SOL    HW1 5759   3.251   0.057   4.946
 1620SOL    HW2 5760   3.254   0.207   5.011
 1621SOL     OW 5761   4.624   5.031   0.787
 1621SOL    HW1 5762   4.557   5.098   0.753
 1621SOL    HW2 5763   4.623   4.950   0.728
 1622SOL     OW 5764   6.552   3.168   4.275
 1622SOL    HW1 5765   6.510   3.147   4.364
 1622SOL    HW2 5766   6.649   3.145   4.277
 1623SOL     OW 5767   0.708   2.339   4.419
 1623SOL    HW1 5768   0.748   2.322   4.329
 1623SOL    HW2 5769   0.663   2.428   4.419
 1624SOL     OW 5770   4.334   3.070   6.816
 1624SOL    HW1 5771   4.329   3.160   6.771
 1624SOL    HW2 5772   4.420   3.063   6.867
 1625SOL     OW 5773   0.525   6.369   0.547
 1625SOL    HW1 5774   0.613   6.345   0.588
 1625SOL    HW2 5775   0.516   6.469   0.544
 1626SOL     OW 5776   2.885   1.413   1.660
 1626SOL    HW1 5777   2.968   1.374   1.702
 1626SOL    HW2 5778   2.875   1.508   1.690
 1627SOL     OW 5779   4.241   1.198   6.134
 1627SOL    HW1 5780   4.308   1.163   6.200
 1627SOL    HW2 5781   4.279   1.190   6.042
 1628SOL     OW 5782   5.662   5.888   1.150
 1628SOL    HW1 5783   5.643   5.807   1.206
 1628SOL    HW2 5784   5.692   5.963   1.208
 1629SOL     OW 5785   1.339   6.137   2.051
 1629SOL    HW1 5786   1.395   6.057   2.031
 1629SOL    HW2 5787   1.397   6.219   2.052
 1630SOL     OW 5788   0.259   4.992   5.971
 1630SOL    HW1 5789   0.197   4.954   6.039
 1630SOL    HW2 5790   0.310   4.918   5.926
 1631SOL     OW 5791   4.788   4.413   6.340
 1631SOL    HW1 5792   4.730   4.379   6.413
 1631SOL    HW2 5793   4.814   4.338   6.279
 1632SOL     OW 5794   5.907   4.887   1.978
 1632SOL    HW1 5795   6.006   4.902   1.974
 1632SOL    HW2 5796   5.886   4.798   1.936
 1633SOL     OW 5797   6.374   4.341   5.555
 1633SOL    HW1 5798   6.321   4.309   5.633
 1633SOL    HW2 5799   6.446   4.404   5.586
 1634SOL     OW 5800   1.289   4.235   5.921
 1634SOL    HW1 5801   1.354   4.181   5.973
 1634SOL    HW2 5802   1.319   4.330   5.917
 1635SOL     OW 5803   3.159   1.177   3.895
 1635SOL    HW1 5804   3.219   1.138   3.824
 1635SOL    HW2 5805   3.189   1.270   3.916
 1636SOL     OW 5806   0.100   6.015   2.134
 1636SOL    HW1 5807   0.131   6.064   2.053
 1636SOL    HW2 5808   0.137   6.059   2.216
 1637SOL     OW 5809   1.570   1.157   1.566
 1637SOL    HW1 5810   1.639   1.135   1.497
 1637SOL    HW2 5811   1.479   1.155   1.525
 1638SOL     OW 5812   5.389   1.331   3.072
 1638SOL    HW1 5813   5.462   1.398   3.082
 1638SOL    HW2 5814   5.329   1.357   2.997
 1639SOL     OW 5815   5.091   2.121   0.977
 1639SOL    HW1 5816   5.049   2.071   0.902
 1639SOL    HW2 5817   5.091   2.219   0.956
 1640SOL     OW 5818   0.050   1.406   6.489
 1640SOL    HW1 5819   0.001   1.344   6.427
 1640SOL    HW2 5820   0.104   1.471   6.435
 1641SOL     OW 5821   5.899   0.801   2.816
 1641SOL    HW1 5822   5.915   0.828   2.911
 1641SOL    HW2 5823   5.822   0.853   2.779
 1642SOL     OW 5824   0.310   3.630   6.569
 1642SOL    HW1 5825   0.268   3.646   6.658
 1642SOL    HW2 5826   0.330   3.533   6.558
 1643SOL     OW 5827   2.380   5.337   4.239
 1643SOL    HW1 5828   2.409   5.272   4.169
 1643SOL    HW2 5829   2.454   5.403   4.256
 1644SOL     OW 5830   5.613   1.903   1.990
 1644SOL    HW1 5831   5.694   1.932   2.040
 1644SOL    HW2 5832   5.531   1.923   2.044
 1645SOL     OW 5833   2.205   1.155   3.959
 1645SOL    HW1 5834   2.274   1.213   3.916
 1645SOL    HW2 5835   2.164   1.204   4.036
 1646SOL     OW 5836   6.966   5.301   1.669
 1646SOL    HW1 5837   0.035   5.286   1.635
 1646SOL    HW2 5838   6.915   5.353   1.601
 1647SOL     OW 5839   6.595   4.122   5.226
 1647SOL    HW1 5840   6.502   4.159   5.234
 1647SOL    HW2 5841   6.658   4.180   5.279
 1648SOL     OW 5842   6.009   5.921   1.864
 1648SOL    HW1 5843   6.022   6.016   1.836
 1648SOL    HW2 5844   5.912   5.897   1.854
 1649SOL     OW 5845   3.650   1.107   3.707
 1649SOL    HW1 5846   3.702   1.097   3.622
 1649SOL    HW2 5847   3.712   1.136   3.780
 1650SOL     OW 5848   2.408   3.085   5.716
 1650SOL    HW1 5849   2.395   3.136   5.631
 1650SOL    HW2 5850   2.481   3.128   5.770
 1651SOL     OW 5851   2.147   2.106   4.719
 1651SOL    HW1 5852   2.068   2.166   4.708
 1651SOL    HW2 5853   2.231   2.158   4.704
 1652SOL     OW 5854   6.825   4.423   1.737
 1652SOL    HW1 5855   6.864   4.340   1.775
 1652SOL    HW2 5856   6.882   4.502   1.761
 1653SOL     OW 5857   5.250   3.872   1.731
 1653SOL    HW1 5858   5.321   3.897   1.665
 1653SOL    HW2 5859   5.284   3.889   1.824
 1654SOL     OW 5860   0.172   2.596   1.577
 1654SOL    HW1 5861   0.255   2.546   1.553
 1654SOL    HW2 5862   0.153   2.665   1.508
 1655SOL     OW 5863   6.555   0.740   6.001
 1655SOL    HW1 5864   6.628   0.780   6.056
 1655SOL    HW2 5865   6.484   0.703   6.061
 1656SOL     OW 5866   1.978   5.038   2.790
 1656SOL    HW1 5867   1.943   5.039   2.696
 1656SOL    HW2 5868   2.074   5.068   2.790
 1657SOL     OW 5869   0.701   1.869   6.040
 1657SOL    HW1 5870   0.696   1.889   6.138
 1657SOL    HW2 5871   0.642   1.933   5.990
 1658SOL     OW 5872   4.601   0.068   5.513
 1658SOL    HW1 5873   4.664   0.017   5.453
 1658SOL    HW2 5874   4.540   0.004   5.559
 1659SOL     OW 5875   2.177   1.288   6.650
 1659SOL    HW1 5876   2.204   1.209   6.705
 1659SOL    HW2 5877   2.231   1.289   6.565
 1660SOL     OW 5878   2.444   0.877   1.424
 1660SOL    HW1 5879   2.385   0.848   1.499
 1660SOL    HW2 5880   2.433   0.813   1.347
 1661SOL     OW 5881   4.371   5.181   3.051
 1661SOL    HW1 5882   4.322   5.232   2.981
 1661SOL    HW2 5883   4.457   5.227   3.073
 1662SOL     OW 5884   1.016   2.161   4.373
 1662SOL    HW1 5885   1.109   2.129   4.393
 1662SOL    HW2 5886   0.990   2.230   4.440
 1663SOL     OW 5887   6.376   4.041   1.373
 1663SOL    HW1 5888   6.335   3.963   1.326
 1663SOL    HW2 5889   6.354   4.036   1.470
 1664SOL     OW 5890   0.963   1.032   6.723
 1664SOL    HW1 5891   0.933   0.991   6.809
 1664SOL    HW2 5892   0.981   0.959   6.657
 1665SOL     OW 5893   1.595   3.192   0.971
 1665SOL    HW1 5894   1.568   3.224   1.062
 1665SOL    HW2 5895   1.528   3.223   0.903
 1666SOL     OW 5896   5.939   6.117   5.052
 1666SOL    HW1 5897   5.983   6.178   5.118
 1666SOL    HW2 5898   5.841   6.112   5.072
 1667SOL     OW 5899   5.861   5.562   1.330
 1667SOL    HW1 5900   5.909   5.606   1.406
 1667SOL    HW2 5901   5.910   5.582   1.245
 1668SOL     OW 5902   6.937   2.848   2.468
 1668SOL    HW1 5903   6.842   2.872   2.451
 1668SOL    HW2 5904   6.952   2.842   2.567
 1669SOL     OW 5905   6.587   2.503   5.554
 1669SOL    HW1 5906   6.600   2.598   5.525
 1669SOL    HW2 5907   6.506   2.498   5.612
 1670SOL     OW 5908   3.074   4.521   5.418
 1670SOL    HW1 5909   3.019   4.499   5.498
 1670SOL    HW2 5910   3.024   4.495   5.335
 1671SOL     OW 5911   6.038   2.640   0.188
 1671SOL    HW1 5912   6.135   2.660   0.171
 1671SOL    HW2 5913   5.989   2.642   0.101
 1672SOL     OW 5914   1.212   2.080   2.110
 1672SOL    HW1 5915   1.271   2.022   2.166
 1672SOL    HW2 5916   1.242   2.074   2.014
 1673SOL     OW 5917   0.854   0.554   6.061
 1673SOL    HW1 5918   0.944   0.560   6.104
 1673SOL    HW2 5919   0.862   0.504   5.975
 1674SOL     OW 5920   4.996   2.613   3.152
 1674SOL    HW1 5921   4.970   2.704   3.120
 1674SOL    HW2 5922   4.926   2.546   3.125
 1675SOL     OW 5923   5.197   1.011   2.024
 1675SOL    HW1 5924   5.105   1.001   1.986
 1675SOL    HW2 5925   5.230   1.103   2.007
 1676SOL     OW 5926   2.554   1.769   3.768
 1676SOL    HW1 5927   2.469   1.773   3.821
 1676SOL    HW2 5928   2.541   1.813   3.679
 1677SOL     OW 5929   2.902   3.168   1.762
 1677SOL    HW1 5930   2.994   3.198   1.736
 1677SOL    HW2 5931   2.850   3.247   1.795
 1678SOL     OW 5932   6.633   0.198   1.341
 1678SOL    HW1 5933   6.552   0.185   1.398
 1678SOL    HW2 5934   6.711   0.220   1.400
 1679SOL     OW 5935   6.849   2.168   6.733
 1679SOL    HW1 5936   6.818   2.181   6.827
 1679SOL    HW2 5937   6.924   2.102   6.731
 1680SOL     OW 5938   5.513   1.428   4.023
 1680SOL    HW1 5939   5.603   1.426   3.978
 1680SOL    HW2 5940   5.526   1.434   4.122
 1681SOL     OW 5941   4.603   6.762   4.311
 1681SOL    HW1 5942   4.536   6.837   4.307
 1681SOL    HW2 5943   4.631   6.747   4.406
 1682SOL     OW 5944   4.576   1.890   5.300
 1682SOL    HW1 5945   4.584   1.985   5.268
 1682SOL    HW2 5946   4.666   1.846   5.294
 1683SOL     OW 5947   0.909   4.665   3.796
 1683SOL    HW1 5948   0.932   4.604   3.871
 1683SOL    HW2 5949   0.855   4.742   3.831
 1684SOL     OW 5950   3.399   5.789   1.448
 1684SOL    HW1 5951   3.400   5.690   1.465
 1684SOL    HW2 5952   3.450   5.835   1.521
 1685SOL     OW 5953   6.873   1.978   6.292
 1685SOL    HW1 5954   6.816   1.924   6.230
 1685SOL    HW2 5955   6.815   2.024   6.359
 1686SOL     OW 5956   2.674   5.999   1.034
 1686SOL    HW1 5957   2.688   6.069   1.105
 1686SOL    HW2 5958   2.635   5.917   1.076
 1687SOL     OW 5959   4.585   4.384   6.591
 1687SOL    HW1 5960   4.602   4.288   6.614
 1687SOL    HW2 5961   4.524   4.388   6.511
 1688SOL     OW 5962   2.429   0.405   2.221
 1688SOL    HW1 5963   2.352   0.347   2.197
 1688SOL    HW2 5964   2.447   0.469   2.146
 1689SOL     OW 5965   4.479   1.123   2.146
 1689SOL    HW1 5966   4.496   1.125   2.047
 1689SOL    HW2 5967   4.492   1.030   2.180
 1690SOL     OW 5968   0.536   4.486   4.105
 1690SOL    HW1 5969   0.584   4.555   4.159
 1690SOL    HW2 5970   0.437   4.503   4.110
 1691SOL     OW 5971   4.795   2.911   5.484
 1691SOL    HW1 5972   4.768   2.973   5.411
 1691SOL    HW2 5973   4.714   2.873   5.529
 1692SOL     OW 5974   5.874   5.265   2.790
 1692SOL    HW1 5975   5.857   5.170   2.763
 1692SOL    HW2 5976   5.956   5.298   2.745
 1693SOL     OW 5977   5.646   0.009   5.882
 1693SOL    HW1 5978   5.705   6.970   5.832
 1693SOL    HW2 5979   5.620   0.085   5.822
 1694SOL     OW 5980   4.381   1.543   6.272
 1694SOL    HW1 5981   4.330   1.572   6.191
 1694SOL    HW2 5982   4.317   1.519   6.345
 1695SOL     OW 5983   6.079   0.981   5.618
 1695SOL    HW1 5984   6.010   0.988   5.690
 1695SOL    HW2 5985   6.166   0.950   5.658
 1696SOL     OW 5986   5.265   6.657   1.075
 1696SOL    HW1 5987   5.203   6.710   1.018
 1696SOL    HW2 5988   5.303   6.715   1.147
 1697SOL     OW 5989   4.122   3.768   1.827
 1697SOL    HW1 5990   4.025   3.792   1.822
 1697SOL    HW2 5991   4.135   3.697   1.895
 1698SOL     OW 5992   4.526   2.324   1.263
 1698SOL    HW1 5993   4.442   2.379   1.260
 1698SOL    HW2 5994   4.558   2.319   1.357
 1699SOL     OW 5995   1.487   0.555   0.828
 1699SOL    HW1 5996   1.570   0.607   0.850
 1699SOL    HW2 5997   1.410   0.593   0.879
 1700SOL     OW 5998   6.041   3.221   3.362
 1700SOL    HW1 5999   6.062   3.207   3.459
 1700SOL    HW2 6000   5.954   3.177   3.340
 1701SOL     OW 6001   1.497   5.986   5.094
 1701SOL    HW1 6002   1.511   5.983   5.193
 1701SOL    HW2 6003   1.399   5.994   5.074
 1702SOL     OW 6004   1.991   2.235   6.870
 1702SOL    HW1 6005   1.963   2.316   6.819
 1702SOL    HW2 6006   2.088   2.244   6.896
 1703SOL     OW 6007   2.690   1.392   1.869
 1703SOL    HW1 6008   2.754   1.400   1.793
 1703SOL    HW2 6009   2.640   1.306   1.861
 1704SOL     OW 6010   2.791   2.323   6.581
 1704SOL    HW1 6011   2.720   2.288   6.641
 1704SOL    HW2 6012   2.861   2.253   6.568
 1705SOL     OW 6013   5.815   3.078   0.968
 1705SOL    HW1 6014   5.912   3.053   0.957
 1705SOL    HW2 6015   5.774   3.019   1.038
 1706SOL     OW 6016   6.111   0.301   5.638
 1706SOL    HW1 6017   6.205   0.285   5.669
 1706SOL    HW2 6018   6.060   0.215   5.640
 1707SOL     OW 6019   2.899   1.717   2.714
 1707SOL    HW1 6020   2.847   1.783   2.661
 1707SOL    HW2 6021   2.900   1.745   2.810
 1708SOL     OW 6022   2.425   4.247   1.403
 1708SOL    HW1 6023   2.345   4.208   1.358
 1708SOL    HW2 6024   2.401   4.333   1.446
 1709SOL     OW 6025   6.060   5.341   2.642
 1709SOL    HW1 6026   6.082   5.244   2.631
 1709SOL    HW2 6027   6.136   5.388   2.688
 1710SOL     OW 6028   4.829   2.883   2.108
 1710SOL    HW1 6029   4.858   2.904   2.201
 1710SOL    HW2 6030   4.804   2.967   2.060
 1711SOL     OW 6031   3.774   5.215   0.273
 1711SOL    HW1 6032   3.873   5.213   0.266
 1711SOL    HW2 6033   3.746   5.187   0.364
 1712SOL     OW 6034   0.179   2.659   2.045
 1712SOL    HW1 6035   0.234   2.619   1.972
 1712SOL    HW2 6036   0.101   2.599   2.064
 1713SOL     OW 6037   2.644   1.565   2.501
 1713SOL    HW1 6038   2.698   1.487   2.470
 1713SOL    HW2 6039   2.667   1.587   2.596
 1714SOL     OW 6040   3.199   4.781   1.100
 1714SOL    HW1 6041   3.129   4.778   1.171
 1714SOL    HW2 6042   3.268   4.710   1.118
 1715SOL     OW 6043   1.441   5.930   1.319
 1715SOL    HW1 6044   1.450   5.857   1.251
 1715SOL    HW2 6045   1.418   5.890   1.408
 1716SOL     OW 6046   5.025   1.937   2.153
 1716SOL    HW1 6047   4.939   1.889   2.169
 1716SOL    HW2 6048   5.006   2.031   2.124
 1717SOL     OW 6049   4.041   6.991   4.084
 1717SOL    HW1 6050   4.096   0.027   4.026
 1717SOL    HW2 6051   4.070   6.897   4.072
 1718SOL     OW 6052   1.507   3.909   2.191
 1718SOL    HW1 6053   1.537   4.003   2.211
 1718SOL    HW2 6054   1.479   3.864   2.275
 1719SOL     OW 6055   1.064   4.870   3.013
 1719SOL    HW1 6056   1.105   4.797   3.069
 1719SOL    HW2 6057   1.083   4.959   3.055
 1720SOL     OW 6058   1.738   3.082   5.398
 1720SOL    HW1 6059   1.655   3.137   5.389
 1720SOL    HW2 6060   1.770   3.055   5.308
 1721SOL     OW 6061   1.942   2.272   0.200
 1721SOL    HW1 6062   1.996   2.345   0.158
 1721SOL    HW2 6063   1.870   2.312   0.256
 1722SOL     OW 6064   3.593   2.027   3.263
 1722SOL    HW1 6065   3.636   2.022   3.173
 1722SOL    HW2 6066   3.519   2.095   3.261
 1723SOL     OW 6067   6.529   5.584   2.032
 1723SOL    HW1 6068   6.625   5.612   2.041
 1723SOL    HW2 6069   6.470   5.664   2.035
 1724SOL     OW 6070   5.564   3.750   1.483
 1724SOL    HW1 6071   5.564   3.676   1.550
 1724SOL    HW2 6072   5.648   3.802   1.491
 1725SOL     OW 6073   2.151   6.761   4.668
 1725SOL    HW1 6074   2.198   6.676   4.645
 1725SOL    HW2 6075   2.148   6.772   4.767
 1726SOL     OW 6076   5.715   5.057   2.669
 1726SOL    HW1 6077   5.630   5.079   2.621
 1726SOL    HW2 6078   5.774   5.003   2.609
 1727SOL     OW 6079   3.095   3.692   4.004
 1727SOL    HW1 6080   3.171   3.686   4.068
 1727SOL    HW2 6081   3.009   3.675   4.052
 1728SOL     OW 6082   5.657   2.235   4.248
 1728SOL    HW1 6083   5.637   2.166   4.179
 1728SOL    HW2 6084   5.737   2.288   4.220
 1729SOL     OW 6085   1.783   2.990   2.725
 1729SOL    HW1 6086   1.826   2.995   2.816
 1729SOL    HW2 6087   1.735   2.903   2.717
 1730SOL     OW 6088   3.312   0.656   4.201
 1730SOL    HW1 6089   3.368   0.683   4.123
 1730SOL    HW2 6090   3.361   0.676   4.286
 1731SOL     OW 6091   6.787   4.794   2.482
 1731SOL    HW1 6092   6.798   4.769   2.386
 1731SOL    HW2 6093   6.737   4.881   2.488
 1732SOL     OW 6094   3.604   2.989   5.162
 1732SOL    HW1 6095   3.616   2.927   5.239
 1732SOL    HW2 6096   3.543   2.947   5.094
 1733SOL     OW 6097   1.559   1.950   0.015
 1733SOL    HW1 6098   1.650   1.970   7.003
 1733SOL    HW2 6099   1.509   2.036   0.029
 1734SOL     OW 6100   0.758   4.847   2.657
 1734SOL    HW1 6101   0.692   4.775   2.676
 1734SOL    HW2 6102   0.805   4.828   2.571
 1735SOL     OW 6103   3.701   5.752   5.528
 1735SOL    HW1 6104   3.715   5.780   5.433
 1735SOL    HW2 6105   3.617   5.794   5.563
 1736SOL     OW 6106   4.496   2.026   4.720
 1736SOL    HW1 6107   4.490   1.939   4.769
 1736SOL    HW2 6108   4.480   2.101   4.783
 1737SOL     OW 6109   1.416   0.028   6.902
 1737SOL    HW1 6110   1.348   0.097   6.880
 1737SOL    HW2 6111   1.403   7.021   6.996
 1738SOL     OW 6112   1.414   3.361   2.115
 1738SOL    HW1 6113   1.329   3.403   2.084
 1738SOL    HW2 6114   1.462   3.320   2.037
 1739SOL     OW 6115   4.594   6.323   2.473
 1739SOL    HW1 6116   4.675   6.381   2.484
 1739SOL    HW2 6117   4.515   6.380   2.449
 1740SOL     OW 6118   0.748   1.878   4.590
 1740SOL    HW1 6119   0.793   1.940   4.654
 1740SOL    HW2 6120   0.667   1.838   4.633
 1741SOL     OW 6121   1.445   1.724   4.530
 1741SOL    HW1 6122   1.389   1.677   4.462
 1741SOL    HW2 6123   1.535   1.680   4.535
 1742SOL     OW 6124   6.265   0.129   6.361
 1742SOL    HW1 6125   6.322   0.140   6.279
 1742SOL    HW2 6126   6.170   0.118   6.334
 1743SOL     OW 6127   0.921   2.196   2.822
 1743SOL    HW1 6128   0.902   2.187   2.920
 1743SOL    HW2 6129   1.020   2.200   2.808
 1744SOL     OW 6130   3.058   1.654   5.426
 1744SOL    HW1 6131   2.967   1.619   5.402
 1744SOL    HW2 6132   3.068   1.654   5.526
 1745SOL     OW 6133   5.391   6.744   1.343
 1745SOL    HW1 6134   5.475   6.797   1.332
 1745SOL    HW2 6135   5.410   6.662   1.397
 1746SOL     OW 6136   2.735   5.005   1.952
 1746SOL    HW1 6137   2.805   5.027   1.884
 1746SOL    HW2 6138   2.774   4.946   2.023
 1747SOL     OW 6139   2.269   6.412   2.316
 1747SOL    HW1 6140   2.335   6.472   2.361
 1747SOL    HW2 6141   2.230   6.458   2.237
 1748SOL     OW 6142   6.562   1.275   4.014
 1748SOL    HW1 6143   6.591   1.229   3.930
 1748SOL    HW2 6144   6.509   1.356   3.991
 1749SOL     OW 6145   6.622   5.159   2.112
 1749SOL    HW1 6146   6.555   5.211   2.058
 1749SOL    HW2 6147   6.584   5.068   2.133
 1750SOL     OW 6148   2.867   1.973   0.539
 1750SOL    HW1 6149   2.783   2.024   0.559
 1750SOL    HW2 6150   2.847   1.875   0.541
 1751SOL     OW 6151   6.304   4.135   4.096
 1751SOL    HW1 6152   6.272   4.200   4.028
 1751SOL    HW2 6153   6.304   4.178   4.186
 1752SOL     OW 6154   6.019   0.064   2.857
 1752SOL    HW1 6155   6.057   0.003   2.927
 1752SOL    HW2 6156   6.071   0.149   2.854
 1753SOL     OW 6157   0.196   1.487   0.568
 1753SOL    HW1 6158   0.123   1.531   0.620
 1753SOL    HW2 6159   0.245   1.423   0.627
 1754SOL     OW 6160   2.185   4.645   3.777
 1754SOL    HW1 6161   2.199   4.700   3.859
 1754SOL    HW2 6162   2.249   4.674   3.706
 1755SOL     OW 6163   5.069   6.976   5.509
 1755SOL    HW1 6164   5.156   7.020   5.487
 1755SOL    HW2 6165   5.037   7.007   5.599
 1756SOL     OW 6166   4.415   5.190   0.716
 1756SOL    HW1 6167   4.465   5.271   0.687
 1756SOL    HW2 6168   4.342   5.169   0.651
 1757SOL     OW 6169   2.723   5.288   5.163
 1757SOL    HW1 6170   2.778   5.299   5.080
 1757SOL    HW2 6171   2.735   5.195   5.199
 1758SOL     OW 6172   0.098   6.465   4.064
 1758SOL    HW1 6173   0.029   6.435   4.130
 1758SOL    HW2 6174   0.053   6.495   3.980
 1759SOL     OW 6175   1.682   5.714   5.950
 1759SOL    HW1 6176   1.757   5.774   5.978
 1759SOL    HW2 6177   1.598   5.742   5.996
 1760SOL     OW 6178   5.739   1.273   4.520
 1760SOL    HW1 6179   5.687   1.237   4.443
 1760SOL    HW2 6180   5.820   1.320   4.487
 1761SOL     OW 6181   4.581   2.508   4.552
 1761SOL    HW1 6182   4.542   2.417   4.564
 1761SOL    HW2 6183   4.566   2.561   4.636
 1762SOL     OW 6184   0.792   1.302   5.339
 1762SOL    HW1 6185   0.891   1.316   5.345
 1762SOL    HW2 6186   0.746   1.390   5.331
 1763SOL     OW 6187   1.350   5.178   4.346
 1763SOL    HW1 6188   1.356   5.187   4.247
 1763SOL    HW2 6189   1.434   5.211   4.388
 1764SOL     OW 6190   6.746   5.019   2.788
 1764SOL    HW1 6191   6.764   5.081   2.712
 1764SOL    HW2 6192   6.673   4.955   2.761
 1765SOL     OW 6193   5.275   3.943   2.644
 1765SOL    HW1 6194   5.243   4.027   2.688
 1765SOL    HW2 6195   5.196   3.888   2.615
 1766SOL     OW 6196   3.927   5.008   3.887
 1766SOL    HW1 6197   3.828   5.018   3.902
 1766SOL    HW2 6198   3.944   4.991   3.790
 1767SOL     OW 6199   2.720   4.478   1.638
 1767SOL    HW1 6200   2.729   4.390   1.590
 1767SOL    HW2 6201   2.795   4.488   1.703
 1768SOL     OW 6202   3.652   5.648   2.240
 1768SOL    HW1 6203   3.746   5.623   2.217
 1768SOL    HW2 6204   3.615   5.582   2.306
 1769SOL     OW 6205   5.336   0.139   0.468
 1769SOL    HW1 6206   5.391   0.098   0.540
 1769SOL    HW2 6207   5.304   0.229   0.497
 1770SOL     OW 6208   2.073   3.439   6.898
 1770SOL    HW1 6209   1.990   3.406   6.854
 1770SOL    HW2 6210   2.061   3.438   6.998
 1771SOL     OW 6211   1.649   3.312   6.423
 1771SOL    HW1 6212   1.619   3.217   6.435
 1771SOL    HW2 6213   1.651   3.335   6.326
 1772SOL     OW 6214   2.704   4.963   1.506
 1772SOL    HW1 6215   2.781   4.978   1.443
 1772SOL    HW2 6216   2.720   4.880   1.559
 1773SOL     OW 6217   1.887   5.673   4.520
 1773SOL    HW1 6218   1.893   5.631   4.429
 1773SOL    HW2 6219   1.965   5.643   4.575
 1774SOL     OW 6220   5.812   4.439   1.561
 1774SOL    HW1 6221   5.903   4.453   1.521
 1774SOL    HW2 6222   5.777   4.526   1.596
 1775SOL     OW 6223   2.198   6.310   0.458
 1775SOL    HW1 6224   2.135   6.276   0.528
 1775SOL    HW2 6225   2.220   6.237   0.394
 1776SOL     OW 6226   4.535   3.249   5.921
 1776SOL    HW1 6227   4.474   3.293   5.855
 1776SOL    HW2 6228   4.609   3.203   5.872
 1777SOL     OW 6229   4.505   4.988   6.010
 1777SOL    HW1 6230   4.517   5.025   6.102
 1777SOL    HW2 6231   4.485   4.890   6.016
 1778SOL     OW 6232   0.005   0.343   2.617
 1778SOL    HW1 6233   0.008   0.414   2.547
 1778SOL    HW2 6234   6.956   0.278   2.596
 1779SOL     OW 6235   6.896   6.170   5.172
 1779SOL    HW1 6236   6.932   6.165   5.078
 1779SOL    HW2 6237   6.967   6.142   5.236
 1780SOL     OW 6238   2.687   6.901   5.033
 1780SOL    HW1 6239   2.709   6.995   5.056
 1780SOL    HW2 6240   2.587   6.889   5.032
 1781SOL     OW 6241   3.813   0.977   5.603
 1781SOL    HW1 6242   3.745   0.933   5.544
 1781SOL    HW2 6243   3.805   0.940   5.695
 1782SOL     OW 6244   6.064   0.313   2.215
 1782SOL    HW1 6245   6.057   0.316   2.115
 1782SOL    HW2 6246   6.158   0.336   2.242
 1783SOL     OW 6247   1.322   3.242   6.745
 1783SOL    HW1 6248   1.261   3.181   6.693
 1783SOL    HW2 6249   1.281   3.262   6.834
 1784SOL     OW 6250   1.198   6.097   1.260
 1784SOL    HW1 6251   1.294   6.068   1.255
 1784SOL    HW2 6252   1.177   6.124   1.354
 1785SOL     OW 6253   2.479   5.513   4.766
 1785SOL    HW1 6254   2.567   5.492   4.809
 1785SOL    HW2 6255   2.412   5.444   4.793
 1786SOL     OW 6256   0.578   5.120   2.408
 1786SOL    HW1 6257   0.653   5.170   2.365
 1786SOL    HW2 6258   0.493   5.140   2.360
 1787SOL     OW 6259   2.923   1.188   6.206
 1787SOL    HW1 6260   2.850   1.255   6.215
 1787SOL    HW2 6261   2.937   1.142   6.294
 1788SOL     OW 6262   3.638   4.131   0.397
 1788SOL    HW1 6263   3.637   4.033   0.375
 1788SOL    HW2 6264   3.546   4.161   0.418
 1789SOL     OW 6265   5.916   3.097   4.052
 1789SOL    HW1 6266   5.851   3.161   4.010
 1789SOL    HW2 6267   5.868   3.013   4.078
 1790SOL     OW 6268   2.556   2.407   4.635
 1790SOL    HW1 6269   2.622   2.334   4.622
 1790SOL    HW2 6270   2.562   2.472   4.559
 1791SOL     OW 6271   6.502   0.348   3.005
 1791SOL    HW1 6272   6.489   0.256   3.041
 1791SOL    HW2 6273   6.521   0.344   2.907
 1792SOL     OW 6274   0.095   3.496   5.904
 1792SOL    HW1 6275   0.121   3.517   5.998
 1792SOL    HW2 6276   0.055   3.577   5.861
 1793SOL     OW 6277   1.231   2.927   4.967
 1793SOL    HW1 6278   1.146   2.887   5.002
 1793SOL    HW2 6279   1.244   3.017   5.007
 1794SOL     OW 6280   0.244   2.247   6.620
 1794SOL    HW1 6281   0.275   2.163   6.664
 1794SOL    HW2 6282   0.196   2.303   6.687
 1795SOL     OW 6283   5.609   3.584   0.849
 1795SOL    HW1 6284   5.607   3.555   0.753
 1795SOL    HW2 6285   5.697   3.625   0.870
 1796SOL     OW 6286   6.199   6.463   6.251
 1796SOL    HW1 6287   6.133   6.389   6.238
 1796SOL    HW2 6288   6.291   6.428   6.233
 1797SOL     OW 6289   3.265   6.598   5.351
 1797SOL    HW1 6290   3.311   6.518   5.390
 1797SOL    HW2 6291   3.181   6.569   5.305
 1798SOL     OW 6292   2.408   5.128   6.476
 1798SOL    HW1 6293   2.431   5.112   6.380
 1798SOL    HW2 6294   2.454   5.060   6.533
 1799SOL     OW 6295   3.356   1.689   1.635
 1799SOL    HW1 6296   3.391   1.659   1.724
 1799SOL    HW2 6297   3.352   1.789   1.633
 1800SOL     OW 6298   5.536   2.326   5.626
 1800SOL    HW1 6299   5.476   2.253   5.594
 1800SOL    HW2 6300   5.533   2.402   5.561
 1801SOL     OW 6301   1.180   2.149   2.751
 1801SOL    HW1 6302   1.207   2.066   2.702
 1801SOL    HW2 6303   1.199   2.228   2.694
 1802SOL     OW 6304   5.993   4.467   4.784
 1802SOL    HW1 6305   6.030   4.511   4.865
 1802SOL    HW2 6306   5.935   4.532   4.734
 1803SOL     OW 6307   5.804   6.150   3.853
 1803SOL    HW1 6308   5.750   6.184   3.776
 1803SOL    HW2 6309   5.783   6.054   3.869
 1804SOL     OW 6310   1.469   2.836   5.962
 1804SOL    HW1 6311   1.534   2.864   5.891
 1804SOL    HW2 6312   1.446   2.740   5.951
 1805SOL     OW 6313   6.974   4.959   6.375
 1805SOL    HW1 6314   6.908   4.890   6.405
 1805SOL    HW2 6315   0.016   4.976   6.449
 1806SOL     OW 6316   7.017   1.300   2.601
 1806SOL    HW1 6317   0.091   1.283   2.607
 1806SOL    HW2 6318   6.979   1.314   2.692
 1807SOL     OW 6319   6.698   2.760   2.687
 1807SOL    HW1 6320   6.759   2.831   2.722
 1807SOL    HW2 6321   6.659   2.791   2.600
 1808SOL     OW 6322   5.413   1.392   6.853
 1808SOL    HW1 6323   5.495   1.436   6.818
 1808SOL    HW2 6324   5.367   1.452   6.918
 1809SOL     OW 6325   4.434   1.162   5.311
 1809SOL    HW1 6326   4.433   1.139   5.214
 1809SOL    HW2 6327   4.449   1.260   5.323
 1810SOL     OW 6328   1.135   1.026   3.534
 1810SOL    HW1 6329   1.173   1.086   3.605
 1810SOL    HW2 6330   1.071   1.078   3.477
 1811SOL     OW 6331   2.862   5.228   1.648
 1811SOL    HW1 6332   2.891   5.132   1.656
 1811SOL    HW2 6333   2.896   5.266   1.562
 1812SOL     OW 6334   3.710   0.747   6.477
 1812SOL    HW1 6335   3.642   0.732   6.549
 1812SOL    HW2 6336   3.780   0.676   6.481
 1813SOL     OW 6337   5.391   3.271   1.771
 1813SOL    HW1 6338   5.448   3.347   1.740
 1813SOL    HW2 6339   5.356   3.291   1.863
 1814SOL     OW 6340   6.782   5.924   1.863
 1814SOL    HW1 6341   6.881   5.914   1.849
 1814SOL    HW2 6342   6.734   5.884   1.785
 1815SOL     OW 6343   6.297   6.213   1.220
 1815SOL    HW1 6344   6.396   6.214   1.230
 1815SOL    HW2 6345   6.255   6.175   1.302
 1816SOL     OW 6346   3.722   5.694   4.835
 1816SOL    HW1 6347   3.669   5.779   4.837
 1816SOL    HW2 6348   3.723   5.654   4.926
 1817SOL     OW 6349   6.819   2.644   4.776
 1817SOL    HW1 6350   6.756   2.586   4.827
 1817SOL    HW2 6351   6.769   2.697   4.708
 1818SOL     OW 6352   2.264   2.692   0.037
 1818SOL    HW1 6353   2.191   2.629   0.064
 1818SOL    HW2 6354   2.224   2.778   0.006
 1819SOL     OW 6355   0.715   3.699   0.811
 1819SOL    HW1 6356   0.634   3.747   0.778
 1819SOL    HW2 6357   0.797   3.749   0.784
 1820SOL     OW 6358   3.582   6.768   4.132
 1820SOL    HW1 6359   3.523   6.691   4.109
 1820SOL    HW2 6360   3.554   6.848   4.078
 1821SOL     OW 6361   3.847   1.475   2.778
 1821SOL    HW1 6362   3.815   1.532   2.703
 1821SOL    HW2 6363   3.823   1.518   2.865
 1822SOL     OW 6364   2.631   4.893   4.814
 1822SOL    HW1 6365   2.603   4.823   4.880
 1822SOL    HW2 6366   2.710   4.943   4.850
 1823SOL     OW 6367   4.766   6.654   5.082
 1823SOL    HW1 6368   4.811   6.628   5.167
 1823SOL    HW2 6369   4.727   6.573   5.038
 1824SOL     OW 6370   4.638   2.837   1.731
 1824SOL    HW1 6371   4.552   2.798   1.698
 1824SOL    HW2 6372   4.618   2.907   1.800
 1825SOL     OW 6373   1.419   3.276   0.143
 1825SOL    HW1 6374   1.465   3.205   0.090
 1825SOL    HW2 6375   1.327   3.244   0.169
 1826SOL     OW 6376   3.952   3.437   0.105
 1826SOL    HW1 6377   3.871   3.380   0.091
 1826SOL    HW2 6378   3.967   3.450   0.203
 1827SOL     OW 6379   5.340   4.574   0.279
 1827SOL    HW1 6380   5.377   4.667   0.288
 1827SOL    HW2 6381   5.412   4.508   0.297
 1828SOL     OW 6382   2.743   6.284   4.660
 1828SOL    HW1 6383   2.766   6.204   4.715
 1828SOL    HW2 6384   2.803   6.360   4.685
 1829SOL     OW 6385   2.479   5.685   2.429
 1829SOL    HW1 6386   2.384   5.653   2.427
 1829SOL    HW2 6387   2.507   5.713   2.337
 1830SOL     OW 6388   4.763   1.637   6.864
 1830SOL    HW1 6389   4.704   1.639   6.783
 1830SOL    HW2 6390   4.787   1.543   6.886
 1831SOL     OW 6391   3.524   4.018   6.940
 1831SOL    HW1 6392   3.601   4.036   6.880
 1831SOL    HW2 6393   3.485   4.104   6.972
 1832SOL     OW 6394   2.344   2.386   5.439
 1832SOL    HW1 6395   2.271   2.321   5.460
 1832SOL    HW2 6396   2.317   2.443   5.362
 1833SOL     OW 6397   5.928   1.914   0.315
 1833SOL    HW1 6398   5.919   1.893   0.412
 1833SOL    HW2 6399   5.860   1.982   0.289
 1834SOL     OW 6400   1.317   3.573   6.353
 1834SOL    HW1 6401   1.304   3.600   6.258
 1834SOL    HW2 6402   1.259   3.494   6.374
 1835SOL     OW 6403   6.104   0.734   6.426
 1835SOL    HW1 6404   6.176   0.664   6.427
 1835SOL    HW2 6405   6.061   0.735   6.336
 1836SOL     OW 6406   5.596   0.339   5.244
 1836SOL    HW1 6407   5.498   0.321   5.234
 1836SOL    HW2 6408   5.637   0.350   5.154
 1837SOL     OW 6409   1.267   1.771   1.670
 1837SOL    HW1 6410   1.188   1.720   1.639
 1837SOL    HW2 6411   1.276   1.855   1.616
 1838SOL     OW 6412   4.580   0.424   0.064
 1838SOL    HW1 6413   4.655   0.365   0.032
 1838SOL    HW2 6414   4.493   0.379   0.046
 1839SOL     OW 6415   0.533   2.332   6.821
 1839SOL    HW1 6416   0.527   2.384   6.736
 1839SOL    HW2 6417   0.617   2.357   6.870
 1840SOL     OW 6418   1.582   6.961   5.967
 1840SOL    HW1 6419   1.548   6.932   5.878
 1840SOL    HW2 6420   1.568   6.888   6.034
 1841SOL     OW 6421   1.921   6.944   1.132
 1841SOL    HW1 6422   1.939   6.850   1.103
 1841SOL    HW2 6423   1.952   7.007   1.060
 1842SOL     OW 6424   0.838   4.875   1.691
 1842SOL    HW1 6425   0.839   4.790   1.637
 1842SOL    HW2 6426   0.826   4.853   1.787
 1843SOL     OW 6427   3.674   0.685   6.757
 1843SOL    HW1 6428   3.592   0.741   6.750
 1843SOL    HW2 6429   3.649   0.589   6.766
 1844SOL     OW 6430   5.095   3.315   1.482
 1844SOL    HW1 6431   5.117   3.311   1.579
 1844SOL    HW2 6432   5.118   3.227   1.439
 1845SOL     OW 6433   0.524   2.677   4.726
 1845SOL    HW1 6434   0.462   2.716   4.794
 1845SOL    HW2 6435   0.502   2.581   4.711
 1846SOL     OW 6436   3.776   0.768   1.871
 1846SOL    HW1 6437   3.746   0.840   1.933
 1846SOL    HW2 6438   3.858   0.798   1.822
 1847SOL     OW 6439   2.824   6.134   6.886
 1847SOL    HW1 6440   2.734   6.175   6.899
 1847SOL    HW2 6441   2.816   6.054   6.826
 1848SOL     OW 6442   2.901   5.864   4.665
 1848SOL    HW1 6443   2.970   5.827   4.603
 1848SOL    HW2 6444   2.810   5.850   4.625
 1849SOL     OW 6445   4.839   2.842   2.718
 1849SOL    HW1 6446   4.884   2.865   2.631
 1849SOL    HW2 6447   4.772   2.769   2.702
 1850SOL     OW 6448   5.103   1.393   0.545
 1850SOL    HW1 6449   5.199   1.390   0.572
 1850SOL    HW2 6450   5.048   1.429   0.621
 1851SOL     OW 6451   2.288   4.898   3.418
 1851SOL    HW1 6452   2.334   4.951   3.347
 1851SOL    HW2 6453   2.213   4.846   3.378
 1852SOL     OW 6454   0.192   0.722   4.326
 1852SOL    HW1 6455   0.093   0.720   4.339
 1852SOL    HW2 6456   0.235   0.660   4.391
 1853SOL     OW 6457   0.891   2.069   4.724
 1853SOL    HW1 6458   0.990   2.083   4.721
 1853SOL    HW2 6459   0.845   2.150   4.687
 1854SOL     OW 6460   1.599   6.828   3.714
 1854SOL    HW1 6461   1.618   6.731   3.721
 1854SOL    HW2 6462   1.503   6.841   3.687
 1855SOL     OW 6463   6.782   1.357   5.367
 1855SOL    HW1 6464   6.800   1.259   5.371
 1855SOL    HW2 6465   6.694   1.373   5.320
 1856SOL     OW 6466   4.593   3.853   6.676
 1856SOL    HW1 6467   4.542   3.827   6.594
 1856SOL    HW2 6468   4.687   3.823   6.669
 1857SOL     OW 6469   4.456   1.103   0.069
 1857SOL    HW1 6470   4.460   1.113   6.994
 1857SOL    HW2 6471   4.494   1.014   0.095
 1858SOL     OW 6472   4.167   1.810   4.382
 1858SOL    HW1 6473   4.195   1.898   4.419
 1858SOL    HW2 6474   4.225   1.738   4.419
 1859SOL     OW 6475   6.795   5.879   3.561
 1859SOL    HW1 6476   6.877   5.870   3.617
 1859SOL    HW2 6477   6.814   5.938   3.483
 1860SOL     OW 6478   1.166   6.707   0.155
 1860SOL    HW1 6479   1.163   6.740   0.061
 1860SOL    HW2 6480   1.076   6.717   0.197
 1861SOL     OW 6481   6.202   0.190   5.232
 1861SOL    HW1 6482   6.254   0.149   5.156
 1861SOL    HW2 6483   6.266   0.229   5.298
 1862SOL     OW 6484   4.355   4.809   4.962
 1862SOL    HW1 6485   4.348   4.714   4.993
 1862SOL    HW2 6486   4.434   4.853   5.004
 1863SOL     OW 6487   6.738   1.080   0.922
 1863SOL    HW1 6488   6.806   1.035   0.865
 1863SOL    HW2 6489   6.674   1.131   0.864
 1864SOL     OW 6490   2.965   5.625   2.656
 1864SOL    HW1 6491   2.866   5.615   2.655
 1864SOL    HW2 6492   2.989   5.719   2.631
 1865SOL     OW 6493   6.119   3.035   6.695
 1865SOL    HW1 6494   6.182   3.112   6.712
 1865SOL    HW2 6495   6.127   2.969   6.770
 1866SOL     OW 6496   6.671   4.545   5.178
 1866SOL    HW1 6497   6.621   4.591   5.252
 1866SOL    HW2 6498   6.765   4.528   5.207
 1867SOL     OW 6499   1.242   6.997   0.538
 1867SOL    HW1 6500   1.279   6.932   0.471
 1867SOL    HW2 6501   1.311   7.013   0.609
 1868SOL     OW 6502   5.758   3.755   6.307
 1868SOL    HW1 6503   5.725   3.671   6.264
 1868SOL    HW2 6504   5.755   3.830   6.241
 1869SOL     OW 6505   4.358   1.339   5.635
 1869SOL    HW1 6506   4.359   1.429   5.591
 1869SOL    HW2 6507   4.266   1.321   5.673
 1870SOL     OW 6508   5.537   1.538   6.002
 1870SOL    HW1 6509   5.524   1.488   5.916
 1870SOL    HW2 6510   5.596   1.485   6.062
 1871SOL     OW 6511   2.648   4.370   0.402
 1871SOL    HW1 6512   2.697   4.291   0.364
 1871SOL    HW2 6513   2.655   4.448   0.340
 1872SOL     OW 6514   2.151   3.786   6.557
 1872SOL    HW1 6515   2.061   3.746   6.570
 1872SOL    HW2 6516   2.155   3.876   6.601
 1873SOL     OW 6517   5.589   0.807   2.514
 1873SOL    HW1 6518   5.552   0.715   2.527
 1873SOL    HW2 6519   5.515   0.874   2.514
 1874SOL     OW 6520   1.900   4.912   6.273
 1874SOL    HW1 6521   1.825   4.872   6.327
 1874SOL    HW2 6522   1.970   4.947   6.335
 1875SOL     OW 6523   1.579   6.772   1.874
 1875SOL    HW1 6524   1.489   6.786   1.916
 1875SOL    HW2 6525   1.571   6.705   1.800
 1876SOL     OW 6526   1.732   4.822   5.639
 1876SOL    HW1 6527   1.768   4.883   5.568
 1876SOL    HW2 6528   1.739   4.727   5.608
 1877SOL     OW 6529   0.419   1.348   3.564
 1877SOL    HW1 6530   0.468   1.361   3.478
 1877SOL    HW2 6531   0.428   1.431   3.620
 1878SOL     OW 6532   5.557   3.826   3.257
 1878SOL    HW1 6533   5.558   3.729   3.235
 1878SOL    HW2 6534   5.515   3.877   3.182
 1879SOL     OW 6535   3.864   6.534   5.110
 1879SOL    HW1 6536   3.780   6.487   5.138
 1879SOL    HW2 6537   3.930   6.467   5.078
 1880SOL     OW 6538   2.161   4.194   4.068
 1880SOL    HW1 6539   2.199   4.179   4.160
 1880SOL    HW2 6540   2.196   4.125   4.005
 1881SOL     OW 6541   3.016   2.199   2.423
 1881SOL    HW1 6542   2.988   2.128   2.488
 1881SOL    HW2 6543   3.115   2.200   2.415
 1882SOL     OW 6544   4.354   0.285   6.404
 1882SOL    HW1 6545   4.269   0.272   6.454
 1882SOL    HW2 6546   4.347   0.242   6.314
 1883SOL     OW 6547   2.017   3.710   3.313
 1883SOL    HW1 6548   2.097   3.770   3.313
 1883SOL    HW2 6549   1.936   3.763   3.339
 1884SOL     OW 6550   4.910   1.005   0.364
 1884SOL    HW1 6551   4.820   1.022   0.405
 1884SOL    HW2 6552   4.901   0.932   0.295
 1885SOL     OW 6553   6.655   1.405   1.367
 1885SOL    HW1 6554   6.657   1.305   1.377
 1885SOL    HW2 6555   6.560   1.436   1.361
 1886SOL     OW 6556   4.018   2.701   5.310
 1886SOL    HW1 6557   4.043   2.617   5.262
 1886SOL    HW2 6558   3.925   2.693   5.345
 1887SOL     OW 6559   0.564   6.024   5.645
 1887SOL    HW1 6560   0.548   5.943   5.588
 1887SOL    HW2 6561   0.524   6.011   5.735
 1888SOL     OW 6562   2.560   1.395   5.157
 1888SOL    HW1 6563   2.514   1.457   5.220
 1888SOL    HW2 6564   2.646   1.435   5.126
 1889SOL     OW 6565   3.810   3.995   6.564
 1889SOL    HW1 6566   3.779   3.900   6.553
 1889SOL    HW2 6567   3.796   4.023   6.659
 1890SOL     OW 6568   6.336   0.040   5.885
 1890SOL    HW1 6569   6.335   0.112   5.815
 1890SOL    HW2 6570   6.332   6.975   5.841
 1891SOL     OW 6571   5.053   3.513   0.141
 1891SOL    HW1 6572   5.105   3.481   0.061
 1891SOL    HW2 6573   4.989   3.584   0.113
 1892SOL     OW 6574   2.620   0.037   3.456
 1892SOL    HW1 6575   2.695   0.065   3.396
 1892SOL    HW2 6576   2.540   0.095   3.439
 1893SOL     OW 6577   2.820   2.580   6.685
 1893SOL    HW1 6578   2.882   2.589   6.762
 1893SOL    HW2 6579   2.819   2.484   6.654
 1894SOL     OW 6580   5.466   3.324   0.972
 1894SOL    HW1 6581   5.373   3.301   1.001
 1894SOL    HW2 6582   5.470   3.420   0.946
 1895SOL     OW 6583   4.138   6.430   3.002
 1895SOL    HW1 6584   4.203   6.403   3.073
 1895SOL    HW2 6585   4.050   6.452   3.044
 1896SOL     OW 6586   0.106   2.384   4.204
 1896SOL    HW1 6587   0.157   2.377   4.290
 1896SOL    HW2 6588   0.034   2.315   4.203
 1897SOL     OW 6589   5.410   5.596   3.312
 1897SOL    HW1 6590   5.390   5.694   3.311
 1897SOL    HW2 6591   5.405   5.561   3.405
 1898SOL     OW 6592   5.223   5.906   0.149
 1898SOL    HW1 6593   5.237   5.971   0.224
 1898SOL    HW2 6594   5.263   5.942   0.065
 1899SOL     OW 6595   1.664   3.209   4.240
 1899SOL    HW1 6596   1.667   3.160   4.153
 1899SOL    HW2 6597   1.571   3.242   4.257
 1900SOL     OW 6598   2.475   5.345   1.298
 1900SOL    HW1 6599   2.514   5.395   1.376
 1900SOL    HW2 6600   2.408   5.402   1.251
 1901SOL     OW 6601   0.218   1.346   0.142
 1901SOL    HW1 6602   0.206   1.426   0.083
 1901SOL    HW2 6603   0.165   1.358   0.225
 1902SOL     OW 6604   1.792   2.897   5.157
 1902SOL    HW1 6605   1.823   2.802   5.157
 1902SOL    HW2 6606   1.852   2.952   5.098
 1903SOL     OW 6607   0.002   6.167   4.121
 1903SOL    HW1 6608   0.085   6.144   4.070
 1903SOL    HW2 6609   6.950   6.111   4.088
 1904SOL     OW 6610   0.340   0.962   3.820
 1904SOL    HW1 6611   0.344   0.862   3.822
 1904SOL    HW2 6612   0.430   0.999   3.843
 1905SOL     OW 6613   5.812   3.208   6.597
 1905SOL    HW1 6614   5.883   3.266   6.557
 1905SOL    HW2 6615   5.843   3.174   6.686
 1906SOL     OW 6616   2.422   5.840   6.083
 1906SOL    HW1 6617   2.418   5.894   6.166
 1906SOL    HW2 6618   2.493   5.770   6.092
 1907SOL     OW 6619   4.015   1.110   2.495
 1907SOL    HW1 6620   4.022   1.208   2.513
 1907SOL    HW2 6621   4.077   1.085   2.421
 1908SOL     OW 6622   5.651   4.644   0.963
 1908SOL    HW1 6623   5.557   4.676   0.968
 1908SOL    HW2 6624   5.713   4.719   0.987
 1909SOL     OW 6625   5.004   5.346   4.516
 1909SOL    HW1 6626   4.938   5.420   4.532
 1909SOL    HW2 6627   4.977   5.266   4.569
 1910SOL     OW 6628   4.818   4.022   4.230
 1910SOL    HW1 6629   4.761   4.052   4.306
 1910SOL    HW2 6630   4.822   3.923   4.228
 1911SOL     OW 6631   0.934   2.516   5.613
 1911SOL    HW1 6632   0.959   2.516   5.516
 1911SOL    HW2 6633   0.968   2.433   5.656
 1912SOL     OW 6634   3.524   0.491   2.227
 1912SOL    HW1 6635   3.557   0.481   2.321
 1912SOL    HW2 6636   3.602   0.495   2.165
 1913SOL     OW 6637   3.130   3.521   0.204
 1913SOL    HW1 6638   3.094   3.437   0.243
 1913SOL    HW2 6639   3.060   3.563   0.146
 1914SOL     OW 6640   4.742   1.355   5.084
 1914SOL    HW1 6641   4.734   1.404   4.997
 1914SOL    HW2 6642   4.802   1.276   5.072
 1915SOL     OW 6643   2.933   6.807   5.163
 1915SOL    HW1 6644   3.005   6.876   5.152
 1915SOL    HW2 6645   2.850   6.838   5.117
 1916SOL     OW 6646   3.592   0.187   2.892
 1916SOL    HW1 6647   3.600   0.230   2.982
 1916SOL    HW2 6648   3.655   0.110   2.885
 1917SOL     OW 6649   3.710   3.833   2.878
 1917SOL    HW1 6650   3.733   3.888   2.958
 1917SOL    HW2 6651   3.619   3.793   2.889
 1918SOL     OW 6652   0.456   6.919   6.260
 1918SOL    HW1 6653   0.370   6.933   6.211
 1918SOL    HW2 6654   0.476   6.821   6.264
 1919SOL     OW 6655   5.292   0.791   1.793
 1919SOL    HW1 6656   5.256   0.838   1.873
 1919SOL    HW2 6657   5.313   0.858   1.722
 1920SOL     OW 6658   5.971   6.371   4.762
 1920SOL    HW1 6659   5.981   6.402   4.856
 1920SOL    HW2 6660   5.949   6.273   4.760
 1921SOL     OW 6661   2.358   6.826   0.226
 1921SOL    HW1 6662   2.341   6.925   0.230
 1921SOL    HW2 6663   2.455   6.808   0.242
 1922SOL     OW 6664   3.030   5.255   0.092
 1922SOL    HW1 6665   3.000   5.257   7.021
 1922SOL    HW2 6666   3.087   5.174   0.107
 1923SOL     OW 6667   1.446   2.736   1.583
 1923SOL    HW1 6668   1.426   2.708   1.677
 1923SOL    HW2 6669   1.535   2.780   1.580
 1924SOL     OW 6670   1.123   3.778   2.286
 1924SOL    HW1 6671   1.046   3.735   2.332
 1924SOL    HW2 6672   1.172   3.836   2.351
 1925SOL     OW 6673   2.765   4.886   0.512
 1925SOL    HW1 6674   2.809   4.953   0.572
 1925SOL    HW2 6675   2.822   4.872   0.431
 1926SOL     OW 6676   0.017   0.057   2.630
 1926SOL    HW1 6677   0.068   0.143   2.616
 1926SOL    HW2 6678   0.048   7.014   2.564
 1927SOL     OW 6679   5.387   3.384   1.374
 1927SOL    HW1 6680   5.337   3.436   1.443
 1927SOL    HW2 6681   5.340   3.298   1.357
 1928SOL     OW 6682   0.008   4.773   4.546
 1928SOL    HW1 6683   6.962   4.787   4.616
 1928SOL    HW2 6684   6.991   4.775   4.455
 1929SOL     OW 6685   1.816   4.339   3.269
 1929SOL    HW1 6686   1.805   4.403   3.193
 1929SOL    HW2 6687   1.747   4.267   3.262
 1930SOL     OW 6688   6.511   5.940   6.540
 1930SOL    HW1 6689   6.492   5.899   6.451
 1930SOL    HW2 6690   6.521   5.868   6.608
 1931SOL     OW 6691   2.276   2.972   3.894
 1931SOL    HW1 6692   2.315   3.012   3.811
 1931SOL    HW2 6693   2.214   3.038   3.937
 1932SOL     OW 6694   5.908   2.295   3.209
 1932SOL    HW1 6695   5.836   2.263   3.147
 1932SOL    HW2 6696   5.975   2.348   3.158
 1933SOL     OW 6697   2.464   4.799   0.387
 1933SOL    HW1 6698   2.415   4.768   0.468
 1933SOL    HW2 6699   2.562   4.797   0.403
 1934SOL     OW 6700   0.471   6.136   3.100
 1934SOL    HW1 6701   0.408   6.061   3.076
 1934SOL    HW2 6702   0.565   6.107   3.081
 1935SOL     OW 6703   0.544   1.413   2.440
 1935SOL    HW1 6704   0.538   1.494   2.383
 1935SOL    HW2 6705   0.519   1.436   2.534
 1936SOL     OW 6706   0.456   6.081   5.130
 1936SOL    HW1 6707   0.505   6.053   5.048
 1936SOL    HW2 6708   0.520   6.088   5.207
 1937SOL     OW 6709   5.059   2.009   3.512
 1937SOL    HW1 6710   5.124   1.978   3.443
 1937SOL    HW2 6711   5.102   2.006   3.602
 1938SOL     OW 6712   4.494   0.325   3.582
 1938SOL    HW1 6713   4.402   0.317   3.623
 1938SOL    HW2 6714   4.489   0.301   3.485
 1939SOL     OW 6715   2.507   0.988   4.203
 1939SOL    HW1 6716   2.493   1.087   4.196
 1939SOL    HW2 6717   2.578   0.970   4.271
 1940SOL     OW 6718   6.467   1.225   6.454
 1940SOL    HW1 6719   6.418   1.174   6.525
 1940SOL    HW2 6720   6.562   1.194   6.452
 1941SOL     OW 6721   4.642   4.850   2.547
 1941SOL    HW1 6722   4.668   4.850   2.643
 1941SOL    HW2 6723   4.715   4.807   2.493
 1942SOL     OW 6724   0.119   3.476   2.452
 1942SOL    HW1 6725   0.203   3.484   2.398
 1942SOL    HW2 6726   0.095   3.380   2.463
 1943SOL     OW 6727   4.098   5.275   3.768
 1943SOL    HW1 6728   4.151   5.199   3.805
 1943SOL    HW2 6729   4.068   5.334   3.844
 1944SOL     OW 6730   6.178   6.613   2.270
 1944SOL    HW1 6731   6.143   6.527   2.308
 1944SOL    HW2 6732   6.219   6.596   2.181
 1945SOL     OW 6733   3.555   5.502   2.464
 1945SOL    HW1 6734   3.480   5.469   2.407
 1945SOL    HW2 6735   3.586   5.428   2.524
 1946SOL     OW 6736   1.401   6.741   6.544
 1946SOL    HW1 6737   1.314   6.775   6.510
 1946SOL    HW2 6738   1.473   6.808   6.525
 1947SOL     OW 6739   4.340   1.108   3.758
 1947SOL    HW1 6740   4.395   1.025   3.767
 1947SOL    HW2 6741   4.399   1.188   3.766
 1948SOL     OW 6742   6.658   2.821   5.217
 1948SOL    HW1 6743   6.617   2.835   5.128
 1948SOL    HW2 6744   6.738   2.762   5.208
 1949SOL     OW 6745   4.582   3.638   6.863
 1949SOL    HW1 6746   4.649   3.620   6.934
 1949SOL    HW2 6747   4.606   3.721   6.814
 1950SOL     OW 6748   2.373   4.638   0.664
 1950SOL    HW1 6749   2.370   4.728   0.708
 1950SOL    HW2 6750   2.391   4.568   0.734
 1951SOL     OW 6751   5.553   2.877   6.519
 1951SOL    HW1 6752   5.622   2.806   6.508
 1951SOL    HW2 6753   5.477   2.842   6.573
 1952SOL     OW 6754   3.168   3.123   3.040
 1952SOL    HW1 6755   3.257   3.085   3.063
 1952SOL    HW2 6756   3.110   3.125   3.121
 1953SOL     OW 6757   1.271   1.962   4.308
 1953SOL    HW1 6758   1.300   2.026   4.378
 1953SOL    HW2 6759   1.350   1.911   4.274
 1954SOL     OW 6760   2.482   2.043   3.905
 1954SOL    HW1 6761   2.541   2.123   3.919
 1954SOL    HW2 6762   2.486   2.016   3.809
 1955SOL     OW 6763   6.588   5.459   2.816
 1955SOL    HW1 6764   6.662   5.408   2.859
 1955SOL    HW2 6765   6.518   5.482   2.884
 1956SOL     OW 6766   4.093   6.359   3.854
 1956SOL    HW1 6767   4.126   6.431   3.793
 1956SOL    HW2 6768   4.147   6.359   3.938
 1957SOL     OW 6769   2.410   6.446   5.951
 1957SOL    HW1 6770   2.439   6.416   6.042
 1957SOL    HW2 6771   2.397   6.367   5.892
 1958SOL     OW 6772   4.098   3.530   5.925
 1958SOL    HW1 6773   4.151   3.590   5.865
 1958SOL    HW2 6774   4.107   3.436   5.893
 1959SOL     OW 6775   3.501   0.295   0.768
 1959SOL    HW1 6776   3.515   0.232   0.845
 1959SOL    HW2 6777   3.407   0.289   0.736
 1960SOL     OW 6778   4.753   5.953   3.060
 1960SOL    HW1 6779   4.744   6.043   3.016
 1960SOL    HW2 6780   4.793   5.888   2.995
 1961SOL     OW 6781   5.847   5.251   5.612
 1961SOL    HW1 6782   5.768   5.197   5.643
 1961SOL    HW2 6783   5.909   5.191   5.561
 1962SOL     OW 6784   0.447   6.595   4.359
 1962SOL    HW1 6785   0.496   6.548   4.433
 1962SOL    HW2 6786   0.499   6.676   4.332
 1963SOL     OW 6787   2.824   2.050   3.934
 1963SOL    HW1 6788   2.810   2.057   3.835
 1963SOL    HW2 6789   2.806   1.957   3.964
 1964SOL     OW 6790   6.587   2.492   2.601
 1964SOL    HW1 6791   6.490   2.495   2.627
 1964SOL    HW2 6792   6.642   2.468   2.681
 1965SOL     OW 6793   1.932   6.298   3.532
 1965SOL    HW1 6794   1.986   6.215   3.527
 1965SOL    HW2 6795   1.857   6.286   3.597
 1966SOL     OW 6796   6.993   6.015   0.092
 1966SOL    HW1 6797   6.901   5.999   0.056
 1966SOL    HW2 6798   6.989   6.080   0.168
 1967SOL     OW 6799   6.973   2.410   4.961
 1967SOL    HW1 6800   6.899   2.357   4.920
 1967SOL    HW2 6801   6.974   2.502   4.920
 1968SOL     OW 6802   4.577   5.401   4.968
 1968SOL    HW1 6803   4.603   5.478   5.026
 1968SOL    HW2 6804   4.540   5.328   5.025
 1969SOL     OW 6805   6.095   1.031   1.318
 1969SOL    HW1 6806   6.119   0.991   1.407
 1969SOL    HW2 6807   6.166   1.095   1.290
 1970SOL     OW 6808   2.310   1.289   4.459
 1970SOL    HW1 6809   2.255   1.217   4.419
 1970SOL    HW2 6810   2.382   1.249   4.516
 1971SOL     OW 6811   6.994   1.333   5.907
 1971SOL    HW1 6812   6.959   1.273   5.835
 1971SOL    HW2 6813   6.955   1.425   5.896
 1972SOL     OW 6814   1.104   6.266   3.876
 1972SOL    HW1 6815   1.133   6.277   3.781
 1972SOL    HW2 6816   1.184   6.257   3.935
 1973SOL     OW 6817   3.556   3.120   0.225
 1973SOL    HW1 6818   3.525   3.054   0.156
 1973SOL    HW2 6819   3.478   3.148   0.282
 1974SOL     OW 6820   5.842   6.236   4.339
 1974SOL    HW1 6821   5.791   6.267   4.259
 1974SOL    HW2 6822   5.902   6.160   4.313
 1975SOL     OW 6823   2.613   6.820   3.602
 1975SOL    HW1 6824   2.631   6.748   3.535
 1975SOL    HW2 6825   2.658   6.904   3.573
 1976SOL     OW 6826   6.255   4.238   6.345
 1976SOL    HW1 6827   6.245   4.141   6.325
 1976SOL    HW2 6828   6.164   4.281   6.349
 1977SOL     OW 6829   2.899   2.277   5.226
 1977SOL    HW1 6830   2.993   2.310   5.215
 1977SOL    HW2 6831   2.880   2.208   5.156
 1978SOL     OW 6832   0.035   2.262   5.204
 1978SOL    HW1 6833   0.022   2.295   5.110
 1978SOL    HW2 6834   0.013   2.165   5.208
 1979SOL     OW 6835   6.668   4.399   2.084
 1979SOL    HW1 6836   6.674   4.303   2.111
 1979SOL    HW2 6837   6.736   4.452   2.134
 1980SOL     OW 6838   2.491   0.661   2.616
 1980SOL    HW1 6839   2.430   0.678   2.693
 1980SOL    HW2 6840   2.459   0.712   2.536
 1981SOL     OW 6841   5.847   3.204   2.840
 1981SOL    HW1 6842   5.867   3.221   2.936
 1981SOL    HW2 6843   5.835   3.106   2.825
 1982SOL     OW 6844   0.388   6.865   5.005
 1982SOL    HW1 6845   0.444   6.791   5.042
 1982SOL    HW2 6846   0.331   6.904   5.078
 1983SOL     OW 6847   1.268   5.404   1.564
 1983SOL    HW1 6848   1.330   5.378   1.638
 1983SOL    HW2 6849   1.236   5.498   1.579
 1984SOL     OW 6850   4.027   0.336   5.723
 1984SOL    HW1 6851   3.958   0.368   5.657
 1984SOL    HW2 6852   3.994   0.253   5.768
 1985SOL     OW 6853   1.122   4.986   2.132
 1985SOL    HW1 6854   1.191   5.026   2.193
 1985SOL    HW2 6855   1.033   4.986   2.179
 1986SOL     OW 6856   5.687   2.184   1.657
 1986SOL    HW1 6857   5.697   2.085   1.651
 1986SOL    HW2 6858   5.678   2.223   1.565
 1987SOL     OW 6859   1.900   2.998   0.610
 1987SOL    HW1 6860   1.807   2.960   0.613
 1987SOL    HW2 6861   1.937   3.003   0.702
 1988SOL     OW 6862   5.297   2.641   1.360
 1988SOL    HW1 6863   5.263   2.735   1.358
 1988SOL    HW2 6864   5.363   2.631   1.434
 1989SOL     OW 6865   2.485   2.304   3.040
 1989SOL    HW1 6866   2.553   2.338   3.105
 1989SOL    HW2 6867   2.394   2.315   3.078
 1990SOL     OW 6868   1.502   6.842   3.109
 1990SOL    HW1 6869   1.517   6.844   3.011
 1990SOL    HW2 6870   1.445   6.763   3.133
 1991SOL     OW 6871   5.060   5.749   2.543
 1991SOL    HW1 6872   4.987   5.810   2.511
 1991SOL    HW2 6873   5.143   5.766   2.490
 1992SOL     OW 6874   2.432   5.891   4.874
 1992SOL    HW1 6875   2.520   5.930   4.847
 1992SOL    HW2 6876   2.447   5.823   4.946
 1993SOL     OW 6877   3.373   3.659   4.292
 1993SOL    HW1 6878   3.382   3.693   4.199
 1993SOL    HW2 6879   3.456   3.682   4.344
 1994SOL     OW 6880   6.265   2.272   1.280
 1994SOL    HW1 6881   6.305   2.358   1.313
 1994SOL    HW2 6882   6.337   2.214   1.242
 1995SOL     OW 6883   3.984   2.961   1.648
 1995SOL    HW1 6884   4.017   2.883   1.595
 1995SOL    HW2 6885   4.025   3.045   1.613
 1996SOL     OW 6886   2.157   5.842   6.088
 1996SOL    HW1 6887   2.254   5.867   6.085
 1996SOL    HW2 6888   2.145   5.750   6.051
 1997SOL     OW 6889   6.065   6.455   5.037
 1997SOL    HW1 6890   6.012   6.537   5.057
 1997SOL    HW2 6891   6.069   6.397   5.118
 1998SOL     OW 6892   3.618   5.022   4.741
 1998SOL    HW1 6893   3.612   5.025   4.840
 1998SOL    HW2 6894   3.592   5.111   4.703
 1999SOL     OW 6895   3.311   0.752   1.867
 1999SOL    HW1 6896   3.267   0.820   1.925
 1999SOL    HW2 6897   3.260   0.666   1.872
 2000SOL     OW 6898   2.972   1.066   6.508
 2000SOL    HW1 6899   2.930   0.976   6.521
 2000SOL    HW2 6900   2.914   1.136   6.550
 2001SOL     OW 6901   2.319   3.299   6.865
 2001SOL    HW1 6902   2.282   3.237   6.795
 2001SOL    HW2 6903   2.253   3.373   6.881
 2002SOL     OW 6904   2.504   4.889   5.230
 2002SOL    HW1 6905   2.584   4.948   5.240
 2002SOL    HW2 6906   2.507   4.817   5.300
 2003SOL     OW 6907   6.057   4.223   3.900
 2003SOL    HW1 6908   6.018   4.234   3.991
 2003SOL    HW2 6909   6.044   4.307   3.847
 2004SOL     OW 6910   3.103   0.158   6.570
 2004SOL    HW1 6911   3.112   0.064   6.537
 2004SOL    HW2 6912   3.081   0.218   6.494
 2005SOL     OW 6913   2.467   6.968   5.729
 2005SOL    HW1 6914   2.492   6.880   5.688
 2005SOL    HW2 6915   2.527   0.016   5.694
 2006SOL     OW 6916   4.584   0.348   2.035
 2006SOL    HW1 6917   4.511   0.316   1.976
 2006SOL    HW2 6918   4.667   0.363   1.981
 2007SOL     OW 6919   6.467   5.748   0.490
 2007SOL    HW1 6920   6.369   5.758   0.472
 2007SOL    HW2 6921   6.490   5.651   0.496
 2008SOL     OW 6922   0.280   5.768   5.621
 2008SOL    HW1 6923   0.190   5.750   5.580
 2008SOL    HW2 6924   0.304   5.692   5.683
 2009SOL     OW 6925   0.873   0.039   0.275
 2009SOL    HW1 6926   0.809   0.102   0.231
 2009SOL    HW2 6927   0.921   0.087   0.348
 2010SOL     OW 6928   2.903   0.837   0.672
 2010SOL    HW1 6929   2.871   0.781   0.749
 2010SOL    HW2 6930   2.995   0.809   0.647
 2011SOL     OW 6931   0.355   1.965   4.956
 2011SOL    HW1 6932   0.425   2.022   4.997
 2011SOL    HW2 6933   0.340   1.884   5.013
 2012SOL     OW 6934   0.100   3.311   2.044
 2012SOL    HW1 6935   0.011   3.268   2.056
 2012SOL    HW2 6936   0.093   3.409   2.063
 2013SOL     OW 6937   3.328   2.210   1.814
 2013SOL    HW1 6938   3.312   2.112   1.823
 2013SOL    HW2 6939   3.422   2.231   1.841
 2014SOL     OW 6940   3.927   4.870   3.648
 2014SOL    HW1 6941   4.005   4.860   3.586
 2014SOL    HW2 6942   3.853   4.810   3.620
 2015SOL     OW 6943   2.641   5.434   6.845
 2015SOL    HW1 6944   2.655   5.455   6.748
 2015SOL    HW2 6945   2.711   5.479   6.900
 2016SOL     OW 6946   6.795   5.634   4.959
 2016SOL    HW1 6947   6.698   5.650   4.979
 2016SOL    HW2 6948   6.846   5.719   4.971
 2017SOL     OW 6949   2.437   4.860   2.133
 2017SOL    HW1 6950   2.461   4.768   2.103
 2017SOL    HW2 6951   2.520   4.915   2.141
 2018SOL     OW 6952   0.217   4.636   4.456
 2018SOL    HW1 6953   0.153   4.701   4.497
 2018SOL    HW2 6954   0.172   4.588   4.381
 2019SOL     OW 6955   5.602   0.909   2.924
 2019SOL    HW1 6956   5.599   0.809   2.921
 2019SOL    HW2 6957   5.562   0.946   2.840
 2020SOL     OW 6958   2.057   5.108   3.150
 2020SOL    HW1 6959   1.968   5.078   3.185
 2020SOL    HW2 6960   2.051   5.203   3.122
 2021SOL     OW 6961   1.799   6.370   1.638
 2021SOL    HW1 6962   1.791   6.332   1.546
 2021SOL    HW2 6963   1.895   6.368   1.666
 2022SOL     OW 6964   4.065   5.242   1.633
 2022SOL    HW1 6965   3.993   5.264   1.698
 2022SOL    HW2 6966   4.131   5.180   1.676
 2023SOL     OW 6967   0.389   2.686   6.111
 2023SOL    HW1 6968   0.408   2.649   6.020
 2023SOL    HW2 6969   0.309   2.639   6.150
 2024SOL     OW 6970   5.355   6.405   3.608
 2024SOL    HW1 6971   5.353   6.448   3.517
 2024SOL    HW2 6972   5.394   6.469   3.674
 2025SOL     OW 6973   6.349   0.998   0.900
 2025SOL    HW1 6974   6.385   0.971   0.990
 2025SOL    HW2 6975   6.298   1.083   0.909
 2026SOL     OW 6976   2.369   1.947   5.104
 2026SOL    HW1 6977   2.271   1.957   5.089
 2026SOL    HW2 6978   2.410   2.037   5.122
 2027SOL     OW 6979   6.268   6.924   2.283
 2027SOL    HW1 6980   6.353   6.906   2.232
 2027SOL    HW2 6981   6.225   6.837   2.307
 2028SOL     OW 6982   3.749   4.107   5.757
 2028SOL    HW1 6983   3.848   4.089   5.760
 2028SOL    HW2 6984   3.733   4.202   5.731
 2029SOL     OW 6985   2.152   0.197   6.667
 2029SOL    HW1 6986   2.196   0.187   6.578
 2029SOL    HW2 6987   2.221   0.223   6.735
 2030SOL     OW 6988   2.075   2.602   2.820
 2030SOL    HW1 6989   2.063   2.694   2.782
 2030SOL    HW2 6990   2.172   2.585   2.838
 2031SOL     OW 6991   6.186   6.936   2.581
 2031SOL    HW1 6992   6.087   6.944   2.594
 2031SOL    HW2 6993   6.216   7.002   2.511
 2032SOL     OW 6994   4.381   6.481   2.372
 2032SOL    HW1 6995   4.360   6.437   2.285
 2032SOL    HW2 6996   4.308   6.545   2.395
 2033SOL     OW 6997   0.342   5.018   0.267
 2033SOL    HW1 6998   0.351   4.919   0.258
 2033SOL    HW2 6999   0.432   5.059   0.280
 2034SOL     OW 7000   2.091   5.315   3.652
 2034SOL    HW1 7001   2.011   5.310   3.713
 2034SOL    HW2 7002   2.133   5.225   3.644
 2035SOL     OW 7003   0.821   0.586   2.674
 2035SOL    HW1 7004   0.863   0.529   2.603
 2035SOL    HW2 7005   0.831   0.683   2.650
 2036SOL     OW 7006   0.866   4.633   2.051
 2036SOL    HW1 7007   0.880   4.553   1.993
 2036SOL    HW2 7008   0.852   4.603   2.146
 2037SOL     OW 7009   1.005   2.930   5.909
 2037SOL    HW1 7010   0.925   2.988   5.928
 2037SOL    HW2 7011   0.990   2.880   5.824
 2038SOL     OW 7012   1.705   6.426   4.970
 2038SOL    HW1 7013   1.788   6.414   5.024
 2038SOL    HW2 7014   1.712   6.373   4.885
 2039SOL     OW 7015   1.180   5.028   1.853
 2039SOL    HW1 7016   1.184   5.128   1.852
 2039SOL    HW2 7017   1.138   4.997   1.938
 2040SOL     OW 7018   3.883   3.057   4.726
 2040SOL    HW1 7019   3.968   3.092   4.767
 2040SOL    HW2 7020   3.812   3.051   4.797
 2041SOL     OW 7021   5.240   2.815   0.057
 2041SOL    HW1 7022   5.310   2.874   0.097
 2041SOL    HW2 7023   5.231   2.732   0.112
 2042SOL     OW 7024   4.037   6.727   0.551
 2042SOL    HW1 7025   4.111   6.776   0.598
 2042SOL    HW2 7026   4.062   6.711   0.456
 2043SOL     OW 7027   5.099   5.332   2.807
 2043SOL    HW1 7028   5.102   5.265   2.732
 2043SOL    HW2 7029   5.060   5.288   2.889
 2044SOL     OW 7030   5.989   1.221   1.984
 2044SOL    HW1 7031   5.905   1.209   1.932
 2044SOL    HW2 7032   6.028   1.311   1.964
 2045SOL     OW 7033   3.360   6.324   5.343
 2045SOL    HW1 7034   3.419   6.247   5.319
 2045SOL    HW2 7035   3.368   6.344   5.440
 2046SOL     OW 7036   6.661   0.948   5.050
 2046SOL    HW1 7037   6.606   0.995   4.980
 2046SOL    HW2 7038   6.698   0.863   5.012
 2047SOL     OW 7039   5.223   3.336   6.981
 2047SOL    HW1 7040   5.291   3.346   0.029
 2047SOL    HW2 7041   5.184   3.243   6.985
 2048SOL     OW 7042   4.525   5.831   5.645
 2048SOL    HW1 7043   4.506   5.794   5.736
 2048SOL    HW2 7044   4.533   5.756   5.580
 2049SOL     OW 7045   5.654   6.140   0.106
 2049SOL    HW1 7046   5.753   6.140   0.124
 2049SOL    HW2 7047   5.630   6.057   0.055
 2050SOL     OW 7048   5.535   1.038   4.075
 2050SOL    HW1 7049   5.619   1.051   4.022
 2050SOL    HW2 7050   5.462   1.009   4.013
 2051SOL     OW 7051   3.255   6.020   0.868
 2051SOL    HW1 7052   3.231   6.014   0.965
 2051SOL    HW2 7053   3.172   6.034   0.815
 2052SOL     OW 7054   1.192   2.181   1.273
 2052SOL    HW1 7055   1.223   2.125   1.195
 2052SOL    HW2 7056   1.254   2.258   1.285
 2053SOL     OW 7057   5.470   0.392   6.869
 2053SOL    HW1 7058   5.470   0.368   6.772
 2053SOL    HW2 7059   5.473   0.491   6.879
 2054SOL     OW 7060   0.669   3.027   0.624
 2054SOL    HW1 7061   0.674   2.940   0.673
 2054SOL    HW2 7062   0.710   3.099   0.680
 2055SOL     OW 7063   6.343   1.081   4.686
 2055SOL    HW1 7064   6.245   1.081   4.664
 2055SOL    HW2 7065   6.389   1.153   4.635
 2056SOL     OW 7066   6.815   6.386   2.384
 2056SOL    HW1 7067   6.855   6.449   2.317
 2056SOL    HW2 7068   6.837   6.292   2.358
 2057SOL     OW 7069   5.011   3.000   3.515
 2057SOL    HW1 7070   4.984   2.918   3.465
 2057SOL    HW2 7071   4.952   3.012   3.595
 2058SOL     OW 7072   1.227   0.937   1.714
 2058SOL    HW1 7073   1.205   0.845   1.744
 2058SOL    HW2 7074   1.321   0.960   1.740
 2059SOL     OW 7075   1.601   0.207   0.241
 2059SOL    HW1 7076   1.522   0.235   0.295
 2059SOL    HW2 7077   1.587   0.114   0.207
 2060SOL     OW 7078   0.522   4.657   3.406
 2060SOL    HW1 7079   0.443   4.645   3.346
 2060SOL    HW2 7080   0.606   4.631   3.358
 2061SOL     OW 7081   1.159   0.891   0.499
 2061SOL    HW1 7082   1.228   0.893   0.427
 2061SOL    HW2 7083   1.090   0.822   0.477
 2062SOL     OW 7084   3.519   0.140   3.257
 2062SOL    HW1 7085   3.573   0.055   3.261
 2062SOL    HW2 7086   3.435   0.123   3.206
 2063SOL     OW 7087   2.471   3.096   1.014
 2063SOL    HW1 7088   2.378   3.131   0.998
 2063SOL    HW2 7089   2.501   3.121   1.106
 2064SOL     OW 7090   0.497   2.067   1.092
 2064SOL    HW1 7091   0.557   2.043   1.015
 2064SOL    HW2 7092   0.404   2.085   1.058
 2065SOL     OW 7093   6.835   3.027   2.901
 2065SOL    HW1 7094   6.917   3.081   2.921
 2065SOL    HW2 7095   6.808   3.042   2.806
 2066SOL     OW 7096   0.712   5.332   3.504
 2066SOL    HW1 7097   0.798   5.284   3.519
 2066SOL    HW2 7098   0.687   5.383   3.586
 2067SOL     OW 7099   6.518   0.670   0.661
 2067SOL    HW1 7100   6.459   0.591   0.680
 2067SOL    HW2 7101   6.602   0.663   0.715
 2068SOL     OW 7102   2.606   1.936   5.360
 2068SOL    HW1 7103   2.666   1.917   5.282
 2068SOL    HW2 7104   2.525   1.985   5.328
 2069SOL     OW 7105   2.150   1.795   1.620
 2069SOL    HW1 7106   2.055   1.769   1.601
 2069SOL    HW2 7107   2.175   1.764   1.712
 2070SOL     OW 7108   0.920   1.942   2.509
 2070SOL    HW1 7109   0.891   1.922   2.603
 2070SOL    HW2 7110   0.957   2.035   2.505
 2071SOL     OW 7111   2.755   6.149   5.754
 2071SOL    HW1 7112   2.729   6.232   5.705
 2071SOL    HW2 7113   2.759   6.168   5.852
 2072SOL     OW 7114   5.534   4.243   2.800
 2072SOL    HW1 7115   5.470   4.177   2.760
 2072SOL    HW2 7116   5.610   4.193   2.843
 2073SOL     OW 7117   3.496   6.957   5.023
 2073SOL    HW1 7118   3.454   0.022   5.043
 2073SOL    HW2 7119   3.425   6.887   5.020
 2074SOL     OW 7120   4.428   1.955   3.245
 2074SOL    HW1 7121   4.426   1.949   3.145
 2074SOL    HW2 7122   4.434   1.862   3.283
 2075SOL     OW 7123   3.715   2.583   5.749
 2075SOL    HW1 7124   3.706   2.675   5.787
 2075SOL    HW2 7125   3.778   2.585   5.672
 2076SOL     OW 7126   5.079   6.288   0.099
 2076SOL    HW1 7127   5.009   6.222   0.127
 2076SOL    HW2 7128   5.138   6.309   0.177
 2077SOL     OW 7129   3.731   1.244   4.867
 2077SOL    HW1 7130   3.694   1.285   4.950
 2077SOL    HW2 7131   3.790   1.311   4.820
 2078SOL     OW 7132   4.197   6.322   4.133
 2078SOL    HW1 7133   4.274   6.286   4.081
 2078SOL    HW2 7134   4.212   6.304   4.231
 2079SOL     OW 7135   5.340   0.056   3.485
 2079SOL    HW1 7136   5.349   0.085   3.390
 2079SOL    HW2 7137   5.416   0.095   3.538
 2080SOL     OW 7138   3.131   1.673   2.598
 2080SOL    HW1 7139   3.117   1.613   2.519
 2080SOL    HW2 7140   3.045   1.683   2.648
 2081SOL     OW 7141   1.334   5.467   2.868
 2081SOL    HW1 7142   1.240   5.501   2.861
 2081SOL    HW2 7143   1.390   5.532   2.920
 2082SOL     OW 7144   4.630   1.332   2.929
 2082SOL    HW1 7145   4.593   1.363   3.017
 2082SOL    HW2 7146   4.666   1.239   2.938
 2083SOL     OW 7147   3.614   3.933   5.967
 2083SOL    HW1 7148   3.658   3.993   5.900
 2083SOL    HW2 7149   3.551   3.871   5.920
 2084SOL     OW 7150   0.306   2.117   3.438
 2084SOL    HW1 7151   0.373   2.177   3.481
 2084SOL    HW2 7152   0.248   2.171   3.377
 2085SOL     OW 7153   5.777   6.965   0.726
 2085SOL    HW1 7154   5.840   6.899   0.766
 2085SOL    HW2 7155   5.769   6.949   0.628
 2086SOL     OW 7156   3.252   6.009   6.817
 2086SOL    HW1 7157   3.202   6.076   6.761
 2086SOL    HW2 7158   3.252   6.039   6.912
 2087SOL     OW 7159   6.252   5.673   2.559
 2087SOL    HW1 7160   6.313   5.695   2.483
 2087SOL    HW2 7161   6.274   5.582   2.594
 2088SOL     OW 7162   2.260   6.292   1.000
 2088SOL    HW1 7163   2.239   6.302   0.902
 2088SOL    HW2 7164   2.202   6.355   1.052
 2089SOL     OW 7165   2.245   1.089   6.848
 2089SOL    HW1 7166   2.228   1.111   6.944
 2089SOL    HW2 7167   2.341   1.106   6.826
 2090SOL     OW 7168   3.090   3.359   3.519
 2090SOL    HW1 7169   3.040   3.428   3.467
 2090SOL    HW2 7170   3.077   3.375   3.617
 2091SOL     OW 7171   2.508   4.002   1.298
 2091SOL    HW1 7172   2.514   3.995   1.198
 2091SOL    HW2 7173   2.514   4.098   1.325
 2092SOL     OW 7174   5.747   6.948   0.416
 2092SOL    HW1 7175   5.808   0.003   0.407
 2092SOL    HW2 7176   5.680   6.949   0.342
 2093SOL     OW 7177   0.964   1.450   2.073
 2093SOL    HW1 7178   0.908   1.380   2.118
 2093SOL    HW2 7179   1.015   1.502   2.141
 2094SOL     OW 7180   0.104   1.044   2.399
 2094SOL    HW1 7181   0.005   1.040   2.406
 2094SOL    HW2 7182   0.130   1.118   2.337
 2095SOL     OW 7183   6.804   4.438   4.758
 2095SOL    HW1 7184   6.735   4.388   4.706
 2095SOL    HW2 7185   6.805   4.405   4.852
 2096SOL     OW 7186   4.868   4.602   3.662
 2096SOL    HW1 7187   4.892   4.519   3.711
 2096SOL    HW2 7188   4.943   4.668   3.667
 2097SOL     OW 7189   6.752   3.453   5.088
 2097SOL    HW1 7190   6.810   3.522   5.044
 2097SOL    HW2 7191   6.785   3.362   5.066
 2098SOL     OW 7192   4.801   0.393   4.634
 2098SOL    HW1 7193   4.843   0.383   4.544
 2098SOL    HW2 7194   4.861   0.353   4.703
 2099SOL     OW 7195   3.121   1.781   4.009
 2099SOL    HW1 7196   3.068   1.718   3.952
 2099SOL    HW2 7197   3.089   1.874   3.993
 2100SOL     OW 7198   4.432   4.332   5.789
 2100SOL    HW1 7199   4.494   4.278   5.847
 2100SOL    HW2 7200   4.398   4.274   5.715
 2101SOL     OW 7201   5.489   0.104   1.634
 2101SOL    HW1 7202   5.534   0.168   1.572
 2101SOL    HW2 7203   5.519   0.123   1.728
 2102SOL     OW 7204   6.813   5.145   0.831
 2102SOL    HW1 7205   6.737   5.182   0.885
 2102SOL    HW2 7206   6.777   5.105   0.747
 2103SOL     OW 7207   3.742   3.724   6.542
 2103SOL    HW1 7208   3.837   3.726   6.512
 2103SOL    HW2 7209   3.717   3.631   6.570
 2104SOL     OW 7210   0.261   5.210   6.410
 2104SOL    HW1 7211   0.313   5.254   6.483
 2104SOL    HW2 7212   0.231   5.120   6.441
 2105SOL     OW 7213   4.928   5.895   2.103
 2105SOL    HW1 7214   5.006   5.837   2.126
 2105SOL    HW2 7215   4.948   5.989   2.130
 2106SOL     OW 7216   6.116   6.618   6.599
 2106SOL    HW1 7217   6.198   6.618   6.542
 2106SOL    HW2 7218   6.055   6.545   6.569
 2107SOL     OW 7219   2.687   4.903   6.592
 2107SOL    HW1 7220   2.593   4.897   6.625
 2107SOL    HW2 7221   2.748   4.930   6.666
 2108SOL     OW 7222   5.454   4.614   6.637
 2108SOL    HW1 7223   5.493   4.698   6.673
 2108SOL    HW2 7224   5.482   4.537   6.695
 2109SOL     OW 7225   5.346   5.833   2.711
 2109SOL    HW1 7226   5.260   5.800   2.673
 2109SOL    HW2 7227   5.402   5.873   2.638
 2110SOL     OW 7228   1.297   5.233   5.610
 2110SOL    HW1 7229   1.396   5.224   5.605
 2110SOL    HW2 7230   1.263   5.279   5.527
 2111SOL     OW 7231   1.443   1.889   6.682
 2111SOL    HW1 7232   1.533   1.932   6.672
 2111SOL    HW2 7233   1.391   1.938   6.753
 2112SOL     OW 7234   5.056   4.032   0.131
 2112SOL    HW1 7235   4.984   4.066   0.070
 2112SOL    HW2 7236   5.015   3.977   0.204
 2113SOL     OW 7237   6.706   1.196   3.730
 2113SOL    HW1 7238   6.766   1.274   3.743
 2113SOL    HW2 7239   6.758   1.111   3.739
 2114SOL     OW 7240   1.090   3.850   5.849
 2114SOL    HW1 7241   1.123   3.926   5.905
 2114SOL    HW2 7242   1.130   3.855   5.758
 2115SOL     OW 7243   4.232   4.926   1.695
 2115SOL    HW1 7244   4.304   4.962   1.635
 2115SOL    HW2 7245   4.225   4.827   1.682
 2116SOL     OW 7246   0.480   3.764   4.935
 2116SOL    HW1 7247   0.448   3.846   4.887
 2116SOL    HW2 7248   0.476   3.780   5.033
 2117SOL     OW 7249   5.852   5.408   6.301
 2117SOL    HW1 7250   5.948   5.401   6.326
 2117SOL    HW2 7251   5.799   5.444   6.378
 2118SOL     OW 7252   0.349   3.127   2.069
 2118SOL    HW1 7253   0.388   3.084   1.988
 2118SOL    HW2 7254   0.303   3.212   2.043
 2119SOL     OW 7255   4.109   6.680   0.273
 2119SOL    HW1 7256   4.130   6.590   0.235
 2119SOL    HW2 7257   4.032   6.720   0.223
 2120SOL     OW 7258   6.764   3.807   2.021
 2120SOL    HW1 7259   6.840   3.762   1.975
 2120SOL    HW2 7260   6.680   3.792   1.969
 2121SOL     OW 7261   0.714   3.590   4.295
 2121SOL    HW1 7262   0.710   3.672   4.238
 2121SOL    HW2 7263   0.652   3.600   4.372
 2122SOL     OW 7264   4.006   5.366   5.811
 2122SOL    HW1 7265   3.959   5.396   5.895
 2122SOL    HW2 7266   3.995   5.435   5.740
 2123SOL     OW 7267   4.071   6.228   3.253
 2123SOL    HW1 7268   4.040   6.322   3.263
 2123SOL    HW2 7269   4.098   6.192   3.343
 2124SOL     OW 7270   2.647   2.550   1.814
 2124SOL    HW1 7271   2.730   2.495   1.803
 2124SOL    HW2 7272   2.571   2.504   1.769
 2125SOL     OW 7273   5.121   5.895   6.778
 2125SOL    HW1 7274   5.191   5.936   6.836
 2125SOL    HW2 7275   5.165   5.843   6.705
 2126SOL     OW 7276   2.930   1.732   1.155
 2126SOL    HW1 7277   2.840   1.747   1.197
 2126SOL    HW2 7278   2.979   1.662   1.206
 2127SOL     OW 7279   5.988   2.572   4.846
 2127SOL    HW1 7280   5.966   2.658   4.799
 2127SOL    HW2 7281   6.052   2.519   4.790
 2128SOL     OW 7282   1.147   3.601   4.634
 2128SOL    HW1 7283   1.106   3.535   4.571
 2128SOL    HW2 7284   1.238   3.625   4.602
 2129SOL     OW 7285   4.472   2.600   5.054
 2129SOL    HW1 7286   4.378   2.568   5.045
 2129SOL    HW2 7287   4.520   2.588   4.967
 2130SOL     OW 7288   4.063   6.528   2.677
 2130SOL    HW1 7289   4.058   6.433   2.709
 2130SOL    HW2 7290   4.146   6.571   2.712
 2131SOL     OW 7291   4.721   1.881   6.990
 2131SOL    HW1 7292   4.716   1.956   6.924
 2131SOL    HW2 7293   4.744   1.796   6.943
 2132SOL     OW 7294   0.534   2.405   1.123
 2132SOL    HW1 7295   0.613   2.353   1.155
 2132SOL    HW2 7296   0.546   2.501   1.148
 2133SOL     OW 7297   2.545   4.340   5.999
 2133SOL    HW1 7298   2.573   4.245   6.008
 2133SOL    HW2 7299   2.538   4.382   6.089
 2134SOL     OW 7300   0.012   0.136   0.823
 2134SOL    HW1 7301   6.977   0.067   0.865
 2134SOL    HW2 7302   7.024   0.224   0.869
 2135SOL     OW 7303   5.882   5.240   6.086
 2135SOL    HW1 7304   5.893   5.145   6.114
 2135SOL    HW2 7305   5.843   5.293   6.161
 2136SOL     OW 7306   1.682   4.732   6.375
 2136SOL    HW1 7307   1.738   4.680   6.311
 2136SOL    HW2 7308   1.705   4.707   6.469
 2137SOL     OW 7309   2.011   6.046   3.574
 2137SOL    HW1 7310   2.058   5.990   3.505
 2137SOL    HW2 7311   2.068   6.054   3.655
 2138SOL     OW 7312   5.036   2.149   1.636
 2138SOL    HW1 7313   4.994   2.154   1.545
 2138SOL    HW2 7314   4.997   2.073   1.687
 2139SOL     OW 7315   2.516   6.208   5.205
 2139SOL    HW1 7316   2.469   6.123   5.229
 2139SOL    HW2 7317   2.609   6.187   5.173
 2140SOL     OW 7318   2.098   2.756   3.571
 2140SOL    HW1 7319   2.043   2.717   3.497
 2140SOL    HW2 7320   2.173   2.810   3.533
 2141SOL     OW 7321   6.610   3.545   2.831
 2141SOL    HW1 7322   6.627   3.571   2.736
 2141SOL    HW2 7323   6.607   3.627   2.887
 2142SOL     OW 7324   2.205   1.409   1.855
 2142SOL    HW1 7325   2.140   1.431   1.782
 2142SOL    HW2 7326   2.274   1.482   1.862
 2143SOL     OW 7327   6.708   5.456   5.356
 2143SOL    HW1 7328   6.739   5.410   5.273
 2143SOL    HW2 7329   6.749   5.547   5.361
 2144SOL     OW 7330   5.688   4.540   2.982
 2144SOL    HW1 7331   5.730   4.631   2.986
 2144SOL    HW2 7332   5.759   4.472   2.968
 2145SOL     OW 7333   3.319   1.033   3.078
 2145SOL    HW1 7334   3.345   1.075   2.990
 2145SOL    HW2 7335   3.228   1.065   3.104
 2146SOL     OW 7336   2.140   1.340   7.023
 2146SOL    HW1 7337   2.146   1.413   0.067
 2146SOL    HW2 7338   2.168   1.376   6.934
 2147SOL     OW 7339   5.755   6.628   4.823
 2147SOL    HW1 7340   5.801   6.643   4.910
 2147SOL    HW2 7341   5.824   6.625   4.750
 2148SOL     OW 7342   2.241   2.561   5.273
 2148SOL    HW1 7343   2.306   2.613   5.217
 2148SOL    HW2 7344   2.212   2.618   5.350
 2149SOL     OW 7345   0.310   6.772   6.993
 2149SOL    HW1 7346   0.352   6.691   0.009
 2149SOL    HW2 7347   0.217   6.782   0.003
 2150SOL     OW 7348   1.294   2.570   0.298
 2150SOL    HW1 7349   1.296   2.615   0.208
 2150SOL    HW2 7350   1.385   2.571   0.338
 2151SOL     OW 7351   1.211   5.259   0.380
 2151SOL    HW1 7352   1.222   5.308   0.294
 2151SOL    HW2 7353   1.191   5.324   0.454
 2152SOL     OW 7354   5.386   6.135   3.584
 2152SOL    HW1 7355   5.367   6.233   3.577
 2152SOL    HW2 7356   5.471   6.122   3.636
 2153SOL     OW 7357   4.695   0.499   3.502
 2153SOL    HW1 7358   4.662   0.446   3.580
 2153SOL    HW2 7359   4.630   0.493   3.427
 2154SOL     OW 7360   1.968   6.184   2.059
 2154SOL    HW1 7361   2.067   6.197   2.057
 2154SOL    HW2 7362   1.939   6.161   2.152
 2155SOL     OW 7363   5.448   0.896   0.373
 2155SOL    HW1 7364   5.372   0.960   0.378
 2155SOL    HW2 7365   5.470   0.878   0.277
 2156SOL     OW 7366   6.320   1.467   4.409
 2156SOL    HW1 7367   6.305   1.564   4.426
 2156SOL    HW2 7368   6.244   1.414   4.446
 2157SOL     OW 7369   4.460   6.335   3.136
 2157SOL    HW1 7370   4.392   6.390   3.184
 2157SOL    HW2 7371   4.538   6.319   3.197
 2158SOL     OW 7372   3.375   0.398   0.038
 2158SOL    HW1 7373   3.376   0.327   6.992
 2158SOL    HW2 7374   3.441   0.374   0.110
 2159SOL     OW 7375   1.206   2.314   5.739
 2159SOL    HW1 7376   1.305   2.328   5.744
 2159SOL    HW2 7377   1.170   2.303   5.831
 2160SOL     OW 7378   5.748   6.591   6.545
 2160SOL    HW1 7379   5.785   6.681   6.519
 2160SOL    HW2 7380   5.675   6.566   6.482
 2161SOL     OW 7381   1.534   3.821   6.876
 2161SOL    HW1 7382   1.443   3.857   6.895
 2161SOL    HW2 7383   1.529   3.722   6.863
 2162SOL     OW 7384   1.380   6.789   0.317
 2162SOL    HW1 7385   1.307   6.749   0.260
 2162SOL    HW2 7386   1.421   6.717   0.373
 2163SOL     OW 7387   0.904   3.234   4.413
 2163SOL    HW1 7388   0.929   3.328   4.438
 2163SOL    HW2 7389   0.962   3.170   4.464
 2164SOL     OW 7390   1.651   4.475   1.882
 2164SOL    HW1 7391   1.696   4.560   1.910
 2164SOL    HW2 7392   1.698   4.438   1.802
 2165SOL     OW 7393   5.900   1.533   5.851
 2165SOL    HW1 7394   5.871   1.618   5.807
 2165SOL    HW2 7395   5.984   1.550   5.902
 2166SOL     OW 7396   6.363   2.227   2.529
 2166SOL    HW1 7397   6.377   2.202   2.625
 2166SOL    HW2 7398   6.379   2.325   2.516
 2167SOL     OW 7399   1.663   2.587   2.794
 2167SOL    HW1 7400   1.651   2.627   2.703
 2167SOL    HW2 7401   1.583   2.607   2.850
 2168SOL     OW 7402   1.741   2.123   4.021
 2168SOL    HW1 7403   1.705   2.110   3.928
 2168SOL    HW2 7404   1.665   2.125   4.086
 2169SOL     OW 7405   6.691   6.998   0.631
 2169SOL    HW1 7406   6.784   7.001   0.595
 2169SOL    HW2 7407   6.668   6.904   0.658
 2170SOL     OW 7408   1.798   2.963   6.070
 2170SOL    HW1 7409   1.828   2.973   5.974
 2170SOL    HW2 7410   1.878   2.946   6.127
 2171SOL     OW 7411   5.745   6.802   1.568
 2171SOL    HW1 7412   5.715   6.792   1.473
 2171SOL    HW2 7413   5.666   6.793   1.628
 2172SOL     OW 7414   2.434   2.604   4.832
 2172SOL    HW1 7415   2.482   2.534   4.779
 2172SOL    HW2 7416   2.472   2.607   4.925
 2173SOL     OW 7417   4.332   0.916   4.805
 2173SOL    HW1 7418   4.245   0.957   4.832
 2173SOL    HW2 7419   4.390   0.985   4.763
 2174SOL     OW 7420   5.180   6.711   5.568
 2174SOL    HW1 7421   5.122   6.637   5.602
 2174SOL    HW2 7422   5.124   6.790   5.545
 2175SOL     OW 7423   2.947   2.881   5.736
 2175SOL    HW1 7424   2.911   2.910   5.824
 2175SOL    HW2 7425   2.872   2.847   5.679
 2176SOL     OW 7426   6.632   1.141   2.783
 2176SOL    HW1 7427   6.610   1.072   2.852
 2176SOL    HW2 7428   6.670   1.096   2.702
 2177SOL     OW 7429   0.992   0.835   4.518
 2177SOL    HW1 7430   1.083   0.875   4.531
 2177SOL    HW2 7431   0.938   0.847   4.601
 2178SOL     OW 7432   2.163   3.738   2.107
 2178SOL    HW1 7433   2.163   3.641   2.080
 2178SOL    HW2 7434   2.167   3.744   2.207
 2179SOL     OW 7435   1.414   4.292   6.620
 2179SOL    HW1 7436   1.471   4.331   6.547
 2179SOL    HW2 7437   1.427   4.345   6.703
 2180SOL     OW 7438   0.033   4.835   2.113
 2180SOL    HW1 7439   0.052   4.874   2.023
 2180SOL    HW2 7440   6.963   4.857   2.139
 2181SOL     OW 7441   4.507   5.035   2.741
 2181SOL    HW1 7442   4.508   4.946   2.786
 2181SOL    HW2 7443   4.577   5.094   2.782
 2182SOL     OW 7444   0.526   6.702   1.108
 2182SOL    HW1 7445   0.484   6.766   1.171
 2182SOL    HW2 7446   0.471   6.618   1.103
 2183SOL     OW 7447   4.179   2.522   6.472
 2183SOL    HW1 7448   4.152   2.572   6.554
 2183SOL    HW2 7449   4.178   2.424   6.492
 2184SOL     OW 7450   6.389   2.807   6.957
 2184SOL    HW1 7451   6.438   2.881   6.912
 2184SOL    HW2 7452   6.454   2.734   6.982
 2185SOL     OW 7453   7.023   1.813   6.478
 2185SOL    HW1 7454   7.018   1.854   6.569
 2185SOL    HW2 7455   6.967   1.866   6.415
 2186SOL     OW 7456   6.657   6.252   5.962
 2186SOL    HW1 7457   6.708   6.166   5.964
 2186SOL    HW2 7458   6.698   6.316   6.027
 2187SOL     OW 7459   5.624   3.496   1.671
 2187SOL    HW1 7460   5.620   3.409   1.622
 2187SOL    HW2 7461   5.714   3.506   1.713
 2188SOL     OW 7462   2.655   2.121   0.607
 2188SOL    HW1 7463   2.558   2.096   0.614
 2188SOL    HW2 7464   2.692   2.135   0.699
 2189SOL     OW 7465   2.291   0.349   2.566
 2189SOL    HW1 7466   2.279   0.266   2.620
 2189SOL    HW2 7467   2.380   0.390   2.589
 2190SOL     OW 7468   6.744   4.737   1.376
 2190SOL    HW1 7469   6.730   4.682   1.458
 2190SOL    HW2 7470   6.779   4.679   1.302
 2191SOL     OW 7471   3.347   0.409   6.356
 2191SOL    HW1 7472   3.261   0.363   6.334
 2191SOL    HW2 7473   3.415   0.390   6.285
 2192SOL     OW 7474   5.194   1.805   1.838
 2192SOL    HW1 7475   5.274   1.767   1.793
 2192SOL    HW2 7476   5.219   1.887   1.889
 2193SOL     OW 7477   1.760   0.395   5.799
 2193SOL    HW1 7478   1.742   0.394   5.700
 2193SOL    HW2 7479   1.858   0.388   5.815
 2194SOL     OW 7480   0.578   4.521   5.505
 2194SOL    HW1 7481   0.651   4.512   5.437
 2194SOL    HW2 7482   0.617   4.518   5.597
 2195SOL     OW 7483   0.442   4.284   5.374
 2195SOL    HW1 7484   0.539   4.267   5.353
 2195SOL    HW2 7485   0.435   4.365   5.432
 2196SOL     OW 7486   3.622   1.527   6.710
 2196SOL    HW1 7487   3.568   1.596   6.758
 2196SOL    HW2 7488   3.563   1.477   6.646
 2197SOL     OW 7489   3.929   5.010   6.748
 2197SOL    HW1 7490   4.010   4.952   6.758
 2197SOL    HW2 7491   3.851   4.954   6.721
 2198SOL     OW 7492   1.334   1.046   5.896
 2198SOL    HW1 7493   1.421   1.007   5.866
 2198SOL    HW2 7494   1.284   0.977   5.949
 2199SOL     OW 7495   4.742   6.810   3.497
 2199SOL    HW1 7496   4.828   6.841   3.456
 2199SOL    HW2 7497   4.743   6.828   3.595
 2200SOL     OW 7498   2.753   1.850   5.126
 2200SOL    HW1 7499   2.851   1.849   5.147
 2200SOL    HW2 7500   2.739   1.834   5.029
 2201SOL     OW 7501   6.187   3.087   4.217
 2201SOL    HW1 7502   6.160   3.046   4.130
 2201SOL    HW2 7503   6.181   3.186   4.211
 2202SOL     OW 7504   5.098   0.001   4.452
 2202SOL    HW1 7505   5.192   0.019   4.424
 2202SOL    HW2 7506   5.080   6.927   4.447
 2203SOL     OW 7507   2.120   6.320   0.757
 2203SOL    HW1 7508   2.079   6.235   0.722
 2203SOL    HW2 7509   2.051   6.392   0.760
 2204SOL     OW 7510   4.837   3.733   0.229
 2204SOL    HW1 7511   4.866   3.815   0.278
 2204SOL    HW2 7512   4.815   3.661   0.296
 2205SOL     OW 7513   4.707   4.900   1.298
 2205SOL    HW1 7514   4.792   4.951   1.300
 2205SOL    HW2 7515   4.661   4.914   1.210
 2206SOL     OW 7516   2.858   3.476   5.064
 2206SOL    HW1 7517   2.770   3.515   5.037
 2206SOL    HW2 7518   2.865   3.382   5.031
 2207SOL     OW 7519   4.724   4.616   1.202
 2207SOL    HW1 7520   4.735   4.709   1.239
 2207SOL    HW2 7521   4.781   4.606   1.121
 2208SOL     OW 7522   6.546   5.893   3.225
 2208SOL    HW1 7523   6.640   5.927   3.216
 2208SOL    HW2 7524   6.516   5.856   3.137
 2209SOL     OW 7525   2.178   5.835   3.999
 2209SOL    HW1 7526   2.103   5.867   3.941
 2209SOL    HW2 7527   2.157   5.743   4.033
 2210SOL     OW 7528   5.263   6.382   1.963
 2210SOL    HW1 7529   5.249   6.283   1.951
 2210SOL    HW2 7530   5.347   6.397   2.016
 2211SOL     OW 7531   1.805   0.930   0.989
 2211SOL    HW1 7532   1.744   0.997   1.031
 2211SOL    HW2 7533   1.849   0.970   0.909
 2212SOL     OW 7534   2.669   6.705   6.275
 2212SOL    HW1 7535   2.651   6.646   6.353
 2212SOL    HW2 7536   2.634   6.662   6.192
 2213SOL     OW 7537   3.438   1.980   4.318
 2213SOL    HW1 7538   3.463   2.025   4.404
 2213SOL    HW2 7539   3.420   2.049   4.248
 2214SOL     OW 7540   3.734   4.941   0.025
 2214SOL    HW1 7541   3.826   4.940   0.064
 2214SOL    HW2 7542   3.676   5.002   0.079
 2215SOL     OW 7543   0.218   5.261   0.337
 2215SOL    HW1 7544   0.280   5.183   0.332
 2215SOL    HW2 7545   0.229   5.307   0.425
 2216SOL     OW 7546   0.058   6.103   0.352
 2216SOL    HW1 7547   0.017   6.015   0.375
 2216SOL    HW2 7548   0.113   6.135   0.430
 2217SOL     OW 7549   4.227   1.442   3.662
 2217SOL    HW1 7550   4.246   1.407   3.571
 2217SOL    HW2 7551   4.243   1.541   3.664
 2218SOL     OW 7552   5.924   5.168   6.480
 2218SOL    HW1 7553   5.937   5.137   6.385
 2218SOL    HW2 7554   5.994   5.236   6.502
 2219SOL     OW 7555   5.454   2.483   0.905
 2219SOL    HW1 7556   5.492   2.571   0.876
 2219SOL    HW2 7557   5.382   2.455   0.843
 2220SOL     OW 7558   6.544   7.007   4.663
 2220SOL    HW1 7559   6.520   6.913   4.638
 2220SOL    HW2 7560   6.460   0.037   4.670
 2221SOL     OW 7561   5.144   0.385   3.353
 2221SOL    HW1 7562   5.171   0.481   3.341
 2221SOL    HW2 7563   5.206   0.326   3.303
 2222SOL     OW 7564   3.866   0.544   4.476
 2222SOL    HW1 7565   3.964   0.523   4.473
 2222SOL    HW2 7566   3.827   0.513   4.562
 2223SOL     OW 7567   0.626   0.101   5.717
 2223SOL    HW1 7568   0.678   0.019   5.741
 2223SOL    HW2 7569   0.656   0.178   5.774
 2224SOL     OW 7570   4.805   4.981   6.242
 2224SOL    HW1 7571   4.718   5.028   6.257
 2224SOL    HW2 7572   4.792   4.883   6.259
 2225SOL     OW 7573   6.595   1.004   0.614
 2225SOL    HW1 7574   6.538   1.009   0.696
 2225SOL    HW2 7575   6.609   0.908   0.589
 2226SOL     OW 7576   2.731   3.390   6.441
 2226SOL    HW1 7577   2.702   3.391   6.345
 2226SOL    HW2 7578   2.746   3.296   6.471
 2227SOL     OW 7579   4.364   1.922   1.642
 2227SOL    HW1 7580   4.340   2.005   1.593
 2227SOL    HW2 7581   4.318   1.843   1.601
 2228SOL     OW 7582   4.978   6.593   6.821
 2228SOL    HW1 7583   5.033   6.659   6.872
 2228SOL    HW2 7584   4.883   6.621   6.821
 2229SOL     OW 7585   3.824   2.976   4.477
 2229SOL    HW1 7586   3.856   2.997   4.569
 2229SOL    HW2 7587   3.882   3.022   4.410
 2230SOL     OW 7588   0.315   2.004   6.748
 2230SOL    HW1 7589   0.362   1.926   6.706
 2230SOL    HW2 7590   0.374   2.047   6.815
 2231SOL     OW 7591   1.089   6.989   5.592
 2231SOL    HW1 7592   1.124   6.966   5.501
 2231SOL    HW2 7593   1.043   0.053   5.589
 2232SOL     OW 7594   1.147   0.778   0.230
 2232SOL    HW1 7595   1.067   0.738   0.183
 2232SOL    HW2 7596   1.205   0.704   0.264
 2233SOL     OW 7597   3.329   5.198   0.699
 2233SOL    HW1 7598   3.276   5.237   0.774
 2233SOL    HW2 7599   3.301   5.103   0.685
 2234SOL     OW 7600   5.412   1.976   2.158
 2234SOL    HW1 7601   5.340   2.008   2.096
 2234SOL    HW2 7602   5.418   2.037   2.237
 2235SOL     OW 7603   1.488   1.836   4.204
 2235SOL    HW1 7604   1.579   1.875   4.218
 2235SOL    HW2 7605   1.458   1.855   4.110
 2236SOL     OW 7606   2.842   5.034   4.949
 2236SOL    HW1 7607   2.897   4.956   4.919
 2236SOL    HW2 7608   2.890   5.119   4.925
 2237SOL     OW 7609   6.096   6.881   6.715
 2237SOL    HW1 7610   6.095   6.782   6.701
 2237SOL    HW2 7611   6.155   6.903   6.793
 2238SOL     OW 7612   4.847   3.894   1.520
 2238SOL    HW1 7613   4.810   3.834   1.449
 2238SOL    HW2 7614   4.782   3.967   1.539
 2239SOL     OW 7615   3.191   0.299   2.775
 2239SOL    HW1 7616   3.258   0.234   2.812
 2239SOL    HW2 7617   3.099   0.261   2.786
 2240SOL     OW 7618   4.611   5.309   3.151
 2240SOL    HW1 7619   4.614   5.397   3.199
 2240SOL    HW2 7620   4.691   5.301   3.091
 2241SOL     OW 7621   1.498   2.118   3.687
 2241SOL    HW1 7622   1.438   2.056   3.635
 2241SOL    HW2 7623   1.586   2.074   3.701
 2242SOL     OW 7624   5.228   2.286   4.237
 2242SOL    HW1 7625   5.268   2.267   4.327
 2242SOL    HW2 7626   5.230   2.203   4.181
 2243SOL     OW 7627   2.558   0.287   6.501
 2243SOL    HW1 7628   2.471   0.336   6.511
 2243SOL    HW2 7629   2.597   0.270   6.592
 2244SOL     OW 7630   2.356   1.868   1.263
 2244SOL    HW1 7631   2.450   1.877   1.230
 2244SOL    HW2 7632   2.314   1.958   1.270
 2245SOL     OW 7633   6.858   1.295   6.844
 2245SOL    HW1 7634   6.871   1.252   6.933
 2245SOL    HW2 7635   6.945   1.332   6.811
 2246SOL     OW 7636   5.546   0.527   5.946
 2246SOL    HW1 7637   5.614   0.459   5.971
 2246SOL    HW2 7638   5.468   0.521   6.009
 2247SOL     OW 7639   3.780   3.157   1.822
 2247SOL    HW1 7640   3.774   3.162   1.722
 2247SOL    HW2 7641   3.818   3.069   1.849
 2248SOL     OW 7642   4.909   2.919   4.050
 2248SOL    HW1 7643   4.938   2.888   3.959
 2248SOL    HW2 7644   4.984   2.904   4.115
 2249SOL     OW 7645   2.520   6.184   3.757
 2249SOL    HW1 7646   2.533   6.260   3.820
 2249SOL    HW2 7647   2.423   6.176   3.733
 2250SOL     OW 7648   4.143   5.713   6.120
 2250SOL    HW1 7649   4.162   5.616   6.136
 2250SOL    HW2 7650   4.046   5.730   6.134
 2251SOL     OW 7651   3.596   6.678   4.905
 2251SOL    HW1 7652   3.675   6.736   4.890
 2251SOL    HW2 7653   3.574   6.675   5.002
 2252SOL     OW 7654   3.519   1.749   2.675
 2252SOL    HW1 7655   3.451   1.678   2.659
 2252SOL    HW2 7656   3.609   1.715   2.651
 2253SOL     OW 7657   1.165   2.355   1.866
 2253SOL    HW1 7658   1.188   2.257   1.861
 2253SOL    HW2 7659   1.071   2.365   1.899
 2254SOL     OW 7660   3.599   2.823   2.561
 2254SOL    HW1 7661   3.561   2.871   2.482
 2254SOL    HW2 7662   3.695   2.849   2.573
 2255SOL     OW 7663   1.966   1.767   5.887
 2255SOL    HW1 7664   1.914   1.837   5.839
 2255SOL    HW2 7665   2.004   1.703   5.820
 2256SOL     OW 7666   4.921   6.900   0.766
 2256SOL    HW1 7667   4.863   6.839   0.713
 2256SOL    HW2 7668   4.883   6.993   0.763
 2257SOL     OW 7669   0.359   1.344   6.479
 2257SOL    HW1 7670   0.320   1.436   6.482
 2257SOL    HW2 7671   0.419   1.335   6.401
 2258SOL     OW 7672   1.728   0.677   3.730
 2258SOL    HW1 7673   1.745   0.673   3.829
 2258SOL    HW2 7674   1.802   0.728   3.686
 2259SOL     OW 7675   6.348   6.628   5.095
 2259SOL    HW1 7676   6.430   6.661   5.141
 2259SOL    HW2 7677   6.300   6.563   5.154
 2260SOL     OW 7678   1.110   3.132   1.140
 2260SOL    HW1 7679   1.076   3.055   1.086
 2260SOL    HW2 7680   1.175   3.185   1.086
 2261SOL     OW 7681   4.149   4.866   6.653
 2261SOL    HW1 7682   4.098   4.818   6.581
 2261SOL    HW2 7683   4.247   4.852   6.640
 2262SOL     OW 7684   6.867   0.649   3.636
 2262SOL    HW1 7685   6.808   0.705   3.577
 2262SOL    HW2 7686   6.830   0.649   3.729
 2263SOL     OW 7687   2.770   4.018   0.008
 2263SOL    HW1 7688   2.696   3.969   0.054
 2263SOL    HW2 7689   2.827   4.064   0.076
 2264SOL     OW 7690   1.846   0.529   6.752
 2264SOL    HW1 7691   1.834   0.625   6.778
 2264SOL    HW2 7692   1.910   0.485   6.815
 2265SOL     OW 7693   0.303   6.571   3.702
 2265SOL    HW1 7694   0.258   6.659   3.715
 2265SOL    HW2 7695   0.388   6.584   3.651
 2266SOL     OW 7696   4.083   4.010   6.454
 2266SOL    HW1 7697   4.092   4.094   6.509
 2266SOL    HW2 7698   3.989   4.000   6.424
 2267SOL     OW 7699   5.775   2.731   5.179
 2267SOL    HW1 7700   5.706   2.738   5.106
 2267SOL    HW2 7701   5.865   2.719   5.138
 2268SOL     OW 7702   1.011   6.123   4.393
 2268SOL    HW1 7703   0.950   6.202   4.386
 2268SOL    HW2 7704   0.962   6.040   4.366
 2269SOL     OW 7705   1.580   2.338   5.472
 2269SOL    HW1 7706   1.592   2.340   5.373
 2269SOL    HW2 7707   1.488   2.307   5.494
 2270SOL     OW 7708   3.981   1.775   6.463
 2270SOL    HW1 7709   3.933   1.777   6.375
 2270SOL    HW2 7710   3.931   1.829   6.530
 2271SOL     OW 7711   3.788   5.831   5.267
 2271SOL    HW1 7712   3.869   5.793   5.224
 2271SOL    HW2 7713   3.706   5.786   5.231
 2272SOL     OW 7714   5.935   0.968   5.914
 2272SOL    HW1 7715   5.887   0.886   5.946
 2272SOL    HW2 7716   5.889   1.049   5.948
 2273SOL     OW 7717   1.812   1.981   4.575
 2273SOL    HW1 7718   1.892   1.927   4.601
 2273SOL    HW2 7719   1.760   2.005   4.657
 2274SOL     OW 7720   1.502   0.874   0.373
 2274SOL    HW1 7721   1.561   0.884   0.453
 2274SOL    HW2 7722   1.477   0.964   0.338
 2275SOL     OW 7723   5.240   3.167   3.064
 2275SOL    HW1 7724   5.176   3.212   3.001
 2275SOL    HW2 7725   5.321   3.137   3.013
 2276SOL     OW 7726   1.725   1.370   1.748
 2276SOL    HW1 7727   1.672   1.291   1.717
 2276SOL    HW2 7728   1.705   1.449   1.690
 2277SOL     OW 7729   4.135   3.504   3.613
 2277SOL    HW1 7730   4.171   3.577   3.555
 2277SOL    HW2 7731   4.074   3.543   3.682
 2278SOL     OW 7732   6.238   3.608   4.049
 2278SOL    HW1 7733   6.287   3.522   4.051
 2278SOL    HW2 7734   6.294   3.680   4.090
 2279SOL     OW 7735   0.605   5.741   5.571
 2279SOL    HW1 7736   0.545   5.721   5.493
 2279SOL    HW2 7737   0.699   5.751   5.538
 2280SOL     OW 7738   5.285   2.969   5.270
 2280SOL    HW1 7739   5.191   2.961   5.303
 2280SOL    HW2 7740   5.285   3.012   5.180
 2281SOL     OW 7741   5.155   6.827   2.250
 2281SOL    HW1 7742   5.110   6.791   2.331
 2281SOL    HW2 7743   5.248   6.790   2.243
 2282SOL     OW 7744   3.611   5.195   5.706
 2282SOL    HW1 7745   3.621   5.295   5.701
 2282SOL    HW2 7746   3.622   5.165   5.800
 2283SOL     OW 7747   6.904   0.864   4.884
 2283SOL    HW1 7748   6.979   0.848   4.820
 2283SOL    HW2 7749   6.936   0.852   4.978
 2284SOL     OW 7750   1.660   4.341   5.826
 2284SOL    HW1 7751   1.628   4.334   5.921
 2284SOL    HW2 7752   1.735   4.277   5.812
 2285SOL     OW 7753   1.803   5.190   0.277
 2285SOL    HW1 7754   1.727   5.139   0.236
 2285SOL    HW2 7755   1.871   5.210   0.206
 2286SOL     OW 7756   4.813   4.766   2.342
 2286SOL    HW1 7757   4.819   4.770   2.242
 2286SOL    HW2 7758   4.877   4.697   2.376
 2287SOL     OW 7759   2.423   1.254   3.821
 2287SOL    HW1 7760   2.366   1.311   3.762
 2287SOL    HW2 7761   2.502   1.305   3.852
 2288SOL     OW 7762   6.496   4.618   3.031
 2288SOL    HW1 7763   6.512   4.535   2.978
 2288SOL    HW2 7764   6.583   4.657   3.060
 2289SOL     OW 7765   0.326   4.420   0.269
 2289SOL    HW1 7766   0.331   4.346   0.202
 2289SOL    HW2 7767   0.402   4.411   0.334
 2290SOL     OW 7768   0.737   5.422   0.075
 2290SOL    HW1 7769   0.793   5.339   0.076
 2290SOL    HW2 7770   0.695   5.435   0.165
 2291SOL     OW 7771   1.805   1.318   0.270
 2291SOL    HW1 7772   1.862   1.397   0.247
 2291SOL    HW2 7773   1.768   1.278   0.186
 2292SOL     OW 7774   2.074   0.906   4.753
 2292SOL    HW1 7775   2.126   0.989   4.772
 2292SOL    HW2 7776   2.036   0.869   4.838
 2293SOL     OW 7777   5.094   4.118   3.336
 2293SOL    HW1 7778   5.156   4.152   3.266
 2293SOL    HW2 7779   5.116   4.023   3.357
 2294SOL     OW 7780   4.147   0.190   6.578
 2294SOL    HW1 7781   4.133   0.091   6.572
 2294SOL    HW2 7782   4.061   0.235   6.602
 2295SOL     OW 7783   0.753   0.926   1.819
 2295SOL    HW1 7784   0.790   0.981   1.744
 2295SOL    HW2 7785   0.694   0.855   1.783
 2296SOL     OW 7786   3.181   6.710   6.488
 2296SOL    HW1 7787   3.094   6.756   6.504
 2296SOL    HW2 7788   3.168   6.611   6.491
 2297SOL     OW 7789   3.928   5.909   6.358
 2297SOL    HW1 7790   3.943   5.953   6.270
 2297SOL    HW2 7791   3.835   5.927   6.389
 2298SOL     OW 7792   4.865   2.584   6.455
 2298SOL    HW1 7793   4.831   2.564   6.547
 2298SOL    HW2 7794   4.945   2.526   6.436
 2299SOL     OW 7795   5.267   0.133   1.464
 2299SOL    HW1 7796   5.324   0.124   1.546
 2299SOL    HW2 7797   5.197   0.062   1.463
 2300SOL     OW 7798   0.798   4.025   1.223
 2300SOL    HW1 7799   0.765   3.977   1.142
 2300SOL    HW2 7800   0.727   4.025   1.293
 2301SOL     OW 7801   3.682   2.669   1.210
 2301SOL    HW1 7802   3.727   2.662   1.299
 2301SOL    HW2 7803   3.596   2.718   1.220
 2302SOL     OW 7804   3.581   5.476   3.013
 2302SOL    HW1 7805   3.569   5.407   3.085
 2302SOL    HW2 7806   3.609   5.431   2.928
 2303SOL     OW 7807   0.804   3.485   5.666
 2303SOL    HW1 7808   0.777   3.487   5.570
 2303SOL    HW2 7809   0.896   3.522   5.677
 2304SOL     OW 7810   2.238   1.058   4.374
 2304SOL    HW1 7811   2.233   1.033   4.278
 2304SOL    HW2 7812   2.153   1.032   4.420
 2305SOL     OW 7813   4.454   4.783   1.838
 2305SOL    HW1 7814   4.553   4.769   1.843
 2305SOL    HW2 7815   4.432   4.839   1.759
 2306SOL     OW 7816   0.134   4.873   0.558
 2306SOL    HW1 7817   0.118   4.875   0.656
 2306SOL    HW2 7818   0.068   4.812   0.514
 2307SOL     OW 7819   0.282   1.225   3.245
 2307SOL    HW1 7820   0.228   1.287   3.300
 2307SOL    HW2 7821   0.313   1.148   3.301
 2308SOL     OW 7822   0.630   0.616   0.166
 2308SOL    HW1 7823   0.670   0.588   0.253
 2308SOL    HW2 7824   0.544   0.664   0.182
 2309SOL     OW 7825   1.849   5.053   6.040
 2309SOL    HW1 7826   1.874   4.992   6.115
 2309SOL    HW2 7827   1.750   5.050   6.026
 2310SOL     OW 7828   5.758   1.293   3.561
 2310SOL    HW1 7829   5.667   1.328   3.581
 2310SOL    HW2 7830   5.779   1.307   3.464
 2311SOL     OW 7831   2.844   6.412   2.653
 2311SOL    HW1 7832   2.784   6.433   2.730
 2311SOL    HW2 7833   2.884   6.321   2.665
 2312SOL     OW 7834   2.676   0.068   1.954
 2312SOL    HW1 7835   2.774   0.077   1.937
 2312SOL    HW2 7836   2.629   0.050   1.869
 2313SOL     OW 7837   4.760   4.830   1.558
 2313SOL    HW1 7838   4.848   4.863   1.594
 2313SOL    HW2 7839   4.751   4.859   1.463
 2314SOL     OW 7840   0.515   6.430   2.948
 2314SOL    HW1 7841   0.512   6.330   2.947
 2314SOL    HW2 7842   0.447   6.465   3.013
 2315SOL     OW 7843   5.340   6.848   5.150
 2315SOL    HW1 7844   5.341   6.770   5.213
 2315SOL    HW2 7845   5.245   6.877   5.136
 2316SOL     OW 7846   3.891   2.524   6.662
 2316SOL    HW1 7847   3.830   2.537   6.740
 2316SOL    HW2 7848   3.842   2.546   6.577
 2317SOL     OW 7849   0.115   4.934   1.837
 2317SOL    HW1 7850   0.119   4.856   1.775
 2317SOL    HW2 7851   0.206   4.975   1.844
 2318SOL     OW 7852   1.249   5.058   3.834
 2318SOL    HW1 7853   1.347   5.045   3.852
 2318SOL    HW2 7854   1.196   5.014   3.907
 2319SOL     OW 7855   2.850   4.863   2.900
 2319SOL    HW1 7856   2.928   4.884   2.841
 2319SOL    HW2 7857   2.780   4.934   2.890
 2320SOL     OW 7858   1.863   2.126   5.091
 2320SOL    HW1 7859   1.842   2.153   4.997
 2320SOL    HW2 7860   1.778   2.123   5.144
 2321SOL     OW 7861   1.879   5.469   5.228
 2321SOL    HW1 7862   1.925   5.529   5.294
 2321SOL    HW2 7863   1.936   5.460   5.146
 2322SOL     OW 7864   1.827   3.259   1.904
 2322SOL    HW1 7865   1.760   3.211   1.961
 2322SOL    HW2 7866   1.895   3.193   1.872
 2323SOL     OW 7867   1.979   5.902   6.284
 2323SOL    HW1 7868   1.997   5.858   6.372
 2323SOL    HW2 7869   2.043   5.869   6.216
 2324SOL     OW 7870   6.537   4.595   2.381
 2324SOL    HW1 7871   6.599   4.586   2.303
 2324SOL    HW2 7872   6.466   4.662   2.360
 2325SOL     OW 7873   6.345   3.533   2.649
 2325SOL    HW1 7874   6.336   3.591   2.730
 2325SOL    HW2 7875   6.389   3.446   2.675
 2326SOL     OW 7876   2.118   0.160   0.140
 2326SOL    HW1 7877   2.112   0.123   0.047
 2326SOL    HW2 7878   2.074   0.250   0.142
 2327SOL     OW 7879   6.422   6.101   2.226
 2327SOL    HW1 7880   6.497   6.040   2.200
 2327SOL    HW2 7881   6.352   6.101   2.155
 2328SOL     OW 7882   1.680   3.975   2.500
 2328SOL    HW1 7883   1.691   4.070   2.469
 2328SOL    HW2 7884   1.757   3.920   2.466
 2329SOL     OW 7885   1.153   4.634   2.175
 2329SOL    HW1 7886   1.115   4.665   2.088
 2329SOL    HW2 7887   1.237   4.684   2.195
 2330SOL     OW 7888   5.873   3.542   2.039
 2330SOL    HW1 7889   5.795   3.600   2.061
 2330SOL    HW2 7890   5.957   3.596   2.041
 2331SOL     OW 7891   4.947   5.322   1.435
 2331SOL    HW1 7892   4.887   5.401   1.421
 2331SOL    HW2 7893   4.921   5.274   1.519
 2332SOL     OW 7894   5.979   0.121   6.261
 2332SOL    HW1 7895   5.926   0.065   6.197
 2332SOL    HW2 7896   5.927   0.133   6.346
 2333SOL     OW 7897   1.326   4.555   2.634
 2333SOL    HW1 7898   1.272   4.491   2.580
 2333SOL    HW2 7899   1.396   4.596   2.576
 2334SOL     OW 7900   3.567   1.311   5.649
 2334SOL    HW1 7901   3.523   1.247   5.586
 2334SOL    HW2 7902   3.498   1.346   5.713
 2335SOL     OW 7903   6.049   6.976   3.624
 2335SOL    HW1 7904   5.971   6.999   3.682
 2335SOL    HW2 7905   6.130   6.962   3.682
 2336SOL     OW 7906   2.110   2.083   2.581
 2336SOL    HW1 7907   2.031   2.114   2.528
 2336SOL    HW2 7908   2.193   2.122   2.542
 2337SOL     OW 7909   4.315   1.168   2.504
 2337SOL    HW1 7910   4.285   1.087   2.453
 2337SOL    HW2 7911   4.292   1.251   2.453
 2338SOL     OW 7912   6.734   3.827   3.881
 2338SOL    HW1 7913   6.651   3.866   3.920
 2338SOL    HW2 7914   6.728   3.828   3.781
 2339SOL     OW 7915   3.013   3.266   2.376
 2339SOL    HW1 7916   3.010   3.168   2.397
 2339SOL    HW2 7917   3.104   3.302   2.398
 2340SOL     OW 7918   1.956   4.062   6.376
 2340SOL    HW1 7919   2.048   4.100   6.366
 2340SOL    HW2 7920   1.947   4.019   6.465
 2341SOL     OW 7921   3.171   5.233   4.214
 2341SOL    HW1 7922   3.168   5.139   4.247
 2341SOL    HW2 7923   3.264   5.256   4.186
 2342SOL     OW 7924   3.558   1.808   4.488
 2342SOL    HW1 7925   3.584   1.717   4.457
 2342SOL    HW2 7926   3.521   1.860   4.411
 2343SOL     OW 7927   6.898   6.926   0.971
 2343SOL    HW1 7928   6.821   6.963   1.023
 2343SOL    HW2 7929   6.983   6.948   1.018
 2344SOL     OW 7930   6.193   4.627   6.804
 2344SOL    HW1 7931   6.205   4.567   6.726
 2344SOL    HW2 7932   6.191   4.722   6.773
 2345SOL     OW 7933   4.247   6.541   3.697
 2345SOL    HW1 7934   4.182   6.567   3.626
 2345SOL    HW2 7935   4.311   6.616   3.712
 2346SOL     OW 7936   4.781   3.524   0.407
 2346SOL    HW1 7937   4.786   3.524   0.507
 2346SOL    HW2 7938   4.685   3.524   0.378
 2347SOL     OW 7939   1.673   1.293   1.287
 2347SOL    HW1 7940   1.636   1.211   1.242
 2347SOL    HW2 7941   1.771   1.280   1.304
 2348SOL     OW 7942   0.303   5.885   2.679
 2348SOL    HW1 7943   0.336   5.792   2.662
 2348SOL    HW2 7944   0.233   5.883   2.750
 2349SOL     OW 7945   0.857   5.007   4.658
 2349SOL    HW1 7946   0.890   5.089   4.705
 2349SOL    HW2 7947   0.768   4.981   4.695
 2350SOL     OW 7948   5.581   3.936   0.469
 2350SOL    HW1 7949   5.528   4.020   0.462
 2350SOL    HW2 7950   5.665   3.953   0.521
 2351SOL     OW 7951   2.447   6.241   1.439
 2351SOL    HW1 7952   2.455   6.168   1.371
 2351SOL    HW2 7953   2.355   6.281   1.435
 2352SOL     OW 7954   6.910   2.097   3.061
 2352SOL    HW1 7955   6.915   2.149   3.147
 2352SOL    HW2 7956   6.852   2.145   2.996
 2353SOL     OW 7957   3.208   5.707   4.101
 2353SOL    HW1 7958   3.205   5.645   4.179
 2353SOL    HW2 7959   3.300   5.745   4.093
 2354SOL     OW 7960   2.896   2.242   4.265
 2354SOL    HW1 7961   2.832   2.216   4.338
 2354SOL    HW2 7962   2.988   2.253   4.304
 2355SOL     OW 7963   2.019   5.368   4.577
 2355SOL    HW1 7964   1.953   5.350   4.651
 2355SOL    HW2 7965   2.067   5.453   4.595
 2356SOL     OW 7966   0.062   2.366   6.830
 2356SOL    HW1 7967   0.082   2.447   6.884
 2356SOL    HW2 7968   6.992   2.337   6.845
 2357SOL     OW 7969   2.158   6.690   3.081
 2357SOL    HW1 7970   2.117   6.609   3.123
 2357SOL    HW2 7971   2.221   6.733   3.145
 2358SOL     OW 7972   4.509   5.539   6.157
 2358SOL    HW1 7973   4.480   5.609   6.222
 2358SOL    HW2 7974   4.459   5.455   6.175
 2359SOL     OW 7975   1.541   0.205   5.342
 2359SOL    HW1 7976   1.490   0.203   5.256
 2359SOL    HW2 7977   1.635   0.234   5.324
 2360SOL     OW 7978   6.863   3.647   6.925
 2360SOL    HW1 7979   6.777   3.615   6.966
 2360SOL    HW2 7980   6.939   3.617   6.983
 2361SOL     OW 7981   3.313   1.212   0.365
 2361SOL    HW1 7982   3.216   1.224   0.384
 2361SOL    HW2 7983   3.337   1.265   0.284
 2362SOL     OW 7984   3.584   5.229   2.901
 2362SOL    HW1 7985   3.577   5.138   2.942
 2362SOL    HW2 7986   3.497   5.253   2.857
 2363SOL     OW 7987   3.527   0.711   3.335
 2363SOL    HW1 7988   3.588   0.697   3.414
 2363SOL    HW2 7989   3.435   0.682   3.359
 2364SOL     OW 7990   0.863   2.410   1.654
 2364SOL    HW1 7991   0.951   2.456   1.644
 2364SOL    HW2 7992   0.790   2.479   1.658
 2365SOL     OW 7993   5.608   2.202   0.700
 2365SOL    HW1 7994   5.527   2.160   0.741
 2365SOL    HW2 7995   5.689   2.181   0.756
 2366SOL     OW 7996   4.620   5.825   0.487
 2366SOL    HW1 7997   4.621   5.790   0.581
 2366SOL    HW2 7998   4.525   5.843   0.460
 2367SOL     OW 7999   2.480   3.285   6.000
 2367SOL    HW1 8000   2.405   3.320   6.057
 2367SOL    HW2 8001   2.504   3.353   5.932
 2368SOL     OW 8002   5.401   6.185   2.259
 2368SOL    HW1 8003   5.481   6.168   2.202
 2368SOL    HW2 8004   5.418   6.264   2.318
 2369SOL     OW 8005   2.853   1.434   3.415
 2369SOL    HW1 8006   2.815   1.342   3.423
 2369SOL    HW2 8007   2.785   1.495   3.373
 2370SOL     OW 8008   6.020   2.650   6.278
 2370SOL    HW1 8009   5.938   2.596   6.296
 2370SOL    HW2 8010   5.994   2.741   6.247
 2371SOL     OW 8011   1.420   6.013   1.768
 2371SOL    HW1 8012   1.447   5.966   1.852
 2371SOL    HW2 8013   1.373   6.098   1.790
 2372SOL     OW 8014   6.669   2.094   3.350
 2372SOL    HW1 8015   6.703   2.008   3.311
 2372SOL    HW2 8016   6.724   2.170   3.315
 2373SOL     OW 8017   2.196   4.048   6.615
 2373SOL    HW1 8018   2.213   4.122   6.550
 2373SOL    HW2 8019   2.153   4.085   6.697
 2374SOL     OW 8020   4.993   2.612   4.778
 2374SOL    HW1 8021   4.951   2.609   4.687
 2374SOL    HW2 8022   4.973   2.700   4.820
 2375SOL     OW 8023   1.076   0.343   5.211
 2375SOL    HW1 8024   1.143   0.273   5.237
 2375SOL    HW2 8025   1.116   0.402   5.140
 2376SOL     OW 8026   6.692   1.918   4.103
 2376SOL    HW1 8027   6.626   1.963   4.162
 2376SOL    HW2 8028   6.666   1.930   4.007
 2377SOL     OW 8029   3.701   3.073   4.093
 2377SOL    HW1 8030   3.798   3.052   4.102
 2377SOL    HW2 8031   3.675   3.070   3.996
 2378SOL     OW 8032   5.474   1.843   1.102
 2378SOL    HW1 8033   5.389   1.893   1.120
 2378SOL    HW2 8034   5.492   1.843   1.004
 2379SOL     OW 8035   7.018   0.009   5.990
 2379SOL    HW1 8036   6.929   7.000   5.958
 2379SOL    HW2 8037   0.019   0.090   5.937
 2380SOL     OW 8038   6.118   1.877   3.557
 2380SOL    HW1 8039   6.186   1.874   3.484
 2380SOL    HW2 8040   6.067   1.964   3.552
 2381SOL     OW 8041   1.726   5.992   2.456
 2381SOL    HW1 8042   1.717   5.897   2.484
 2381SOL    HW2 8043   1.786   6.040   2.521
 2382SOL     OW 8044   1.560   2.372   5.775
 2382SOL    HW1 8045   1.583   2.384   5.679
 2382SOL    HW2 8046   1.571   2.460   5.823
 2383SOL     OW 8047   5.385   5.392   1.352
 2383SOL    HW1 8048   5.429   5.333   1.285
 2383SOL    HW2 8049   5.317   5.340   1.404
 2384SOL     OW 8050   4.294   1.400   1.662
 2384SOL    HW1 8051   4.234   1.474   1.694
 2384SOL    HW2 8052   4.378   1.439   1.626
 2385SOL     OW 8053   1.219   3.132   0.607
 2385SOL    HW1 8054   1.262   3.105   0.520
 2385SOL    HW2 8055   1.174   3.221   0.596
 2386SOL     OW 8056   4.434   4.570   2.563
 2386SOL    HW1 8057   4.463   4.514   2.485
 2386SOL    HW2 8058   4.371   4.518   2.620
 2387SOL     OW 8059   1.332   1.531   2.471
 2387SOL    HW1 8060   1.249   1.588   2.466
 2387SOL    HW2 8061   1.326   1.459   2.402
 2388SOL     OW 8062   6.827   1.257   4.240
 2388SOL    HW1 8063   6.791   1.177   4.191
 2388SOL    HW2 8064   6.766   1.335   4.227
 2389SOL     OW 8065   3.539   6.966   2.065
 2389SOL    HW1 8066   3.551   6.962   1.966
 2389SOL    HW2 8067   3.475   0.015   2.089
 2390SOL     OW 8068   3.022   4.860   0.926
 2390SOL    HW1 8069   3.097   4.815   0.974
 2390SOL    HW2 8070   3.014   4.823   0.834
 2391SOL     OW 8071   4.043   5.352   4.479
 2391SOL    HW1 8072   4.011   5.302   4.559
 2391SOL    HW2 8073   4.039   5.450   4.496
 2392SOL     OW 8074   3.659   1.148   6.699
 2392SOL    HW1 8075   3.685   1.072   6.640
 2392SOL    HW2 8076   3.662   1.234   6.648
 2393SOL     OW 8077   3.657   6.020   5.087
 2393SOL    HW1 8078   3.640   6.000   4.991
 2393SOL    HW2 8079   3.719   5.951   5.125
 2394SOL     OW 8080   0.308   5.038   5.023
 2394SOL    HW1 8081   0.293   5.134   5.050
 2394SOL    HW2 8082   0.240   5.011   4.955
 2395SOL     OW 8083   4.400   6.562   6.513
 2395SOL    HW1 8084   4.485   6.510   6.520
 2395SOL    HW2 8085   4.419   6.653   6.475
 2396SOL     OW 8086   3.075   6.526   0.368
 2396SOL    HW1 8087   3.047   6.589   0.296
 2396SOL    HW2 8088   3.039   6.435   0.348
 2397SOL     OW 8089   0.662   3.243   4.759
 2397SOL    HW1 8090   0.600   3.202   4.692
 2397SOL    HW2 8091   0.738   3.287   4.710
 2398SOL     OW 8092   5.348   3.778   5.559
 2398SOL    HW1 8093   5.339   3.740   5.651
 2398SOL    HW2 8094   5.436   3.751   5.520
 2399SOL     OW 8095   5.166   2.769   1.745
 2399SOL    HW1 8096   5.104   2.772   1.823
 2399SOL    HW2 8097   5.254   2.811   1.769
 2400SOL     OW 8098   1.332   4.273   7.021
 2400SOL    HW1 8099   1.388   4.211   0.052
 2400SOL    HW2 8100   1.389   4.317   6.952
 2401SOL     OW 8101   6.294   5.946   0.144
 2401SOL    HW1 8102   6.314   5.988   0.056
 2401SOL    HW2 8103   6.333   5.854   0.146
 2402SOL     OW 8104   6.938   6.693   3.913
 2402SOL    HW1 8105   6.964   6.711   4.008
 2402SOL    HW2 8106   6.852   6.642   3.911
 2403SOL     OW 8107   1.457   0.738   3.400
 2403SOL    HW1 8108   1.367   0.702   3.377
 2403SOL    HW2 8109   1.523   0.662   3.405
 2404SOL     OW 8110   1.132   0.425   0.508
 2404SOL    HW1 8111   1.192   0.426   0.588
 2404SOL    HW2 8112   1.185   0.445   0.426
 2405SOL     OW 8113   3.315   4.688   1.442
 2405SOL    HW1 8114   3.247   4.756   1.468
 2405SOL    HW2 8115   3.341   4.634   1.523
 2406SOL     OW 8116   4.648   1.541   1.220
 2406SOL    HW1 8117   4.648   1.450   1.179
 2406SOL    HW2 8118   4.661   1.610   1.148
 2407SOL     OW 8119   5.004   6.854   3.413
 2407SOL    HW1 8120   5.076   6.811   3.469
 2407SOL    HW2 8121   4.999   6.951   3.435
 2408SOL     OW 8122   4.080   4.736   1.957
 2408SOL    HW1 8123   4.021   4.673   2.008
 2408SOL    HW2 8124   4.028   4.817   1.932
 2409SOL     OW 8125   1.154   3.915   0.977
 2409SOL    HW1 8126   1.208   3.832   0.983
 2409SOL    HW2 8127   1.173   3.962   0.891
 2410SOL     OW 8128   4.152   3.478   2.786
 2410SOL    HW1 8129   4.250   3.459   2.792
 2410SOL    HW2 8130   4.103   3.421   2.851
 2411SOL     OW 8131   3.712   0.423   5.666
 2411SOL    HW1 8132   3.670   0.482   5.735
 2411SOL    HW2 8133   3.729   0.476   5.582
 2412SOL     OW 8134   4.099   3.599   0.976
 2412SOL    HW1 8135   4.060   3.613   1.067
 2412SOL    HW2 8136   4.158   3.518   0.976
 2413SOL     OW 8137   3.172   0.640   2.772
 2413SOL    HW1 8138   3.181   0.551   2.727
 2413SOL    HW2 8139   3.110   0.698   2.720
 2414SOL     OW 8140   4.846   3.050   3.744
 2414SOL    HW1 8141   4.770   3.085   3.799
 2414SOL    HW2 8142   4.837   2.951   3.734
 2415SOL     OW 8143   3.330   0.055   2.883
 2415SOL    HW1 8144   3.288   0.000   2.956
 2415SOL    HW2 8145   3.423   0.081   2.911
 2416SOL     OW 8146   5.184   2.227   6.313
 2416SOL    HW1 8147   5.086   2.207   6.316
 2416SOL    HW2 8148   5.210   2.281   6.393
 2417SOL     OW 8149   3.098   3.834   6.008
 2417SOL    HW1 8150   3.178   3.885   6.038
 2417SOL    HW2 8151   3.072   3.768   6.078
 2418SOL     OW 8152   3.795   2.925   2.284
 2418SOL    HW1 8153   3.856   2.849   2.261
 2418SOL    HW2 8154   3.700   2.900   2.264
 2419SOL     OW 8155   6.785   0.612   4.283
 2419SOL    HW1 8156   6.775   0.711   4.277
 2419SOL    HW2 8157   6.883   0.588   4.285
 2420SOL     OW 8158   1.960   0.262   1.947
 2420SOL    HW1 8159   1.998   0.190   2.005
 2420SOL    HW2 8160   1.878   0.300   1.989
 2421SOL     OW 8161   4.235   2.307   3.144
 2421SOL    HW1 8162   4.204   2.239   3.211
 2421SOL    HW2 8163   4.244   2.264   3.054
 2422SOL     OW 8164   5.903   1.667   1.183
 2422SOL    HW1 8165   5.973   1.694   1.249
 2422SOL    HW2 8166   5.816   1.711   1.207
 2423SOL     OW 8167   1.378   4.927   2.666
 2423SOL    HW1 8168   1.406   5.012   2.710
 2423SOL    HW2 8169   1.459   4.877   2.636
 2424SOL     OW 8170   6.680   6.524   0.081
 2424SOL    HW1 8171   6.765   6.491   0.120
 2424SOL    HW2 8172   6.627   6.573   0.151
 2425SOL     OW 8173   6.975   6.458   4.793
 2425SOL    HW1 8174   6.950   6.379   4.738
 2425SOL    HW2 8175   6.964   6.542   4.739
 2426SOL     OW 8176   1.663   5.526   4.623
 2426SOL    HW1 8177   1.610   5.605   4.654
 2426SOL    HW2 8178   1.731   5.555   4.555
 2427SOL     OW 8179   6.117   0.438   5.399
 2427SOL    HW1 8180   6.108   0.373   5.474
 2427SOL    HW2 8181   6.028   0.478   5.378
 2428SOL     OW 8182   6.092   2.203   0.540
 2428SOL    HW1 8183   6.108   2.296   0.506
 2428SOL    HW2 8184   5.995   2.181   0.533
 2429SOL     OW 8185   4.639   4.252   2.745
 2429SOL    HW1 8186   4.579   4.268   2.824
 2429SOL    HW2 8187   4.666   4.340   2.705
 2430SOL     OW 8188   5.491   0.180   1.962
 2430SOL    HW1 8189   5.582   0.214   1.985
 2430SOL    HW2 8190   5.479   0.089   2.003
 2431SOL     OW 8191   4.391   0.057   2.246
 2431SOL    HW1 8192   4.359   0.112   2.169
 2431SOL    HW2 8193   4.316   7.024   2.279
 2432SOL     OW 8194   3.024   5.877   2.586
 2432SOL    HW1 8195   3.059   5.916   2.671
 2432SOL    HW2 8196   3.035   5.942   2.511
 2433SOL     OW 8197   5.337   7.017   0.889
 2433SOL    HW1 8198   5.274   7.020   0.812
 2433SOL    HW2 8199   5.286   7.009   0.975
 2434SOL     OW 8200   3.155   3.117   4.665
 2434SOL    HW1 8201   3.124   3.211   4.648
 2434SOL    HW2 8202   3.254   3.113   4.659
 2435SOL     OW 8203   5.603   5.043   6.848
 2435SOL    HW1 8204   5.605   4.947   6.877
 2435SOL    HW2 8205   5.606   5.102   6.928
 2436SOL     OW 8206   3.474   4.740   0.251
 2436SOL    HW1 8207   3.427   4.821   0.216
 2436SOL    HW2 8208   3.479   4.670   0.180
 2437SOL     OW 8209   0.189   1.406   5.722
 2437SOL    HW1 8210   0.143   1.345   5.787
 2437SOL    HW2 8211   0.283   1.374   5.708
 2438SOL     OW 8212   3.613   3.873   0.459
 2438SOL    HW1 8213   3.646   3.781   0.435
 2438SOL    HW2 8214   3.514   3.877   0.446
 2439SOL     OW 8215   6.203   3.916   6.254
 2439SOL    HW1 8216   6.300   3.908   6.232
 2439SOL    HW2 8217   6.158   3.829   6.234
 2440SOL     OW 8218   6.640   4.988   6.228
 2440SOL    HW1 8219   6.661   4.991   6.130
 2440SOL    HW2 8220   6.724   5.005   6.280
 2441SOL     OW 8221   6.415   2.356   0.507
 2441SOL    HW1 8222   6.382   2.425   0.571
 2441SOL    HW2 8223   6.341   2.328   0.446
 2442SOL     OW 8224   6.636   1.877   4.901
 2442SOL    HW1 8225   6.589   1.963   4.924
 2442SOL    HW2 8226   6.720   1.898   4.850
 2443SOL     OW 8227   2.890   5.179   6.889
 2443SOL    HW1 8228   2.808   5.205   6.942
 2443SOL    HW2 8229   2.892   5.079   6.879
 2444SOL     OW 8230   3.868   2.846   6.318
 2444SOL    HW1 8231   3.841   2.791   6.398
 2444SOL    HW2 8232   3.899   2.936   6.348
 2445SOL     OW 8233   1.063   1.070   0.923
 2445SOL    HW1 8234   1.122   1.075   0.843
 2445SOL    HW2 8235   0.967   1.069   0.894
 2446SOL     OW 8236   5.320   3.207   6.311
 2446SOL    HW1 8237   5.310   3.160   6.224
 2446SOL    HW2 8238   5.416   3.233   6.324
 2447SOL     OW 8239   0.982   3.857   6.534
 2447SOL    HW1 8240   0.908   3.914   6.499
 2447SOL    HW2 8241   0.985   3.771   6.482
 2448SOL     OW 8242   6.337   0.458   4.946
 2448SOL    HW1 8243   6.398   0.528   4.985
 2448SOL    HW2 8244   6.386   0.372   4.938
 2449SOL     OW 8245   0.189   2.961   5.804
 2449SOL    HW1 8246   0.190   2.868   5.840
 2449SOL    HW2 8247   0.101   2.979   5.759
 2450SOL     OW 8248   2.895   2.933   0.969
 2450SOL    HW1 8249   2.930   3.026   0.956
 2450SOL    HW2 8250   2.954   2.884   1.032
 2451SOL     OW 8251   2.018   5.674   3.589
 2451SOL    HW1 8252   1.996   5.715   3.500
 2451SOL    HW2 8253   2.067   5.587   3.574
 2452SOL     OW 8254   3.467   1.587   4.005
 2452SOL    HW1 8255   3.419   1.658   4.056
 2452SOL    HW2 8256   3.405   1.510   3.990
 2453SOL     OW 8257   0.581   3.565   1.281
 2453SOL    HW1 8258   0.539   3.605   1.200
 2453SOL    HW2 8259   0.680   3.562   1.270
 2454SOL     OW 8260   6.969   6.813   2.248
 2454SOL    HW1 8261   0.028   6.843   2.202
 2454SOL    HW2 8262   6.976   6.835   2.346
 2455SOL     OW 8263   5.317   3.779   1.157
 2455SOL    HW1 8264   5.261   3.841   1.212
 2455SOL    HW2 8265   5.285   3.685   1.168
 2456SOL     OW 8266   2.673   6.853   1.064
 2456SOL    HW1 8267   2.718   6.942   1.071
 2456SOL    HW2 8268   2.587   6.862   1.014
 2457SOL     OW 8269   5.448   5.972   0.791
 2457SOL    HW1 8270   5.386   6.033   0.742
 2457SOL    HW2 8271   5.419   5.877   0.779
 2458SOL     OW 8272   0.480   6.902   1.720
 2458SOL    HW1 8273   0.555   6.951   1.763
 2458SOL    HW2 8274   0.504   6.806   1.709
 2459SOL     OW 8275   1.514   2.319   0.312
 2459SOL    HW1 8276   1.471   2.313   0.402
 2459SOL    HW2 8277   1.543   2.414   0.296
 2460SOL     OW 8278   1.565   4.217   1.219
 2460SOL    HW1 8279   1.585   4.196   1.314
 2460SOL    HW2 8280   1.492   4.286   1.214
 2461SOL     OW 8281   4.759   0.808   2.831
 2461SOL    HW1 8282   4.828   0.735   2.834
 2461SOL    HW2 8283   4.674   0.772   2.793
 2462SOL     OW 8284   3.006   5.268   6.670
 2462SOL    HW1 8285   3.101   5.242   6.686
 2462SOL    HW2 8286   2.948   5.235   6.744
 2463SOL     OW 8287   1.917   3.011   5.825
 2463SOL    HW1 8288   1.923   3.096   5.773
 2463SOL    HW2 8289   1.971   2.940   5.778
 2464SOL     OW 8290   0.705   3.869   1.019
 2464SOL    HW1 8291   0.614   3.909   1.007
 2464SOL    HW2 8292   0.712   3.785   0.966
 2465SOL     OW 8293   5.906   4.327   3.312
 2465SOL    HW1 8294   5.937   4.340   3.217
 2465SOL    HW2 8295   5.940   4.240   3.346
 2466SOL     OW 8296   4.162   1.605   1.787
 2466SOL    HW1 8297   4.089   1.674   1.787
 2466SOL    HW2 8298   4.220   1.617   1.867
 2467SOL     OW 8299   1.738   1.383   4.353
 2467SOL    HW1 8300   1.722   1.480   4.340
 2467SOL    HW2 8301   1.754   1.339   4.264
 2468SOL     OW 8302   6.896   4.609   6.817
 2468SOL    HW1 8303   6.843   4.525   6.813
 2468SOL    HW2 8304   6.937   4.627   6.728
 2469SOL     OW 8305   2.746   1.869   6.793
 2469SOL    HW1 8306   2.809   1.802   6.833
 2469SOL    HW2 8307   2.788   1.909   6.711
 2470SOL     OW 8308   5.538   3.141   0.558
 2470SOL    HW1 8309   5.564   3.100   0.470
 2470SOL    HW2 8310   5.620   3.165   0.609
 2471SOL     OW 8311   1.131   1.548   3.132
 2471SOL    HW1 8312   1.102   1.637   3.096
 2471SOL    HW2 8313   1.141   1.554   3.231
 2472SOL     OW 8314   6.793   0.412   4.624
 2472SOL    HW1 8315   6.809   0.349   4.548
 2472SOL    HW2 8316   6.701   0.450   4.617
 2473SOL     OW 8317   0.402   4.996   4.621
 2473SOL    HW1 8318   0.337   4.952   4.682
 2473SOL    HW2 8319   0.495   4.982   4.656
 2474SOL     OW 8320   5.782   6.831   4.208
 2474SOL    HW1 8321   5.771   6.919   4.254
 2474SOL    HW2 8322   5.759   6.757   4.271
 2475SOL     OW 8323   3.546   2.980   6.633
 2475SOL    HW1 8324   3.593   3.067   6.618
 2475SOL    HW2 8325   3.514   2.944   6.545
 2476SOL     OW 8326   0.633   1.707   3.921
 2476SOL    HW1 8327   0.675   1.616   3.923
 2476SOL    HW2 8328   0.539   1.701   3.956
 2477SOL     OW 8329   4.908   4.121   2.152
 2477SOL    HW1 8330   4.884   4.216   2.131
 2477SOL    HW2 8331   4.894   4.064   2.071
 2478SOL     OW 8332   6.787   0.711   2.038
 2478SOL    HW1 8333   6.872   0.715   2.090
 2478SOL    HW2 8334   6.711   0.737   2.097
 2479SOL     OW 8335   1.281   3.492   0.671
 2479SOL    HW1 8336   1.337   3.414   0.699
 2479SOL    HW2 8337   1.197   3.459   0.627
 2480SOL     OW 8338   6.385   4.847   0.174
 2480SOL    HW1 8339   6.406   4.784   0.099
 2480SOL    HW2 8340   6.363   4.937   0.137
 2481SOL     OW 8341   3.960   5.056   2.467
 2481SOL    HW1 8342   3.972   5.054   2.367
 2481SOL    HW2 8343   4.046   5.028   2.511
 2482SOL     OW 8344   3.744   2.147   4.495
 2482SOL    HW1 8345   3.753   2.116   4.590
 2482SOL    HW2 8346   3.814   2.215   4.476
 2483SOL     OW 8347   0.670   2.862   6.738
 2483SOL    HW1 8348   0.585   2.823   6.703
 2483SOL    HW2 8349   0.657   2.959   6.757
 2484SOL     OW 8350   3.377   3.909   5.434
 2484SOL    HW1 8351   3.384   3.843   5.508
 2484SOL    HW2 8352   3.281   3.919   5.407
 2485SOL     OW 8353   1.114   4.971   0.731
 2485SOL    HW1 8354   1.082   5.014   0.648
 2485SOL    HW2 8355   1.076   5.018   0.811
 2486SOL     OW 8356   0.312   5.393   3.992
 2486SOL    HW1 8357   0.346   5.467   3.934
 2486SOL    HW2 8358   0.260   5.432   4.068
 2487SOL     OW 8359   2.969   1.188   1.183
 2487SOL    HW1 8360   2.934   1.096   1.166
 2487SOL    HW2 8361   2.988   1.199   1.280
 2488SOL     OW 8362   2.227   5.738   6.451
 2488SOL    HW1 8363   2.217   5.671   6.377
 2488SOL    HW2 8364   2.296   5.706   6.516
 2489SOL     OW 8365   6.455   5.345   4.805
 2489SOL    HW1 8366   6.429   5.405   4.880
 2489SOL    HW2 8367   6.426   5.252   4.824
 2490SOL     OW 8368   5.867   2.854   1.619
 2490SOL    HW1 8369   5.806   2.931   1.638
 2490SOL    HW2 8370   5.880   2.801   1.703
 2491SOL     OW 8371   0.000   3.566   2.188
 2491SOL    HW1 8372   6.929   3.539   2.202
 2491SOL    HW2 8373   0.037   3.603   2.273
 2492SOL     OW 8374   4.257   1.511   0.600
 2492SOL    HW1 8375   4.323   1.448   0.640
 2492SOL    HW2 8376   4.303   1.569   0.533
 2493SOL     OW 8377   6.133   0.734   5.904
 2493SOL    HW1 8378   6.173   0.652   5.945
 2493SOL    HW2 8379   6.171   0.815   5.947
 2494SOL     OW 8380   5.844   5.483   0.890
 2494SOL    HW1 8381   5.865   5.387   0.907
 2494SOL    HW2 8382   5.770   5.490   0.824
 2495SOL     OW 8383   6.515   1.152   3.328
 2495SOL    HW1 8384   6.521   1.222   3.399
 2495SOL    HW2 8385   6.606   1.135   3.290
 2496SOL     OW 8386   1.745   4.746   0.503
 2496SOL    HW1 8387   1.762   4.843   0.522
 2496SOL    HW2 8388   1.686   4.708   0.574
 2497SOL     OW 8389   6.133   1.585   5.968
 2497SOL    HW1 8390   6.194   1.539   5.904
 2497SOL    HW2 8391   6.173   1.583   6.059
 2498SOL     OW 8392   1.746   3.254   4.661
 2498SOL    HW1 8393   1.798   3.256   4.576
 2498SOL    HW2 8394   1.693   3.338   4.669
 2499SOL     OW 8395   4.957   0.384   0.132
 2499SOL    HW1 8396   5.030   0.351   0.191
 2499SOL    HW2 8397   4.989   0.389   0.038
 2500SOL     OW 8398   5.128   3.002   6.106
 2500SOL    HW1 8399   5.109   2.976   6.011
 2500SOL    HW2 8400   5.044   3.032   6.150
 2501SOL     OW 8401   5.896   5.222   0.943
 2501SOL    HW1 8402   5.900   5.152   0.872
 2501SOL    HW2 8403   5.988   5.248   0.970
 2502SOL     OW 8404   1.253   6.712   3.201
 2502SOL    HW1 8405   1.266   6.709   3.300
 2502SOL    HW2 8406   1.271   6.621   3.162
 2503SOL     OW 8407   5.616   5.869   3.630
 2503SOL    HW1 8408   5.616   5.863   3.730
 2503SOL    HW2 8409   5.528   5.837   3.595
 2504SOL     OW 8410   3.292   4.890   2.698
 2504SOL    HW1 8411   3.316   4.981   2.664
 2504SOL    HW2 8412   3.280   4.828   2.621
 2505SOL     OW 8413   4.916   3.412   4.297
 2505SOL    HW1 8414   4.948   3.471   4.223
 2505SOL    HW2 8415   4.967   3.433   4.380
 2506SOL     OW 8416   1.436   1.115   0.084
 2506SOL    HW1 8417   1.408   1.209   0.102
 2506SOL    HW2 8418   1.356   1.056   0.077
 2507SOL     OW 8419   6.560   5.235   1.031
 2507SOL    HW1 8420   6.555   5.264   1.127
 2507SOL    HW2 8421   6.527   5.309   0.973
 2508SOL     OW 8422   1.419   1.584   1.817
 2508SOL    HW1 8423   1.344   1.595   1.752
 2508SOL    HW2 8424   1.423   1.490   1.849
 2509SOL     OW 8425   6.299   0.035   3.771
 2509SOL    HW1 8426   6.374   0.062   3.710
 2509SOL    HW2 8427   6.238   0.112   3.786
 2510SOL     OW 8428   3.794   5.930   2.870
 2510SOL    HW1 8429   3.862   5.865   2.905
 2510SOL    HW2 8430   3.706   5.884   2.861
 2511SOL     OW 8431   0.893   5.536   4.547
 2511SOL    HW1 8432   0.970   5.500   4.600
 2511SOL    HW2 8433   0.833   5.461   4.520
 2512SOL     OW 8434   6.057   3.253   4.661
 2512SOL    HW1 8435   6.148   3.276   4.625
 2512SOL    HW2 8436   6.068   3.209   4.750
 2513SOL     OW 8437   1.164   4.238   1.797
 2513SOL    HW1 8438   1.078   4.189   1.786
 2513SOL    HW2 8439   1.184   4.288   1.712
 2514SOL     OW 8440   6.988   2.308   4.628
 2514SOL    HW1 8441   6.933   2.277   4.706
 2514SOL    HW2 8442   6.945   2.277   4.543
 2515SOL     OW 8443   0.237   5.342   6.171
 2515SOL    HW1 8444   0.213   5.277   6.243
 2515SOL    HW2 8445   0.280   5.293   6.095
 2516SOL     OW 8446   4.881   6.343   5.116
 2516SOL    HW1 8447   4.789   6.359   5.080
 2516SOL    HW2 8448   4.933   6.428   5.114
 2517SOL     OW 8449   2.674   5.726   6.371
 2517SOL    HW1 8450   2.685   5.822   6.344
 2517SOL    HW2 8451   2.627   5.677   6.298
 2518SOL     OW 8452   2.172   2.301   0.823
 2518SOL    HW1 8453   2.164   2.388   0.775
 2518SOL    HW2 8454   2.268   2.275   0.831
 2519SOL     OW 8455   5.830   3.986   4.583
 2519SOL    HW1 8456   5.848   4.068   4.528
 2519SOL    HW2 8457   5.828   4.012   4.680
 2520SOL     OW 8458   4.531   5.859   1.377
 2520SOL    HW1 8459   4.559   5.823   1.288
 2520SOL    HW2 8460   4.498   5.952   1.366
 2521SOL     OW 8461   5.550   6.110   6.129
 2521SOL    HW1 8462   5.597   6.032   6.170
 2521SOL    HW2 8463   5.536   6.093   6.031
 2522SOL     OW 8464   3.332   5.836   4.895
 2522SOL    HW1 8465   3.357   5.745   4.862
 2522SOL    HW2 8466   3.245   5.830   4.945
 2523SOL     OW 8467   1.065   1.878   0.041
 2523SOL    HW1 8468   0.985   1.894   7.006
 2523SOL    HW2 8469   1.088   1.962   0.089
 2524SOL     OW 8470   2.084   0.357   4.544
 2524SOL    HW1 8471   2.094   0.262   4.517
 2524SOL    HW2 8472   2.095   0.416   4.464
 2525SOL     OW 8473   3.011   5.108   2.509
 2525SOL    HW1 8474   3.021   5.062   2.421
 2525SOL    HW2 8475   2.931   5.168   2.506
 2526SOL     OW 8476   2.323   3.305   5.360
 2526SOL    HW1 8477   2.417   3.339   5.348
 2526SOL    HW2 8478   2.326   3.206   5.377
 2527SOL     OW 8479   6.863   0.236   4.148
 2527SOL    HW1 8480   6.931   0.241   4.075
 2527SOL    HW2 8481   6.805   0.156   4.134
 2528SOL     OW 8482   5.310   5.032   2.773
 2528SOL    HW1 8483   5.358   4.944   2.771
 2528SOL    HW2 8484   5.271   5.046   2.864
 2529SOL     OW 8485   4.963   5.902   4.646
 2529SOL    HW1 8486   4.901   5.839   4.692
 2529SOL    HW2 8487   5.021   5.851   4.582
 2530SOL     OW 8488   1.424   6.914   3.472
 2530SOL    HW1 8489   1.390   6.963   3.391
 2530SOL    HW2 8490   1.404   6.967   3.554
 2531SOL     OW 8491   5.125   2.698   6.046
 2531SOL    HW1 8492   5.179   2.714   5.964
 2531SOL    HW2 8493   5.127   2.779   6.104
 2532SOL     OW 8494   6.451   5.088   0.017
 2532SOL    HW1 8495   6.530   5.060   0.073
 2532SOL    HW2 8496   6.471   5.176   6.999
 2533SOL     OW 8497   4.635   0.533   3.988
 2533SOL    HW1 8498   4.609   0.565   3.896
 2533SOL    HW2 8499   4.556   0.539   4.048
 2534SOL     OW 8500   6.330   0.378   2.229
 2534SOL    HW1 8501   6.368   0.400   2.139
 2534SOL    HW2 8502   6.341   0.456   2.290
 2535SOL     OW 8503   3.058   1.180   1.428
 2535SOL    HW1 8504   3.112   1.101   1.457
 2535SOL    HW2 8505   3.098   1.263   1.468
 2536SOL     OW 8506   0.601   6.870   2.663
 2536SOL    HW1 8507   0.698   6.893   2.665
 2536SOL    HW2 8508   0.584   6.789   2.718
 2537SOL     OW 8509   2.105   6.760   1.764
 2537SOL    HW1 8510   2.082   6.828   1.834
 2537SOL    HW2 8511   2.099   6.801   1.673
 2538SOL     OW 8512   6.937   5.304   4.817
 2538SOL    HW1 8513   6.855   5.276   4.867
 2538SOL    HW2 8514   6.957   5.238   4.745
 2539SOL     OW 8515   0.607   0.047   4.960
 2539SOL    HW1 8516   0.560   0.127   4.923
 2539SOL    HW2 8517   0.540   6.999   4.980
 2540SOL     OW 8518   5.794   2.995   2.515
 2540SOL    HW1 8519   5.723   3.003   2.445
 2540SOL    HW2 8520   5.754   2.960   2.599
 2541SOL     OW 8521   1.625   0.399   6.996
 2541SOL    HW1 8522   1.601   0.331   0.042
 2541SOL    HW2 8523   1.676   0.354   6.922
 2542SOL     OW 8524   3.757   2.104   2.953
 2542SOL    HW1 8525   3.728   2.018   2.912
 2542SOL    HW2 8526   3.834   2.087   3.015
 2543SOL     OW 8527   5.895   6.352   5.458
 2543SOL    HW1 8528   5.907   6.451   5.470
 2543SOL    HW2 8529   5.934   6.304   5.536
 2544SOL     OW 8530   0.163   0.848   0.400
 2544SOL    HW1 8531   0.182   0.934   0.353
 2544SOL    HW2 8532   0.170   0.772   0.335
 2545SOL     OW 8533   0.802   1.306   0.389
 2545SOL    HW1 8534   0.851   1.336   0.307
 2545SOL    HW2 8535   0.715   1.354   0.395
 2546SOL     OW 8536   6.287   2.862   3.933
 2546SOL    HW1 8537   6.384   2.862   3.957
 2546SOL    HW2 8538   6.244   2.778   3.968
 2547SOL     OW 8539   6.369   3.272   0.595
 2547SOL    HW1 8540   6.442   3.226   0.645
 2547SOL    HW2 8541   6.289   3.212   0.590
 2548SOL     OW 8542   5.591   7.014   5.475
 2548SOL    HW1 8543   5.641   0.032   5.400
 2548SOL    HW2 8544   5.654   6.965   5.535
 2549SOL     OW 8545   3.077   4.130   6.541
 2549SOL    HW1 8546   3.104   4.111   6.446
 2549SOL    HW2 8547   3.028   4.051   6.578
 2550SOL     OW 8548   3.998   0.803   1.712
 2550SOL    HW1 8549   3.997   0.903   1.711
 2550SOL    HW2 8550   3.970   0.769   1.622
 2551SOL     OW 8551   2.392   4.606   0.156
 2551SOL    HW1 8552   2.372   4.670   0.229
 2551SOL    HW2 8553   2.492   4.599   0.144
 2552SOL     OW 8554   2.934   5.160   0.525
 2552SOL    HW1 8555   2.969   5.090   0.587
 2552SOL    HW2 8556   2.907   5.241   0.577
 2553SOL     OW 8557   3.752   1.993   1.479
 2553SOL    HW1 8558   3.676   1.998   1.414
 2553SOL    HW2 8559   3.715   1.987   1.572
 2554SOL     OW 8560   1.368   5.465   0.843
 2554SOL    HW1 8561   1.385   5.369   0.864
 2554SOL    HW2 8562   1.314   5.506   0.917
 2555SOL     OW 8563   0.396   5.868   4.665
 2555SOL    HW1 8564   0.300   5.842   4.678
 2555SOL    HW2 8565   0.430   5.827   4.581
 2556SOL     OW 8566   5.718   0.250   6.571
 2556SOL    HW1 8567   5.698   0.348   6.579
 2556SOL    HW2 8568   5.699   0.205   6.657
 2557SOL     OW 8569   2.576   1.051   0.599
 2557SOL    HW1 8570   2.569   1.146   0.631
 2557SOL    HW2 8571   2.650   1.044   0.531
 2558SOL     OW 8572   5.498   2.862   1.607
 2558SOL    HW1 8573   5.556   2.939   1.631
 2558SOL    HW2 8574   5.409   2.872   1.651
 2559SOL     OW 8575   0.090   6.188   3.398
 2559SOL    HW1 8576   0.142   6.105   3.380
 2559SOL    HW2 8577   0.126   6.233   3.480
 2560SOL     OW 8578   3.651   3.238   1.572
 2560SOL    HW1 8579   3.602   3.283   1.646
 2560SOL    HW2 8580   3.586   3.193   1.510
 2561SOL     OW 8581   3.563   0.885   4.705
 2561SOL    HW1 8582   3.622   0.850   4.632
 2561SOL    HW2 8583   3.620   0.930   4.775
 2562SOL     OW 8584   0.883   6.676   4.775
 2562SOL    HW1 8585   0.958   6.728   4.733
 2562SOL    HW2 8586   0.816   6.740   4.813
 2563SOL     OW 8587   4.584   1.707   0.168
 2563SOL    HW1 8588   4.646   1.753   0.104
 2563SOL    HW2 8589   4.490   1.719   0.138
 2564SOL     OW 8590   2.066   0.227   1.170
 2564SOL    HW1 8591   2.116   0.307   1.138
 2564SOL    HW2 8592   2.008   0.253   1.247
 2565SOL     OW 8593   6.074   0.360   0.464
 2565SOL    HW1 8594   6.152   0.411   0.428
 2565SOL    HW2 8595   6.061   0.383   0.561
 2566SOL     OW 8596   2.816   1.545   0.649
 2566SOL    HW1 8597   2.755   1.590   0.713
 2566SOL    HW2 8598   2.826   1.449   0.675
 2567SOL     OW 8599   1.908   0.554   6.241
 2567SOL    HW1 8600   1.855   0.566   6.157
 2567SOL    HW2 8601   1.858   0.496   6.305
 2568SOL     OW 8602   3.248   6.352   6.862
 2568SOL    HW1 8603   3.209   6.437   6.897
 2568SOL    HW2 8604   3.178   6.280   6.862
 2569SOL     OW 8605   2.945   6.736   6.338
 2569SOL    HW1 8606   3.012   6.672   6.301
 2569SOL    HW2 8607   2.854   6.714   6.303
 2570SOL     OW 8608   7.013   0.371   3.719
 2570SOL    HW1 8609   7.019   0.442   3.790
 2570SOL    HW2 8610   0.044   0.398   3.641
 2571SOL     OW 8611   3.147   3.505   2.096
 2571SOL    HW1 8612   3.237   3.523   2.138
 2571SOL    HW2 8613   3.078   3.559   2.144
 2572SOL     OW 8614   2.103   6.218   2.385
 2572SOL    HW1 8615   2.159   6.297   2.358
 2572SOL    HW2 8616   2.139   6.135   2.343
 2573SOL     OW 8617   6.318   0.137   2.397
 2573SOL    HW1 8618   6.337   0.213   2.335
 2573SOL    HW2 8619   6.318   0.051   2.345
 2574SOL     OW 8620   0.756   4.685   1.518
 2574SOL    HW1 8621   0.665   4.716   1.491
 2574SOL    HW2 8622   0.785   4.610   1.459
 2575SOL     OW 8623   4.186   3.362   5.124
 2575SOL    HW1 8624   4.215   3.430   5.057
 2575SOL    HW2 8625   4.230   3.381   5.212
 2576SOL     OW 8626   1.440   0.794   3.675
 2576SOL    HW1 8627   1.522   0.752   3.714
 2576SOL    HW2 8628   1.438   0.780   3.577
 2577SOL     OW 8629   1.204   4.498   0.134
 2577SOL    HW1 8630   1.123   4.466   0.182
 2577SOL    HW2 8631   1.227   4.436   0.060
 2578SOL     OW 8632   5.549   0.656   5.168
 2578SOL    HW1 8633   5.574   0.589   5.098
 2578SOL    HW2 8634   5.453   0.644   5.193
 2579SOL     OW 8635   0.614   2.374   6.405
 2579SOL    HW1 8636   0.532   2.329   6.370
 2579SOL    HW2 8637   0.590   2.467   6.435
 2580SOL     OW 8638   1.792   2.618   5.150
 2580SOL    HW1 8639   1.767   2.603   5.054
 2580SOL    HW2 8640   1.721   2.673   5.194
 2581SOL     OW 8641   4.772   6.815   4.088
 2581SOL    HW1 8642   4.864   6.809   4.125
 2581SOL    HW2 8643   4.705   6.800   4.161
 2582SOL     OW 8644   6.747   4.525   2.579
 2582SOL    HW1 8645   6.679   4.580   2.530
 2582SOL    HW2 8646   6.831   4.579   2.592
 2583SOL     OW 8647   3.113   0.458   6.949
 2583SOL    HW1 8648   3.077   0.375   6.907
 2583SOL    HW2 8649   3.178   0.434   7.021
 2584SOL     OW 8650   3.464   1.305   4.388
 2584SOL    HW1 8651   3.455   1.248   4.307
 2584SOL    HW2 8652   3.381   1.361   4.399
 2585SOL     OW 8653   3.466   0.706   2.843
 2585SOL    HW1 8654   3.378   0.666   2.868
 2585SOL    HW2 8655   3.455   0.805   2.833
 2586SOL     OW 8656   2.185   1.503   4.569
 2586SOL    HW1 8657   2.219   1.416   4.533
 2586SOL    HW2 8658   2.262   1.561   4.595
 2587SOL     OW 8659   6.225   4.317   3.310
 2587SOL    HW1 8660   6.211   4.397   3.252
 2587SOL    HW2 8661   6.240   4.236   3.254
 2588SOL     OW 8662   2.567   0.036   2.481
 2588SOL    HW1 8663   2.554   0.075   2.389
 2588SOL    HW2 8664   2.648   7.002   2.480
 2589SOL     OW 8665   4.974   6.920   1.814
 2589SOL    HW1 8666   4.896   6.893   1.757
 2589SOL    HW2 8667   4.998   6.845   1.875
 2590SOL     OW 8668   4.378   6.172   3.922
 2590SOL    HW1 8669   4.439   6.175   3.843
 2590SOL    HW2 8670   4.313   6.097   3.912
 2591SOL     OW 8671   5.266   0.537   0.509
 2591SOL    HW1 8672   5.174   0.575   0.514
 2591SOL    HW2 8673   5.329   0.594   0.562
 2592SOL     OW 8674   2.674   6.230   1.783
 2592SOL    HW1 8675   2.757   6.278   1.753
 2592SOL    HW2 8676   2.619   6.291   1.840
 2593SOL     OW 8677   2.925   0.030   4.191
 2593SOL    HW1 8678   2.861   6.990   4.148
 2593SOL    HW2 8679   3.016   7.012   4.195
 2594SOL     OW 8680   1.223   5.950   6.544
 2594SOL    HW1 8681   1.307   5.984   6.502
 2594SOL    HW2 8682   1.235   5.944   6.643
 2595SOL     OW 8683   6.982   3.391   5.479
 2595SOL    HW1 8684   0.006   3.477   5.498
 2595SOL    HW2 8685   6.896   3.411   5.432
 2596SOL     OW 8686   4.334   1.683   1.070
 2596SOL    HW1 8687   4.288   1.595   1.077
 2596SOL    HW2 8688   4.286   1.740   1.003
 2597SOL     OW 8689   2.906   2.391   5.858
 2597SOL    HW1 8690   2.944   2.483   5.863
 2597SOL    HW2 8691   2.981   2.324   5.856
 2598SOL     OW 8692   6.625   1.354   3.497
 2598SOL    HW1 8693   6.635   1.316   3.589
 2598SOL    HW2 8694   6.549   1.420   3.497
 2599SOL     OW 8695   4.960   5.878   6.113
 2599SOL    HW1 8696   5.003   5.896   6.202
 2599SOL    HW2 8697   4.971   5.958   6.054
 2600SOL     OW 8698   6.941   3.626   4.964
 2600SOL    HW1 8699   6.969   3.592   4.874
 2600SOL    HW2 8700   7.022   3.645   5.020
 2601SOL     OW 8701   4.034   4.288   5.275
 2601SOL    HW1 8702   4.109   4.313   5.215
 2601SOL    HW2 8703   4.060   4.210   5.332
 2602SOL     OW 8704   6.018   0.380   0.154
 2602SOL    HW1 8705   6.105   0.368   0.107
 2602SOL    HW2 8706   6.035   0.397   0.251
 2603SOL     OW 8707   2.206   1.508   6.831
 2603SOL    HW1 8708   2.194   1.448   6.752
 2603SOL    HW2 8709   2.120   1.557   6.849
 2604SOL     OW 8710   5.738   1.273   0.466
 2604SOL    HW1 8711   5.837   1.280   0.454
 2604SOL    HW2 8712   5.695   1.253   0.378
 2605SOL     OW 8713   5.599   1.398   5.464
 2605SOL    HW1 8714   5.587   1.301   5.483
 2605SOL    HW2 8715   5.685   1.412   5.414
 2606SOL     OW 8716   5.978   4.525   1.241
 2606SOL    HW1 8717   5.932   4.440   1.214
 2606SOL    HW2 8718   5.969   4.592   1.167
 2607SOL     OW 8719   0.633   0.198   2.810
 2607SOL    HW1 8720   0.584   0.203   2.723
 2607SOL    HW2 8721   0.682   0.111   2.816
 2608SOL     OW 8722   4.583   0.873   0.160
 2608SOL    HW1 8723   4.536   0.804   0.105
 2608SOL    HW2 8724   4.670   0.837   0.191
 2609SOL     OW 8725   0.759   3.859   3.803
 2609SOL    HW1 8726   0.791   3.937   3.748
 2609SOL    HW2 8727   0.834   3.794   3.814
 2610SOL     OW 8728   5.522   4.846   5.058
 2610SOL    HW1 8729   5.561   4.822   4.969
 2610SOL    HW2 8730   5.423   4.848   5.052
 2611SOL     OW 8731   2.917   6.573   1.361
 2611SOL    HW1 8732   2.870   6.585   1.273
 2611SOL    HW2 8733   2.991   6.506   1.350
 2612SOL     OW 8734   0.299   0.293   3.824
 2612SOL    HW1 8735   0.368   0.292   3.897
 2612SOL    HW2 8736   0.232   0.364   3.843
 2613SOL     OW 8737   4.079   1.618   0.077
 2613SOL    HW1 8738   4.144   1.694   0.085
 2613SOL    HW2 8739   4.113   1.539   0.128
 2614SOL     OW 8740   6.069   6.685   6.945
 2614SOL    HW1 8741   6.004   6.616   6.915
 2614SOL    HW2 8742   6.161   6.647   6.945
 2615SOL     OW 8743   0.126   4.987   1.166
 2615SOL    HW1 8744   0.107   4.894   1.197
 2615SOL    HW2 8745   0.040   5.031   1.140
 2616SOL     OW 8746   3.812   3.432   1.907
 2616SOL    HW1 8747   3.793   3.335   1.894
 2616SOL    HW2 8748   3.746   3.487   1.856
 2617SOL     OW 8749   3.374   6.807   0.245
 2617SOL    HW1 8750   3.346   6.777   0.154
 2617SOL    HW2 8751   3.454   6.867   0.238
 2618SOL     OW 8752   1.384   5.817   0.368
 2618SOL    HW1 8753   1.377   5.860   0.278
 2618SOL    HW2 8754   1.466   5.849   0.414
 2619SOL     OW 8755   5.941   0.549   2.687
 2619SOL    HW1 8756   6.030   0.554   2.641
 2619SOL    HW2 8757   5.916   0.640   2.721
 2620SOL     OW 8758   1.619   6.245   4.163
 2620SOL    HW1 8759   1.678   6.221   4.087
 2620SOL    HW2 8760   1.531   6.278   4.129
 2621SOL     OW 8761   1.346   6.104   4.267
 2621SOL    HW1 8762   1.287   6.041   4.318
 2621SOL    HW2 8763   1.438   6.067   4.263
 2622SOL     OW 8764   2.460   2.581   4.118
 2622SOL    HW1 8765   2.476   2.633   4.034
 2622SOL    HW2 8766   2.497   2.489   4.107
 2623SOL     OW 8767   3.304   0.256   5.375
 2623SOL    HW1 8768   3.223   0.233   5.322
 2623SOL    HW2 8769   3.321   0.184   5.443
 2624SOL     OW 8770   4.730   2.070   4.624
 2624SOL    HW1 8771   4.740   2.037   4.530
 2624SOL    HW2 8772   4.635   2.058   4.653
 2625SOL     OW 8773   1.448   0.367   5.542
 2625SOL    HW1 8774   1.389   0.320   5.607
 2625SOL    HW2 8775   1.475   0.303   5.469
 2626SOL     OW 8776   2.559   6.909   3.160
 2626SOL    HW1 8777   2.461   6.891   3.167
 2626SOL    HW2 8778   2.584   6.987   3.217
 2627SOL     OW 8779   1.496   0.181   3.899
 2627SOL    HW1 8780   1.543   0.268   3.878
 2627SOL    HW2 8781   1.563   0.115   3.933
 2628SOL     OW 8782   4.756   5.022   6.541
 2628SOL    HW1 8783   4.733   5.118   6.558
 2628SOL    HW2 8784   4.750   5.004   6.443
 2629SOL     OW 8785   3.148   3.978   1.521
 2629SOL    HW1 8786   3.048   3.981   1.508
 2629SOL    HW2 8787   3.188   4.064   1.488
 2630SOL     OW 8788   3.408   1.573   2.494
 2630SOL    HW1 8789   3.450   1.595   2.406
 2630SOL    HW2 8790   3.308   1.579   2.485
 2631SOL     OW 8791   3.118   6.552   3.321
 2631SOL    HW1 8792   3.031   6.560   3.272
 2631SOL    HW2 8793   3.124   6.461   3.363
 2632SOL     OW 8794   5.290   1.674   0.260
 2632SOL    HW1 8795   5.218   1.664   0.329
 2632SOL    HW2 8796   5.379   1.661   0.304
 2633SOL     OW 8797   0.144   2.398   0.482
 2633SOL    HW1 8798   0.242   2.402   0.459
 2633SOL    HW2 8799   0.107   2.310   0.454
 2634SOL     OW 8800   2.502   5.011   6.976
 2634SOL    HW1 8801   2.461   4.984   0.038
 2634SOL    HW2 8802   2.545   5.101   6.986
 2635SOL     OW 8803   5.914   4.158   3.663
 2635SOL    HW1 8804   5.983   4.136   3.732
 2635SOL    HW2 8805   5.885   4.253   3.673
 2636SOL     OW 8806   5.282   4.855   6.001
 2636SOL    HW1 8807   5.310   4.946   5.969
 2636SOL    HW2 8808   5.186   4.839   5.978
 2637SOL     OW 8809   5.426   5.233   2.134
 2637SOL    HW1 8810   5.477   5.229   2.048
 2637SOL    HW2 8811   5.475   5.291   2.199
 2638SOL     OW 8812   4.413   5.099   0.102
 2638SOL    HW1 8813   4.488   5.159   0.132
 2638SOL    HW2 8814   4.361   5.145   0.031
 2639SOL     OW 8815   6.344   0.739   0.264
 2639SOL    HW1 8816   6.272   0.744   0.195
 2639SOL    HW2 8817   6.337   0.653   0.315
 2640SOL     OW 8818   6.722   6.408   1.373
 2640SOL    HW1 8819   6.664   6.474   1.326
 2640SOL    HW2 8820   6.808   6.399   1.324
 2641SOL     OW 8821   6.640   5.568   1.353
 2641SOL    HW1 8822   6.584   5.489   1.327
 2641SOL    HW2 8823   6.580   5.645   1.375
 2642SOL     OW 8824   6.996   6.756   4.163
 2642SOL    HW1 8825   0.063   6.739   4.201
 2642SOL    HW2 8826   6.936   6.790   4.235
 2643SOL     OW 8827   1.402   0.600   2.168
 2643SOL    HW1 8828   1.331   0.568   2.231
 2643SOL    HW2 8829   1.490   0.604   2.215
 2644SOL     OW 8830   6.166   6.210   4.585
 2644SOL    HW1 8831   6.126   6.270   4.655
 2644SOL    HW2 8832   6.107   6.131   4.571
 2645SOL     OW 8833   6.310   6.207   6.486
 2645SOL    HW1 8834   6.334   6.115   6.518
 2645SOL    HW2 8835   6.365   6.275   6.534
 2646SOL     OW 8836   5.711   4.891   5.657
 2646SOL    HW1 8837   5.709   4.865   5.754
 2646SOL    HW2 8838   5.733   4.811   5.602
 2647SOL     OW 8839   3.036   3.947   1.004
 2647SOL    HW1 8840   3.129   3.909   1.005
 2647SOL    HW2 8841   2.970   3.873   1.017
 2648SOL     OW 8842   4.522   1.338   3.203
 2648SOL    HW1 8843   4.479   1.255   3.237
 2648SOL    HW2 8844   4.581   1.377   3.274
 2649SOL     OW 8845   3.003   3.988   5.059
 2649SOL    HW1 8846   3.092   4.003   5.017
 2649SOL    HW2 8847   2.943   3.939   4.996
 2650SOL     OW 8848   0.068   6.397   2.763
 2650SOL    HW1 8849   0.048   6.480   2.815
 2650SOL    HW2 8850   0.081   6.420   2.667
 2651SOL     OW 8851   1.721   0.668   2.868
 2651SOL    HW1 8852   1.794   0.733   2.886
 2651SOL    HW2 8853   1.707   0.610   2.948
 2652SOL     OW 8854   3.015   2.024   1.599
 2652SOL    HW1 8855   3.028   2.036   1.697
 2652SOL    HW2 8856   2.964   2.103   1.563
 2653SOL     OW 8857   5.723   0.362   0.218
 2653SOL    HW1 8858   5.640   0.322   0.178
 2653SOL    HW2 8859   5.802   0.334   0.165
 2654SOL     OW 8860   0.581   3.641   5.728
 2654SOL    HW1 8861   0.515   3.605   5.663
 2654SOL    HW2 8862   0.668   3.592   5.718
 2655SOL     OW 8863   5.603   4.741   4.144
 2655SOL    HW1 8864   5.582   4.838   4.131
 2655SOL    HW2 8865   5.537   4.685   4.094
 2656SOL     OW 8866   5.645   3.644   5.111
 2656SOL    HW1 8867   5.564   3.589   5.090
 2656SOL    HW2 8868   5.697   3.659   5.027
 2657SOL     OW 8869   4.508   1.976   5.736
 2657SOL    HW1 8870   4.493   1.892   5.683
 2657SOL    HW2 8871   4.491   2.056   5.678
 2658SOL     OW 8872   0.228   4.500   5.926
 2658SOL    HW1 8873   0.235   4.410   5.883
 2658SOL    HW2 8874   0.220   4.488   6.025
 2659SOL     OW 8875   5.973   0.373   3.479
 2659SOL    HW1 8876   6.014   0.284   3.499
 2659SOL    HW2 8877   6.012   0.409   3.394
 2660SOL     OW 8878   1.175   1.583   3.921
 2660SOL    HW1 8879   1.077   1.605   3.918
 2660SOL    HW2 8880   1.210   1.602   4.013
 2661SOL     OW 8881   3.600   6.796   3.412
 2661SOL    HW1 8882   3.666   6.761   3.478
 2661SOL    HW2 8883   3.529   6.848   3.461
 2662SOL     OW 8884   4.306   1.591   4.973
 2662SOL    HW1 8885   4.239   1.529   5.012
 2662SOL    HW2 8886   4.308   1.676   5.027
 2663SOL     OW 8887   1.187   4.205   3.386
 2663SOL    HW1 8888   1.154   4.116   3.417
 2663SOL    HW2 8889   1.174   4.273   3.458
 2664SOL     OW 8890   4.865   4.263   1.805
 2664SOL    HW1 8891   4.945   4.236   1.752
 2664SOL    HW2 8892   4.811   4.182   1.829
 2665SOL     OW 8893   3.757   0.541   5.400
 2665SOL    HW1 8894   3.827   0.612   5.406
 2665SOL    HW2 8895   3.770   0.488   5.316
 2666SOL     OW 8896   4.398   6.134   1.622
 2666SOL    HW1 8897   4.324   6.174   1.675
 2666SOL    HW2 8898   4.462   6.088   1.683
 2667SOL     OW 8899   1.824   5.433   2.707
 2667SOL    HW1 8900   1.901   5.403   2.649
 2667SOL    HW2 8901   1.822   5.378   2.790
 2668SOL     OW 8902   0.439   2.701   5.277
 2668SOL    HW1 8903   0.459   2.703   5.179
 2668SOL    HW2 8904   0.485   2.624   5.319
 2669SOL     OW 8905   3.906   5.227   4.665
 2669SOL    HW1 8906   3.876   5.143   4.620
 2669SOL    HW2 8907   3.829   5.291   4.672
 2670SOL     OW 8908   2.007   0.090   4.438
 2670SOL    HW1 8909   2.015   7.015   4.438
 2670SOL    HW2 8910   1.966   0.120   4.351
 2671SOL     OW 8911   2.665   3.588   6.649
 2671SOL    HW1 8912   2.714   3.529   6.713
 2671SOL    HW2 8913   2.657   3.541   6.560
 2672SOL     OW 8914   0.988   4.525   0.813
 2672SOL    HW1 8915   0.992   4.426   0.794
 2672SOL    HW2 8916   1.073   4.568   0.784
 2673SOL     OW 8917   4.197   2.091   3.314
 2673SOL    HW1 8918   4.181   2.070   3.411
 2673SOL    HW2 8919   4.272   2.034   3.279
 2674SOL     OW 8920   5.054   5.446   5.355
 2674SOL    HW1 8921   5.054   5.351   5.386
 2674SOL    HW2 8922   5.102   5.503   5.422
 2675SOL     OW 8923   0.202   5.485   5.510
 2675SOL    HW1 8924   0.236   5.496   5.604
 2675SOL    HW2 8925   0.128   5.551   5.494
 2676SOL     OW 8926   4.222   0.289   1.677
 2676SOL    HW1 8927   4.226   0.229   1.597
 2676SOL    HW2 8928   4.274   0.372   1.658
 2677SOL     OW 8929   2.276   4.810   2.681
 2677SOL    HW1 8930   2.320   4.879   2.739
 2677SOL    HW2 8931   2.302   4.826   2.586
 2678SOL     OW 8932   1.105   6.399   0.236
 2678SOL    HW1 8933   1.005   6.394   0.242
 2678SOL    HW2 8934   1.136   6.485   0.278
 2679SOL     OW 8935   2.848   4.757   1.283
 2679SOL    HW1 8936   2.794   4.710   1.353
 2679SOL    HW2 8937   2.943   4.726   1.288
 2680SOL     OW 8938   0.064   1.782   0.890
 2680SOL    HW1 8939   0.123   1.742   0.959
 2680SOL    HW2 8940   0.027   1.869   0.923
 2681SOL     OW 8941   1.470   1.631   1.387
 2681SOL    HW1 8942   1.479   1.580   1.302
 2681SOL    HW2 8943   1.460   1.728   1.367
 2682SOL     OW 8944   0.889   2.888   3.719
 2682SOL    HW1 8945   0.969   2.921   3.669
 2682SOL    HW2 8946   0.809   2.889   3.659
 2683SOL     OW 8947   1.764   0.059   0.838
 2683SOL    HW1 8948   1.734   0.136   0.782
 2683SOL    HW2 8949   1.856   0.078   0.873
 2684SOL     OW 8950   3.744   4.913   3.264
 2684SOL    HW1 8951   3.824   4.855   3.250
 2684SOL    HW2 8952   3.768   4.988   3.326
 2685SOL     OW 8953   5.350   4.776   5.726
 2685SOL    HW1 8954   5.392   4.831   5.654
 2685SOL    HW2 8955   5.344   4.829   5.810
 2686SOL     OW 8956   1.575   3.415   3.941
 2686SOL    HW1 8957   1.499   3.408   3.877
 2686SOL    HW2 8958   1.578   3.333   3.999
 2687SOL     OW 8959   4.679   5.241   2.861
 2687SOL    HW1 8960   4.755   5.275   2.806
 2687SOL    HW2 8961   4.605   5.308   2.861
 2688SOL     OW 8962   3.351   4.515   5.424
 2688SOL    HW1 8963   3.252   4.522   5.439
 2688SOL    HW2 8964   3.390   4.607   5.419
 2689SOL     OW 8965   6.515   0.927   4.134
 2689SOL    HW1 8966   6.502   1.010   4.188
 2689SOL    HW2 8967   6.453   0.856   4.167
 2690SOL     OW 8968   3.556   4.105   3.443
 2690SOL    HW1 8969   3.489   4.101   3.369
 2690SOL    HW2 8970   3.511   4.134   3.527
 2691SOL     OW 8971   0.589   6.230   1.197
 2691SOL    HW1 8972   0.660   6.234   1.267
 2691SOL    HW2 8973   0.518   6.298   1.218
 2692SOL     OW 8974   0.143   3.908   3.825
 2692SOL    HW1 8975   0.147   3.815   3.862
 2692SOL    HW2 8976   0.077   3.962   3.877
 2693SOL     OW 8977   1.998   3.619   2.530
 2693SOL    HW1 8978   2.049   3.556   2.471
 2693SOL    HW2 8979   2.047   3.629   2.617
 2694SOL     OW 8980   2.110   1.861   2.689
 2694SOL    HW1 8981   2.132   1.870   2.786
 2694SOL    HW2 8982   2.127   1.948   2.643
 2695SOL     OW 8983   3.849   2.326   1.736
 2695SOL    HW1 8984   3.757   2.309   1.772
 2695SOL    HW2 8985   3.855   2.292   1.642
 2696SOL     OW 8986   3.045   3.381   6.798
 2696SOL    HW1 8987   3.082   3.343   6.883
 2696SOL    HW2 8988   3.003   3.309   6.744
 2697SOL     OW 8989   2.116   1.301   5.135
 2697SOL    HW1 8990   2.205   1.274   5.100
 2697SOL    HW2 8991   2.063   1.220   5.159
 2698SOL     OW 8992   2.238   2.040   0.264
 2698SOL    HW1 8993   2.168   2.102   0.300
 2698SOL    HW2 8994   2.284   2.084   0.186
 2699SOL     OW 8995   1.632   4.305   4.045
 2699SOL    HW1 8996   1.691   4.225   4.038
 2699SOL    HW2 8997   1.553   4.294   3.986
 2700SOL     OW 8998   1.929   4.491   3.499
 2700SOL    HW1 8999   1.873   4.446   3.430
 2700SOL    HW2 9000   1.874   4.513   3.579
 2701SOL     OW 9001   1.200   1.031   4.601
 2701SOL    HW1 9002   1.184   1.114   4.656
 2701SOL    HW2 9003   1.293   0.998   4.617
 2702SOL     OW 9004   6.028   5.560   2.216
 2702SOL    HW1 9005   5.954   5.494   2.231
 2702SOL    HW2 9006   5.994   5.653   2.230
 2703SOL     OW 9007   2.150   2.989   2.417
 2703SOL    HW1 9008   2.221   2.919   2.423
 2703SOL    HW2 9009   2.076   2.968   2.480
 2704SOL     OW 9010   0.582   5.626   1.011
 2704SOL    HW1 9011   0.663   5.667   1.053
 2704SOL    HW2 9012   0.510   5.696   1.003
 2705SOL     OW 9013   0.224   2.750   3.149
 2705SOL    HW1 9014   0.305   2.803   3.125
 2705SOL    HW2 9015   0.143   2.809   3.145
 2706SOL     OW 9016   6.766   1.898   3.188
 2706SOL    HW1 9017   6.702   1.856   3.123
 2706SOL    HW2 9018   6.817   1.970   3.142
 2707SOL     OW 9019   3.514   0.786   0.276
 2707SOL    HW1 9020   3.593   0.831   0.234
 2707SOL    HW2 9021   3.462   0.853   0.328
 2708SOL     OW 9022   1.259   4.637   6.780
 2708SOL    HW1 9023   1.185   4.615   6.716
 2708SOL    HW2 9024   1.231   4.714   6.837
 2709SOL     OW 9025   3.939   0.288   1.691
 2709SOL    HW1 9026   4.037   0.296   1.709
 2709SOL    HW2 9027   3.892   0.370   1.723
 2710SOL     OW 9028   5.801   3.837   3.372
 2710SOL    HW1 9029   5.714   3.856   3.327
 2710SOL    HW2 9030   5.851   3.768   3.320
 2711SOL     OW 9031   6.854   6.571   2.204
 2711SOL    HW1 9032   6.889   6.560   2.111
 2711SOL    HW2 9033   6.882   6.660   2.239
 2712SOL     OW 9034   4.176   5.493   3.023
 2712SOL    HW1 9035   4.170   5.407   2.972
 2712SOL    HW2 9036   4.273   5.519   3.032
 2713SOL     OW 9037   2.731   2.840   5.564
 2713SOL    HW1 9038   2.721   2.742   5.543
 2713SOL    HW2 9039   2.757   2.889   5.481
 2714SOL     OW 9040   5.942   0.401   6.480
 2714SOL    HW1 9041   5.870   0.332   6.480
 2714SOL    HW2 9042   5.992   0.397   6.567
 2715SOL     OW 9043   6.166   6.714   6.155
 2715SOL    HW1 9044   6.155   6.617   6.177
 2715SOL    HW2 9045   6.140   6.769   6.234
 2716SOL     OW 9046   5.927   6.769   1.766
 2716SOL    HW1 9047   6.015   6.764   1.718
 2716SOL    HW2 9048   5.853   6.759   1.699
 2717SOL     OW 9049   6.819   0.087   2.999
 2717SOL    HW1 9050   6.848   0.020   3.066
 2717SOL    HW2 9051   6.864   0.175   3.017
 2718SOL     OW 9052   6.740   3.898   3.265
 2718SOL    HW1 9053   6.834   3.880   3.238
 2718SOL    HW2 9054   6.738   3.951   3.350
 2719SOL     OW 9055   4.755   4.011   3.342
 2719SOL    HW1 9056   4.739   4.020   3.440
 2719SOL    HW2 9057   4.840   3.960   3.326
 2720SOL     OW 9058   0.207   6.881   4.377
 2720SOL    HW1 9059   0.208   6.786   4.347
 2720SOL    HW2 9060   0.187   6.940   4.298
 2721SOL     OW 9061   4.855   6.186   2.196
 2721SOL    HW1 9062   4.757   6.169   2.204
 2721SOL    HW2 9063   4.871   6.284   2.180
 2722SOL     OW 9064   0.803   6.346   2.789
 2722SOL    HW1 9065   0.866   6.422   2.770
 2722SOL    HW2 9066   0.827   6.304   2.876
 2723SOL     OW 9067   2.884   1.706   4.646
 2723SOL    HW1 9068   2.867   1.752   4.559
 2723SOL    HW2 9069   2.946   1.761   4.701
 2724SOL     OW 9070   4.523   5.649   5.877
 2724SOL    HW1 9071   4.536   5.614   5.970
 2724SOL    HW2 9072   4.438   5.613   5.840
 2725SOL     OW 9073   1.780   5.824   2.083
 2725SOL    HW1 9074   1.717   5.779   2.146
 2725SOL    HW2 9075   1.874   5.798   2.105
 2726SOL     OW 9076   4.099   6.358   2.316
 2726SOL    HW1 9077   4.000   6.369   2.320
 2726SOL    HW2 9078   4.129   6.297   2.390
 2727SOL     OW 9079   2.604   5.318   4.007
 2727SOL    HW1 9080   2.647   5.379   4.073
 2727SOL    HW2 9081   2.589   5.229   4.049
 2728SOL     OW 9082   2.226   6.542   5.187
 2728SOL    HW1 9083   2.210   6.627   5.238
 2728SOL    HW2 9084   2.324   6.523   5.183
 2729SOL     OW 9085   0.029   3.743   2.499
 2729SOL    HW1 9086   0.064   3.649   2.491
 2729SOL    HW2 9087   7.020   3.758   2.592
 2730SOL     OW 9088   1.785   2.722   1.664
 2730SOL    HW1 9089   1.743   2.813   1.655
 2730SOL    HW2 9090   1.836   2.718   1.750
 2731SOL     OW 9091   1.563   3.489   5.901
 2731SOL    HW1 9092   1.627   3.524   5.832
 2731SOL    HW2 9093   1.614   3.453   5.979
 2732SOL     OW 9094   5.207   3.106   4.332
 2732SOL    HW1 9095   5.143   3.035   4.304
 2732SOL    HW2 9096   5.301   3.074   4.317
 2733SOL     OW 9097   2.120   0.596   6.831
 2733SOL    HW1 9098   2.198   0.619   6.889
 2733SOL    HW2 9099   2.041   0.650   6.858
 2734SOL     OW 9100   2.448   6.979   3.959
 2734SOL    HW1 9101   2.533   6.990   4.011
 2734SOL    HW2 9102   2.462   7.011   3.866
 2735SOL     OW 9103   1.236   6.267   0.995
 2735SOL    HW1 9104   1.193   6.253   1.084
 2735SOL    HW2 9105   1.293   6.188   0.973
 2736SOL     OW 9106   4.295   0.343   6.749
 2736SOL    HW1 9107   4.259   0.269   6.693
 2736SOL    HW2 9108   4.395   0.340   6.747
 2737SOL     OW 9109   4.250   3.791   5.332
 2737SOL    HW1 9110   4.187   3.740   5.274
 2737SOL    HW2 9111   4.341   3.749   5.329
 2738SOL     OW 9112   0.789   3.960   5.499
 2738SOL    HW1 9113   0.869   3.950   5.439
 2738SOL    HW2 9114   0.818   3.994   5.588
 2739SOL     OW 9115   3.548   4.388   6.821
 2739SOL    HW1 9116   3.494   4.393   6.737
 2739SOL    HW2 9117   3.640   4.423   6.803
 2740SOL     OW 9118   6.323   2.690   4.833
 2740SOL    HW1 9119   6.253   2.753   4.866
 2740SOL    HW2 9120   6.318   2.604   4.886
 2741SOL     OW 9121   2.315   3.022   6.190
 2741SOL    HW1 9122   2.229   2.972   6.182
 2741SOL    HW2 9123   2.333   3.070   6.104
 2742SOL     OW 9124   2.457   6.104   4.369
 2742SOL    HW1 9125   2.418   6.071   4.455
 2742SOL    HW2 9126   2.539   6.051   4.347
 2743SOL     OW 9127   5.624   3.969   6.767
 2743SOL    HW1 9128   5.720   3.954   6.793
 2743SOL    HW2 9129   5.594   3.893   6.710
 2744SOL     OW 9130   4.787   6.479   1.164
 2744SOL    HW1 9131   4.872   6.463   1.215
 2744SOL    HW2 9132   4.782   6.575   1.137
 2745SOL     OW 9133   3.866   5.154   3.090
 2745SOL    HW1 9134   3.825   5.072   3.051
 2745SOL    HW2 9135   3.872   5.225   3.020
 2746SOL     OW 9136   1.280   2.606   7.020
 2746SOL    HW1 9137   1.197   2.652   6.989
 2746SOL    HW2 9138   1.301   2.531   6.958
 2747SOL     OW 9139   4.684   6.495   3.544
 2747SOL    HW1 9140   4.613   6.492   3.614
 2747SOL    HW2 9141   4.704   6.590   3.520
 2748SOL     OW 9142   5.834   0.540   5.009
 2748SOL    HW1 9143   5.900   0.466   5.024
 2748SOL    HW2 9144   5.876   0.627   5.034
 2749SOL     OW 9145   6.499   5.257   2.599
 2749SOL    HW1 9146   6.575   5.280   2.660
 2749SOL    HW2 9147   6.501   5.317   2.518
 2750SOL     OW 9148   0.756   0.882   0.359
 2750SOL    HW1 9149   0.798   0.929   0.437
 2750SOL    HW2 9150   0.812   0.803   0.334
 2751SOL     OW 9151   0.653   0.398   6.995
 2751SOL    HW1 9152   0.638   0.474   0.035
 2751SOL    HW2 9153   0.740   0.354   7.017
 2752SOL     OW 9154   0.575   6.738   5.826
 2752SOL    HW1 9155   0.632   6.818   5.850
 2752SOL    HW2 9156   0.607   6.699   5.740
 2753SOL     OW 9157   3.110   5.747   4.493
 2753SOL    HW1 9158   3.079   5.654   4.471
 2753SOL    HW2 9159   3.089   5.808   4.416
 2754SOL     OW 9160   0.838   5.315   4.253
 2754SOL    HW1 9161   0.915   5.376   4.270
 2754SOL    HW2 9162   0.853   5.228   4.300
 2755SOL     OW 9163   4.006   0.073   2.452
 2755SOL    HW1 9164   3.936   0.127   2.499
 2755SOL    HW2 9165   4.097   0.103   2.482
 2756SOL     OW 9166   0.324   2.775   4.904
 2756SOL    HW1 9167   0.284   2.694   4.946
 2756SOL    HW2 9168   0.252   2.834   4.868
 2757SOL     OW 9169   5.647   3.850   5.331
 2757SOL    HW1 9170   5.659   3.811   5.422
 2757SOL    HW2 9171   5.627   3.777   5.266
 2758SOL     OW 9172   0.276   6.313   1.423
 2758SOL    HW1 9173   0.351   6.306   1.489
 2758SOL    HW2 9174   0.190   6.330   1.472
 2759SOL     OW 9175   3.777   4.077   4.118
 2759SOL    HW1 9176   3.713   4.066   4.195
 2759SOL    HW2 9177   3.866   4.104   4.153
 2760SOL     OW 9178   5.161   6.089   3.054
 2760SOL    HW1 9179   5.169   6.009   3.114
 2760SOL    HW2 9180   5.157   6.172   3.110
 2761SOL     OW 9181   2.139   3.561   4.068
 2761SOL    HW1 9182   2.199   3.494   4.111
 2761SOL    HW2 9183   2.046   3.552   4.105
 2762SOL     OW 9184   4.567   1.953   2.630
 2762SOL    HW1 9185   4.496   2.009   2.673
 2762SOL    HW2 9186   4.553   1.857   2.654
 2763SOL     OW 9187   5.258   0.541   3.108
 2763SOL    HW1 9188   5.212   0.616   3.155
 2763SOL    HW2 9189   5.357   0.556   3.109
 2764SOL     OW 9190   0.291   1.695   2.802
 2764SOL    HW1 9191   0.240   1.624   2.851
 2764SOL    HW2 9192   0.292   1.779   2.856
 2765SOL     OW 9193   6.779   6.975   6.826
 2765SOL    HW1 9194   6.743   6.904   6.887
 2765SOL    HW2 9195   6.716   6.989   6.750
 2766SOL     OW 9196   5.181   0.144   0.195
 2766SOL    HW1 9197   5.173   0.222   0.258
 2766SOL    HW2 9198   5.270   0.146   0.151
 2767SOL     OW 9199   6.713   6.710   6.909
 2767SOL    HW1 9200   6.691   6.657   6.991
 2767SOL    HW2 9201   6.774   6.656   6.851
 2768SOL     OW 9202   4.356   0.528   1.636
 2768SOL    HW1 9203   4.447   0.565   1.621
 2768SOL    HW2 9204   4.297   0.554   1.559
 2769SOL     OW 9205   0.847   5.103   5.993
 2769SOL    HW1 9206   0.883   5.058   5.911
 2769SOL    HW2 9207   0.754   5.070   6.011
 2770SOL     OW 9208   1.502   6.583   7.023
 2770SOL    HW1 9209   1.485   6.642   6.944
 2770SOL    HW2 9210   1.421   6.583   0.058
 2771SOL     OW 9211   4.216   6.317   5.814
 2771SOL    HW1 9212   4.225   6.334   5.912
 2771SOL    HW2 9213   4.279   6.244   5.787
 2772SOL     OW 9214   6.408   2.045   3.251
 2772SOL    HW1 9215   6.380   1.957   3.289
 2772SOL    HW2 9216   6.489   2.079   3.299
 2773SOL     OW 9217   4.248   0.567   5.853
 2773SOL    HW1 9218   4.193   0.577   5.936
 2773SOL    HW2 9219   4.342   0.595   5.872
 2774SOL     OW 9220   6.203   6.717   4.057
 2774SOL    HW1 9221   6.265   6.747   3.985
 2774SOL    HW2 9222   6.173   6.623   4.039
 2775SOL     OW 9223   0.236   2.346   4.449
 2775SOL    HW1 9224   0.271   2.439   4.455
 2775SOL    HW2 9225   0.179   2.325   4.529
 2776SOL     OW 9226   5.079   4.127   6.025
 2776SOL    HW1 9227   5.122   4.040   5.999
 2776SOL    HW2 9228   5.144   4.201   6.014
 2777SOL     OW 9229   1.629   1.941   1.144
 2777SOL    HW1 9230   1.605   1.889   1.062
 2777SOL    HW2 9231   1.725   1.927   1.165
 2778SOL     OW 9232   2.479   6.457   5.107
 2778SOL    HW1 9233   2.559   6.515   5.119
 2778SOL    HW2 9234   2.501   6.363   5.135
 2779SOL     OW 9235   5.482   1.424   3.524
 2779SOL    HW1 9236   5.475   1.327   3.502
 2779SOL    HW2 9237   5.455   1.439   3.619
 2780SOL     OW 9238   0.737   6.780   5.523
 2780SOL    HW1 9239   0.718   6.855   5.587
 2780SOL    HW2 9240   0.758   6.818   5.433
 2781SOL     OW 9241   6.827   6.937   2.730
 2781SOL    HW1 9242   6.799   6.971   2.820
 2781SOL    HW2 9243   6.899   6.997   2.693
 2782SOL     OW 9244   5.364   6.296   5.093
 2782SOL    HW1 9245   5.384   6.198   5.089
 2782SOL    HW2 9246   5.399   6.340   5.010
 2783SOL     OW 9247   0.513   1.990   2.348
 2783SOL    HW1 9248   0.569   1.978   2.266
 2783SOL    HW2 9249   0.554   1.941   2.424
 2784SOL     OW 9250   0.852   1.607   2.453
 2784SOL    HW1 9251   0.917   1.587   2.379
 2784SOL    HW2 9252   0.848   1.529   2.516
 2785SOL     OW 9253   5.534   3.366   3.719
 2785SOL    HW1 9254   5.547   3.440   3.653
 2785SOL    HW2 9255   5.439   3.334   3.714
 2786SOL     OW 9256   0.461   6.228   1.646
 2786SOL    HW1 9257   0.551   6.189   1.664
 2786SOL    HW2 9258   0.450   6.313   1.697
 2787SOL     OW 9259   0.083   6.837   5.383
 2787SOL    HW1 9260   0.051   6.881   5.467
 2787SOL    HW2 9261   0.067   6.738   5.389
 2788SOL     OW 9262   2.729   6.459   5.764
 2788SOL    HW1 9263   2.689   6.449   5.673
 2788SOL    HW2 9264   2.829   6.462   5.756
 2789SOL     OW 9265   2.382   2.329   4.317
 2789SOL    HW1 9266   2.300   2.386   4.314
 2789SOL    HW2 9267   2.357   2.237   4.347
 2790SOL     OW 9268   1.164   4.791   0.477
 2790SOL    HW1 9269   1.116   4.878   0.476
 2790SOL    HW2 9270   1.161   4.752   0.570
 2791SOL     OW 9271   0.930   4.452   5.653
 2791SOL    HW1 9272   0.983   4.508   5.590
 2791SOL    HW2 9273   0.841   4.494   5.669
 2792SOL     OW 9274   2.487   2.810   0.149
 2792SOL    HW1 9275   2.568   2.755   0.173
 2792SOL    HW2 9276   2.431   2.759   0.084
 2793SOL     OW 9277   3.866   3.519   5.811
 2793SOL    HW1 9278   3.844   3.594   5.750
 2793SOL    HW2 9279   3.960   3.531   5.846
 2794SOL     OW 9280   1.617   1.537   0.259
 2794SOL    HW1 9281   1.684   1.465   0.277
 2794SOL    HW2 9282   1.653   1.599   0.189
 2795SOL     OW 9283   0.966   0.656   0.477
 2795SOL    HW1 9284   1.020   0.574   0.495
 2795SOL    HW2 9285   0.916   0.682   0.559
 2796SOL     OW 9286   2.882   6.028   6.491
 2796SOL    HW1 9287   2.800   6.084   6.477
 2796SOL    HW2 9288   2.865   5.961   6.564
 2797SOL     OW 9289   5.175   3.666   5.316
 2797SOL    HW1 9290   5.176   3.674   5.217
 2797SOL    HW2 9291   5.232   3.737   5.357
 2798SOL     OW 9292   5.931   2.536   2.500
 2798SOL    HW1 9293   5.905   2.556   2.595
 2798SOL    HW2 9294   5.922   2.620   2.445
 2799SOL     OW 9295   3.605   0.491   4.052
 2799SOL    HW1 9296   3.562   0.438   3.979
 2799SOL    HW2 9297   3.614   0.434   4.134
 2800SOL     OW 9298   5.021   1.451   0.841
 2800SOL    HW1 9299   5.020   1.368   0.897
 2800SOL    HW2 9300   5.057   1.527   0.895
 2801SOL     OW 9301   0.250   4.097   3.105
 2801SOL    HW1 9302   0.263   4.187   3.146
 2801SOL    HW2 9303   0.327   4.076   3.045
 2802SOL     OW 9304   2.015   4.201   4.441
 2802SOL    HW1 9305   1.923   4.207   4.402
 2802SOL    HW2 9306   2.040   4.289   4.482
 2803SOL     OW 9307   2.780   2.674   0.106
 2803SOL    HW1 9308   2.795   2.668   0.007
 2803SOL    HW2 9309   2.748   2.585   0.140
 2804SOL     OW 9310   5.546   2.584   3.734
 2804SOL    HW1 9311   5.597   2.534   3.664
 2804SOL    HW2 9312   5.516   2.521   3.805
 2805SOL     OW 9313   3.551   5.674   0.009
 2805SOL    HW1 9314   3.600   5.588   0.024
 2805SOL    HW2 9315   3.555   5.699   6.937
 2806SOL     OW 9316   1.428   3.207   5.013
 2806SOL    HW1 9317   1.517   3.244   4.986
 2806SOL    HW2 9318   1.377   3.275   5.065
 2807SOL     OW 9319   5.137   0.928   3.817
 2807SOL    HW1 9320   5.074   1.001   3.792
 2807SOL    HW2 9321   5.087   0.852   3.859
 2808SOL     OW 9322   0.485   6.883   6.830
 2808SOL    HW1 9323   0.557   6.939   6.869
 2808SOL    HW2 9324   0.425   6.850   6.903
 2809SOL     OW 9325   0.753   5.882   0.767
 2809SOL    HW1 9326   0.789   5.946   0.835
 2809SOL    HW2 9327   0.793   5.903   0.677
 2810SOL     OW 9328   0.011   6.161   2.499
 2810SOL    HW1 9329   0.109   6.170   2.513
 2810SOL    HW2 9330   6.995   6.112   2.577
 2811SOL     OW 9331   0.286   6.959   0.293
 2811SOL    HW1 9332   0.373   6.916   0.269
 2811SOL    HW2 9333   0.213   6.919   0.238
 2812SOL     OW 9334   1.840   0.472   0.546
 2812SOL    HW1 9335   1.777   0.513   0.480
 2812SOL    HW2 9336   1.919   0.433   0.498
 2813SOL     OW 9337   5.505   2.315   2.313
 2813SOL    HW1 9338   5.578   2.381   2.332
 2813SOL    HW2 9339   5.450   2.302   2.395
 2814SOL     OW 9340   2.314   4.445   6.703
 2814SOL    HW1 9341   2.225   4.400   6.712
 2814SOL    HW2 9342   2.373   4.391   6.644
 2815SOL     OW 9343   6.286   5.947   4.857
 2815SOL    HW1 9344   6.337   6.030   4.878
 2815SOL    HW2 9345   6.349   5.877   4.823
 2816SOL     OW 9346   1.048   5.431   5.340
 2816SOL    HW1 9347   0.988   5.351   5.332
 2816SOL    HW2 9348   1.143   5.402   5.340
 2817SOL     OW 9349   2.793   0.700   0.889
 2817SOL    HW1 9350   2.734   0.648   0.951
 2817SOL    HW2 9351   2.889   0.682   0.912
 2818SOL     OW 9352   1.869   0.138   0.334
 2818SOL    HW1 9353   1.910   0.089   0.257
 2818SOL    HW2 9354   1.789   0.190   0.301
 2819SOL     OW 9355   6.207   0.432   6.967
 2819SOL    HW1 9356   6.286   0.374   6.948
 2819SOL    HW2 9357   6.235   0.512   7.019
 2820SOL     OW 9358   1.696   1.698   0.059
 2820SOL    HW1 9359   1.781   1.744   0.085
 2820SOL    HW2 9360   1.630   1.766   0.027
 2821SOL     OW 9361   4.163   2.703   6.152
 2821SOL    HW1 9362   4.161   2.799   6.180
 2821SOL    HW2 9363   4.251   2.662   6.178
 2822SOL     OW 9364   4.139   3.994   1.451
 2822SOL    HW1 9365   4.053   3.968   1.496
 2822SOL    HW2 9366   4.212   4.001   1.519
 2823SOL     OW 9367   5.323   4.246   4.084
 2823SOL    HW1 9368   5.379   4.168   4.057
 2823SOL    HW2 9369   5.316   4.311   4.008
 2824SOL     OW 9370   0.899   4.856   5.833
 2824SOL    HW1 9371   0.961   4.926   5.798
 2824SOL    HW2 9372   0.921   4.837   5.929
 2825SOL     OW 9373   4.770   2.115   5.701
 2825SOL    HW1 9374   4.686   2.065   5.684
 2825SOL    HW2 9375   4.807   2.089   5.791
 2826SOL     OW 9376   2.848   2.629   6.080
 2826SOL    HW1 9377   2.923   2.630   6.014
 2826SOL    HW2 9378   2.883   2.603   6.170
 2827SOL     OW 9379   6.897   2.053   0.575
 2827SOL    HW1 9380   6.923   2.115   0.649
 2827SOL    HW2 9381   6.908   2.101   0.487
 2828SOL     OW 9382   1.902   3.728   6.897
 2828SOL    HW1 9383   1.898   3.817   6.944
 2828SOL    HW2 9384   1.996   3.697   6.893
 2829SOL     OW 9385   3.358   4.564   1.183
 2829SOL    HW1 9386   3.373   4.609   1.272
 2829SOL    HW2 9387   3.446   4.550   1.138
 2830SOL     OW 9388   2.646   5.150   4.700
 2830SOL    HW1 9389   2.557   5.173   4.661
 2830SOL    HW2 9390   2.639   5.065   4.752
 2831SOL     OW 9391   5.678   2.123   2.240
 2831SOL    HW1 9392   5.594   2.177   2.246
 2831SOL    HW2 9393   5.744   2.170   2.181
 2832SOL     OW 9394   1.695   2.902   1.233
 2832SOL    HW1 9395   1.688   2.919   1.134
 2832SOL    HW2 9396   1.730   2.983   1.278
 2833SOL     OW 9397   6.751   2.225   2.895
 2833SOL    HW1 9398   6.769   2.294   2.825
 2833SOL    HW2 9399   6.664   2.244   2.939
 2834SOL     OW 9400   2.850   0.077   3.813
 2834SOL    HW1 9401   2.777   0.144   3.808
 2834SOL    HW2 9402   2.826   0.006   3.879
 2835SOL     OW 9403   6.308   1.325   0.287
 2835SOL    HW1 9404   6.220   1.293   0.252
 2835SOL    HW2 9405   6.324   1.284   0.377
 2836SOL     OW 9406   2.570   6.415   1.971
 2836SOL    HW1 9407   2.619   6.485   2.021
 2836SOL    HW2 9408   2.527   6.352   2.036
 2837SOL     OW 9409   4.726   4.824   3.549
 2837SOL    HW1 9410   4.822   4.837   3.571
 2837SOL    HW2 9411   4.709   4.727   3.529
 2838SOL     OW 9412   0.198   5.786   6.181
 2838SOL    HW1 9413   0.174   5.818   6.273
 2838SOL    HW2 9414   0.152   5.843   6.113
 2839SOL     OW 9415   5.776   2.205   6.547
 2839SOL    HW1 9416   5.683   2.214   6.582
 2839SOL    HW2 9417   5.778   2.229   6.450
 2840SOL     OW 9418   6.409   5.705   4.777
 2840SOL    HW1 9419   6.341   5.663   4.717
 2840SOL    HW2 9420   6.412   5.654   4.864
 2841SOL     OW 9421   5.623   3.391   3.042
 2841SOL    HW1 9422   5.528   3.380   3.012
 2841SOL    HW2 9423   5.659   3.302   3.069
 2842SOL     OW 9424   1.469   6.100   3.793
 2842SOL    HW1 9425   1.454   6.183   3.739
 2842SOL    HW2 9426   1.517   6.032   3.737
 2843SOL     OW 9427   1.153   2.568   3.970
 2843SOL    HW1 9428   1.154   2.598   3.875
 2843SOL    HW2 9429   1.059   2.559   4.002
 2844SOL     OW 9430   5.467   3.926   0.896
 2844SOL    HW1 9431   5.509   4.016   0.883
 2844SOL    HW2 9432   5.461   3.879   0.807
 2845SOL     OW 9433   2.968   1.763   1.508
 2845SOL    HW1 9434   2.962   1.862   1.523
 2845SOL    HW2 9435   2.978   1.717   1.596
 2846SOL     OW 9436   5.725   0.745   6.002
 2846SOL    HW1 9437   5.677   0.829   6.027
 2846SOL    HW2 9438   5.662   0.667   6.007
 2847SOL     OW 9439   6.380   4.811   2.456
 2847SOL    HW1 9440   6.280   4.809   2.454
 2847SOL    HW2 9441   6.412   4.816   2.551
 2848SOL     OW 9442   6.751   3.924   6.970
 2848SOL    HW1 9443   6.820   3.992   6.992
 2848SOL    HW2 9444   6.793   3.833   6.970
 2849SOL     OW 9445   5.309   1.116   0.507
 2849SOL    HW1 9446   5.333   1.194   0.566
 2849SOL    HW2 9447   5.233   1.066   0.547
 2850SOL     OW 9448   6.694   0.918   1.142
 2850SOL    HW1 9449   6.674   0.952   1.050
 2850SOL    HW2 9450   6.608   0.908   1.193
 2851SOL     OW 9451   3.408   3.019   2.442
 2851SOL    HW1 9452   3.345   3.040   2.367
 2851SOL    HW2 9453   3.378   3.064   2.526
 2852SOL     OW 9454   1.660   4.886   4.986
 2852SOL    HW1 9455   1.670   4.799   4.937
 2852SOL    HW2 9456   1.746   4.911   5.029
 2853SOL     OW 9457   6.547   5.007   5.580
 2853SOL    HW1 9458   6.512   5.086   5.632
 2853SOL    HW2 9459   6.604   5.040   5.505
 2854SOL     OW 9460   3.127   0.854   0.174
 2854SOL    HW1 9461   3.106   0.934   0.117
 2854SOL    HW2 9462   3.187   0.792   0.125
 2855SOL     OW 9463   2.928   1.955   4.223
 2855SOL    HW1 9464   2.903   2.052   4.218
 2855SOL    HW2 9465   3.010   1.946   4.279
 2856SOL     OW 9466   1.113   5.425   4.675
 2856SOL    HW1 9467   1.064   5.381   4.750
 2856SOL    HW2 9468   1.206   5.389   4.671
 2857SOL     OW 9469   0.838   4.223   0.101
 2857SOL    HW1 9470   0.856   4.279   0.182
 2857SOL    HW2 9471   0.922   4.217   0.046
 2858SOL     OW 9472   5.142   4.712   4.286
 2858SOL    HW1 9473   5.143   4.646   4.360
 2858SOL    HW2 9474   5.095   4.795   4.316
 2859SOL     OW 9475   0.413   4.715   1.998
 2859SOL    HW1 9476   0.407   4.776   1.919
 2859SOL    HW2 9477   0.369   4.758   2.077
 2860SOL     OW 9478   1.074   6.387   2.074
 2860SOL    HW1 9479   1.155   6.442   2.096
 2860SOL    HW2 9480   1.004   6.446   2.034
 2861SOL     OW 9481   6.027   2.698   5.094
 2861SOL    HW1 9482   6.026   2.644   5.009
 2861SOL    HW2 9483   6.094   2.772   5.086
 2862SOL     OW 9484   4.170   1.441   1.147
 2862SOL    HW1 9485   4.126   1.352   1.140
 2862SOL    HW2 9486   4.105   1.508   1.182
 2863SOL     OW 9487   5.292   1.420   6.207
 2863SOL    HW1 9488   5.354   1.489   6.169
 2863SOL    HW2 9489   5.342   1.334   6.218
 2864SOL     OW 9490   4.669   4.272   0.288
 2864SOL    HW1 9491   4.627   4.222   0.212
 2864SOL    HW2 9492   4.622   4.359   0.301
 2865SOL     OW 9493   5.227   4.390   6.732
 2865SOL    HW1 9494   5.263   4.478   6.763
 2865SOL    HW2 9495   5.131   4.400   6.705
 2866SOL     OW 9496   5.286   6.119   0.391
 2866SOL    HW1 9497   5.227   6.199   0.397
 2866SOL    HW2 9498   5.255   6.049   0.455
 2867SOL     OW 9499   0.808   6.214   3.518
 2867SOL    HW1 9500   0.862   6.133   3.542
 2867SOL    HW2 9501   0.749   6.193   3.440
 2868SOL     OW 9502   6.070   6.292   5.262
 2868SOL    HW1 9503   6.132   6.363   5.296
 2868SOL    HW2 9504   5.988   6.289   5.319
 2869SOL     OW 9505   5.954   4.522   5.433
 2869SOL    HW1 9506   6.027   4.540   5.367
 2869SOL    HW2 9507   5.984   4.551   5.524
 2870SOL     OW 9508   0.174   1.421   1.738
 2870SOL    HW1 9509   0.226   1.394   1.656
 2870SOL    HW2 9510   0.112   1.347   1.763
 2871SOL     OW 9511   4.955   1.593   3.392
 2871SOL    HW1 9512   4.954   1.508   3.444
 2871SOL    HW2 9513   4.868   1.641   3.405
 2872SOL     OW 9514   3.195   1.164   2.326
 2872SOL    HW1 9515   3.128   1.237   2.345
 2872SOL    HW2 9516   3.238   1.180   2.238
 2873SOL     OW 9517   0.332   0.533   2.420
 2873SOL    HW1 9518   0.367   0.462   2.359
 2873SOL    HW2 9519   0.382   0.530   2.507
 2874SOL     OW 9520   0.854   0.329   2.125
 2874SOL    HW1 9521   0.843   0.397   2.198
 2874SOL    HW2 9522   0.911   0.367   2.052
 2875SOL     OW 9523   3.312   0.882   2.328
 2875SOL    HW1 9524   3.256   0.964   2.344
 2875SOL    HW2 9525   3.271   0.804   2.376
 2876SOL     OW 9526   0.762   0.474   0.358
 2876SOL    HW1 9527   0.840   0.426   0.317
 2876SOL    HW2 9528   0.796   0.546   0.418
 2877SOL     OW 9529   1.296   2.861   6.352
 2877SOL    HW1 9530   1.293   2.902   6.261
 2877SOL    HW2 9531   1.205   2.829   6.377
 2878SOL     OW 9532   3.911   4.046   4.389
 2878SOL    HW1 9533   3.853   4.091   4.457
 2878SOL    HW2 9534   3.984   3.995   4.435
 2879SOL     OW 9535   6.960   0.001   0.560
 2879SOL    HW1 9536   0.008   7.009   0.493
 2879SOL    HW2 9537   6.989   0.074   0.623
 2880SOL     OW 9538   1.555   0.986   2.173
 2880SOL    HW1 9539   1.610   1.022   2.097
 2880SOL    HW2 9540   1.589   1.024   2.259
 2881SOL     OW 9541   5.329   5.495   0.219
 2881SOL    HW1 9542   5.254   5.561   0.209
 2881SOL    HW2 9543   5.382   5.494   0.134
 2882SOL     OW 9544   4.624   6.146   0.282
 2882SOL    HW1 9545   4.541   6.107   0.241
 2882SOL    HW2 9546   4.607   6.241   0.307
 2883SOL     OW 9547   5.439   5.745   2.964
 2883SOL    HW1 9548   5.396   5.656   2.979
 2883SOL    HW2 9549   5.385   5.798   2.898
 2884SOL     OW 9550   5.569   4.892   3.248
 2884SOL    HW1 9551   5.645   4.858   3.304
 2884SOL    HW2 9552   5.605   4.952   3.177
 2885SOL     OW 9553   0.184   5.004   3.745
 2885SOL    HW1 9554   0.202   5.047   3.833
 2885SOL    HW2 9555   0.144   5.071   3.682
 2886SOL     OW 9556   1.754   4.784   5.284
 2886SOL    HW1 9557   1.763   4.745   5.193
 2886SOL    HW2 9558   1.674   4.844   5.287
 2887SOL     OW 9559   0.433   4.526   2.455
 2887SOL    HW1 9560   0.450   4.581   2.373
 2887SOL    HW2 9561   0.448   4.429   2.434
 2888SOL     OW 9562   4.278   5.944   6.808
 2888SOL    HW1 9563   4.204   5.988   6.756
 2888SOL    HW2 9564   4.326   6.013   6.863
 2889SOL     OW 9565   4.243   5.116   3.484
 2889SOL    HW1 9566   4.336   5.144   3.459
 2889SOL    HW2 9567   4.178   5.150   3.416
 2890SOL     OW 9568   1.538   1.842   0.903
 2890SOL    HW1 9569   1.554   1.752   0.861
 2890SOL    HW2 9570   1.552   1.913   0.835
 2891SOL     OW 9571   1.867   1.709   5.314
 2891SOL    HW1 9572   1.874   1.783   5.381
 2891SOL    HW2 9573   1.859   1.749   5.222
 2892SOL     OW 9574   5.812   4.577   2.181
 2892SOL    HW1 9575   5.808   4.673   2.210
 2892SOL    HW2 9576   5.860   4.523   2.250
 2893SOL     OW 9577   6.645   6.053   5.028
 2893SOL    HW1 9578   6.572   6.077   4.964
 2893SOL    HW2 9579   6.609   6.055   5.121
 2894SOL     OW 9580   1.619   5.334   1.031
 2894SOL    HW1 9581   1.528   5.296   1.049
 2894SOL    HW2 9582   1.613   5.434   1.030
 2895SOL     OW 9583   4.604   6.311   6.234
 2895SOL    HW1 9584   4.637   6.405   6.227
 2895SOL    HW2 9585   4.561   6.285   6.148
 2896SOL     OW 9586   6.653   0.593   6.719
 2896SOL    HW1 9587   6.622   0.645   6.798
 2896SOL    HW2 9588   6.750   0.612   6.703
 2897SOL     OW 9589   3.182   6.016   3.450
 2897SOL    HW1 9590   3.173   5.965   3.364
 2897SOL    HW2 9591   3.094   6.018   3.496
 2898SOL     OW 9592   5.392   3.109   2.849
 2898SOL    HW1 9593   5.413   3.196   2.804
 2898SOL    HW2 9594   5.457   3.040   2.818
 2899SOL     OW 9595   5.691   2.963   1.174
 2899SOL    HW1 9596   5.753   2.920   1.240
 2899SOL    HW2 9597   5.651   2.893   1.115
 2900SOL     OW 9598   3.408   3.106   4.639
 2900SOL    HW1 9599   3.422   3.178   4.572
 2900SOL    HW2 9600   3.453   3.022   4.609
 2901SOL     OW 9601   1.633   2.334   1.826
 2901SOL    HW1 9602   1.719   2.302   1.786
 2901SOL    HW2 9603   1.646   2.350   1.924
 2902SOL     OW 9604   5.105   6.464   3.453
 2902SOL    HW1 9605   5.130   6.556   3.482
 2902SOL    HW2 9606   5.057   6.468   3.365
 2903SOL     OW 9607   0.697   4.865   2.355
 2903SOL    HW1 9608   0.778   4.896   2.305
 2903SOL    HW2 9609   0.640   4.943   2.380
 2904SOL     OW 9610   3.725   4.938   4.327
 2904SOL    HW1 9611   3.800   4.901   4.271
 2904SOL    HW2 9612   3.764   4.981   4.408
 2905SOL     OW 9613   2.115   3.756   1.333
 2905SOL    HW1 9614   2.207   3.794   1.342
 2905SOL    HW2 9615   2.106   3.676   1.393
 2906SOL     OW 9616   6.412   6.753   6.130
 2906SOL    HW1 9617   6.314   6.757   6.147
 2906SOL    HW2 9618   6.432   6.678   6.067
 2907SOL     OW 9619   0.604   1.589   6.614
 2907SOL    HW1 9620   0.533   1.652   6.644
 2907SOL    HW2 9621   0.617   1.597   6.515
 2908SOL     OW 9622   3.275   5.854   3.811
 2908SOL    HW1 9623   3.199   5.792   3.794
 2908SOL    HW2 9624   3.317   5.832   3.899
 2909SOL     OW 9625   6.873   6.225   0.801
 2909SOL    HW1 9626   6.862   6.182   0.712
 2909SOL    HW2 9627   6.970   6.237   0.821
 2910SOL     OW 9628   1.761   0.041   3.632
 2910SOL    HW1 9629   1.805   6.994   3.577
 2910SOL    HW2 9630   1.691   0.000   3.691
 2911SOL     OW 9631   6.424   3.564   3.625
 2911SOL    HW1 9632   6.446   3.558   3.722
 2911SOL    HW2 9633   6.472   3.493   3.575
 2912SOL     OW 9634   0.048   1.273   2.927
 2912SOL    HW1 9635   6.980   1.310   2.922
 2912SOL    HW2 9636   0.096   1.291   2.841
 2913SOL     OW 9637   0.619   6.809   4.231
 2913SOL    HW1 9638   0.532   6.849   4.201
 2913SOL    HW2 9639   0.694   6.872   4.208
 2914SOL     OW 9640   3.713   4.738   0.632
 2914SOL    HW1 9641   3.750   4.662   0.684
 2914SOL    HW2 9642   3.778   4.765   0.561
 2915SOL     OW 9643   1.930   6.619   3.353
 2915SOL    HW1 9644   1.996   6.653   3.420
 2915SOL    HW2 9645   1.905   6.693   3.291
 2916SOL     OW 9646   0.042   6.484   6.953
 2916SOL    HW1 9647   0.075   6.514   0.018
 2916SOL    HW2 9648   0.117   6.442   6.901
 2917SOL     OW 9649   2.524   1.814   4.080
 2917SOL    HW1 9650   2.610   1.763   4.077
 2917SOL    HW2 9651   2.524   1.884   4.008
 2918SOL     OW 9652   5.232   0.648   1.237
 2918SOL    HW1 9653   5.228   0.671   1.334
 2918SOL    HW2 9654   5.271   0.725   1.186
 2919SOL     OW 9655   1.076   5.031   5.736
 2919SOL    HW1 9656   1.077   5.127   5.764
 2919SOL    HW2 9657   1.164   4.989   5.756
 2920SOL     OW 9658   2.865   2.668   1.470
 2920SOL    HW1 9659   2.881   2.761   1.501
 2920SOL    HW2 9660   2.899   2.603   1.539
 2921SOL     OW 9661   7.023   4.642   2.988
 2921SOL    HW1 9662   0.009   4.741   2.997
 2921SOL    HW2 9663   0.083   4.596   3.017
 2922SOL     OW 9664   3.683   5.634   3.991
 2922SOL    HW1 9665   3.683   5.635   3.891
 2922SOL    HW2 9666   3.709   5.724   4.025
 2923SOL     OW 9667   1.527   4.724   3.918
 2923SOL    HW1 9668   1.497   4.758   3.829
 2923SOL    HW2 9669   1.617   4.680   3.908
 2924SOL     OW 9670   4.210   2.259   0.127
 2924SOL    HW1 9671   4.274   2.195   0.170
 2924SOL    HW2 9672   4.172   2.320   0.196
 2925SOL     OW 9673   5.534   6.254   4.752
 2925SOL    HW1 9674   5.573   6.301   4.673
 2925SOL    HW2 9675   5.515   6.320   4.825
 2926SOL     OW 9676   6.910   2.673   5.225
 2926SOL    HW1 9677   6.960   2.733   5.287
 2926SOL    HW2 9678   6.959   2.666   5.138
 2927SOL     OW 9679   1.754   2.134   3.115
 2927SOL    HW1 9680   1.723   2.169   3.027
 2927SOL    HW2 9681   1.846   2.167   3.134
 2928SOL     OW 9682   5.171   4.794   0.038
 2928SOL    HW1 9683   5.091   4.745   0.074
 2928SOL    HW2 9684   5.141   4.881   7.022
 2929SOL     OW 9685   1.685   1.067   2.418
 2929SOL    HW1 9686   1.719   0.987   2.468
 2929SOL    HW2 9687   1.751   1.141   2.426
 2930SOL     OW 9688   1.121   3.162   3.700
 2930SOL    HW1 9689   1.064   3.132   3.777
 2930SOL    HW2 9690   1.090   3.117   3.616
 2931SOL     OW 9691   5.625   4.525   5.954
 2931SOL    HW1 9692   5.582   4.532   5.864
 2931SOL    HW2 9693   5.616   4.431   5.987
 2932SOL     OW 9694   6.213   6.801   0.314
 2932SOL    HW1 9695   6.213   6.799   0.414
 2932SOL    HW2 9696   6.136   6.747   0.280
 2933SOL     OW 9697   0.495   1.064   6.393
 2933SOL    HW1 9698   0.566   1.126   6.424
 2933SOL    HW2 9699   0.464   1.008   6.469
 2934SOL     OW 9700   4.974   5.567   2.718
 2934SOL    HW1 9701   5.031   5.617   2.652
 2934SOL    HW2 9702   5.007   5.473   2.724
 2935SOL     OW 9703   0.164   4.673   6.263
 2935SOL    HW1 9704   0.185   4.736   6.338
 2935SOL    HW2 9705   0.136   4.726   6.183
 2936SOL     OW 9706   4.830   6.507   2.497
 2936SOL    HW1 9707   4.809   6.592   2.450
 2936SOL    HW2 9708   4.926   6.482   2.481
 2937SOL     OW 9709   6.467   3.434   4.350
 2937SOL    HW1 9710   6.531   3.470   4.417
 2937SOL    HW2 9711   6.496   3.343   4.321
 2938SOL     OW 9712   6.975   5.916   1.247
 2938SOL    HW1 9713   6.976   5.943   1.151
 2938SOL    HW2 9714   6.941   5.822   1.254
 2939SOL     OW 9715   6.780   5.669   2.083
 2939SOL    HW1 9716   6.809   5.577   2.059
 2939SOL    HW2 9717   6.859   5.731   2.082
 2940SOL     OW 9718   4.966   6.066   3.413
 2940SOL    HW1 9719   4.975   6.116   3.327
 2940SOL    HW2 9720   4.933   6.127   3.484
 2941SOL     OW 9721   2.960   4.982   1.778
 2941SOL    HW1 9722   3.010   4.945   1.855
 2941SOL    HW2 9723   2.963   4.917   1.701
 2942SOL     OW 9724   2.608   1.629   0.321
 2942SOL    HW1 9725   2.572   1.542   0.355
 2942SOL    HW2 9726   2.606   1.697   0.395
 2943SOL     OW 9727   0.185   4.888   3.458
 2943SOL    HW1 9728   0.230   4.879   3.546
 2943SOL    HW2 9729   0.202   4.979   3.420
 2944SOL     OW 9730   0.537   5.240   3.925
 2944SOL    HW1 9731   0.448   5.275   3.951
 2944SOL    HW2 9732   0.526   5.174   3.850
 2945SOL     OW 9733   5.679   3.220   0.243
 2945SOL    HW1 9734   5.624   3.284   0.296
 2945SOL    HW2 9735   5.640   3.210   0.151
 2946SOL     OW 9736   3.178   3.835   4.373
 2946SOL    HW1 9737   3.266   3.790   4.359
 2946SOL    HW2 9738   3.106   3.765   4.384
 2947SOL     OW 9739   0.101   6.438   0.538
 2947SOL    HW1 9740   0.010   6.402   0.515
 2947SOL    HW2 9741   0.130   6.503   0.469
 2948SOL     OW 9742   6.158   5.303   0.990
 2948SOL    HW1 9743   6.242   5.249   0.982
 2948SOL    HW2 9744   6.166   5.384   0.931
 2949SOL     OW 9745   1.167   5.756   0.742
 2949SOL    HW1 9746   1.132   5.842   0.778
 2949SOL    HW2 9747   1.166   5.759   0.643
 2950SOL     OW 9748   5.150   4.817   2.652
 2950SOL    HW1 9749   5.204   4.880   2.596
 2950SOL    HW2 9750   5.199   4.797   2.736
 2951SOL     OW 9751   1.218   3.966   0.707
 2951SOL    HW1 9752   1.203   3.886   0.650
 2951SOL    HW2 9753   1.315   3.974   0.730
 2952SOL     OW 9754   1.444   1.369   3.936
 2952SOL    HW1 9755   1.493   1.303   3.880
 2952SOL    HW2 9756   1.428   1.330   4.027
 2953SOL     OW 9757   0.950   5.428   2.969
 2953SOL    HW1 9758   0.988   5.517   2.945
 2953SOL    HW2 9759   0.926   5.428   3.066
 2954SOL     OW 9760   6.880   4.639   5.584
 2954SOL    HW1 9761   6.918   4.641   5.492
 2954SOL    HW2 9762   6.950   4.664   5.651
 2955SOL     OW 9763   0.936   4.818   6.153
 2955SOL    HW1 9764   0.850   4.797   6.200
 2955SOL    HW2 9765   0.973   4.905   6.187
 2956SOL     OW 9766   6.153   3.684   5.079
 2956SOL    HW1 9767   6.211   3.644   5.149
 2956SOL    HW2 9768   6.123   3.613   5.015
 2957SOL     OW 9769   1.312   4.552   1.900
 2957SOL    HW1 9770   1.337   4.468   1.948
 2957SOL    HW2 9771   1.339   4.631   1.956
 2958SOL     OW 9772   1.988   3.210   1.296
 2958SOL    HW1 9773   2.006   3.219   1.394
 2958SOL    HW2 9774   2.023   3.122   1.264
 2959SOL     OW 9775   1.202   4.154   4.061
 2959SOL    HW1 9776   1.142   4.082   4.027
 2959SOL    HW2 9777   1.148   4.232   4.093
 2960SOL     OW 9778   5.138   5.361   0.630
 2960SOL    HW1 9779   5.089   5.431   0.578
 2960SOL    HW2 9780   5.139   5.276   0.577
 2961SOL     OW 9781   5.791   1.837   0.820
 2961SOL    HW1 9782   5.710   1.782   0.840
 2961SOL    HW2 9783   5.870   1.798   0.867
 2962SOL     OW 9784   6.771   0.832   4.057
 2962SOL    HW1 9785   6.824   0.843   4.141
 2962SOL    HW2 9786   6.678   0.866   4.072
 2963SOL     OW 9787   1.724   0.877   6.250
 2963SOL    HW1 9788   1.766   0.822   6.321
 2963SOL    HW2 9789   1.773   0.964   6.241
 2964SOL     OW 9790   0.944   1.273   5.767
 2964SOL    HW1 9791   0.937   1.194   5.706
 2964SOL    HW2 9792   1.015   1.256   5.835
 2965SOL     OW 9793   6.447   1.456   6.330
 2965SOL    HW1 9794   6.543   1.483   6.332
 2965SOL    HW2 9795   6.437   1.364   6.366
 2966SOL     OW 9796   3.771   0.692   2.555
 2966SOL    HW1 9797   3.724   0.644   2.629
 2966SOL    HW2 9798   3.800   0.782   2.587
 2967SOL     OW 9799   5.142   6.351   5.309
 2967SOL    HW1 9800   5.223   6.293   5.319
 2967SOL    HW2 9801   5.061   6.293   5.298
 2968SOL     OW 9802   1.970   3.924   1.615
 2968SOL    HW1 9803   2.003   3.888   1.703
 2968SOL    HW2 9804   2.035   3.899   1.543
 2969SOL     OW 9805   4.168   1.808   4.775
 2969SOL    HW1 9806   4.244   1.758   4.818
 2969SOL    HW2 9807   4.200   1.852   4.691
 2970SOL     OW 9808   2.311   2.711   6.610
 2970SOL    HW1 9809   2.304   2.661   6.524
 2970SOL    HW2 9810   2.326   2.647   6.686
 2971SOL     OW 9811   4.017   4.210   5.606
 2971SOL    HW1 9812   3.977   4.289   5.560
 2971SOL    HW2 9813   4.034   4.232   5.702
 2972SOL     OW 9814   0.489   5.880   0.863
 2972SOL    HW1 9815   0.586   5.857   0.856
 2972SOL    HW2 9816   0.451   5.894   0.772
 2973SOL     OW 9817   4.797   0.503   5.017
 2973SOL    HW1 9818   4.791   0.409   4.985
 2973SOL    HW2 9819   4.783   0.506   5.116
 2974SOL     OW 9820   5.288   4.935   2.448
 2974SOL    HW1 9821   5.209   4.945   2.387
 2974SOL    HW2 9822   5.336   5.023   2.454
 2975SOL     OW 9823   0.853   4.089   5.181
 2975SOL    HW1 9824   0.769   4.039   5.200
 2975SOL    HW2 9825   0.862   4.103   5.083
 2976SOL     OW 9826   4.120   0.033   1.474
 2976SOL    HW1 9827   4.210   7.013   1.480
 2976SOL    HW2 9828   4.116   0.089   1.391
 2977SOL     OW 9829   1.116   1.586   2.281
 2977SOL    HW1 9830   1.204   1.594   2.235
 2977SOL    HW2 9831   1.096   1.671   2.331
 2978SOL     OW 9832   3.572   5.551   0.438
 2978SOL    HW1 9833   3.538   5.509   0.522
 2978SOL    HW2 9834   3.670   5.570   0.446
 2979SOL     OW 9835   2.269   1.410   5.867
 2979SOL    HW1 9836   2.307   1.453   5.785
 2979SOL    HW2 9837   2.339   1.351   5.909
 2980SOL     OW 9838   3.523   3.239   2.982
 2980SOL    HW1 9839   3.551   3.287   3.065
 2980SOL    HW2 9840   3.582   3.267   2.906
 2981SOL     OW 9841   1.949   1.263   1.267
 2981SOL    HW1 9842   1.954   1.272   1.167
 2981SOL    HW2 9843   2.028   1.213   1.300
 2982SOL     OW 9844   0.204   0.800   2.306
 2982SOL    HW1 9845   0.219   0.737   2.382
 2982SOL    HW2 9846   0.191   0.892   2.342
 2983SOL     OW 9847   6.870   2.227   6.176
 2983SOL    HW1 9848   6.895   2.136   6.208
 2983SOL    HW2 9849   6.784   2.255   6.219
 2984SOL     OW 9850   0.901   6.052   0.937
 2984SOL    HW1 9851   0.921   6.080   1.031
 2984SOL    HW2 9852   0.988   6.033   0.889
 2985SOL     OW 9853   0.351   6.863   5.833
 2985SOL    HW1 9854   0.330   6.868   5.735
 2985SOL    HW2 9855   0.431   6.804   5.847
 2986SOL     OW 9856   4.085   3.873   2.113
 2986SOL    HW1 9857   4.107   3.877   2.016
 2986SOL    HW2 9858   4.169   3.859   2.165
 2987SOL     OW 9859   2.445   6.874   6.028
 2987SOL    HW1 9860   2.366   6.871   5.967
 2987SOL    HW2 9861   2.512   6.806   6.000
 2988SOL     OW 9862   1.170   1.385   6.479
 2988SOL    HW1 9863   1.250   1.431   6.516
 2988SOL    HW2 9864   1.125   1.332   6.551
 2989SOL     OW 9865   5.475   3.587   5.984
 2989SOL    HW1 9866   5.415   3.599   5.905
 2989SOL    HW2 9867   5.450   3.504   6.033
 2990SOL     OW 9868   5.299   1.736   4.714
 2990SOL    HW1 9869   5.314   1.640   4.692
 2990SOL    HW2 9870   5.375   1.790   4.679
 2991SOL     OW 9871   6.023   3.159   0.480
 2991SOL    HW1 9872   6.101   3.125   0.532
 2991SOL    HW2 9873   5.953   3.088   0.474
 2992SOL     OW 9874   1.893   4.177   4.701
 2992SOL    HW1 9875   1.942   4.156   4.617
 2992SOL    HW2 9876   1.884   4.094   4.756
 2993SOL     OW 9877   3.845   5.600   6.834
 2993SOL    HW1 9878   3.916   5.640   6.892
 2993SOL    HW2 9879   3.791   5.535   6.888
 2994SOL     OW 9880   3.199   5.323   5.091
 2994SOL    HW1 9881   3.113   5.375   5.091
 2994SOL    HW2 9882   3.266   5.372   5.035
 2995SOL     OW 9883   5.812   0.160   2.517
 2995SOL    HW1 9884   5.864   0.098   2.575
 2995SOL    HW2 9885   5.724   0.120   2.494
 2996SOL     OW 9886   6.710   0.100   4.858
 2996SOL    HW1 9887   6.806   0.129   4.859
 2996SOL    HW2 9888   6.684   0.073   4.766
 2997SOL     OW 9889   5.066   6.698   4.098
 2997SOL    HW1 9890   5.021   6.625   4.047
 2997SOL    HW2 9891   5.161   6.672   4.115
 2998SOL     OW 9892   2.727   0.469   1.036
 2998SOL    HW1 9893   2.729   0.440   0.941
 2998SOL    HW2 9894   2.645   0.432   1.080
 2999SOL     OW 9895   2.141   5.472   6.770
 2999SOL    HW1 9896   2.141   5.466   6.870
 2999SOL    HW2 9897   2.047   5.482   6.737
 3000SOL     OW 9898   2.244   4.236   6.409
 3000SOL    HW1 9899   2.288   4.206   6.325
 3000SOL    HW2 9900   2.248   4.335   6.416
 3001SOL     OW 9901   2.357   0.143   6.012
 3001SOL    HW1 9902   2.271   0.153   6.062
 3001SOL    HW2 9903   2.384   0.047   6.009
 3002SOL     OW 9904   1.864   1.736   1.590
 3002SOL    HW1 9905   1.781   1.682   1.598
 3002SOL    HW2 9906   1.851   1.807   1.521
 3003SOL     OW 9907   1.109   5.818   0.013
 3003SOL    HW1 9908   1.060   5.898   7.003
 3003SOL    HW2 9909   1.044   5.746   0.034
 3004SOL     OW 9910   2.890   1.343   4.536
 3004SOL    HW1 9911   2.835   1.360   4.618
 3004SOL    HW2 9912   2.838   1.286   4.472
 3005SOL     OW 9913   2.906   1.612   6.287
 3005SOL    HW1 9914   2.819   1.571   6.258
 3005SOL    HW2 9915   2.904   1.710   6.269
 3006SOL     OW 9916   5.416   1.190   6.195
 3006SOL    HW1 9917   5.439   1.140   6.112
 3006SOL    HW2 9918   5.368   1.130   6.259
 3007SOL     OW 9919   6.662   5.586   6.367
 3007SOL    HW1 9920   6.620   5.496   6.381
 3007SOL    HW2 9921   6.757   5.574   6.337
 3008SOL     OW 9922   5.635   3.752   5.592
 3008SOL    HW1 9923   5.702   3.825   5.607
 3008SOL    HW2 9924   5.656   3.674   5.651
 3009SOL     OW 9925   5.820   4.126   1.440
 3009SOL    HW1 9926   5.738   4.181   1.457
 3009SOL    HW2 9927   5.901   4.177   1.470
 3010SOL     OW 9928   4.635   4.058   1.753
 3010SOL    HW1 9929   4.559   4.109   1.793
 3010SOL    HW2 9930   4.601   3.997   1.681
 3011SOL     OW 9931   4.999   0.508   1.251
 3011SOL    HW1 9932   5.087   0.553   1.240
 3011SOL    HW2 9933   5.012   0.418   1.293
 3012SOL     OW 9934   2.126   2.563   4.613
 3012SOL    HW1 9935   2.037   2.585   4.653
 3012SOL    HW2 9936   2.185   2.644   4.616
 3013SOL     OW 9937   0.515   6.014   5.942
 3013SOL    HW1 9938   0.492   5.947   6.013
 3013SOL    HW2 9939   0.610   6.042   5.952
 3014SOL     OW 9940   3.958   6.885   1.039
 3014SOL    HW1 9941   4.051   6.879   1.076
 3014SOL    HW2 9942   3.945   6.812   0.972
 3015SOL     OW 9943   2.183   6.592   5.981
 3015SOL    HW1 9944   2.274   6.551   5.983
 3015SOL    HW2 9945   2.190   6.685   5.943
 3016SOL     OW 9946   3.435   1.177   4.698
 3016SOL    HW1 9947   3.351   1.202   4.648
 3016SOL    HW2 9948   3.486   1.261   4.719
 3017SOL     OW 9949   1.444   6.312   6.366
 3017SOL    HW1 9950   1.365   6.339   6.312
 3017SOL    HW2 9951   1.449   6.368   6.448
 3018SOL     OW 9952   2.125   2.848   1.828
 3018SOL    HW1 9953   2.096   2.855   1.923
 3018SOL    HW2 9954   2.210   2.796   1.823
 3019SOL     OW 9955   0.704   1.061   5.510
 3019SOL    HW1 9956   0.731   1.149   5.471
 3019SOL    HW2 9957   0.613   1.036   5.476
 3020SOL     OW 9958   5.305   4.140   6.851
 3020SOL    HW1 9959   5.350   4.160   6.938
 3020SOL    HW2 9960   5.316   4.217   6.789
 3021SOL     OW 9961   3.837   6.149   4.479
 3021SOL    HW1 9962   3.892   6.219   4.433
 3021SOL    HW2 9963   3.807   6.185   4.568
 3022SOL     OW 9964   3.683   6.407   1.792
 3022SOL    HW1 9965   3.614   6.366   1.731
 3022SOL    HW2 9966   3.665   6.504   1.802
 3023SOL     OW 9967   6.681   4.416   5.581
 3023SOL    HW1 9968   6.711   4.510   5.563
 3023SOL    HW2 9969   6.683   4.364   5.496
 3024SOL     OW 9970   5.870   2.081   5.889
 3024SOL    HW1 9971   5.943   2.149   5.899
 3024SOL    HW2 9972   5.908   1.990   5.903
 3025SOL     OW 9973   3.687   5.020   0.999
 3025SOL    HW1 9974   3.634   4.935   0.991
 3025SOL    HW2 9975   3.749   5.013   1.077
 3026SOL     OW 9976   6.824   5.172   2.578
 3026SOL    HW1 9977   6.761   5.185   2.502
 3026SOL    HW2 9978   6.882   5.253   2.588
 3027SOL     OW 9979   4.323   0.423   1.054
 3027SOL    HW1 9980   4.278   0.394   0.970
 3027SOL    HW2 9981   4.305   0.520   1.070
 3028SOL     OW 9982   3.550   3.409   4.037
 3028SOL    HW1 9983   3.525   3.438   3.945
 3028SOL    HW2 9984   3.492   3.333   4.065
 3029SOL     OW 9985   0.059   2.436   5.433
 3029SOL    HW1 9986   0.062   2.404   5.338
 3029SOL    HW2 9987   7.008   2.391   5.481
 3030SOL     OW 9988   0.993   4.137   6.265
 3030SOL    HW1 9989   0.911   4.088   6.294
 3030SOL    HW2 9990   1.074   4.092   6.304
 3031SOL     OW 9991   0.353   4.178   0.087
 3031SOL    HW1 9992   0.414   4.102   0.110
 3031SOL    HW2 9993   0.364   4.201   7.014
 3032SOL     OW 9994   3.328   0.272   3.476
 3032SOL    HW1 9995   3.332   0.328   3.558
 3032SOL    HW2 9996   3.380   0.317   3.403
 3033SOL     OW 9997   1.776   0.638   5.934
 3033SOL    HW1 9998   1.864   0.683   5.918
 3033SOL    HW2 9999   1.781   0.543   5.902
 3034SOL     OW10000   4.903   3.727   3.236
 3034SOL    HW110001   4.931   3.634   3.213
 3034SOL    HW210002   4.898   3.782   3.152
 3035SOL     OW10003   5.585   4.598   0.079
 3035SOL    HW110004   5.494   4.560   0.066
 3035SOL    HW210005   5.586   4.655   0.161
 3036SOL     OW10006   2.350   2.451   6.720
 3036SOL    HW110007   2.425   2.499   6.765
 3036SOL    HW210008   2.376   2.430   6.625
 3037SOL     OW10009   0.738   5.534   6.546
 3037SOL    HW110010   0.811   5.495   6.490
 3037SOL    HW210011   0.701   5.463   6.606
 3038SOL     OW10012   6.123   5.493   6.348
 3038SOL    HW110013   6.162   5.449   6.268
 3038SOL    HW210014   6.147   5.441   6.430
 3039SOL     OW10015   6.259   3.359   6.436
 3039SOL    HW110016   6.225   3.440   6.388
 3039SOL    HW210017   6.358   3.366   6.447
 3040SOL     OW10018   3.467   6.763   6.417
 3040SOL    HW110019   3.372   6.747   6.445
 3040SOL    HW210020   3.521   6.787   6.498
 3041SOL     OW10021   1.795   5.905   5.684
 3041SOL    HW110022   1.801   5.829   5.620
 3041SOL    HW210023   1.812   5.872   5.777
 3042SOL     OW10024   6.647   5.816   4.708
 3042SOL    HW110025   6.550   5.797   4.719
 3042SOL    HW210026   6.688   5.832   4.798
 3043SOL     OW10027   2.252   3.655   1.722
 3043SOL    HW110028   2.283   3.585   1.786
 3043SOL    HW210029   2.322   3.726   1.714
 3044SOL     OW10030   3.672   3.749   3.933
 3044SOL    HW110031   3.676   3.734   3.834
 3044SOL    HW210032   3.765   3.743   3.971
 3045SOL     OW10033   5.674   6.622   3.638
 3045SOL    HW110034   5.672   6.555   3.563
 3045SOL    HW210035   5.736   6.697   3.614
 3046SOL     OW10036   6.471   6.264   1.827
 3046SOL    HW110037   6.501   6.247   1.733
 3046SOL    HW210038   6.511   6.197   1.888
 3047SOL     OW10039   4.553   1.304   3.745
 3047SOL    HW110040   4.570   1.339   3.838
 3047SOL    HW210041   4.525   1.379   3.686
 3048SOL     OW10042   4.261   4.570   0.578
 3048SOL    HW110043   4.309   4.492   0.538
 3048SOL    HW210044   4.255   4.559   0.677
 3049SOL     OW10045   6.700   0.450   1.166
 3049SOL    HW110046   6.761   0.528   1.175
 3049SOL    HW210047   6.742   0.369   1.205
 3050SOL     OW10048   4.146   3.274   5.882
 3050SOL    HW110049   4.144   3.189   5.936
 3050SOL    HW210050   4.142   3.252   5.785
 3051SOL     OW10051   2.694   4.531   5.871
 3051SOL    HW110052   2.642   4.453   5.907
 3051SOL    HW210053   2.792   4.514   5.884
 3052SOL     OW10054   6.357   6.908   4.351
 3052SOL    HW110055   6.442   6.860   4.328
 3052SOL    HW210056   6.379   7.001   4.380
 3053SOL     OW10057   0.529   5.657   5.823
 3053SOL    HW110058   0.555   5.700   5.736
 3053SOL    HW210059   0.455   5.591   5.807
 3054SOL     OW10060   6.459   6.187   3.383
 3054SOL    HW110061   6.454   6.197   3.284
 3054SOL    HW210062   6.437   6.092   3.408
 3055SOL     OW10063   5.493   5.693   0.996
 3055SOL    HW110064   5.532   5.783   1.011
 3055SOL    HW210065   5.470   5.682   0.899
 3056SOL     OW10066   4.843   2.632   1.299
 3056SOL    HW110067   4.813   2.586   1.383
 3056SOL    HW210068   4.763   2.666   1.249
 3057SOL     OW10069   0.270   1.887   2.554
 3057SOL    HW110070   0.256   1.984   2.571
 3057SOL    HW210071   0.291   1.841   2.640
 3058SOL     OW10072   4.979   4.235   6.524
 3058SOL    HW110073   5.020   4.210   6.437
 3058SOL    HW210074   4.963   4.334   6.527
 3059SOL     OW10075   1.368   2.777   3.187
 3059SOL    HW110076   1.294   2.710   3.199
 3059SOL    HW210077   1.386   2.822   3.275
 3060SOL     OW10078   6.599   2.628   3.861
 3060SOL    HW110079   6.567   2.537   3.889
 3060SOL    HW210080   6.521   2.682   3.828
 3061SOL     OW10081   5.197   6.039   2.148
 3061SOL    HW110082   5.240   6.117   2.193
 3061SOL    HW210083   5.248   5.956   2.170
 3062SOL     OW10084   3.780   5.305   6.470
 3062SOL    HW110085   3.854   5.241   6.452
 3062SOL    HW210086   3.696   5.255   6.492
 3063SOL     OW10087   5.973   6.312   1.159
 3063SOL    HW110088   5.985   6.218   1.190
 3063SOL    HW210089   6.042   6.333   1.090
 3064SOL     OW10090   4.532   0.864   5.866
 3064SOL    HW110091   4.464   0.899   5.930
 3064SOL    HW210092   4.593   0.938   5.837
 3065SOL     OW10093   4.720   1.944   6.272
 3065SOL    HW110094   4.691   1.994   6.190
 3065SOL    HW210095   4.816   1.917   6.263
 3066SOL     OW10096   5.050   0.495   6.917
 3066SOL    HW110097   5.008   0.409   6.888
 3066SOL    HW210098   5.037   0.564   6.846
 3067SOL     OW10099   1.478   2.008   4.832
 3067SOL    HW110100   1.402   1.961   4.786
 3067SOL    HW210101   1.498   2.094   4.784
 3068SOL     OW10102   6.737   0.386   0.562
 3068SOL    HW110103   6.678   0.322   0.610
 3068SOL    HW210104   6.769   0.456   0.627
 3069SOL     OW10105   4.831   5.784   4.289
 3069SOL    HW110106   4.902   5.848   4.318
 3069SOL    HW210107   4.852   5.749   4.198
 3070SOL     OW10108   2.478   1.358   0.399
 3070SOL    HW110109   2.475   1.265   0.363
 3070SOL    HW210110   2.535   1.360   0.481
 3071SOL     OW10111   5.917   4.227   4.882
 3071SOL    HW110112   5.931   4.323   4.856
 3071SOL    HW210113   6.001   4.176   4.866
 3072SOL     OW10114   1.968   6.244   3.966
 3072SOL    HW110115   1.892   6.308   3.976
 3072SOL    HW210116   2.029   6.252   4.046
 3073SOL     OW10117   0.734   4.630   3.251
 3073SOL    HW110118   0.803   4.562   3.224
 3073SOL    HW210119   0.740   4.709   3.191
 3074SOL     OW10120   2.908   3.473   1.592
 3074SOL    HW110121   2.969   3.427   1.657
 3074SOL    HW210122   2.835   3.519   1.641
 3075SOL     OW10123   3.960   4.736   0.798
 3075SOL    HW110124   4.055   4.705   0.803
 3075SOL    HW210125   3.946   4.811   0.863
 3076SOL     OW10126   2.800   1.170   4.346
 3076SOL    HW110127   2.760   1.085   4.379
 3076SOL    HW210128   2.795   1.173   4.246
 3077SOL     OW10129   0.162   3.202   2.471
 3077SOL    HW110130   0.261   3.204   2.456
 3077SOL    HW210131   0.142   3.156   2.557
 3078SOL     OW10132   6.336   4.710   1.620
 3078SOL    HW110133   6.378   4.760   1.545
 3078SOL    HW210134   6.339   4.765   1.704
 3079SOL     OW10135   0.095   4.007   2.463
 3079SOL    HW110136   0.104   4.010   2.363
 3079SOL    HW210137   0.088   3.912   2.493
 3080SOL     OW10138   3.385   4.998   1.512
 3080SOL    HW110139   3.485   4.996   1.505
 3080SOL    HW210140   3.355   4.931   1.580
 3081SOL     OW10141   2.734   2.185   5.920
 3081SOL    HW110142   2.732   2.119   5.845
 3081SOL    HW210143   2.761   2.274   5.885
 3082SOL     OW10144   6.025   2.667   4.191
 3082SOL    HW110145   6.101   2.685   4.254
 3082SOL    HW210146   6.051   2.593   4.129
 3083SOL     OW10147   4.664   5.439   2.093
 3083SOL    HW110148   4.707   5.375   2.156
 3083SOL    HW210149   4.564   5.432   2.100
 3084SOL     OW10150   0.124   5.300   4.487
 3084SOL    HW110151   0.059   5.353   4.432
 3084SOL    HW210152   0.200   5.270   4.430
 3085SOL     OW10153   6.509   5.678   5.684
 3085SOL    HW110154   6.412   5.655   5.676
 3085SOL    HW210155   6.563   5.594   5.688
 3086SOL     OW10156   6.033   5.777   6.105
 3086SOL    HW110157   6.080   5.784   6.193
 3086SOL    HW210158   6.076   5.705   6.050
 3087SOL     OW10159   2.473   0.091   1.206
 3087SOL    HW110160   2.566   0.109   1.174
 3087SOL    HW210161   2.426   0.177   1.225
 3088SOL     OW10162   2.124   2.914   5.304
 3088SOL    HW110163   2.203   2.970   5.333
 3088SOL    HW210164   2.146   2.868   5.218
 3089SOL     OW10165   4.033   0.047   0.869
 3089SOL    HW110166   3.991   0.010   0.951
 3089SOL    HW210167   3.996   0.138   0.850
 3090SOL     OW10168   0.646   1.766   3.330
 3090SOL    HW110169   0.680   1.693   3.389
 3090SOL    HW210170   0.546   1.771   3.338
 3091SOL     OW10171   1.807   1.738   5.621
 3091SOL    HW110172   1.888   1.684   5.645
 3091SOL    HW210173   1.836   1.826   5.583
 3092SOL     OW10174   4.860   1.695   4.140
 3092SOL    HW110175   4.914   1.736   4.066
 3092SOL    HW210176   4.764   1.692   4.112
 3093SOL     OW10177   6.728   6.520   0.664
 3093SOL    HW110178   6.748   6.608   0.622
 3093SOL    HW210179   6.630   6.504   0.661
 3094SOL     OW10180   1.195   0.808   6.080
 3094SOL    HW110181   1.282   0.792   6.126
 3094SOL    HW210182   1.204   0.784   5.983
 3095SOL     OW10183   2.071   3.665   6.072
 3095SOL    HW110184   1.976   3.690   6.092
 3095SOL    HW210185   2.084   3.568   6.095
 3096SOL     OW10186   1.671   3.767   4.102
 3096SOL    HW110187   1.625   3.749   4.014
 3096SOL    HW210188   1.743   3.699   4.116
 3097SOL     OW10189   4.991   2.517   6.199
 3097SOL    HW110190   4.896   2.546   6.206
 3097SOL    HW210191   5.044   2.588   6.153
 3098SOL     OW10192   2.202   4.578   2.798
 3098SOL    HW110193   2.279   4.518   2.818
 3098SOL    HW210194   2.236   4.659   2.750
 3099SOL     OW10195   0.769   1.581   5.523
 3099SOL    HW110196   0.772   1.530   5.609
 3099SOL    HW210197   0.694   1.547   5.467
 3100SOL     OW10198   5.883   4.302   3.039
 3100SOL    HW110199   5.950   4.296   2.965
 3100SOL    HW210200   5.800   4.254   3.013
 3101SOL     OW10201   4.684   6.909   5.124
 3101SOL    HW110202   4.702   6.811   5.137
 3101SOL    HW210203   4.597   6.933   5.165
 3102SOL     OW10204   5.653   2.736   3.062
 3102SOL    HW110205   5.595   2.668   3.018
 3102SOL    HW210206   5.729   2.691   3.108
 3103SOL     OW10207   1.031   0.825   2.331
 3103SOL    HW110208   0.952   0.792   2.383
 3103SOL    HW210209   1.026   0.925   2.322
 3104SOL     OW10210   5.874   2.228   6.253
 3104SOL    HW110211   5.916   2.147   6.211
 3104SOL    HW210212   5.946   2.289   6.286
 3105SOL     OW10213   5.408   4.773   0.953
 3105SOL    HW110214   5.445   4.798   0.864
 3105SOL    HW210215   5.374   4.855   0.999
 3106SOL     OW10216   5.541   1.436   4.806
 3106SOL    HW110217   5.620   1.382   4.775
 3106SOL    HW210218   5.572   1.507   4.870
 3107SOL     OW10219   5.102   1.305   4.793
 3107SOL    HW110220   5.049   1.361   4.729
 3107SOL    HW210221   5.058   1.216   4.803
 3108SOL     OW10222   2.927   5.314   4.839
 3108SOL    HW110223   3.017   5.356   4.841
 3108SOL    HW210224   2.906   5.287   4.745
 3109SOL     OW10225   6.841   4.950   3.739
 3109SOL    HW110226   6.923   4.998   3.709
 3109SOL    HW210227   6.805   4.894   3.665
 3110SOL     OW10228   2.547   5.053   4.059
 3110SOL    HW110229   2.571   5.049   3.962
 3110SOL    HW210230   2.492   4.973   4.083
 3111SOL     OW10231   0.508   3.592   4.469
 3111SOL    HW110232   0.463   3.678   4.446
 3111SOL    HW210233   0.478   3.561   4.559
 3112SOL     OW10234   4.679   0.604   0.781
 3112SOL    HW110235   4.617   0.575   0.708
 3112SOL    HW210236   4.654   0.696   0.813
 3113SOL     OW10237   1.270   6.666   3.478
 3113SOL    HW110238   1.304   6.755   3.509
 3113SOL    HW210239   1.232   6.616   3.556
 3114SOL     OW10240   5.508   5.128   5.131
 3114SOL    HW110241   5.528   5.035   5.101
 3114SOL    HW210242   5.466   5.179   5.056
 3115SOL     OW10243   5.819   4.863   4.472
 3115SOL    HW110244   5.757   4.938   4.494
 3115SOL    HW210245   5.766   4.782   4.447
 3116SOL     OW10246   0.849   2.671   5.926
 3116SOL    HW110247   0.945   2.692   5.946
 3116SOL    HW210248   0.838   2.655   5.828
 3117SOL     OW10249   3.999   0.531   2.585
 3117SOL    HW110250   4.086   0.575   2.564
 3117SOL    HW210251   3.925   0.599   2.584
 3118SOL     OW10252   1.142   1.769   3.588
 3118SOL    HW110253   1.134   1.861   3.551
 3118SOL    HW210254   1.056   1.744   3.633
 3119SOL     OW10255   4.294   6.896   2.979
 3119SOL    HW110256   4.364   6.903   2.909
 3119SOL    HW210257   4.317   6.823   3.043
 3120SOL     OW10258   3.720   6.505   6.072
 3120SOL    HW110259   3.683   6.586   6.118
 3120SOL    HW210260   3.697   6.423   6.126
 3121SOL     OW10261   3.898   1.413   3.169
 3121SOL    HW110262   3.830   1.357   3.216
 3121SOL    HW210263   3.858   1.450   3.085
 3122SOL     OW10264   4.785   3.254   6.135
 3122SOL    HW110265   4.826   3.335   6.178
 3122SOL    HW210266   4.685   3.260   6.141
 3123SOL     OW10267   2.176   3.132   2.722
 3123SOL    HW110268   2.124   3.048   2.737
 3123SOL    HW210269   2.145   3.177   2.638
 3124SOL     OW10270   5.215   5.607   5.511
 3124SOL    HW110271   5.221   5.704   5.531
 3124SOL    HW210272   5.166   5.561   5.586
 3125SOL     OW10273   2.505   1.500   4.661
 3125SOL    HW110274   2.487   1.598   4.671
 3125SOL    HW210275   2.593   1.477   4.702
 3126SOL     OW10276   5.172   3.700   5.044
 3126SOL    HW110277   5.248   3.687   4.980
 3126SOL    HW210278   5.092   3.734   4.994
 3127SOL     OW10279   0.356   2.256   6.360
 3127SOL    HW110280   0.299   2.295   6.288
 3127SOL    HW210281   0.301   2.240   6.442
 3128SOL     OW10282   3.933   1.816   1.673
 3128SOL    HW110283   3.945   1.890   1.739
 3128SOL    HW210284   3.879   1.848   1.595
 3129SOL     OW10285   4.003   4.984   0.099
 3129SOL    HW110286   4.027   5.081   0.104
 3129SOL    HW210287   4.084   4.930   0.077
 3130SOL     OW10288   6.477   5.820   2.988
 3130SOL    HW110289   6.389   5.861   2.962
 3130SOL    HW210290   6.545   5.838   2.917
 3131SOL     OW10291   0.859   1.426   3.406
 3131SOL    HW110292   0.813   1.372   3.335
 3131SOL    HW210293   0.803   1.505   3.429
 3132SOL     OW10294   3.882   4.074   6.042
 3132SOL    HW110295   3.897   4.080   6.140
 3132SOL    HW210296   3.927   3.992   6.006
 3133SOL     OW10297   5.055   6.399   4.529
 3133SOL    HW110298   5.052   6.400   4.629
 3133SOL    HW210299   4.965   6.425   4.492
 3134SOL     OW10300   4.119   5.199   3.196
 3134SOL    HW110301   4.039   5.182   3.138
 3134SOL    HW210302   4.201   5.168   3.150
 3135SOL     OW10303   4.153   0.688   6.135
 3135SOL    HW110304   4.127   0.785   6.137
 3135SOL    HW210305   4.157   0.652   6.228
 3136SOL     OW10306   6.071   6.187   1.833
 3136SOL    HW110307   6.063   6.231   1.744
 3136SOL    HW210308   6.135   6.238   1.890
 3137SOL     OW10309   4.882   3.884   6.853
 3137SOL    HW110310   4.862   3.839   6.766
 3137SOL    HW210311   4.945   3.961   6.837
 3138SOL     OW10312   6.609   6.402   5.489
 3138SOL    HW110313   6.559   6.343   5.426
 3138SOL    HW210314   6.606   6.362   5.581
 3139SOL     OW10315   1.387   4.777   2.040
 3139SOL    HW110316   1.326   4.855   2.035
 3139SOL    HW210317   1.481   4.807   2.027
 3140SOL     OW10318   4.133   5.457   6.785
 3140SOL    HW110319   4.064   5.466   6.714
 3140SOL    HW210320   4.189   5.540   6.788
 3141SOL     OW10321   6.287   2.342   0.890
 3141SOL    HW110322   6.338   2.266   0.850
 3141SOL    HW210323   6.191   2.335   0.864
 3142SOL     OW10324   4.195   0.630   3.823
 3142SOL    HW110325   4.145   0.583   3.896
 3142SOL    HW210326   4.292   0.638   3.848
 3143SOL     OW10327   5.614   1.553   6.764
 3143SOL    HW110328   5.657   1.612   6.695
 3143SOL    HW210329   5.639   1.585   6.855
 3144SOL     OW10330   3.520   5.194   6.546
 3144SOL    HW110331   3.515   5.112   6.488
 3144SOL    HW210332   3.508   5.167   6.642
 3145SOL     OW10333   1.373   6.277   5.332
 3145SOL    HW110334   1.321   6.330   5.400
 3145SOL    HW210335   1.395   6.187   5.370
 3146SOL     OW10336   6.580   1.457   5.230
 3146SOL    HW110337   6.547   1.545   5.197
 3146SOL    HW210338   6.527   1.383   5.187
 3147SOL     OW10339   4.936   0.529   0.744
 3147SOL    HW110340   4.989   0.541   0.828
 3147SOL    HW210341   4.840   0.551   0.762
 3148SOL     OW10342   5.562   4.839   0.706
 3148SOL    HW110343   5.562   4.740   0.718
 3148SOL    HW210344   5.641   4.866   0.651
 3149SOL     OW10345   4.273   3.326   6.680
 3149SOL    HW110346   4.220   3.360   6.758
 3149SOL    HW210347   4.212   3.314   6.601
 3150SOL     OW10348   0.227   0.984   5.256
 3150SOL    HW110349   0.200   1.078   5.234
 3150SOL    HW210350   0.186   0.957   5.343
 3151SOL     OW10351   1.370   1.364   0.160
 3151SOL    HW110352   1.442   1.431   0.176
 3151SOL    HW210353   1.316   1.352   0.243
 3152SOL     OW10354   3.221   1.261   5.358
 3152SOL    HW110355   3.231   1.235   5.262
 3152SOL    HW210356   3.157   1.199   5.403
 3153SOL     OW10357   5.188   5.575   1.328
 3153SOL    HW110358   5.276   5.527   1.336
 3153SOL    HW210359   5.191   5.636   1.249
 3154SOL     OW10360   3.848   2.500   0.891
 3154SOL    HW110361   3.756   2.463   0.905
 3154SOL    HW210362   3.848   2.598   0.908
 3155SOL     OW10363   6.830   6.493   6.415
 3155SOL    HW110364   6.900   6.452   6.473
 3155SOL    HW210365   6.782   6.564   6.467
 3156SOL     OW10366   2.648   4.650   0.889
 3156SOL    HW110367   2.629   4.608   0.800
 3156SOL    HW210368   2.708   4.590   0.942
 3157SOL     OW10369   1.495   2.003   2.974
 3157SOL    HW110370   1.577   1.995   3.031
 3157SOL    HW210371   1.444   1.918   2.977
 3158SOL     OW10372   1.515   0.634   5.911
 3158SOL    HW110373   1.615   0.633   5.913
 3158SOL    HW210374   1.480   0.541   5.926
 3159SOL     OW10375   4.915   5.018   0.693
 3159SOL    HW110376   4.922   4.999   0.790
 3159SOL    HW210377   4.942   4.937   0.641
 3160SOL     OW10378   2.290   0.778   5.978
 3160SOL    HW110379   2.306   0.841   5.902
 3160SOL    HW210380   2.337   0.811   6.060
 3161SOL     OW10381   2.166   2.016   1.997
 3161SOL    HW110382   2.205   2.022   2.088
 3161SOL    HW210383   2.074   1.976   2.003
 3162SOL     OW10384   1.413   5.668   2.138
 3162SOL    HW110385   1.402   5.607   2.059
 3162SOL    HW210386   1.323   5.701   2.167
 3163SOL     OW10387   4.938   4.679   1.056
 3163SOL    HW110388   4.970   4.701   1.148
 3163SOL    HW210389   5.016   4.653   0.999
 3164SOL     OW10390   2.196   0.105   2.673
 3164SOL    HW110391   2.250   0.025   2.650
 3164SOL    HW210392   2.178   0.107   2.771
 3165SOL     OW10393   6.185   5.471   0.524
 3165SOL    HW110394   6.201   5.406   0.450
 3165SOL    HW210395   6.172   5.562   0.486
 3166SOL     OW10396   3.780   2.043   4.742
 3166SOL    HW110397   3.720   2.094   4.804
 3166SOL    HW210398   3.740   1.954   4.723
 3167SOL     OW10399   6.765   2.485   2.789
 3167SOL    HW110400   6.745   2.571   2.741
 3167SOL    HW210401   6.828   2.504   2.864
 3168SOL     OW10402   6.041   1.436   0.749
 3168SOL    HW110403   6.096   1.442   0.665
 3168SOL    HW210404   6.049   1.345   0.787
 3169SOL     OW10405   1.160   1.737   2.517
 3169SOL    HW110406   1.066   1.767   2.532
 3169SOL    HW210407   1.220   1.784   2.581
 3170SOL     OW10408   2.791   4.825   3.965
 3170SOL    HW110409   2.768   4.728   3.954
 3170SOL    HW210410   2.803   4.845   4.062
 3171SOL     OW10411   6.793   2.223   4.423
 3171SOL    HW110412   6.810   2.276   4.340
 3171SOL    HW210413   6.703   2.245   4.460
 3172SOL     OW10414   6.394   4.162   0.591
 3172SOL    HW110415   6.411   4.239   0.530
 3172SOL    HW210416   6.297   4.157   0.613
 3173SOL     OW10417   5.092   4.395   0.619
 3173SOL    HW110418   5.142   4.355   0.543
 3173SOL    HW210419   5.102   4.336   0.700
 3174SOL     OW10420   2.722   3.742   6.292
 3174SOL    HW110421   2.697   3.648   6.269
 3174SOL    HW210422   2.812   3.764   6.255
 3175SOL     OW10423   6.170   5.582   4.658
 3175SOL    HW110424   6.120   5.528   4.726
 3175SOL    HW210425   6.106   5.616   4.589
 3176SOL     OW10426   6.438   5.024   4.001
 3176SOL    HW110427   6.533   5.054   4.008
 3176SOL    HW210428   6.435   4.930   3.968
 3177SOL     OW10429   5.550   2.280   1.870
 3177SOL    HW110430   5.601   2.252   1.789
 3177SOL    HW210431   5.490   2.205   1.899
 3178SOL     OW10432   1.673   0.722   2.222
 3178SOL    HW110433   1.607   0.797   2.223
 3178SOL    HW210434   1.725   0.722   2.307
 3179SOL     OW10435   0.413   4.244   2.899
 3179SOL    HW110436   0.384   4.289   2.815
 3179SOL    HW210437   0.425   4.146   2.882
 3180SOL     OW10438   6.412   0.058   6.147
 3180SOL    HW110439   6.373   0.052   6.055
 3180SOL    HW210440   6.439   6.991   6.178
 3181SOL     OW10441   6.418   6.512   4.714
 3181SOL    HW110442   6.345   6.487   4.777
 3181SOL    HW210443   6.503   6.465   4.739
 3182SOL     OW10444   1.105   6.949   1.491
 3182SOL    HW110445   1.058   6.964   1.578
 3182SOL    HW210446   1.056   6.996   1.418
 3183SOL     OW10447   3.851   4.392   7.008
 3183SOL    HW110448   3.932   4.408   0.041
 3183SOL    HW210449   3.772   4.376   0.043
 3184SOL     OW10450   6.439   0.497   4.570
 3184SOL    HW110451   6.397   0.434   4.504
 3184SOL    HW210452   6.368   0.533   4.631
 3185SOL     OW10453   0.936   0.041   6.428
 3185SOL    HW110454   0.997   0.061   6.351
 3185SOL    HW210455   0.841   0.056   6.401
 3186SOL     OW10456   0.918   2.427   6.150
 3186SOL    HW110457   0.836   2.388   6.107
 3186SOL    HW210458   0.925   2.524   6.127
 3187SOL     OW10459   5.353   6.976   3.087
 3187SOL    HW110460   5.293   6.996   3.009
 3187SOL    HW210461   5.448   6.989   3.060
 3188SOL     OW10462   0.719   0.067   1.549
 3188SOL    HW110463   0.727   0.005   1.471
 3188SOL    HW210464   0.796   0.131   1.548
 3189SOL     OW10465   3.012   1.592   5.674
 3189SOL    HW110466   2.965   1.617   5.759
 3189SOL    HW210467   3.010   1.493   5.663
 3190SOL     OW10468   6.383   5.834   4.498
 3190SOL    HW110469   6.405   5.923   4.539
 3190SOL    HW210470   6.466   5.792   4.463
 3191SOL     OW10471   4.402   4.821   0.192
 3191SOL    HW110472   4.339   4.800   0.117
 3191SOL    HW210473   4.423   4.919   0.192
 3192SOL     OW10474   4.864   0.557   3.155
 3192SOL    HW110475   4.827   0.465   3.155
 3192SOL    HW210476   4.949   0.558   3.209
 3193SOL     OW10477   4.218   5.343   5.213
 3193SOL    HW110478   4.156   5.359   5.137
 3193SOL    HW210479   4.166   5.329   5.297
 3194SOL     OW10480   2.250   6.857   5.853
 3194SOL    HW110481   2.176   6.919   5.880
 3194SOL    HW210482   2.324   6.910   5.812
 3195SOL     OW10483   6.999   6.219   1.756
 3195SOL    HW110484   7.011   6.127   1.718
 3195SOL    HW210485   7.006   6.216   1.855
 3196SOL     OW10486   5.918   0.898   3.335
 3196SOL    HW110487   5.859   0.977   3.351
 3196SOL    HW210488   5.895   0.825   3.399
 3197SOL     OW10489   3.274   0.927   0.380
 3197SOL    HW110490   3.259   1.026   0.379
 3197SOL    HW210491   3.206   0.883   0.320
 3198SOL     OW10492   5.945   4.313   4.143
 3198SOL    HW110493   5.984   4.402   4.165
 3198SOL    HW210494   5.849   4.324   4.117
 3199SOL     OW10495   5.406   3.390   4.592
 3199SOL    HW110496   5.462   3.442   4.656
 3199SOL    HW210497   5.454   3.382   4.504
 3200SOL     OW10498   6.315   3.251   5.024
 3200SOL    HW110499   6.353   3.170   5.068
 3200SOL    HW210500   6.385   3.323   5.023
 3201SOL     OW10501   6.287   2.900   2.755
 3201SOL    HW110502   6.356   2.884   2.684
 3201SOL    HW210503   6.215   2.960   2.719
 3202SOL     OW10504   3.863   2.809   6.047
 3202SOL    HW110505   3.939   2.744   6.035
 3202SOL    HW210506   3.848   2.825   6.144
 3203SOL     OW10507   3.390   6.739   1.423
 3203SOL    HW110508   3.331   6.791   1.362
 3203SOL    HW210509   3.338   6.662   1.462
 3204SOL     OW10510   5.945   0.059   3.163
 3204SOL    HW110511   6.018   7.022   3.131
 3204SOL    HW210512   5.885   0.081   3.087
 3205SOL     OW10513   5.576   2.888   0.766
 3205SOL    HW110514   5.540   2.925   0.851
 3205SOL    HW210515   5.501   2.877   0.700
 3206SOL     OW10516   3.887   5.485   0.184
 3206SOL    HW110517   3.985   5.473   0.201
 3206SOL    HW210518   3.834   5.437   0.255
 3207SOL     OW10519   2.133   5.814   2.726
 3207SOL    HW110520   2.134   5.895   2.666
 3207SOL    HW210521   2.039   5.781   2.735
 3208SOL     OW10522   0.450   4.007   6.772
 3208SOL    HW110523   0.397   4.005   6.687
 3208SOL    HW210524   0.520   3.935   6.770
 3209SOL     OW10525   4.792   0.127   5.095
 3209SOL    HW110526   4.723   0.195   5.118
 3209SOL    HW210527   4.747   0.042   5.067
 3210SOL     OW10528   5.024   5.014   2.374
 3210SOL    HW110529   4.990   5.058   2.457
 3210SOL    HW210530   5.089   5.074   2.328
 3211SOL     OW10531   2.295   0.462   6.547
 3211SOL    HW110532   2.239   0.459   6.464
 3211SOL    HW210533   2.239   0.492   6.624
 3212SOL     OW10534   3.565   0.189   3.595
 3212SOL    HW110535   3.478   0.178   3.547
 3212SOL    HW210536   3.631   0.235   3.534
 3213SOL     OW10537   1.313   0.213   5.746
 3213SOL    HW110538   1.366   0.128   5.753
 3213SOL    HW210539   1.334   0.272   5.823
 3214SOL     OW10540   1.957   0.173   2.945
 3214SOL    HW110541   1.858   0.177   2.959
 3214SOL    HW210542   1.986   0.253   2.892
 3215SOL     OW10543   2.051   3.186   1.574
 3215SOL    HW110544   2.127   3.232   1.620
 3215SOL    HW210545   2.020   3.109   1.629
 3216SOL     OW10546   0.134   4.125   1.602
 3216SOL    HW110547   0.163   4.196   1.666
 3216SOL    HW210548   0.065   4.162   1.540
 3217SOL     OW10549   5.787   5.515   4.202
 3217SOL    HW110550   5.813   5.463   4.121
 3217SOL    HW210551   5.865   5.524   4.263
 3218SOL     OW10552   5.907   1.504   3.378
 3218SOL    HW110553   5.818   1.469   3.347
 3218SOL    HW210554   5.903   1.604   3.382
 3219SOL     OW10555   4.206   1.464   4.394
 3219SOL    HW110556   4.142   1.524   4.347
 3219SOL    HW210557   4.185   1.369   4.373
 3220SOL     OW10558   0.839   4.204   6.035
 3220SOL    HW110559   0.903   4.128   6.048
 3220SOL    HW210560   0.890   4.285   6.005
 3221SOL     OW10561   4.186   1.999   2.470
 3221SOL    HW110562   4.191   1.903   2.496
 3221SOL    HW210563   4.213   2.009   2.374
 3222SOL     OW10564   2.845   0.672   2.857
 3222SOL    HW110565   2.867   0.600   2.791
 3222SOL    HW210566   2.771   0.729   2.820
 3223SOL     OW10567   2.381   5.043   0.626
 3223SOL    HW110568   2.451   4.974   0.647
 3223SOL    HW210569   2.421   5.134   0.634
 3224SOL     OW10570   4.936   2.585   4.187
 3224SOL    HW110571   4.860   2.651   4.193
 3224SOL    HW210572   4.928   2.519   4.261
 3225SOL     OW10573   2.705   1.123   4.815
 3225SOL    HW110574   2.762   1.047   4.783
 3225SOL    HW210575   2.765   1.196   4.848
 3226SOL     OW10576   5.077   1.123   0.091
 3226SOL    HW110577   5.092   1.191   0.019
 3226SOL    HW210578   4.980   1.124   0.117
 3227SOL     OW10579   6.158   4.062   5.644
 3227SOL    HW110580   6.224   4.053   5.718
 3227SOL    HW210581   6.072   4.099   5.679
 3228SOL     OW10582   1.143   4.243   1.384
 3228SOL    HW110583   1.071   4.275   1.323
 3228SOL    HW210584   1.200   4.176   1.336
 3229SOL     OW10585   0.914   0.970   7.012
 3229SOL    HW110586   0.846   0.999   0.054
 3229SOL    HW210587   0.888   0.881   6.974
 3230SOL     OW10588   3.972   7.010   5.130
 3230SOL    HW110589   3.879   6.975   5.141
 3230SOL    HW210590   3.979   0.076   5.173
 3231SOL     OW10591   2.714   2.023   3.057
 3231SOL    HW110592   2.727   2.073   3.143
 3231SOL    HW210593   2.635   2.060   3.008
 3232SOL     OW10594   3.408   5.215   3.290
 3232SOL    HW110595   3.367   5.126   3.267
 3232SOL    HW210596   3.452   5.209   3.379
 3233SOL     OW10597   2.162   6.827   5.026
 3233SOL    HW110598   2.088   6.840   5.092
 3233SOL    HW210599   2.208   6.915   5.011
 3234SOL     OW10600   3.233   3.638   0.617
 3234SOL    HW110601   3.317   3.585   0.626
 3234SOL    HW210602   3.154   3.577   0.622
 3235SOL     OW10603   0.155   1.566   2.985
 3235SOL    HW110604   0.098   1.617   3.048
 3235SOL    HW210605   0.114   1.476   2.968
 3236SOL     OW10606   6.113   6.437   0.230
 3236SOL    HW110607   6.130   6.371   0.304
 3236SOL    HW210608   6.134   6.394   0.142
 3237SOL     OW10609   6.138   2.873   5.671
 3237SOL    HW110610   6.050   2.871   5.623
 3237SOL    HW210611   6.136   2.943   5.741
 3238SOL     OW10612   0.793   4.267   0.813
 3238SOL    HW110613   0.761   4.351   0.770
 3238SOL    HW210614   0.748   4.256   0.902
 3239SOL     OW10615   6.476   1.275   4.520
 3239SOL    HW110616   6.553   1.325   4.559
 3239SOL    HW210617   6.409   1.339   4.483
 3240SOL     OW10618   1.033   1.444   1.813
 3240SOL    HW110619   0.987   1.452   1.901
 3240SOL    HW210620   1.071   1.352   1.803
 3241SOL     OW10621   6.977   2.444   6.023
 3241SOL    HW110622   6.912   2.502   5.973
 3241SOL    HW210623   6.928   2.388   6.089
 3242SOL     OW10624   6.701   5.176   5.408
 3242SOL    HW110625   6.720   5.271   5.384
 3242SOL    HW210626   6.776   5.140   5.463
 3243SOL     OW10627   6.340   4.847   5.134
 3243SOL    HW110628   6.291   4.895   5.062
 3243SOL    HW210629   6.348   4.906   5.214
 3244SOL     OW10630   5.035   0.023   0.409
 3244SOL    HW110631   5.008   0.113   0.443
 3244SOL    HW210632   5.117   0.031   0.353
 3245SOL     OW10633   1.678   6.527   4.446
 3245SOL    HW110634   1.744   6.454   4.427
 3245SOL    HW210635   1.723   6.616   4.439
 3246SOL     OW10636   6.232   4.514   1.950
 3246SOL    HW110637   6.172   4.513   1.870
 3246SOL    HW210638   6.317   4.467   1.929
 3247SOL     OW10639   2.122   3.853   4.986
 3247SOL    HW110640   2.118   3.822   5.081
 3247SOL    HW210641   2.176   3.936   4.980
 3248SOL     OW10642   6.071   1.971   4.424
 3248SOL    HW110643   5.994   1.907   4.428
 3248SOL    HW210644   6.105   1.976   4.330
 3249SOL     OW10645   3.639   4.039   3.878
 3249SOL    HW110646   3.678   4.038   3.970
 3249SOL    HW210647   3.664   3.954   3.831
 3250SOL     OW10648   4.545   5.473   3.486
 3250SOL    HW110649   4.524   5.376   3.475
 3250SOL    HW210650   4.627   5.483   3.542
 3251SOL     OW10651   2.517   2.499   2.042
 3251SOL    HW110652   2.586   2.522   1.973
 3251SOL    HW210653   2.449   2.572   2.045
 3252SOL     OW10654   1.581   1.957   2.714
 3252SOL    HW110655   1.575   1.983   2.810
 3252SOL    HW210656   1.651   2.013   2.669
 3253SOL     OW10657   6.471   3.344   1.274
 3253SOL    HW110658   6.450   3.247   1.273
 3253SOL    HW210659   6.559   3.359   1.318
 3254SOL     OW10660   5.507   0.042   0.679
 3254SOL    HW110661   5.575   7.000   0.710
 3254SOL    HW210662   5.449   0.069   0.756
 3255SOL     OW10663   3.625   4.904   2.244
 3255SOL    HW110664   3.606   4.859   2.157
 3255SOL    HW210665   3.540   4.945   2.279
 3256SOL     OW10666   5.177   2.460   2.428
 3256SOL    HW110667   5.246   2.522   2.391
 3256SOL    HW210668   5.221   2.376   2.459
 3257SOL     OW10669   3.000   1.327   2.240
 3257SOL    HW110670   2.989   1.395   2.167
 3257SOL    HW210671   2.915   1.274   2.249
 3258SOL     OW10672   0.118   5.793   4.662
 3258SOL    HW110673   0.123   5.768   4.758
 3258SOL    HW210674   0.023   5.806   4.635
 3259SOL     OW10675   6.187   5.340   2.226
 3259SOL    HW110676   6.142   5.428   2.218
 3259SOL    HW210677   6.119   5.267   2.234
 3260SOL     OW10678   2.870   4.968   3.476
 3260SOL    HW110679   2.859   5.067   3.484
 3260SOL    HW210680   2.893   4.929   3.565
 3261SOL     OW10681   6.318   0.718   4.207
 3261SOL    HW110682   6.288   0.642   4.149
 3261SOL    HW210683   6.246   0.742   4.272
 3262SOL     OW10684   3.317   2.096   2.442
 3262SOL    HW110685   3.382   2.028   2.475
 3262SOL    HW210686   3.354   2.140   2.361
 3263SOL     OW10687   5.756   0.521   0.822
 3263SOL    HW110688   5.768   0.586   0.747
 3263SOL    HW210689   5.677   0.463   0.804
 3264SOL     OW10690   1.386   5.530   6.969
 3264SOL    HW110691   1.338   5.530   6.881
 3264SOL    HW210692   1.344   5.462   0.005
 3265SOL     OW10693   6.750   5.752   5.464
 3265SOL    HW110694   6.670   5.723   5.516
 3265SOL    HW210695   6.747   5.851   5.451
 3266SOL     OW10696   3.189   4.490   6.798
 3266SOL    HW110697   3.143   4.528   6.718
 3266SOL    HW210698   3.190   4.391   6.793
 3267SOL     OW10699   2.680   0.310   6.967
 3267SOL    HW110700   2.607   0.352   7.022
 3267SOL    HW210701   2.764   0.364   6.977
 3268SOL     OW10702   5.501   3.787   2.706
 3268SOL    HW110703   5.419   3.840   2.685
 3268SOL    HW210704   5.501   3.703   2.651
 3269SOL     OW10705   2.378   5.488   0.205
 3269SOL    HW110706   2.376   5.430   0.123
 3269SOL    HW210707   2.287   5.489   0.247
 3270SOL     OW10708   1.799   3.597   6.001
 3270SOL    HW110709   1.728   3.660   6.032
 3270SOL    HW210710   1.831   3.624   5.910
 3271SOL     OW10711   1.375   3.865   1.955
 3271SOL    HW110712   1.426   3.864   2.041
 3271SOL    HW210713   1.277   3.853   1.975
 3272SOL     OW10714   3.604   0.156   0.500
 3272SOL    HW110715   3.658   0.237   0.521
 3272SOL    HW210716   3.562   0.121   0.584
 3273SOL     OW10717   4.334   3.883   6.452
 3273SOL    HW110718   4.396   3.945   6.404
 3273SOL    HW210719   4.245   3.928   6.464
 3274SOL     OW10720   4.820   0.426   1.905
 3274SOL    HW110721   4.828   0.367   1.824
 3274SOL    HW210722   4.909   0.465   1.927
 3275SOL     OW10723   4.804   0.529   1.456
 3275SOL    HW110724   4.876   0.501   1.393
 3275SOL    HW210725   4.777   0.450   1.512
 3276SOL     OW10726   6.832   6.238   1.162
 3276SOL    HW110727   6.905   6.304   1.141
 3276SOL    HW210728   6.868   6.145   1.156
 3277SOL     OW10729   5.385   0.905   2.173
 3277SOL    HW110730   5.352   0.810   2.170
 3277SOL    HW210731   5.331   0.961   2.110
 3278SOL     OW10732   4.897   1.133   6.734
 3278SOL    HW110733   4.955   1.131   6.815
 3278SOL    HW210734   4.863   1.040   6.716
 3279SOL     OW10735   3.854   0.336   2.467
 3279SOL    HW110736   3.921   0.397   2.510
 3279SOL    HW210737   3.769   0.336   2.520
 3280SOL     OW10738   0.431   2.181   4.504
 3280SOL    HW110739   0.525   2.206   4.479
 3280SOL    HW210740   0.368   2.250   4.467
 3281SOL     OW10741   5.589   2.696   2.201
 3281SOL    HW110742   5.613   2.624   2.267
 3281SOL    HW210743   5.572   2.656   2.112
 3282SOL     OW10744   6.807   5.233   5.953
 3282SOL    HW110745   6.896   5.201   5.923
 3282SOL    HW210746   6.808   5.333   5.959
 3283SOL     OW10747   3.473   1.657   0.103
 3283SOL    HW110748   3.459   1.614   0.193
 3283SOL    HW210749   3.520   1.593   0.043
 3284SOL     OW10750   2.300   0.895   5.449
 3284SOL    HW110751   2.279   0.988   5.479
 3284SOL    HW210752   2.328   0.897   5.353
 3285SOL     OW10753   4.542   1.734   4.577
 3285SOL    HW110754   4.617   1.669   4.588
 3285SOL    HW210755   4.495   1.746   4.665
 3286SOL     OW10756   1.947   4.147   3.722
 3286SOL    HW110757   1.867   4.186   3.676
 3286SOL    HW210758   1.939   4.048   3.723
 3287SOL     OW10759   3.068   1.648   0.770
 3287SOL    HW110760   2.985   1.619   0.817
 3287SOL    HW210761   3.149   1.621   0.823
 3288SOL     OW10762   3.192   5.507   1.154
 3288SOL    HW110763   3.132   5.579   1.119
 3288SOL    HW210764   3.180   5.499   1.253
 3289SOL     OW10765   5.621   6.923   0.096
 3289SOL    HW110766   5.705   6.940   0.044
 3289SOL    HW210767   5.594   7.005   0.145
 3290SOL     OW10768   0.598   4.036   0.147
 3290SOL    HW110769   0.622   3.941   0.130
 3290SOL    HW210770   0.672   4.095   0.114
 3291SOL     OW10771   5.341   6.597   5.796
 3291SOL    HW110772   5.309   6.625   5.705
 3291SOL    HW210773   5.263   6.583   5.857
 3292SOL     OW10774   0.428   2.962   0.523
 3292SOL    HW110775   0.398   2.998   0.435
 3292SOL    HW210776   0.504   3.016   0.558
 3293SOL     OW10777   0.060   4.759   1.585
 3293SOL    HW110778   0.085   4.840   1.532
 3293SOL    HW210779   0.063   4.678   1.526
 3294SOL     OW10780   3.914   2.591   5.540
 3294SOL    HW110781   4.001   2.640   5.536
 3294SOL    HW210782   3.921   2.508   5.484
 3295SOL     OW10783   1.539   3.472   3.037
 3295SOL    HW110784   1.489   3.551   3.072
 3295SOL    HW210785   1.602   3.502   2.965
 3296SOL     OW10786   2.273   0.781   6.979
 3296SOL    HW110787   2.355   0.834   6.959
 3296SOL    HW210788   2.209   0.837   0.007
 3297SOL     OW10789   2.657   1.110   5.982
 3297SOL    HW110790   2.658   1.025   6.035
 3297SOL    HW210791   2.739   1.164   6.004
 3298SOL     OW10792   3.700   3.680   6.131
 3298SOL    HW110793   3.642   3.669   6.211
 3298SOL    HW210794   3.662   3.751   6.071
 3299SOL     OW10795   2.561   6.451   3.840
 3299SOL    HW110796   2.598   6.539   3.811
 3299SOL    HW210797   2.552   6.450   3.940
 3300SOL     OW10798   2.205   1.288   2.702
 3300SOL    HW110799   2.157   1.243   2.777
 3300SOL    HW210800   2.171   1.253   2.615
 3301SOL     OW10801   1.015   0.447   1.937
 3301SOL    HW110802   1.011   0.534   1.986
 3301SOL    HW210803   1.109   0.429   1.910
 3302SOL     OW10804   1.836   5.507   4.822
 3302SOL    HW110805   1.818   5.582   4.885
 3302SOL    HW210806   1.775   5.514   4.743
 3303SOL     OW10807   4.565   4.234   0.014
 3303SOL    HW110808   4.540   4.165   6.970
 3303SOL    HW210809   4.577   4.322   6.992
 3304SOL     OW10810   2.447   3.704   0.746
 3304SOL    HW110811   2.514   3.761   0.791
 3304SOL    HW210812   2.460   3.709   0.647
 3305SOL     OW10813   3.284   2.826   6.951
 3305SOL    HW110814   3.324   2.809   6.860
 3305SOL    HW210815   3.185   2.836   6.942
 3306SOL     OW10816   2.836   0.417   0.768
 3306SOL    HW110817   2.929   0.448   0.788
 3306SOL    HW210818   2.839   0.336   0.709
 3307SOL     OW10819   1.998   6.153   5.248
 3307SOL    HW110820   1.911   6.198   5.267
 3307SOL    HW210821   2.073   6.215   5.267
 3308SOL     OW10822   5.464   5.290   1.766
 3308SOL    HW110823   5.386   5.352   1.761
 3308SOL    HW210824   5.466   5.232   1.685
 3309SOL     OW10825   5.455   3.004   4.338
 3309SOL    HW110826   5.533   3.027   4.279
 3309SOL    HW210827   5.489   2.983   4.430
 3310SOL     OW10828   6.135   4.129   0.113
 3310SOL    HW110829   6.153   4.190   0.035
 3310SOL    HW210830   6.055   4.073   0.093
 3311SOL     OW10831   0.802   3.160   1.445
 3311SOL    HW110832   0.831   3.065   1.450
 3311SOL    HW210833   0.779   3.182   1.350
 3312SOL     OW10834   5.256   3.874   0.135
 3312SOL    HW110835   5.173   3.930   0.137
 3312SOL    HW210836   5.290   3.869   0.041
 3313SOL     OW10837   0.671   6.186   4.189
 3313SOL    HW110838   0.713   6.255   4.129
 3313SOL    HW210839   0.677   6.215   4.284
 3314SOL     OW10840   3.856   6.060   3.532
 3314SOL    HW110841   3.784   5.994   3.553
 3314SOL    HW210842   3.868   6.123   3.609
 3315SOL     OW10843   0.861   6.753   4.000
 3315SOL    HW110844   0.897   6.672   4.046
 3315SOL    HW210845   0.765   6.737   3.977
 3316SOL     OW10846   3.802   2.107   0.912
 3316SOL    HW110847   3.765   2.017   0.934
 3316SOL    HW210848   3.900   2.100   0.896
 3317SOL     OW10849   5.706   2.521   1.305
 3317SOL    HW110850   5.795   2.481   1.327
 3317SOL    HW210851   5.636   2.451   1.310
 3318SOL     OW10852   3.927   2.836   0.408
 3318SOL    HW110853   4.016   2.882   0.406
 3318SOL    HW210854   3.884   2.851   0.497
 3319SOL     OW10855   6.719   6.562   3.768
 3319SOL    HW110856   6.662   6.480   3.767
 3319SOL    HW210857   6.662   6.642   3.752
 3320SOL     OW10858   5.613   0.268   3.023
 3320SOL    HW110859   5.570   0.328   2.955
 3320SOL    HW210860   5.686   0.318   3.070
 3321SOL     OW10861   4.642   1.666   6.596
 3321SOL    HW110862   4.584   1.731   6.548
 3321SOL    HW210863   4.724   1.646   6.542
 3322SOL     OW10864   6.061   3.307   2.311
 3322SOL    HW110865   6.121   3.309   2.232
 3322SOL    HW210866   6.029   3.399   2.332
 3323SOL     OW10867   6.842   0.671   2.329
 3323SOL    HW110868   6.811   0.720   2.410
 3323SOL    HW210869   6.931   0.628   2.348
 3324SOL     OW10870   6.168   5.722   6.609
 3324SOL    HW110871   6.177   5.821   6.612
 3324SOL    HW210872   6.153   5.686   6.701
 3325SOL     OW10873   2.492   5.408   6.491
 3325SOL    HW110874   2.483   5.496   6.539
 3325SOL    HW210875   2.563   5.354   6.536
 3326SOL     OW10876   3.929   1.386   1.777
 3326SOL    HW110877   3.877   1.327   1.715
 3326SOL    HW210878   4.026   1.364   1.770
 3327SOL     OW10879   1.523   6.208   5.772
 3327SOL    HW110880   1.441   6.258   5.742
 3327SOL    HW210881   1.496   6.134   5.834
 3328SOL     OW10882   4.045   2.246   5.626
 3328SOL    HW110883   4.020   2.276   5.534
 3328SOL    HW210884   4.134   2.285   5.651
 3329SOL     OW10885   0.328   6.454   5.308
 3329SOL    HW110886   0.291   6.411   5.225
 3329SOL    HW210887   0.363   6.383   5.369
 3330SOL     OW10888   6.831   3.034   3.467
 3330SOL    HW110889   6.897   2.961   3.447
 3330SOL    HW210890   6.738   2.998   3.461
 3331SOL     OW10891   1.425   3.724   0.621
 3331SOL    HW110892   1.454   3.790   0.690
 3331SOL    HW210893   1.378   3.648   0.666
 3332SOL     OW10894   6.539   3.809   1.838
 3332SOL    HW110895   6.562   3.888   1.781
 3332SOL    HW210896   6.461   3.832   1.897
 3333SOL     OW10897   3.011   6.557   5.204
 3333SOL    HW110898   2.921   6.518   5.185
 3333SOL    HW210899   3.005   6.657   5.199
 3334SOL     OW10900   1.715   2.933   0.953
 3334SOL    HW110901   1.654   2.854   0.943
 3334SOL    HW210902   1.661   3.014   0.977
 3335SOL     OW10903   5.563   4.079   5.483
 3335SOL    HW110904   5.644   4.138   5.479
 3335SOL    HW210905   5.584   3.990   5.443
 3336SOL     OW10906   3.687   6.052   5.594
 3336SOL    HW110907   3.683   5.997   5.678
 3336SOL    HW210908   3.661   6.146   5.615
 3337SOL     OW10909   3.926   1.308   1.019
 3337SOL    HW110910   3.906   1.396   1.063
 3337SOL    HW210911   3.867   1.296   0.940
 3338SOL     OW10912   6.481   6.017   0.326
 3338SOL    HW110913   6.498   5.921   0.347
 3338SOL    HW210914   6.414   6.023   0.251
 3339SOL     OW10915   0.542   5.156   0.382
 3339SOL    HW110916   0.554   5.256   0.380
 3339SOL    HW210917   0.503   5.129   0.470
 3340SOL     OW10918   4.396   0.641   1.886
 3340SOL    HW110919   4.379   0.580   1.810
 3340SOL    HW210920   4.474   0.700   1.865
 3341SOL     OW10921   0.986   0.225   6.766
 3341SOL    HW110922   1.026   0.316   6.757
 3341SOL    HW210923   0.901   0.221   6.713
 3342SOL     OW10924   1.387   6.919   5.265
 3342SOL    HW110925   1.432   6.952   5.348
 3342SOL    HW210926   1.456   6.884   5.202
 3343SOL     OW10927   0.028   2.002   1.245
 3343SOL    HW110928   7.011   1.992   1.155
 3343SOL    HW210929   0.125   1.980   1.240
 3344SOL     OW10930   1.295   2.046   6.891
 3344SOL    HW110931   1.336   2.096   6.967
 3344SOL    HW210932   1.197   2.063   6.887
 3345SOL     OW10933   2.986   3.122   0.076
 3345SOL    HW110934   2.936   3.102   7.015
 3345SOL    HW210935   3.075   3.161   0.054
 3346SOL     OW10936   3.151   5.486   2.789
 3346SOL    HW110937   3.186   5.571   2.827
 3346SOL    HW210938   3.074   5.505   2.727
 3347SOL     OW10939   5.855   4.056   4.040
 3347SOL    HW110940   5.846   4.147   4.082
 3347SOL    HW210941   5.777   4.000   4.065
 3348SOL     OW10942   3.883   3.830   3.265
 3348SOL    HW110943   3.830   3.908   3.232
 3348SOL    HW210944   3.920   3.779   3.187
 3349SOL     OW10945   5.112   2.467   0.716
 3349SOL    HW110946   5.125   2.427   0.806
 3349SOL    HW210947   5.053   2.407   0.661
 3350SOL     OW10948   1.997   2.452   1.424
 3350SOL    HW110949   2.080   2.486   1.467
 3350SOL    HW210950   1.997   2.476   1.327
 3351SOL     OW10951   6.186   2.897   1.221
 3351SOL    HW110952   6.144   2.941   1.301
 3351SOL    HW210953   6.134   2.815   1.197
 3352SOL     OW10954   0.076   3.625   0.696
 3352SOL    HW110955   0.020   3.708   0.697
 3352SOL    HW210956   0.112   3.610   0.604
 3353SOL     OW10957   1.063   6.319   6.355
 3353SOL    HW110958   1.048   6.237   6.411
 3353SOL    HW210959   0.978   6.345   6.310
 3354SOL     OW10960   0.275   6.112   2.552
 3354SOL    HW110961   0.319   6.169   2.621
 3354SOL    HW210962   0.295   6.016   2.569
 3355SOL     OW10963   5.615   1.149   3.059
 3355SOL    HW110964   5.517   1.169   3.068
 3355SOL    HW210965   5.628   1.083   2.986
 3356SOL     OW10966   2.030   3.493   6.418
 3356SOL    HW110967   2.027   3.397   6.447
 3356SOL    HW210968   2.002   3.551   6.494
 3357SOL     OW10969   2.675   5.978   2.813
 3357SOL    HW110970   2.707   5.890   2.848
 3357SOL    HW210971   2.629   5.964   2.725
 3358SOL     OW10972   0.319   3.504   3.155
 3358SOL    HW110973   0.271   3.417   3.148
 3358SOL    HW210974   0.401   3.502   3.098
 3359SOL     OW10975   2.696   1.802   1.836
 3359SOL    HW110976   2.648   1.860   1.902
 3359SOL    HW210977   2.642   1.795   1.752
 3360SOL     OW10978   2.099   0.775   6.238
 3360SOL    HW110979   2.030   0.703   6.239
 3360SOL    HW210980   2.076   0.843   6.169
 3361SOL     OW10981   2.368   0.924   2.610
 3361SOL    HW110982   2.351   0.923   2.708
 3361SOL    HW210983   2.408   1.012   2.584
 3362SOL     OW10984   3.298   2.156   4.105
 3362SOL    HW110985   3.233   2.128   4.034
 3362SOL    HW210986   3.248   2.193   4.184
 3363SOL     OW10987   6.740   0.489   0.315
 3363SOL    HW110988   6.644   0.517   0.318
 3363SOL    HW210989   6.767   0.451   0.404
 3364SOL     OW10990   1.875   5.809   5.209
 3364SOL    HW110991   1.970   5.807   5.238
 3364SOL    HW210992   1.825   5.878   5.262
 3365SOL     OW10993   6.377   2.271   5.448
 3365SOL    HW110994   6.314   2.243   5.520
 3365SOL    HW210995   6.358   2.366   5.422
 3366SOL     OW10996   4.784   1.432   0.690
 3366SOL    HW110997   4.861   1.479   0.732
 3366SOL    HW210998   4.804   1.334   0.682
 3367SOL     OW10999   1.739   6.908   2.035
 3367SOL    HW111000   1.684   6.979   2.080
 3367SOL    HW211001   1.681   6.855   1.974
 3368SOL     OW11002   6.084   1.017   4.679
 3368SOL    HW111003   6.027   0.935   4.680
 3368SOL    HW211004   6.064   1.073   4.759
 3369SOL     OW11005   3.528   5.419   6.393
 3369SOL    HW111006   3.535   5.353   6.468
 3369SOL    HW211007   3.620   5.435   6.355
 3370SOL     OW11008   5.624   0.892   5.788
 3370SOL    HW111009   5.684   0.829   5.838
 3370SOL    HW211010   5.568   0.943   5.853
 3371SOL     OW11011   6.515   5.127   1.451
 3371SOL    HW111012   6.538   5.157   1.543
 3371SOL    HW211013   6.415   5.127   1.439
 3372SOL     OW11014   1.815   3.196   2.579
 3372SOL    HW111015   1.810   3.119   2.642
 3372SOL    HW211016   1.880   3.263   2.613
 3373SOL     OW11017   1.567   2.853   6.222
 3373SOL    HW111018   1.664   2.867   6.200
 3373SOL    HW211019   1.513   2.863   6.138
 3374SOL     OW11020   3.282   6.055   5.155
 3374SOL    HW111021   3.292   6.154   5.160
 3374SOL    HW211022   3.352   6.017   5.095
 3375SOL     OW11023   3.272   4.275   5.296
 3375SOL    HW111024   3.299   4.341   5.366
 3375SOL    HW211025   3.174   4.280   5.281
 3376SOL     OW11026   3.469   3.329   1.742
 3376SOL    HW111027   3.426   3.241   1.761
 3376SOL    HW211028   3.404   3.388   1.695
 3377SOL     OW11029   2.953   4.927   5.779
 3377SOL    HW111030   2.907   5.005   5.819
 3377SOL    HW211031   2.941   4.847   5.838
 3378SOL     OW11032   6.740   1.193   0.482
 3378SOL    HW111033   6.676   1.134   0.530
 3378SOL    HW211034   6.832   1.154   0.488
 3379SOL     OW11035   6.144   5.311   6.059
 3379SOL    HW111036   6.055   5.287   6.097
 3379SOL    HW211037   6.136   5.396   6.007
 3380SOL     OW11038   0.374   3.809   5.185
 3380SOL    HW111039   0.446   3.859   5.232
 3380SOL    HW211040   0.300   3.872   5.160
 3381SOL     OW11041   3.346   2.327   1.114
 3381SOL    HW111042   3.316   2.265   1.187
 3381SOL    HW211043   3.442   2.309   1.093
 3382SOL     OW11044   0.315   5.882   0.072
 3382SOL    HW111045   0.284   5.818   0.141
 3382SOL    HW211046   0.237   5.933   0.036
 3383SOL     OW11047   0.571   4.068   1.740
 3383SOL    HW111048   0.484   4.035   1.705
 3383SOL    HW211049   0.622   3.993   1.781
 3384SOL     OW11050   3.010   3.617   3.463
 3384SOL    HW111051   3.015   3.699   3.406
 3384SOL    HW211052   3.036   3.640   3.557
 3385SOL     OW11053   6.964   4.231   3.373
 3385SOL    HW111054   6.881   4.286   3.383
 3385SOL    HW211055   6.949   4.161   3.303
 3386SOL     OW11056   5.637   4.337   3.832
 3386SOL    HW111057   5.716   4.385   3.795
 3386SOL    HW211058   5.587   4.292   3.758
 3387SOL     OW11059   3.709   1.720   2.325
 3387SOL    HW111060   3.784   1.689   2.266
 3387SOL    HW211061   3.622   1.687   2.288
 3388SOL     OW11062   6.221   1.584   1.165
 3388SOL    HW111063   6.240   1.678   1.195
 3388SOL    HW211064   6.269   1.566   1.080
 3389SOL     OW11065   3.916   5.601   2.147
 3389SOL    HW111066   3.989   5.639   2.090
 3389SOL    HW211067   3.919   5.501   2.141
 3390SOL     OW11068   4.257   2.133   5.857
 3390SOL    HW111069   4.280   2.093   5.946
 3390SOL    HW211070   4.290   2.073   5.784
 3391SOL     OW11071   3.313   1.365   4.011
 3391SOL    HW111072   3.372   1.288   4.036
 3391SOL    HW211073   3.280   1.410   4.094
 3392SOL     OW11074   5.608   6.078   4.353
 3392SOL    HW111075   5.679   6.137   4.389
 3392SOL    HW211076   5.520   6.125   4.357
 3393SOL     OW11077   0.499   0.343   6.082
 3393SOL    HW111078   0.406   0.323   6.111
 3393SOL    HW211079   0.527   0.432   6.118
 3394SOL     OW11080   5.027   1.334   2.129
 3394SOL    HW111081   5.014   1.362   2.224
 3394SOL    HW211082   4.960   1.264   2.105
 3395SOL     OW11083   2.167   3.748   5.245
 3395SOL    HW111084   2.137   3.655   5.266
 3395SOL    HW211085   2.266   3.756   5.258
 3396SOL     OW11086   5.967   3.512   4.264
 3396SOL    HW111087   5.937   3.605   4.284
 3396SOL    HW211088   5.915   3.447   4.319
 3397SOL     OW11089   2.868   5.627   6.100
 3397SOL    HW111090   2.885   5.707   6.157
 3397SOL    HW211091   2.949   5.568   6.100
 3398SOL     OW11092   0.209   1.842   4.181
 3398SOL    HW111093   0.158   1.882   4.257
 3398SOL    HW211094   0.220   1.909   4.108
 3399SOL     OW11095   4.040   5.632   4.562
 3399SOL    HW111096   3.970   5.704   4.555
 3399SOL    HW211097   4.131   5.673   4.553
 3400SOL     OW11098   5.831   1.782   0.543
 3400SOL    HW111099   5.844   1.802   0.640
 3400SOL    HW211100   5.748   1.828   0.511
 3401SOL     OW11101   6.827   4.862   6.886
 3401SOL    HW111102   6.885   4.940   6.863
 3401SOL    HW211103   6.875   4.777   6.863
 3402SOL     OW11104   4.182   4.659   1.710
 3402SOL    HW111105   4.243   4.581   1.724
 3402SOL    HW211106   4.123   4.669   1.790
 3403SOL     OW11107   4.200   1.696   6.107
 3403SOL    HW111108   4.144   1.620   6.074
 3403SOL    HW211109   4.237   1.747   6.029
 3404SOL     OW11110   3.897   6.015   2.407
 3404SOL    HW111111   3.956   6.064   2.472
 3404SOL    HW211112   3.898   5.918   2.429
 3405SOL     OW11113   6.047   3.874   0.362
 3405SOL    HW111114   6.015   3.911   0.275
 3405SOL    HW211115   5.975   3.819   0.404
 3406SOL     OW11116   0.391   2.586   1.854
 3406SOL    HW111117   0.485   2.588   1.888
 3406SOL    HW211118   0.388   2.538   1.767
 3407SOL     OW11119   1.129   5.441   2.274
 3407SOL    HW111120   1.123   5.442   2.374
 3407SOL    HW211121   1.122   5.535   2.239
 3408SOL     OW11122   5.216   3.448   2.090
 3408SOL    HW111123   5.279   3.490   2.156
 3408SOL    HW211124   5.182   3.362   2.127
 3409SOL     OW11125   3.198   1.791   6.823
 3409SOL    HW111126   3.127   1.722   6.839
 3409SOL    HW211127   3.186   1.830   6.731
 3410SOL     OW11128   0.591   1.708   0.460
 3410SOL    HW111129   0.642   1.734   0.377
 3410SOL    HW211130   0.502   1.670   0.434
 3411SOL     OW11131   5.022   2.154   2.682
 3411SOL    HW111132   4.995   2.058   2.691
 3411SOL    HW211133   5.056   2.171   2.590
 3412SOL     OW11134   4.609   5.251   6.551
 3412SOL    HW111135   4.515   5.273   6.523
 3412SOL    HW211136   4.654   5.335   6.581
 3413SOL     OW11137   5.095   1.013   2.625
 3413SOL    HW111138   5.005   0.991   2.587
 3413SOL    HW211139   5.109   1.112   2.622
 3414SOL     OW11140   4.246   0.903   5.859
 3414SOL    HW111141   4.176   0.916   5.789
 3414SOL    HW211142   4.322   0.850   5.821
 3415SOL     OW11143   1.322   6.464   5.718
 3415SOL    HW111144   1.382   6.541   5.693
 3415SOL    HW211145   1.251   6.496   5.781
 3416SOL     OW11146   1.252   4.907   5.307
 3416SOL    HW111147   1.348   4.931   5.298
 3416SOL    HW211148   1.228   4.835   5.242
 3417SOL     OW11149   5.935   1.253   0.929
 3417SOL    HW111150   5.899   1.322   0.993
 3417SOL    HW211151   5.880   1.170   0.936
 3418SOL     OW11152   2.305   2.377   4.975
 3418SOL    HW111153   2.303   2.476   4.990
 3418SOL    HW211154   2.308   2.358   4.877
 3419SOL     OW11155   4.250   3.602   6.206
 3419SOL    HW111156   4.172   3.583   6.146
 3419SOL    HW211157   4.231   3.565   6.297
 3420SOL     OW11158   2.970   0.533   4.898
 3420SOL    HW111159   2.906   0.605   4.926
 3420SOL    HW211160   2.950   0.504   4.805
 3421SOL     OW11161   1.141   6.250   3.200
 3421SOL    HW111162   1.239   6.237   3.211
 3421SOL    HW211163   1.104   6.297   3.280
 3422SOL     OW11164   3.106   2.173   2.791
 3422SOL    HW111165   3.139   2.113   2.718
 3422SOL    HW211166   3.138   2.266   2.773
 3423SOL     OW11167   3.788   0.542   1.682
 3423SOL    HW111168   3.725   0.466   1.698
 3423SOL    HW211169   3.780   0.608   1.756
 3424SOL     OW11170   4.630   2.135   0.462
 3424SOL    HW111171   4.729   2.125   0.450
 3424SOL    HW211172   4.584   2.053   0.429
 3425SOL     OW11173   3.859   3.590   1.402
 3425SOL    HW111174   3.874   3.496   1.432
 3425SOL    HW211175   3.940   3.623   1.353
 3426SOL     OW11176   4.934   4.005   0.796
 3426SOL    HW111177   5.026   4.045   0.797
 3426SOL    HW211178   4.884   4.037   0.716
 3427SOL     OW11179   0.947   2.109   0.476
 3427SOL    HW111180   0.954   2.139   0.381
 3427SOL    HW211181   0.867   2.150   0.519
 3428SOL     OW11182   4.524   4.790   2.850
 3428SOL    HW111183   4.505   4.808   2.947
 3428SOL    HW211184   4.571   4.702   2.841
 3429SOL     OW11185   0.355   3.154   0.296
 3429SOL    HW111186   0.261   3.123   0.282
 3429SOL    HW211187   0.393   3.184   0.209
 3430SOL     OW11188   0.973   5.524   0.594
 3430SOL    HW111189   0.905   5.577   0.644
 3430SOL    HW211190   0.927   5.460   0.532
 3431SOL     OW11191   0.957   6.056   6.457
 3431SOL    HW111192   0.953   6.057   6.357
 3431SOL    HW211193   1.031   5.996   6.486
 3432SOL     OW11194   3.737   2.144   5.969
 3432SOL    HW111195   3.751   2.179   5.876
 3432SOL    HW211196   3.760   2.047   5.972
 3433SOL     OW11197   4.109   1.427   5.095
 3433SOL    HW111198   4.026   1.466   5.054
 3433SOL    HW211199   4.084   1.366   5.170
 3434SOL     OW11200   4.424   1.107   3.305
 3434SOL    HW111201   4.400   1.026   3.359
 3434SOL    HW211202   4.434   1.082   3.209
 3435SOL     OW11203   0.202   1.127   6.532
 3435SOL    HW111204   0.260   1.208   6.537
 3435SOL    HW211205   0.146   1.130   6.449
 3436SOL     OW11206   4.157   6.674   1.649
 3436SOL    HW111207   4.163   6.752   1.587
 3436SOL    HW211208   4.062   6.643   1.653
 3437SOL     OW11209   4.145   0.327   0.485
 3437SOL    HW111210   4.123   0.424   0.486
 3437SOL    HW211211   4.067   0.274   0.518
 3438SOL     OW11212   0.544   5.432   6.283
 3438SOL    HW111213   0.462   5.489   6.284
 3438SOL    HW211214   0.622   5.486   6.252
 3439SOL     OW11215   2.750   0.621   3.866
 3439SOL    HW111216   2.731   0.617   3.965
 3439SOL    HW211217   2.721   0.710   3.830
 3440SOL     OW11218   3.893   2.357   0.665
 3440SOL    HW111219   3.862   2.412   0.587
 3440SOL    HW211220   3.868   2.403   0.750
 3441SOL     OW11221   4.536   0.239   4.646
 3441SOL    HW111222   4.483   0.262   4.564
 3441SOL    HW211223   4.633   0.231   4.622
 3442SOL     OW11224   0.350   5.545   3.119
 3442SOL    HW111225   0.315   5.516   3.029
 3442SOL    HW211226   0.379   5.640   3.114
 3443SOL     OW11227   6.470   6.394   4.197
 3443SOL    HW111228   6.483   6.406   4.295
 3443SOL    HW211229   6.403   6.460   4.164
 3444SOL     OW11230   3.049   5.780   6.809
 3444SOL    HW111231   3.043   5.746   6.715
 3444SOL    HW211232   3.134   5.832   6.821
 3445SOL     OW11233   6.221   5.054   6.027
 3445SOL    HW111234   6.224   5.025   5.931
 3445SOL    HW211235   6.221   5.153   6.032
 3446SOL     OW11236   2.168   5.656   1.554
 3446SOL    HW111237   2.175   5.755   1.538
 3446SOL    HW211238   2.238   5.628   1.620
 3447SOL     OW11239   5.859   4.241   5.460
 3447SOL    HW111240   5.812   4.301   5.525
 3447SOL    HW211241   5.955   4.268   5.454
 3448SOL     OW11242   3.845   3.059   0.221
 3448SOL    HW111243   3.749   3.081   0.241
 3448SOL    HW211244   3.888   3.021   0.303
 3449SOL     OW11245   6.176   5.815   2.819
 3449SOL    HW111246   6.211   5.908   2.808
 3449SOL    HW211247   6.180   5.768   2.731
 3450SOL     OW11248   0.681   1.545   1.011
 3450SOL    HW111249   0.755   1.479   0.998
 3450SOL    HW211250   0.720   1.632   1.041
 3451SOL     OW11251   2.066   5.308   4.076
 3451SOL    HW111252   2.093   5.392   4.124
 3451SOL    HW211253   2.148   5.259   4.046
 3452SOL     OW11254   6.399   1.929   0.404
 3452SOL    HW111255   6.353   1.965   0.485
 3452SOL    HW211256   6.497   1.924   0.421
 3453SOL     OW11257   6.222   4.973   4.926
 3453SOL    HW111258   6.198   5.070   4.922
 3453SOL    HW211259   6.224   4.935   4.834
 3454SOL     OW11260   6.930   1.209   0.109
 3454SOL    HW111261   7.020   1.244   0.133
 3454SOL    HW211262   6.925   1.112   0.131
 3455SOL     OW11263   1.193   2.510   3.222
 3455SOL    HW111264   1.101   2.493   3.256
 3455SOL    HW211265   1.241   2.423   3.207
 3456SOL     OW11266   6.300   0.039   0.296
 3456SOL    HW111267   6.293   6.964   0.290
 3456SOL    HW211268   6.395   0.064   0.317
 3457SOL     OW11269   2.276   6.614   3.817
 3457SOL    HW111270   2.217   6.633   3.895
 3457SOL    HW211271   2.221   6.586   3.739
 3458SOL     OW11272   4.206   4.721   0.028
 3458SOL    HW111273   4.267   4.710   6.974
 3458SOL    HW211274   4.136   4.649   0.026
 3459SOL     OW11275   6.394   6.903   3.209
 3459SOL    HW111276   6.433   6.811   3.204
 3459SOL    HW211277   6.462   6.970   3.178
 3460SOL     OW11278   5.389   2.759   0.405
 3460SOL    HW111279   5.395   2.736   0.503
 3460SOL    HW211280   5.320   2.701   0.362
 3461SOL     OW11281   2.710   5.559   2.612
 3461SOL    HW111282   2.636   5.605   2.563
 3461SOL    HW211283   2.675   5.525   2.700
 3462SOL     OW11284   5.019   1.901   3.069
 3462SOL    HW111285   5.085   1.966   3.031
 3462SOL    HW211286   5.059   1.856   3.149
 3463SOL     OW11287   0.919   2.932   1.348
 3463SOL    HW111288   0.898   2.923   1.250
 3463SOL    HW211289   0.915   2.842   1.391
 3464SOL     OW11290   5.087   1.474   6.650
 3464SOL    HW111291   5.166   1.420   6.622
 3464SOL    HW211292   5.114   1.539   6.721
 3465SOL     OW11293   1.921   4.703   1.636
 3465SOL    HW111294   1.822   4.693   1.639
 3465SOL    HW211295   1.964   4.635   1.696
 3466SOL     OW11296   6.810   3.689   4.487
 3466SOL    HW111297   6.835   3.768   4.542
 3466SOL    HW211298   6.732   3.712   4.429
 3467SOL     OW11299   3.344   4.136   0.495
 3467SOL    HW111300   3.325   4.039   0.477
 3467SOL    HW211301   3.370   4.181   0.410
 3468SOL     OW11302   4.472   1.537   1.499
 3468SOL    HW111303   4.526   1.458   1.469
 3468SOL    HW211304   4.524   1.621   1.482
 3469SOL     OW11305   3.440   6.344   4.950
 3469SOL    HW111306   3.481   6.405   4.882
 3469SOL    HW211307   3.384   6.397   5.013
 3470SOL     OW11308   1.145   2.613   0.716
 3470SOL    HW111309   1.203   2.598   0.797
 3470SOL    HW211310   1.049   2.596   0.741
 3471SOL     OW11311   5.204   3.095   5.045
 3471SOL    HW111312   5.188   3.192   5.026
 3471SOL    HW211313   5.248   3.052   4.966
 3472SOL     OW11314   4.722   2.082   1.929
 3472SOL    HW111315   4.813   2.122   1.939
 3472SOL    HW211316   4.724   1.987   1.959
 3473SOL     OW11317   6.051   3.952   1.806
 3473SOL    HW111318   5.979   3.999   1.857
 3473SOL    HW211319   6.010   3.881   1.748
 3474SOL     OW11320   4.501   4.434   3.515
 3474SOL    HW111321   4.585   4.449   3.461
 3474SOL    HW211322   4.509   4.347   3.565
 3475SOL     OW11323   6.528   3.953   3.995
 3475SOL    HW111324   6.441   3.903   3.994
 3475SOL    HW211325   6.513   4.044   4.033
 3476SOL     OW11326   1.643   3.196   3.483
 3476SOL    HW111327   1.679   3.103   3.496
 3476SOL    HW211328   1.609   3.205   3.390
 3477SOL     OW11329   1.642   3.945   2.780
 3477SOL    HW111330   1.637   3.953   2.681
 3477SOL    HW211331   1.570   3.884   2.813
 3478SOL     OW11332   2.606   0.917   0.842
 3478SOL    HW111333   2.684   0.856   0.856
 3478SOL    HW211334   2.614   0.961   0.752
 3479SOL     OW11335   1.031   3.971   5.367
 3479SOL    HW111336   0.975   3.981   5.285
 3479SOL    HW211337   1.084   4.055   5.382
 3480SOL     OW11338   0.962   5.521   6.977
 3480SOL    HW111339   0.890   5.471   7.023
 3480SOL    HW211340   0.926   5.565   6.895
 3481SOL     OW11341   5.665   1.089   4.703
 3481SOL    HW111342   5.701   1.161   4.644
 3481SOL    HW211343   5.714   1.004   4.684
 3482SOL     OW11344   6.587   2.854   6.400
 3482SOL    HW111345   6.648   2.873   6.477
 3482SOL    HW211346   6.497   2.826   6.435
 3483SOL     OW11347   5.316   2.174   4.475
 3483SOL    HW111348   5.416   2.179   4.483
 3483SOL    HW211349   5.274   2.204   4.560
 3484SOL     OW11350   1.468   2.986   4.630
 3484SOL    HW111351   1.447   3.072   4.676
 3484SOL    HW211352   1.566   2.983   4.608
 3485SOL     OW11353   6.951   4.319   6.103
 3485SOL    HW111354   6.911   4.385   6.040
 3485SOL    HW211355   0.019   4.349   6.128
 3486SOL     OW11356   1.451   6.521   4.615
 3486SOL    HW111357   1.518   6.477   4.556
 3486SOL    HW211358   1.429   6.460   4.692
 3487SOL     OW11359   4.044   1.326   6.716
 3487SOL    HW111360   4.024   1.389   6.791
 3487SOL    HW211361   3.981   1.343   6.640
 3488SOL     OW11362   5.032   5.873   5.776
 3488SOL    HW111363   5.011   5.830   5.689
 3488SOL    HW211364   4.965   5.945   5.795
 3489SOL     OW11365   3.431   6.119   1.252
 3489SOL    HW111366   3.372   6.179   1.198
 3489SOL    HW211367   3.376   6.045   1.291
 3490SOL     OW11368   4.486   0.301   0.673
 3490SOL    HW111369   4.462   0.241   0.597
 3490SOL    HW211370   4.434   0.274   0.754
 3491SOL     OW11371   4.873   4.445   5.393
 3491SOL    HW111372   4.808   4.415   5.463
 3491SOL    HW211373   4.956   4.479   5.437
 3492SOL     OW11374   5.156   3.645   3.082
 3492SOL    HW111375   5.174   3.742   3.065
 3492SOL    HW211376   5.136   3.632   3.179
 3493SOL     OW11377   0.385   4.105   6.225
 3493SOL    HW111378   0.349   4.061   6.143
 3493SOL    HW211379   0.447   4.042   6.272
 3494SOL     OW11380   4.711   1.138   2.556
 3494SOL    HW111381   4.621   1.116   2.594
 3494SOL    HW211382   4.765   1.187   2.623
 3495SOL     OW11383   2.239   4.038   3.824
 3495SOL    HW111384   2.299   4.015   3.747
 3495SOL    HW211385   2.192   4.124   3.805
 3496SOL     OW11386   6.274   5.520   1.340
 3496SOL    HW111387   6.181   5.483   1.341
 3496SOL    HW211388   6.274   5.612   1.300
 3497SOL     OW11389   3.051   0.310   1.177
 3497SOL    HW111390   3.051   0.320   1.277
 3497SOL    HW211391   2.997   0.384   1.137
 3498SOL     OW11392   2.812   2.047   1.325
 3498SOL    HW111393   2.853   2.093   1.246
 3498SOL    HW211394   2.764   2.113   1.381
 3499SOL     OW11395   6.129   6.868   4.653
 3499SOL    HW111396   6.165   6.840   4.742
 3499SOL    HW211397   6.136   6.791   4.589
 3500SOL     OW11398   3.032   2.258   3.448
 3500SOL    HW111399   3.067   2.230   3.537
 3500SOL    HW211400   3.105   2.254   3.380
 3501SOL     OW11401   1.567   6.830   6.264
 3501SOL    HW111402   1.474   6.792   6.270
 3501SOL    HW211403   1.574   6.910   6.322
 3502SOL     OW11404   5.276   2.472   2.012
 3502SOL    HW111405   5.207   2.431   1.953
 3502SOL    HW211406   5.361   2.420   2.005
 3503SOL     OW11407   0.604   5.968   6.765
 3503SOL    HW111408   0.558   6.034   6.706
 3503SOL    HW211409   0.697   5.953   6.733
 3504SOL     OW11410   1.919   1.209   6.612
 3504SOL    HW111411   1.997   1.230   6.671
 3504SOL    HW211412   1.836   1.252   6.649
 3505SOL     OW11413   5.266   2.568   4.759
 3505SOL    HW111414   5.167   2.562   4.772
 3505SOL    HW211415   5.312   2.566   4.848
 3506SOL     OW11416   4.095   4.843   4.915
 3506SOL    HW111417   4.195   4.837   4.924
 3506SOL    HW211418   4.067   4.804   4.827
 3507SOL     OW11419   2.730   1.694   1.390
 3507SOL    HW111420   2.663   1.746   1.442
 3507SOL    HW211421   2.822   1.712   1.425
 3508SOL     OW11422   3.463   1.133   6.881
 3508SOL    HW111423   3.392   1.070   6.848
 3508SOL    HW211424   3.544   1.125   6.824
 3509SOL     OW11425   4.429   6.161   6.922
 3509SOL    HW111426   4.519   6.181   6.884
 3509SOL    HW211427   4.371   6.243   6.916
 3510SOL     OW11428   2.028   0.813   1.439
 3510SOL    HW111429   2.027   0.807   1.339
 3510SOL    HW211430   1.977   0.735   1.477
 3511SOL     OW11431   3.150   5.260   1.754
 3511SOL    HW111432   3.082   5.288   1.686
 3511SOL    HW211433   3.138   5.164   1.777
 3512SOL     OW11434   0.351   5.986   6.622
 3512SOL    HW111435   0.298   5.963   6.540
 3512SOL    HW211436   0.376   5.902   6.670
 3513SOL     OW11437   4.900   2.030   0.408
 3513SOL    HW111438   4.901   1.978   0.323
 3513SOL    HW211439   4.948   1.978   0.479
 3514SOL     OW11440   3.477   1.991   2.073
 3514SOL    HW111441   3.538   2.068   2.091
 3514SOL    HW211442   3.531   1.912   2.044
 3515SOL     OW11443   0.694   4.452   3.874
 3515SOL    HW111444   0.656   4.496   3.792
 3515SOL    HW211445   0.649   4.488   3.955
 3516SOL     OW11446   4.225   0.664   1.110
 3516SOL    HW111447   4.242   0.728   1.034
 3516SOL    HW211448   4.230   0.713   1.197
 3517SOL     OW11449   5.317   1.723   2.488
 3517SOL    HW111450   5.328   1.681   2.578
 3517SOL    HW211451   5.269   1.661   2.427
 3518SOL     OW11452   6.573   1.245   5.812
 3518SOL    HW111453   6.512   1.197   5.749
 3518SOL    HW211454   6.599   1.184   5.887
 3519SOL     OW11455   3.391   1.055   1.186
 3519SOL    HW111456   3.374   1.043   1.284
 3519SOL    HW211457   3.474   1.110   1.173
 3520SOL     OW11458   2.917   5.765   3.723
 3520SOL    HW111459   2.984   5.699   3.758
 3520SOL    HW211460   2.881   5.819   3.799
 3521SOL     OW11461   2.437   2.773   5.516
 3521SOL    HW111462   2.470   2.800   5.606
 3521SOL    HW211463   2.350   2.723   5.525
 3522SOL     OW11464   1.161   6.286   6.984
 3522SOL    HW111465   1.136   6.311   0.054
 3522SOL    HW211466   1.251   6.243   6.984
 3523SOL     OW11467   3.362   5.548   6.641
 3523SOL    HW111468   3.425   5.587   6.574
 3523SOL    HW211469   3.286   5.504   6.593
 3524SOL     OW11470   4.679   1.496   4.569
 3524SOL    HW111471   4.722   1.500   4.479
 3524SOL    HW211472   4.592   1.447   4.563
 3525SOL     OW11473   0.520   2.686   3.889
 3525SOL    HW111474   0.616   2.696   3.865
 3525SOL    HW211475   0.477   2.619   3.829
 3526SOL     OW11476   6.483   0.113   1.560
 3526SOL    HW111477   6.533   0.033   1.596
 3526SOL    HW211478   6.518   0.195   1.605
 3527SOL     OW11479   6.614   2.734   0.325
 3527SOL    HW111480   6.616   2.735   0.225
 3527SOL    HW211481   6.600   2.640   0.357
 3528SOL     OW11482   2.175   5.690   4.974
 3528SOL    HW111483   2.247   5.650   5.032
 3528SOL    HW211484   2.177   5.789   4.984
 3529SOL     OW11485   4.746   4.123   6.646
 3529SOL    HW111486   4.748   4.034   6.691
 3529SOL    HW211487   4.839   4.153   6.627
 3530SOL     OW11488   6.300   0.311   0.226
 3530SOL    HW111489   6.258   0.222   0.242
 3530SOL    HW211490   6.391   0.298   0.186
 3531SOL     OW11491   4.423   2.238   0.577
 3531SOL    HW111492   4.503   2.216   0.521
 3531SOL    HW211493   4.433   2.330   0.614
 3532SOL     OW11494   2.266   0.465   1.493
 3532SOL    HW111495   2.241   0.482   1.398
 3532SOL    HW211496   2.196   0.409   1.537
 3533SOL     OW11497   2.074   2.851   2.749
 3533SOL    HW111498   2.011   2.854   2.671
 3533SOL    HW211499   2.026   2.882   2.831
 3534SOL     OW11500   0.535   1.135   0.731
 3534SOL    HW111501   0.581   1.069   0.790
 3534SOL    HW211502   0.597   1.210   0.709
 3535SOL     OW11503   3.925   0.188   3.556
 3535SOL    HW111504   3.851   0.236   3.510
 3535SOL    HW211505   3.945   0.103   3.507
 3536SOL     OW11506   4.050   1.630   4.206
 3536SOL    HW111507   4.030   1.650   4.110
 3536SOL    HW211508   4.086   1.712   4.251
 3537SOL     OW11509   1.345   5.973   2.279
 3537SOL    HW111510   1.361   5.998   2.184
 3537SOL    HW211511   1.370   6.050   2.338
 3538SOL     OW11512   3.598   5.743   1.226
 3538SOL    HW111513   3.657   5.824   1.234
 3538SOL    HW211514   3.539   5.736   1.306
 3539SOL     OW11515   3.541   4.077   4.285
 3539SOL    HW111516   3.449   4.087   4.322
 3539SOL    HW211517   3.547   4.124   4.197
 3540SOL     OW11518   1.925   2.958   3.271
 3540SOL    HW111519   1.835   2.920   3.250
 3540SOL    HW211520   1.918   3.024   3.346
 3541SOL     OW11521   3.708   4.062   4.843
 3541SOL    HW111522   3.775   4.136   4.838
 3541SOL    HW211523   3.723   4.010   4.927
 3542SOL     OW11524   6.900   5.649   1.268
 3542SOL    HW111525   6.805   5.623   1.285
 3542SOL    HW211526   6.959   5.570   1.282
 3543SOL     OW11527   5.035   1.792   4.659
 3543SOL    HW111528   5.035   1.829   4.566
 3543SOL    HW211529   5.128   1.764   4.683
 3544SOL     OW11530   3.241   6.923   6.622
 3544SOL    HW111531   3.296   6.922   6.705
 3544SOL    HW211532   3.240   6.831   6.582
 3545SOL     OW11533   2.721   5.155   0.827
 3545SOL    HW111534   2.656   5.209   0.774
 3545SOL    HW211535   2.680   5.067   0.850
 3546SOL     OW11536   1.071   4.479   2.854
 3546SOL    HW111537   1.008   4.406   2.829
 3546SOL    HW211538   1.047   4.562   2.804
 3547SOL     OW11539   4.708   4.705   4.640
 3547SOL    HW111540   4.730   4.701   4.542
 3547SOL    HW211541   4.656   4.788   4.659
 3548SOL     OW11542   6.083   3.417   5.522
 3548SOL    HW111543   6.151   3.366   5.470
 3548SOL    HW211544   6.128   3.491   5.573
 3549SOL     OW11545   5.210   3.569   1.831
 3549SOL    HW111546   5.221   3.528   1.922
 3549SOL    HW211547   5.126   3.623   1.829
 3550SOL     OW11548   4.981   1.719   3.850
 3550SOL    HW111549   5.007   1.632   3.808
 3550SOL    HW211550   4.936   1.777   3.782
 3551SOL     OW11551   1.604   0.278   2.655
 3551SOL    HW111552   1.638   0.372   2.654
 3551SOL    HW211553   1.609   0.240   2.563
 3552SOL     OW11554   6.570   4.241   3.144
 3552SOL    HW111555   6.555   4.321   3.085
 3552SOL    HW211556   6.637   4.180   3.101
 3553SOL     OW11557   6.070   1.580   3.602
 3553SOL    HW111558   6.049   1.515   3.529
 3553SOL    HW211559   6.128   1.653   3.567
 3554SOL     OW11560   3.737   5.782   6.627
 3554SOL    HW111561   3.729   5.878   6.652
 3554SOL    HW211562   3.779   5.731   6.702
 3555SOL     OW11563   0.811   2.620   3.852
 3555SOL    HW111564   0.842   2.704   3.809
 3555SOL    HW211565   0.823   2.544   3.788
 3556SOL     OW11566   3.998   1.438   6.366
 3556SOL    HW111567   4.095   1.443   6.392
 3556SOL    HW211568   3.984   1.487   6.280
 3557SOL     OW11569   1.731   1.480   3.844
 3557SOL    HW111570   1.705   1.390   3.810
 3557SOL    HW211571   1.830   1.492   3.834
 3558SOL     OW11572   0.362   0.156   1.374
 3558SOL    HW111573   0.348   0.148   1.275
 3558SOL    HW211574   0.277   0.133   1.421
 3559SOL     OW11575   0.779   1.017   5.945
 3559SOL    HW111576   0.787   0.951   6.020
 3559SOL    HW211577   0.856   1.006   5.882
 3560SOL     OW11578   6.595   0.598   1.487
 3560SOL    HW111579   6.689   0.578   1.459
 3560SOL    HW211580   6.596   0.659   1.566
 3561SOL     OW11581   5.720   5.112   3.515
 3561SOL    HW111582   5.675   5.189   3.470
 3561SOL    HW211583   5.655   5.037   3.526
 3562SOL     OW11584   3.984   2.223   2.773
 3562SOL    HW111585   3.975   2.173   2.687
 3562SOL    HW211586   3.909   2.198   2.834
 3563SOL     OW11587   3.487   6.303   1.458
 3563SOL    HW111588   3.485   6.250   1.374
 3563SOL    HW211589   3.503   6.400   1.436
 3564SOL     OW11590   6.489   4.422   1.822
 3564SOL    HW111591   6.549   4.407   1.900
 3564SOL    HW211592   6.522   4.370   1.743
 3565SOL     OW11593   0.740   0.786   5.379
 3565SOL    HW111594   0.735   0.886   5.386
 3565SOL    HW211595   0.748   0.747   5.470
 3566SOL     OW11596   0.411   4.745   5.922
 3566SOL    HW111597   0.383   4.669   5.864
 3566SOL    HW211598   0.425   4.712   6.016
 3567SOL     OW11599   6.022   2.163   1.172
 3567SOL    HW111600   6.105   2.197   1.216
 3567SOL    HW211601   5.988   2.084   1.222
 3568SOL     OW11602   4.940   4.314   3.768
 3568SOL    HW111603   4.951   4.324   3.867
 3568SOL    HW211604   5.030   4.316   3.725
 3569SOL     OW11605   4.079   3.438   3.167
 3569SOL    HW111606   4.106   3.349   3.203
 3569SOL    HW211607   4.012   3.480   3.229
 3570SOL     OW11608   0.486   2.637   5.870
 3570SOL    HW111609   0.532   2.720   5.837
 3570SOL    HW211610   0.405   2.620   5.813
 3571SOL     OW11611   3.262   0.191   4.235
 3571SOL    HW111612   3.222   0.259   4.174
 3571SOL    HW211613   3.300   0.237   4.315
 3572SOL     OW11614   4.541   4.523   2.921
 3572SOL    HW111615   4.442   4.533   2.928
 3572SOL    HW211616   4.574   4.470   2.999
 3573SOL     OW11617   0.511   4.935   3.488
 3573SOL    HW111618   0.499   4.842   3.453
 3573SOL    HW211619   0.556   4.991   3.418
 3574SOL     OW11620   2.535   1.618   6.511
 3574SOL    HW111621   2.560   1.701   6.462
 3574SOL    HW211622   2.531   1.637   6.609
 3575SOL     OW11623   4.857   0.137   6.647
 3575SOL    HW111624   4.855   0.089   6.560
 3575SOL    HW211625   4.768   0.181   6.663
 3576SOL     OW11626   1.163   2.712   0.467
 3576SOL    HW111627   1.150   2.666   0.555
 3576SOL    HW211628   1.195   2.645   0.400
 3577SOL     OW11629   1.869   3.920   4.232
 3577SOL    HW111630   1.873   4.010   4.190
 3577SOL    HW211631   1.785   3.873   4.205
 3578SOL     OW11632   4.951   2.200   0.661
 3578SOL    HW111633   4.919   2.118   0.709
 3578SOL    HW211634   4.879   2.270   0.664
 3579SOL     OW11635   0.431   3.311   2.487
 3579SOL    HW111636   0.377   3.380   2.438
 3579SOL    HW211637   0.513   3.353   2.525
 3580SOL     OW11638   6.875   4.190   1.877
 3580SOL    HW111639   6.835   4.162   1.964
 3580SOL    HW211640   6.883   4.111   1.817
 3581SOL     OW11641   1.487   1.001   2.914
 3581SOL    HW111642   1.574   1.050   2.916
 3581SOL    HW211643   1.483   0.943   2.833
 3582SOL     OW11644   4.592   6.458   0.114
 3582SOL    HW111645   4.640   6.543   0.131
 3582SOL    HW211646   4.639   6.407   0.041
 3583SOL     OW11647   1.914   6.223   0.365
 3583SOL    HW111648   1.965   6.160   0.305
 3583SOL    HW211649   1.887   6.174   0.448
 3584SOL     OW11650   5.759   5.344   4.835
 3584SOL    HW111651   5.775   5.290   4.918
 3584SOL    HW211652   5.710   5.427   4.859
 3585SOL     OW11653   4.423   1.851   3.545
 3585SOL    HW111654   4.479   1.905   3.608
 3585SOL    HW211655   4.338   1.900   3.526
 3586SOL     OW11656   0.363   3.033   5.335
 3586SOL    HW111657   0.277   3.074   5.363
 3586SOL    HW211658   0.413   3.001   5.416
 3587SOL     OW11659   2.121   0.587   5.329
 3587SOL    HW111660   2.026   0.558   5.315
 3587SOL    HW211661   2.123   0.687   5.343
 3588SOL     OW11662   5.927   3.793   4.267
 3588SOL    HW111663   5.837   3.835   4.255
 3588SOL    HW211664   5.975   3.792   4.180
 3589SOL     OW11665   0.372   1.548   6.008
 3589SOL    HW111666   0.469   1.555   5.984
 3589SOL    HW211667   0.316   1.580   5.932
 3590SOL     OW11668   6.470   5.264   6.221
 3590SOL    HW111669   6.514   5.312   6.298
 3590SOL    HW211670   6.494   5.167   6.225
 3591SOL     OW11671   5.071   1.240   1.018
 3591SOL    HW111672   5.026   1.271   1.101
 3591SOL    HW211673   5.161   1.201   1.040
 3592SOL     OW11674   0.532   6.014   1.357
 3592SOL    HW111675   0.440   6.052   1.364
 3592SOL    HW211676   0.579   6.057   1.280
 3593SOL     OW11677   4.104   3.342   6.176
 3593SOL    HW111678   4.179   3.277   6.188
 3593SOL    HW211679   4.027   3.297   6.130
 3594SOL     OW11680   4.391   4.342   5.378
 3594SOL    HW111681   4.372   4.288   5.460
 3594SOL    HW211682   4.306   4.363   5.330
 3595SOL     OW11683   5.022   6.568   5.190
 3595SOL    HW111684   5.084   6.493   5.216
 3595SOL    HW211685   4.954   6.581   5.262
 3596SOL     OW11686   3.451   1.523   1.867
 3596SOL    HW111687   3.474   1.471   1.786
 3596SOL    HW211688   3.477   1.471   1.949
 3597SOL     OW11689   4.141   4.713   5.183
 3597SOL    HW111690   4.139   4.743   5.088
 3597SOL    HW211691   4.223   4.659   5.199
 3598SOL     OW11692   6.256   5.211   4.061
 3598SOL    HW111693   6.179   5.184   4.118
 3598SOL    HW211694   6.301   5.130   4.023
 3599SOL     OW11695   2.340   1.518   5.628
 3599SOL    HW111696   2.366   1.610   5.599
 3599SOL    HW211697   2.313   1.464   5.548
 3600SOL     OW11698   2.505   4.191   0.897
 3600SOL    HW111699   2.442   4.266   0.916
 3600SOL    HW211700   2.495   4.163   0.801
 3601SOL     OW11701   3.094   0.497   5.432
 3601SOL    HW111702   3.082   0.557   5.353
 3601SOL    HW211703   3.114   0.404   5.400
 3602SOL     OW11704   1.560   2.208   1.080
 3602SOL    HW111705   1.567   2.110   1.101
 3602SOL    HW211706   1.649   2.251   1.093
 3603SOL     OW11707   1.617   6.703   5.742
 3603SOL    HW111708   1.556   6.702   5.821
 3603SOL    HW211709   1.684   6.776   5.753
 3604SOL     OW11710   6.885   1.351   4.521
 3604SOL    HW111711   6.976   1.309   4.520
 3604SOL    HW211712   6.856   1.369   4.428
 3605SOL     OW11713   0.876   0.278   4.953
 3605SOL    HW111714   0.798   0.330   4.987
 3605SOL    HW211715   0.932   0.247   5.031
 3606SOL     OW11716   1.885   0.861   2.989
 3606SOL    HW111717   1.849   0.954   2.983
 3606SOL    HW211718   1.843   0.815   3.068
 3607SOL     OW11719   5.932   1.453   4.643
 3607SOL    HW111720   5.843   1.406   4.646
 3607SOL    HW211721   5.935   1.511   4.561
 3608SOL     OW11722   4.415   1.822   5.508
 3608SOL    HW111723   4.492   1.853   5.452
 3608SOL    HW211724   4.413   1.722   5.510
 3609SOL     OW11725   3.182   6.946   4.222
 3609SOL    HW111726   3.213   0.015   4.239
 3609SOL    HW211727   3.223   6.885   4.290
 3610SOL     OW11728   0.894   0.312   5.867
 3610SOL    HW111729   0.943   0.291   5.782
 3610SOL    HW211730   0.799   0.333   5.847
 3611SOL     OW11731   5.865   2.645   2.745
 3611SOL    HW111732   5.782   2.608   2.787
 3611SOL    HW211733   5.919   2.693   2.814
 3612SOL     OW11734   5.709   1.433   1.145
 3612SOL    HW111735   5.769   1.504   1.110
 3612SOL    HW211736   5.687   1.452   1.241
 3613SOL     OW11737   4.530   1.437   2.390
 3613SOL    HW111738   4.571   1.351   2.362
 3613SOL    HW211739   4.430   1.428   2.389
 3614SOL     OW11740   3.339   5.902   0.452
 3614SOL    HW111741   3.362   5.837   0.380
 3614SOL    HW211742   3.359   5.862   0.541
 3615SOL     OW11743   5.322   2.636   5.570
 3615SOL    HW111744   5.254   2.575   5.531
 3615SOL    HW211745   5.413   2.605   5.547
 3616SOL     OW11746   2.137   0.779   0.638
 3616SOL    HW111747   2.041   0.757   0.657
 3616SOL    HW211748   2.147   0.878   0.629
 3617SOL     OW11749   4.034   5.421   5.528
 3617SOL    HW111750   3.958   5.465   5.481
 3617SOL    HW211751   4.047   5.328   5.491
 3618SOL     OW11752   1.126   5.540   4.309
 3618SOL    HW111753   1.216   5.582   4.299
 3618SOL    HW211754   1.129   5.468   4.378
 3619SOL     OW11755   0.149   1.820   2.178
 3619SOL    HW111756   0.075   1.814   2.111
 3619SOL    HW211757   0.224   1.873   2.141
 3620SOL     OW11758   5.037   6.388   5.580
 3620SOL    HW111759   4.957   6.335   5.549
 3620SOL    HW211760   5.098   6.403   5.502
 3621SOL     OW11761   3.253   3.355   2.864
 3621SOL    HW111762   3.246   3.270   2.915
 3621SOL    HW211763   3.340   3.400   2.885
 3622SOL     OW11764   1.781   6.326   6.180
 3622SOL    HW111765   1.748   6.276   6.261
 3622SOL    HW211766   1.780   6.424   6.199
 3623SOL     OW11767   2.225   6.332   5.627
 3623SOL    HW111768   2.129   6.337   5.653
 3623SOL    HW211769   2.259   6.239   5.645
 3624SOL     OW11770   2.920   1.471   2.021
 3624SOL    HW111771   2.857   1.424   1.959
 3624SOL    HW211772   2.875   1.553   2.057
 3625SOL     OW11773   6.150   2.269   2.106
 3625SOL    HW111774   6.185   2.208   2.177
 3625SOL    HW211775   6.223   2.287   2.039
 3626SOL     OW11776   0.576   3.159   5.571
 3626SOL    HW111777   0.647   3.123   5.631
 3626SOL    HW211778   0.618   3.211   5.497
 3627SOL     OW11779   3.146   1.535   2.375
 3627SOL    HW111780   3.151   1.592   2.293
 3627SOL    HW211781   3.109   1.445   2.351
 3628SOL     OW11782   6.635   1.148   1.392
 3628SOL    HW111783   6.609   1.090   1.469
 3628SOL    HW211784   6.721   1.116   1.354
 3629SOL     OW11785   1.692   0.798   4.322
 3629SOL    HW111786   1.594   0.778   4.310
 3629SOL    HW211787   1.714   0.884   4.277
 3630SOL     OW11788   6.849   1.366   2.842
 3630SOL    HW111789   6.840   1.447   2.784
 3630SOL    HW211790   6.804   1.288   2.798
 3631SOL     OW11791   2.226   5.141   2.467
 3631SOL    HW111792   2.248   5.200   2.389
 3631SOL    HW211793   2.292   5.156   2.541
 3632SOL     OW11794   4.984   3.026   2.827
 3632SOL    HW111795   4.929   2.963   2.772
 3632SOL    HW211796   5.080   2.999   2.822
 3633SOL     OW11797   4.919   4.663   5.678
 3633SOL    HW111798   5.003   4.666   5.624
 3633SOL    HW211799   4.942   4.665   5.775
 3634SOL     OW11800   2.912   4.877   6.756
 3634SOL    HW111801   2.984   4.827   6.805
 3634SOL    HW211802   2.823   4.850   6.791
 3635SOL     OW11803   1.418   6.251   3.258
 3635SOL    HW111804   1.440   6.334   3.309
 3635SOL    HW211805   1.499   6.220   3.208
 3636SOL     OW11806   6.864   6.218   3.627
 3636SOL    HW111807   6.863   6.318   3.632
 3636SOL    HW211808   6.859   6.190   3.531
 3637SOL     OW11809   4.897   1.943   0.170
 3637SOL    HW111810   4.827   1.911   0.107
 3637SOL    HW211811   4.987   1.934   0.128
 3638SOL     OW11812   0.652   2.941   4.164
 3638SOL    HW111813   0.717   3.016   4.151
 3638SOL    HW211814   0.577   2.950   4.099
 3639SOL     OW11815   3.803   2.992   3.641
 3639SOL    HW111816   3.770   3.000   3.735
 3639SOL    HW211817   3.900   3.017   3.638
 3640SOL     OW11818   4.868   1.742   2.503
 3640SOL    HW111819   4.827   1.814   2.447
 3640SOL    HW211820   4.798   1.676   2.528
 3641SOL     OW11821   6.872   3.213   1.074
 3641SOL    HW111822   6.880   3.113   1.069
 3641SOL    HW211823   6.778   3.239   1.093
 3642SOL     OW11824   3.675   4.645   0.046
 3642SOL    HW111825   3.713   4.736   0.033
 3642SOL    HW211826   3.732   4.594   0.110
 3643SOL     OW11827   4.646   4.948   4.893
 3643SOL    HW111828   4.728   4.975   4.843
 3643SOL    HW211829   4.670   4.926   4.987
 3644SOL     OW11830   3.086   1.313   1.817
 3644SOL    HW111831   3.104   1.215   1.825
 3644SOL    HW211832   3.135   1.363   1.888
 3645SOL     OW11833   1.042   3.993   3.936
 3645SOL    HW111834   0.966   4.053   3.910
 3645SOL    HW211835   1.064   3.932   3.859
 3646SOL     OW11836   2.630   6.030   4.750
 3646SOL    HW111837   2.726   6.006   4.763
 3646SOL    HW211838   2.608   6.023   4.653
 3647SOL     OW11839   3.635   0.590   1.063
 3647SOL    HW111840   3.707   0.635   1.116
 3647SOL    HW211841   3.553   0.646   1.063
 3648SOL     OW11842   5.669   5.648   3.969
 3648SOL    HW111843   5.698   5.619   4.060
 3648SOL    HW211844   5.574   5.681   3.973
 3649SOL     OW11845   5.166   3.076   6.979
 3649SOL    HW111846   5.168   3.011   0.031
 3649SOL    HW211847   5.130   3.031   6.898
 3650SOL     OW11848   5.534   6.391   0.062
 3650SOL    HW111849   5.599   6.467   0.060
 3650SOL    HW211850   5.584   6.304   0.064
 3651SOL     OW11851   0.961   1.820   5.863
 3651SOL    HW111852   0.999   1.767   5.939
 3651SOL    HW211853   0.874   1.861   5.892
 3652SOL     OW11854   5.808   2.210   2.818
 3652SOL    HW111855   5.884   2.267   2.788
 3652SOL    HW211856   5.817   2.118   2.778
 3653SOL     OW11857   2.417   1.146   1.228
 3653SOL    HW111858   2.479   1.221   1.204
 3653SOL    HW211859   2.352   1.178   1.297
 3654SOL     OW11860   4.683   5.635   1.135
 3654SOL    HW111861   4.733   5.722   1.127
 3654SOL    HW211862   4.592   5.646   1.095
 3655SOL     OW11863   1.666   6.974   3.949
 3655SOL    HW111864   1.654   6.913   3.871
 3655SOL    HW211865   1.744   0.010   3.932
 3656SOL     OW11866   1.085   0.822   1.027
 3656SOL    HW111867   1.099   0.783   1.118
 3656SOL    HW211868   1.100   0.921   1.030
 3657SOL     OW11869   0.149   4.615   6.936
 3657SOL    HW111870   0.136   4.696   6.992
 3657SOL    HW211871   0.060   4.579   6.907
 3658SOL     OW11872   2.187   4.328   5.970
 3658SOL    HW111873   2.263   4.391   5.955
 3658SOL    HW211874   2.148   4.301   5.882
 3659SOL     OW11875   0.706   2.637   0.385
 3659SOL    HW111876   0.737   2.542   0.394
 3659SOL    HW211877   0.621   2.649   0.436
 3660SOL     OW11878   4.492   5.027   4.012
 3660SOL    HW111879   4.572   5.039   3.952
 3660SOL    HW211880   4.522   4.984   4.098
 3661SOL     OW11881   0.559   1.066   4.860
 3661SOL    HW111882   0.570   1.035   4.955
 3661SOL    HW211883   0.461   1.066   4.836
 3662SOL     OW11884   3.632   3.221   5.354
 3662SOL    HW111885   3.643   3.152   5.283
 3662SOL    HW211886   3.707   3.287   5.348
 3663SOL     OW11887   1.644   2.536   6.159
 3663SOL    HW111888   1.570   2.520   6.224
 3663SOL    HW211889   1.617   2.605   6.092
 3664SOL     OW11890   2.176   2.702   1.198
 3664SOL    HW111891   2.130   2.656   1.122
 3664SOL    HW211892   2.271   2.719   1.174
 3665SOL     OW11893   6.723   6.044   5.373
 3665SOL    HW111894   6.769   6.074   5.456
 3665SOL    HW211895   6.774   6.074   5.293
 3666SOL     OW11896   1.871   3.875   4.519
 3666SOL    HW111897   1.887   3.913   4.428
 3666SOL    HW211898   1.958   3.869   4.568
 3667SOL     OW11899   1.530   6.141   1.560
 3667SOL    HW111900   1.509   6.071   1.628
 3667SOL    HW211901   1.527   6.101   1.468
 3668SOL     OW11902   5.220   0.829   0.746
 3668SOL    HW111903   5.312   0.792   0.729
 3668SOL    HW211904   5.180   0.859   0.659
 3669SOL     OW11905   6.490   1.323   3.111
 3669SOL    HW111906   6.471   1.281   3.199
 3669SOL    HW211907   6.566   1.276   3.067
 3670SOL     OW11908   1.986   6.071   1.669
 3670SOL    HW111909   1.989   6.159   1.716
 3670SOL    HW211910   2.003   5.997   1.734
 3671SOL     OW11911   0.630   0.932   5.116
 3671SOL    HW111912   0.664   0.839   5.099
 3671SOL    HW211913   0.564   0.930   5.191
 3672SOL     OW11914   2.532   6.596   3.068
 3672SOL    HW111915   2.501   6.566   3.158
 3672SOL    HW211916   2.543   6.696   3.068
 3673SOL     OW11917   3.892   1.611   2.152
 3673SOL    HW111918   3.871   1.632   2.056
 3673SOL    HW211919   3.857   1.520   2.175
 3674SOL     OW11920   0.011   6.234   6.291
 3674SOL    HW111921   0.088   6.267   6.346
 3674SOL    HW211922   7.023   6.295   6.212
 3675SOL     OW11923   6.035   0.323   6.069
 3675SOL    HW111924   5.947   0.349   6.028
 3675SOL    HW211925   6.021   0.248   6.133
 3676SOL     OW11926   2.481   0.552   6.345
 3676SOL    HW111927   2.469   0.461   6.303
 3676SOL    HW211928   2.457   0.547   6.442
 3677SOL     OW11929   0.763   6.933   5.304
 3677SOL    HW111930   0.782   0.006   5.319
 3677SOL    HW211931   0.836   6.893   5.248
 3678SOL     OW11932   2.564   0.670   3.504
 3678SOL    HW111933   2.480   0.639   3.549
 3678SOL    HW211934   2.626   0.707   3.572
 3679SOL     OW11935   3.379   0.793   1.109
 3679SOL    HW111936   3.343   0.737   1.184
 3679SOL    HW211937   3.363   0.890   1.129
 3680SOL     OW11938   4.788   0.747   4.105
 3680SOL    HW111939   4.731   0.829   4.096
 3680SOL    HW211940   4.731   0.666   4.089
 3681SOL     OW11941   0.974   5.255   3.503
 3681SOL    HW111942   0.973   5.309   3.587
 3681SOL    HW211943   1.026   5.171   3.517
 3682SOL     OW11944   5.464   1.066   1.758
 3682SOL    HW111945   5.555   1.023   1.758
 3682SOL    HW211946   5.441   1.096   1.851
 3683SOL     OW11947   5.849   2.371   1.828
 3683SOL    HW111948   5.935   2.358   1.780
 3683SOL    HW211949   5.777   2.319   1.782
 3684SOL     OW11950   2.023   6.619   5.655
 3684SOL    HW111951   1.970   6.552   5.706
 3684SOL    HW211952   2.054   6.578   5.569
 3685SOL     OW11953   1.427   6.159   2.851
 3685SOL    HW111954   1.458   6.253   2.835
 3685SOL    HW211955   1.440   6.106   2.767
 3686SOL     OW11956   1.469   5.758   1.127
 3686SOL    HW111957   1.390   5.705   1.097
 3686SOL    HW211958   1.546   5.740   1.066
 3687SOL     OW11959   7.005   4.859   3.936
 3687SOL    HW111960   6.945   4.848   3.857
 3687SOL    HW211961   0.045   4.934   3.918
 3688SOL     OW11962   0.543   2.061   1.402
 3688SOL    HW111963   0.628   2.084   1.448
 3688SOL    HW211964   0.557   2.062   1.303
 3689SOL     OW11965   3.337   2.617   5.589
 3689SOL    HW111966   3.372   2.710   5.586
 3689SOL    HW211967   3.283   2.599   5.507
 3690SOL     OW11968   6.929   5.448   2.289
 3690SOL    HW111969   7.011   5.423   2.238
 3690SOL    HW211970   6.953   5.512   2.362
 3691SOL     OW11971   3.164   1.905   6.534
 3691SOL    HW111972   3.199   1.872   6.447
 3691SOL    HW211973   3.119   1.993   6.521
 3692SOL     OW11974   1.148   2.607   5.840
 3692SOL    HW111975   1.245   2.607   5.860
 3692SOL    HW211976   1.127   2.682   5.776
 3693SOL     OW11977   1.201   1.041   3.111
 3693SOL    HW111978   1.259   1.008   3.186
 3693SOL    HW211979   1.251   1.032   3.025
 3694SOL     OW11980   6.866   5.495   1.836
 3694SOL    HW111981   6.802   5.556   1.789
 3694SOL    HW211982   6.877   5.412   1.781
 3695SOL     OW11983   5.888   3.737   4.551
 3695SOL    HW111984   5.844   3.821   4.581
 3695SOL    HW211985   5.906   3.742   4.452
 3696SOL     OW11986   4.069   6.763   4.281
 3696SOL    HW111987   4.071   6.787   4.378
 3696SOL    HW211988   4.157   6.785   4.239
 3697SOL     OW11989   0.211   4.766   2.525
 3697SOL    HW111990   0.264   4.847   2.498
 3697SOL    HW211991   0.238   4.689   2.469
 3698SOL     OW11992   1.189   0.119   3.293
 3698SOL    HW111993   1.228   0.149   3.381
 3698SOL    HW211994   1.131   0.192   3.256
 3699SOL     OW11995   2.949   1.292   2.704
 3699SOL    HW111996   3.042   1.255   2.700
 3699SOL    HW211997   2.949   1.375   2.760
 3700SOL     OW11998   1.039   5.038   5.038
 3700SOL    HW111999   1.129   5.000   5.018
 3700SOL    HW212000   1.005   5.000   5.124
 3701SOL     OW12001   6.637   0.456   2.344
 3701SOL    HW112002   6.727   0.501   2.341
 3701SOL    HW212003   6.637   0.377   2.283
 3702SOL     OW12004   6.555   4.802   3.341
 3702SOL    HW112005   6.618   4.776   3.268
 3702SOL    HW212006   6.502   4.881   3.313
 3703SOL     OW12007   1.875   1.857   3.293
 3703SOL    HW112008   1.778   1.835   3.286
 3703SOL    HW212009   1.926   1.776   3.320
 3704SOL     OW12010   6.564   6.761   0.790
 3704SOL    HW112011   6.593   6.705   0.712
 3704SOL    HW212012   6.465   6.759   0.798
 3705SOL     OW12013   0.138   4.283   3.617
 3705SOL    HW112014   0.091   4.289   3.529
 3705SOL    HW212015   0.121   4.365   3.670
 3706SOL     OW12016   0.239   6.707   6.178
 3706SOL    HW112017   0.148   6.674   6.205
 3706SOL    HW212018   0.230   6.798   6.139
 3707SOL     OW12019   5.862   4.428   3.741
 3707SOL    HW112020   5.867   4.503   3.807
 3707SOL    HW212021   5.900   4.459   3.653
 3708SOL     OW12022   1.001   5.595   0.907
 3708SOL    HW112023   1.067   5.640   0.847
 3708SOL    HW212024   0.909   5.627   0.885
 3709SOL     OW12025   0.419   1.517   1.533
 3709SOL    HW112026   0.349   1.482   1.471
 3709SOL    HW212027   0.473   1.588   1.487
 3710SOL     OW12028   1.862   3.745   5.233
 3710SOL    HW112029   1.898   3.831   5.269
 3710SOL    HW212030   1.819   3.693   5.306
 3711SOL     OW12031   1.035   4.631   5.463
 3711SOL    HW112032   1.033   4.717   5.514
 3711SOL    HW212033   1.117   4.629   5.405
 3712SOL     OW12034   4.121   4.881   3.462
 3712SOL    HW112035   4.180   4.961   3.467
 3712SOL    HW212036   4.177   4.798   3.470
 3713SOL     OW12037   5.882   1.189   6.108
 3713SOL    HW112038   5.888   1.238   6.022
 3713SOL    HW212039   5.974   1.159   6.136
 3714SOL     OW12040   0.413   4.936   0.560
 3714SOL    HW112041   0.319   4.922   0.527
 3714SOL    HW212042   0.414   4.935   0.660
 3715SOL     OW12043   5.293   4.627   1.899
 3715SOL    HW112044   5.322   4.557   1.965
 3715SOL    HW212045   5.337   4.714   1.923
 3716SOL     OW12046   5.310   5.630   5.242
 3716SOL    HW112047   5.278   5.615   5.336
 3716SOL    HW212048   5.381   5.563   5.221
 3717SOL     OW12049   4.203   6.916   1.197
 3717SOL    HW112050   4.227   7.001   1.150
 3717SOL    HW212051   4.254   6.909   1.282
 3718SOL     OW12052   4.781   6.122   6.330
 3718SOL    HW112053   4.731   6.035   6.338
 3718SOL    HW212054   4.729   6.185   6.272
 3719SOL     OW12055   2.800   3.698   0.100
 3719SOL    HW112056   2.753   3.610   0.111
 3719SOL    HW212057   2.808   3.742   0.189
 3720SOL     OW12058   0.567   2.016   0.177
 3720SOL    HW112059   0.584   2.077   0.254
 3720SOL    HW212060   0.630   1.939   0.181
 3721SOL     OW12061   6.798   0.189   5.621
 3721SOL    HW112062   6.831   0.205   5.528
 3721SOL    HW212063   6.727   0.118   5.619
 3722SOL     OW12064   4.516   6.457   1.869
 3722SOL    HW112065   4.487   6.455   1.773
 3722SOL    HW212066   4.461   6.523   1.920
 3723SOL     OW12067   3.838   4.158   6.341
 3723SOL    HW112068   3.759   4.114   6.299
 3723SOL    HW212069   3.838   4.139   6.439
 3724SOL     OW12070   5.738   4.011   4.856
 3724SOL    HW112071   5.643   4.033   4.881
 3724SOL    HW212072   5.798   4.087   4.882
 3725SOL     OW12073   0.469   6.116   2.006
 3725SOL    HW112074   0.531   6.130   1.928
 3725SOL    HW212075   0.484   6.189   2.073
 3726SOL     OW12076   6.305   3.631   5.318
 3726SOL    HW112077   6.279   3.597   5.409
 3726SOL    HW212078   6.314   3.731   5.322
 3727SOL     OW12079   6.103   1.712   4.239
 3727SOL    HW112080   6.042   1.774   4.190
 3727SOL    HW212081   6.172   1.675   4.176
 3728SOL     OW12082   1.616   4.040   0.390
 3728SOL    HW112083   1.626   4.139   0.378
 3728SOL    HW212084   1.671   3.993   0.320
 3729SOL     OW12085   0.146   0.115   5.543
 3729SOL    HW112086   0.205   0.152   5.614
 3729SOL    HW212087   0.120   0.188   5.480
 3730SOL     OW12088   5.913   4.278   5.163
 3730SOL    HW112089   5.886   4.264   5.067
 3730SOL    HW212090   5.851   4.228   5.222
 3731SOL     OW12091   5.874   1.567   2.659
 3731SOL    HW112092   5.876   1.640   2.591
 3731SOL    HW212093   5.952   1.507   2.645
 3732SOL     OW12094   4.591   2.157   6.913
 3732SOL    HW112095   4.627   2.104   6.836
 3732SOL    HW212096   4.665   2.212   6.952
 3733SOL     OW12097   2.025   1.497   3.223
 3733SOL    HW112098   2.075   1.572   3.267
 3733SOL    HW212099   2.027   1.509   3.124
 3734SOL     OW12100   4.923   1.619   2.022
 3734SOL    HW112101   4.870   1.543   2.060
 3734SOL    HW212102   5.021   1.602   2.036
 3735SOL     OW12103   3.683   1.220   2.801
 3735SOL    HW112104   3.649   1.305   2.760
 3735SOL    HW212105   3.759   1.241   2.863
 3736SOL     OW12106   1.234   1.291   6.233
 3736SOL    HW112107   1.195   1.303   6.324
 3736SOL    HW212108   1.324   1.333   6.230
 3737SOL     OW12109   5.316   1.676   4.261
 3737SOL    HW112110   5.310   1.757   4.319
 3737SOL    HW212111   5.233   1.620   4.273
 3738SOL     OW12112   0.314   0.843   0.726
 3738SOL    HW112113   0.225   0.820   0.686
 3738SOL    HW212114   0.384   0.839   0.655
 3739SOL     OW12115   3.238   6.110   0.061
 3739SOL    HW112116   3.232   6.022   0.109
 3739SOL    HW212117   3.149   6.155   0.061
 3740SOL     OW12118   6.825   0.261   6.586
 3740SOL    HW112119   6.888   0.330   6.551
 3740SOL    HW212120   6.805   0.195   6.513
 3741SOL     OW12121   5.553   4.552   0.650
 3741SOL    HW112122   5.487   4.484   0.681
 3741SOL    HW212123   5.644   4.525   0.679
 3742SOL     OW12124   4.476   5.234   1.394
 3742SOL    HW112125   4.545   5.299   1.425
 3742SOL    HW212126   4.393   5.284   1.368
 3743SOL     OW12127   2.484   3.850   1.657
 3743SOL    HW112128   2.480   3.936   1.708
 3743SOL    HW212129   2.426   3.857   1.576
 3744SOL     OW12130   6.427   5.435   2.320
 3744SOL    HW112131   6.352   5.382   2.281
 3744SOL    HW212132   6.511   5.381   2.319
 3745SOL     OW12133   6.144   0.753   3.342
 3745SOL    HW112134   6.096   0.841   3.343
 3745SOL    HW212135   6.234   0.763   3.384
 3746SOL     OW12136   5.392   6.863   5.629
 3746SOL    HW112137   5.456   6.854   5.552
 3746SOL    HW212138   5.309   6.810   5.609
 3747SOL     OW12139   2.128   4.538   5.492
 3747SOL    HW112140   2.161   4.603   5.424
 3747SOL    HW212141   2.171   4.449   5.477
 3748SOL     OW12142   5.030   1.139   3.114
 3748SOL    HW112143   5.060   1.156   3.021
 3748SOL    HW212144   5.110   1.122   3.172
 3749SOL     OW12145   6.009   5.572   1.089
 3749SOL    HW112146   6.092   5.618   1.057
 3749SOL    HW212147   5.961   5.534   1.010
 3750SOL     OW12148   0.030   4.726   1.234
 3750SOL    HW112149   6.987   4.662   1.195
 3750SOL    HW212150   0.053   4.698   1.327
 3751SOL     OW12151   1.810   4.425   0.813
 3751SOL    HW112152   1.807   4.525   0.825
 3751SOL    HW212153   1.750   4.382   0.881
 3752SOL     OW12154   1.174   6.819   6.405
 3752SOL    HW112155   1.161   6.886   6.478
 3752SOL    HW212156   1.085   6.794   6.367
 3753SOL     OW12157   0.636   1.741   5.205
 3753SOL    HW112158   0.664   1.649   5.180
 3753SOL    HW212159   0.690   1.773   5.283
 3754SOL     OW12160   7.005   6.881   1.374
 3754SOL    HW112161   0.014   6.787   1.378
 3754SOL    HW212162   6.914   6.886   1.416
 3755SOL     OW12163   4.495   2.469   2.844
 3755SOL    HW112164   4.413   2.413   2.831
 3755SOL    HW212165   4.553   2.462   2.763
 3756SOL     OW12166   3.260   0.043   0.220
 3756SOL    HW112167   3.301   6.984   0.256
 3756SOL    HW212168   3.160   0.035   0.221
 3757SOL     OW12169   3.011   3.568   6.131
 3757SOL    HW112170   2.947   3.513   6.078
 3757SOL    HW212171   3.042   3.517   6.211
 3758SOL     OW12172   0.710   1.260   1.241
 3758SOL    HW112173   0.796   1.306   1.218
 3758SOL    HW212174   0.661   1.237   1.157
 3759SOL     OW12175   5.600   4.377   1.025
 3759SOL    HW112176   5.592   4.471   0.991
 3759SOL    HW212177   5.550   4.368   1.111
 3760SOL     OW12178   2.193   1.482   6.284
 3760SOL    HW112179   2.118   1.519   6.338
 3760SOL    HW212180   2.156   1.432   6.206
 3761SOL     OW12181   6.806   6.885   4.322
 3761SOL    HW112182   6.789   6.970   4.373
 3761SOL    HW212183   6.722   6.831   4.318
 3762SOL     OW12184   0.239   4.160   1.303
 3762SOL    HW112185   0.164   4.212   1.263
 3762SOL    HW212186   0.229   4.158   1.402
 3763SOL     OW12187   0.642   2.445   4.977
 3763SOL    HW112188   0.689   2.519   4.930
 3763SOL    HW212189   0.545   2.447   4.953
 3764SOL     OW12190   1.977   1.003   2.697
 3764SOL    HW112191   1.956   1.058   2.778
 3764SOL    HW212192   2.064   0.956   2.710
 3765SOL     OW12193   6.331   1.466   3.438
 3765SOL    HW112194   6.285   1.401   3.377
 3765SOL    HW212195   6.391   1.525   3.383
 3766SOL     OW12196   2.241   0.755   4.586
 3766SOL    HW112197   2.184   0.793   4.659
 3766SOL    HW212198   2.272   0.663   4.612
 3767SOL     OW12199   6.293   4.439   1.516
 3767SOL    HW112200   6.312   4.519   1.573
 3767SOL    HW212201   6.375   4.417   1.462
 3768SOL     OW12202   4.119   6.519   1.363
 3768SOL    HW112203   4.060   6.490   1.438
 3768SOL    HW212204   4.074   6.500   1.276
 3769SOL     OW12205   3.781   6.549   4.615
 3769SOL    HW112206   3.737   6.599   4.540
 3769SOL    HW212207   3.873   6.586   4.629
 3770SOL     OW12208   1.221   3.232   0.902
 3770SOL    HW112209   1.230   3.177   0.819
 3770SOL    HW212210   1.288   3.305   0.901
 3771SOL     OW12211   5.141   1.459   5.064
 3771SOL    HW112212   5.150   1.553   5.033
 3771SOL    HW212213   5.141   1.398   4.984
 3772SOL     OW12214   4.934   1.451   2.370
 3772SOL    HW112215   4.847   1.432   2.414
 3772SOL    HW212216   4.950   1.549   2.367
 3773SOL     OW12217   6.136   2.935   1.529
 3773SOL    HW112218   6.037   2.934   1.539
 3773SOL    HW212219   6.174   3.015   1.576
 3774SOL     OW12220   2.119   0.861   1.774
 3774SOL    HW112221   2.069   0.944   1.799
 3774SOL    HW212222   2.127   0.856   1.674
 3775SOL     OW12223   5.300   3.178   3.721
 3775SOL    HW112224   5.309   3.095   3.776
 3775SOL    HW212225   5.275   3.153   3.627
 3776SOL     OW12226   2.938   2.364   0.573
 3776SOL    HW112227   3.017   2.324   0.525
 3776SOL    HW212228   2.956   2.364   0.672
 3777SOL     OW12229   1.694   4.242   3.607
 3777SOL    HW112230   1.634   4.320   3.590
 3777SOL    HW212231   1.651   4.159   3.571
 3778SOL     OW12232   2.013   0.108   0.933
 3778SOL    HW112233   2.048   0.156   0.852
 3778SOL    HW212234   2.034   0.161   1.015
 3779SOL     OW12235   1.720   3.739   0.466
 3779SOL    HW112236   1.671   3.656   0.438
 3779SOL    HW212237   1.659   3.797   0.520
 3780SOL     OW12238   2.299   0.055   4.308
 3780SOL    HW112239   2.261   0.097   4.391
 3780SOL    HW212240   2.396   0.034   4.323
 3781SOL     OW12241   3.568   4.960   4.991
 3781SOL    HW112242   3.517   4.937   5.073
 3781SOL    HW212243   3.664   4.937   5.004
 3782SOL     OW12244   2.802   0.662   2.100
 3782SOL    HW112245   2.757   0.690   2.185
 3782SOL    HW212246   2.750   0.588   2.058
 3783SOL     OW12247   5.235   4.551   5.834
 3783SOL    HW112248   5.259   4.627   5.774
 3783SOL    HW212249   5.176   4.584   5.908
 3784SOL     OW12250   5.311   2.804   4.628
 3784SOL    HW112251   5.308   2.722   4.685
 3784SOL    HW212252   5.243   2.796   4.555
 3785SOL     OW12253   6.907   0.254   1.394
 3785SOL    HW112254   6.986   0.199   1.420
 3785SOL    HW212255   6.928   0.351   1.405
 3786SOL     OW12256   2.716   5.984   1.680
 3786SOL    HW112257   2.721   6.078   1.713
 3786SOL    HW212258   2.748   5.922   1.752
 3787SOL     OW12259   3.793   1.532   3.682
 3787SOL    HW112260   3.700   1.497   3.667
 3787SOL    HW212261   3.796   1.581   3.769
 3788SOL     OW12262   6.762   3.025   2.619
 3788SOL    HW112263   6.688   3.092   2.617
 3788SOL    HW212264   6.831   3.050   2.551
 3789SOL     OW12265   1.612   4.776   2.309
 3789SOL    HW112266   1.684   4.774   2.240
 3789SOL    HW212267   1.523   4.789   2.265
 3790SOL     OW12268   2.110   3.758   2.760
 3790SOL    HW112269   2.042   3.823   2.726
 3790SOL    HW212270   2.165   3.802   2.831
 3791SOL     OW12271   6.311   0.712   2.154
 3791SOL    HW112272   6.303   0.780   2.082
 3791SOL    HW212273   6.230   0.714   2.212
 3792SOL     OW12274   1.101   5.712   6.153
 3792SOL    HW112275   1.077   5.747   6.062
 3792SOL    HW212276   1.017   5.703   6.207
 3793SOL     OW12277   6.469   5.906   2.530
 3793SOL    HW112278   6.539   5.966   2.491
 3793SOL    HW212279   6.443   5.836   2.462
 3794SOL     OW12280   4.548   0.308   5.099
 3794SOL    HW112281   4.506   0.365   5.030
 3794SOL    HW212282   4.477   0.265   5.155
 3795SOL     OW12283   5.695   0.718   0.357
 3795SOL    HW112284   5.622   0.784   0.374
 3795SOL    HW212285   5.695   0.693   0.260
 3796SOL     OW12286   0.369   1.928   1.578
 3796SOL    HW112287   0.438   1.962   1.513
 3796SOL    HW212288   0.415   1.895   1.660
 3797SOL     OW12289   6.649   6.094   2.380
 3797SOL    HW112290   6.562   6.113   2.335
 3797SOL    HW212291   6.724   6.121   2.321
 3798SOL     OW12292   1.712   4.458   6.788
 3798SOL    HW112293   1.755   4.396   6.723
 3798SOL    HW212294   1.772   4.470   6.867
 3799SOL     OW12295   0.915   0.734   5.801
 3799SOL    HW112296   0.909   0.822   5.754
 3799SOL    HW212297   0.915   0.660   5.734
 3800SOL     OW12298   4.612   2.813   5.177
 3800SOL    HW112299   4.539   2.747   5.159
 3800SOL    HW212300   4.576   2.888   5.234
 3801SOL     OW12301   0.008   0.697   5.655
 3801SOL    HW112302   0.010   0.683   5.754
 3801SOL    HW212303   0.042   0.788   5.633
 3802SOL     OW12304   1.863   2.275   4.859
 3802SOL    HW112305   1.871   2.281   4.759
 3802SOL    HW212306   1.938   2.326   4.901
 3803SOL     OW12307   4.943   1.336   1.230
 3803SOL    HW112308   4.906   1.429   1.232
 3803SOL    HW212309   4.957   1.305   1.324
 3804SOL     OW12310   4.759   4.076   5.243
 3804SOL    HW112311   4.799   3.989   5.214
 3804SOL    HW212312   4.814   4.115   5.318
 3805SOL     OW12313   2.153   2.751   1.462
 3805SOL    HW112314   2.156   2.725   1.365
 3805SOL    HW212315   2.059   2.775   1.487
 3806SOL     OW12316   4.784   0.296   1.114
 3806SOL    HW112317   4.745   0.271   1.203
 3806SOL    HW212318   4.785   0.216   1.054
 3807SOL     OW12319   1.327   0.156   3.055
 3807SOL    HW112320   1.277   0.130   3.137
 3807SOL    HW212321   1.287   0.240   3.017
 3808SOL     OW12322   3.780   0.891   0.725
 3808SOL    HW112323   3.796   0.950   0.646
 3808SOL    HW212324   3.769   0.797   0.694
 3809SOL     OW12325   3.746   0.922   0.219
 3809SOL    HW112326   3.775   0.936   0.314
 3809SOL    HW212327   3.801   0.850   0.178
 3810SOL     OW12328   0.852   3.494   6.563
 3810SOL    HW112329   0.933   3.458   6.610
 3810SOL    HW212330   0.880   3.564   6.497
 3811SOL     OW12331   0.099   1.212   5.148
 3811SOL    HW112332   0.107   1.312   5.157
 3811SOL    HW212333   0.005   1.188   5.124
 3812SOL     OW12334   3.910   6.910   5.941
 3812SOL    HW112335   4.003   6.874   5.952
 3812SOL    HW212336   3.913   6.992   5.883
 3813SOL     OW12337   3.672   5.177   1.664
 3813SOL    HW112338   3.652   5.104   1.730
 3813SOL    HW212339   3.674   5.138   1.572
 3814SOL     OW12340   1.377   0.408   1.107
 3814SOL    HW112341   1.345   0.345   1.178
 3814SOL    HW212342   1.443   0.362   1.048
 3815SOL     OW12343   4.940   2.201   2.081
 3815SOL    HW112344   4.912   2.224   2.174
 3815SOL    HW212345   4.971   2.283   2.034
 3816SOL     OW12346   0.123   6.246   0.805
 3816SOL    HW112347   0.147   6.220   0.711
 3816SOL    HW212348   0.206   6.248   0.861
 3817SOL     OW12349   5.454   1.654   5.141
 3817SOL    HW112350   5.535   1.667   5.083
 3817SOL    HW212351   5.374   1.694   5.097
 3818SOL     OW12352   3.622   0.518   2.751
 3818SOL    HW112353   3.571   0.595   2.790
 3818SOL    HW212354   3.692   0.489   2.816
 3819SOL     OW12355   5.659   3.520   6.193
 3819SOL    HW112356   5.592   3.550   6.125
 3819SOL    HW212357   5.630   3.433   6.232
 3820SOL     OW12358   4.462   6.771   3.758
 3820SOL    HW112359   4.560   6.766   3.779
 3820SOL    HW212360   4.435   6.866   3.744
 3821SOL     OW12361   1.513   4.221   1.616
 3821SOL    HW112362   1.509   4.196   1.713
 3821SOL    HW212363   1.514   4.138   1.560
 3822SOL     OW12364   0.413   3.090   1.456
 3822SOL    HW112365   0.409   3.142   1.371
 3822SOL    HW212366   0.328   3.103   1.507
 3823SOL     OW12367   1.825   3.549   5.027
 3823SOL    HW112368   1.856   3.620   5.091
 3823SOL    HW212369   1.833   3.459   5.071
 3824SOL     OW12370   0.340   3.320   5.956
 3824SOL    HW112371   0.286   3.365   5.885
 3824SOL    HW212372   0.310   3.225   5.966
 3825SOL     OW12373   0.880   5.956   6.711
 3825SOL    HW112374   0.901   6.008   6.627
 3825SOL    HW212375   0.952   5.972   6.778
 3826SOL     OW12376   0.183   0.887   1.515
 3826SOL    HW112377   0.249   0.864   1.586
 3826SOL    HW212378   0.206   0.976   1.475
 3827SOL     OW12379   4.471   1.434   1.967
 3827SOL    HW112380   4.489   1.513   1.907
 3827SOL    HW212381   4.412   1.463   2.042
 3828SOL     OW12382   3.444   1.548   0.654
 3828SOL    HW112383   3.443   1.621   0.586
 3828SOL    HW212384   3.385   1.573   0.731
 3829SOL     OW12385   0.875   5.101   3.821
 3829SOL    HW112386   0.904   5.120   3.726
 3829SOL    HW212387   0.880   5.186   3.874
 3830SOL     OW12388   1.624   0.229   5.998
 3830SOL    HW112389   1.666   0.285   5.927
 3830SOL    HW212390   1.619   0.134   5.967
 3831SOL     OW12391   4.723   2.306   2.522
 3831SOL    HW112392   4.787   2.275   2.592
 3831SOL    HW212393   4.665   2.378   2.560
 3832SOL     OW12394   6.337   6.705   2.639
 3832SOL    HW112395   6.318   6.641   2.564
 3832SOL    HW212396   6.276   6.784   2.631
 3833SOL     OW12397   0.921   6.234   1.850
 3833SOL    HW112398   0.921   6.301   1.775
 3833SOL    HW212399   0.983   6.265   1.922
 3834SOL     OW12400   2.765   2.114   6.948
 3834SOL    HW112401   2.700   2.067   7.007
 3834SOL    HW212402   2.799   2.051   6.878
 3835SOL     OW12403   4.285   4.650   2.940
 3835SOL    HW112404   4.324   4.733   2.902
 3835SOL    HW212405   4.191   4.668   2.971
 3836SOL     OW12406   2.004   2.623   6.374
 3836SOL    HW112407   1.957   2.572   6.303
 3836SOL    HW212408   2.103   2.622   6.356
 3837SOL     OW12409   3.538   4.696   6.732
 3837SOL    HW112410   3.474   4.645   6.675
 3837SOL    HW212411   3.495   4.716   6.820
 3838SOL     OW12412   0.365   4.024   5.572
 3838SOL    HW112413   0.407   4.094   5.629
 3838SOL    HW212414   0.366   3.936   5.620
 3839SOL     OW12415   0.297   6.618   6.735
 3839SOL    HW112416   0.256   6.695   6.785
 3839SOL    HW212417   0.291   6.636   6.637
 3840SOL     OW12418   3.662   1.593   3.292
 3840SOL    HW112419   3.562   1.596   3.304
 3840SOL    HW212420   3.694   1.500   3.304
 3841SOL     OW12421   1.509   2.909   3.890
 3841SOL    HW112422   1.437   2.954   3.944
 3841SOL    HW212423   1.470   2.880   3.802
 3842SOL     OW12424   1.408   5.175   0.050
 3842SOL    HW112425   1.433   5.243   0.118
 3842SOL    HW212426   1.414   5.083   0.090
 3843SOL     OW12427   6.962   5.094   0.509
 3843SOL    HW112428   6.948   5.132   0.418
 3843SOL    HW212429   0.018   5.034   0.508
 3844SOL     OW12430   2.515   4.056   5.943
 3844SOL    HW112431   2.526   4.060   5.844
 3844SOL    HW212432   2.462   3.974   5.967
 3845SOL     OW12433   3.476   3.837   5.074
 3845SOL    HW112434   3.406   3.908   5.072
 3845SOL    HW212435   3.438   3.754   5.115
 3846SOL     OW12436   6.873   4.426   3.650
 3846SOL    HW112437   6.798   4.391   3.595
 3846SOL    HW212438   6.906   4.512   3.610
 3847SOL     OW12439   1.000   6.709   1.369
 3847SOL    HW112440   0.942   6.737   1.292
 3847SOL    HW212441   1.039   6.789   1.413
 3848SOL     OW12442   2.400   5.841   2.126
 3848SOL    HW112443   2.451   5.758   2.147
 3848SOL    HW212444   2.427   5.876   2.036
 3849SOL     OW12445   2.439   0.992   4.564
 3849SOL    HW112446   2.440   1.076   4.618
 3849SOL    HW212447   2.364   0.996   4.498
 3850SOL     OW12448   1.826   2.681   1.936
 3850SOL    HW112449   1.798   2.608   1.998
 3850SOL    HW212450   1.911   2.721   1.969
 3851SOL     OW12451   1.947   2.999   0.098
 3851SOL    HW112452   2.012   3.074   0.107
 3851SOL    HW212453   1.856   3.035   0.079
 3852SOL     OW12454   4.348   1.158   5.883
 3852SOL    HW112455   4.378   1.219   5.809
 3852SOL    HW212456   4.300   1.080   5.844
 3853SOL     OW12457   0.196   3.024   1.633
 3853SOL    HW112458   0.136   3.022   1.553
 3853SOL    HW212459   0.177   2.944   1.691
 3854SOL     OW12460   1.242   4.425   3.880
 3854SOL    HW112461   1.290   4.338   3.873
 3854SOL    HW212462   1.277   4.476   3.959
 3855SOL     OW12463   6.620   2.152   5.457
 3855SOL    HW112464   6.531   2.197   5.467
 3855SOL    HW212465   6.691   2.222   5.451
 3856SOL     OW12466   1.078   6.694   5.543
 3856SOL    HW112467   1.006   6.636   5.504
 3856SOL    HW212468   1.044   6.787   5.551
 3857SOL     OW12469   6.721   0.494   6.344
 3857SOL    HW112470   6.646   0.545   6.385
 3857SOL    HW212471   6.714   0.398   6.370
 3858SOL     OW12472   3.293   5.395   6.914
 3858SOL    HW112473   3.229   5.465   6.947
 3858SOL    HW212474   3.338   5.428   6.831
 3859SOL     OW12475   0.632   2.297   2.799
 3859SOL    HW112476   0.716   2.242   2.798
 3859SOL    HW212477   0.615   2.335   2.708
 3860SOL     OW12478   2.439   5.904   3.935
 3860SOL    HW112479   2.352   5.891   3.983
 3860SOL    HW212480   2.441   5.845   3.854
 3861SOL     OW12481   3.667   3.945   0.135
 3861SOL    HW112482   3.601   3.975   0.065
 3861SOL    HW212483   3.710   4.026   0.176
 3862SOL     OW12484   0.463   6.701   5.334
 3862SOL    HW112485   0.404   6.624   5.308
 3862SOL    HW212486   0.534   6.713   5.264
 3863SOL     OW12487   2.221   3.298   0.469
 3863SOL    HW112488   2.185   3.222   0.415
 3863SOL    HW212489   2.158   3.375   0.464
 3864SOL     OW12490   3.875   1.638   1.871
 3864SOL    HW112491   3.920   1.553   1.842
 3864SOL    HW212492   3.892   1.710   1.803
 3865SOL     OW12493   4.726   1.027   1.863
 3865SOL    HW112494   4.634   1.055   1.890
 3865SOL    HW212495   4.746   1.064   1.772
 3866SOL     OW12496   4.402   6.794   6.129
 3866SOL    HW112497   4.487   6.841   6.105
 3866SOL    HW212498   4.325   6.838   6.082
 3867SOL     OW12499   2.419   5.175   2.664
 3867SOL    HW112500   2.470   5.096   2.631
 3867SOL    HW212501   2.483   5.243   2.702
 3868SOL     OW12502   2.658   4.978   2.282
 3868SOL    HW112503   2.640   4.978   2.380
 3868SOL    HW212504   2.746   4.935   2.264
 3869SOL     OW12505   2.019   2.112   2.850
 3869SOL    HW112506   2.069   2.096   2.765
 3869SOL    HW212507   1.986   2.024   2.886
 3870SOL     OW12508   3.932   3.587   0.592
 3870SOL    HW112509   3.989   3.667   0.573
 3870SOL    HW212510   3.985   3.504   0.578
 3871SOL     OW12511   2.391   0.440   4.941
 3871SOL    HW112512   2.482   0.415   4.975
 3871SOL    HW212513   2.358   0.521   4.990
 3872SOL     OW12514   4.267   4.247   6.321
 3872SOL    HW112515   4.224   4.313   6.382
 3872SOL    HW212516   4.203   4.222   6.248
 3873SOL     OW12517   6.408   5.204   1.743
 3873SOL    HW112518   6.504   5.194   1.719
 3873SOL    HW212519   6.399   5.270   1.818
 3874SOL     OW12520   5.714   5.965   5.450
 3874SOL    HW112521   5.703   6.022   5.532
 3874SOL    HW212522   5.674   5.875   5.466
 3875SOL     OW12523   3.283   3.283   0.545
 3875SOL    HW112524   3.252   3.317   0.456
 3875SOL    HW212525   3.374   3.245   0.536
 3876SOL     OW12526   5.077   4.732   2.960
 3876SOL    HW112527   5.025   4.662   2.912
 3876SOL    HW212528   5.057   4.728   3.058
 3877SOL     OW12529   4.786   2.695   2.461
 3877SOL    HW112530   4.850   2.670   2.388
 3877SOL    HW212531   4.763   2.792   2.453
 3878SOL     OW12532   6.442   4.784   4.857
 3878SOL    HW112533   6.363   4.762   4.914
 3878SOL    HW212534   6.422   4.760   4.762
 3879SOL     OW12535   2.263   6.565   0.505
 3879SOL    HW112536   2.281   6.575   0.603
 3879SOL    HW212537   2.240   6.470   0.484
 3880SOL     OW12538   5.658   2.014   4.035
 3880SOL    HW112539   5.683   1.951   3.962
 3880SOL    HW212540   5.559   2.022   4.041
 3881SOL     OW12541   0.321   6.890   5.557
 3881SOL    HW112542   0.335   6.818   5.490
 3881SOL    HW212543   0.281   6.970   5.513
 3882SOL     OW12544   7.024   5.281   0.729
 3882SOL    HW112545   6.953   5.231   0.778
 3882SOL    HW212546   0.022   5.234   0.644
 3883SOL     OW12547   4.045   2.461   1.076
 3883SOL    HW112548   3.971   2.491   1.015
 3883SOL    HW212549   4.109   2.404   1.025
 3884SOL     OW12550   3.212   6.263   5.889
 3884SOL    HW112551   3.265   6.197   5.942
 3884SOL    HW212552   3.259   6.351   5.888
 3885SOL     OW12553   1.348   1.245   4.186
 3885SOL    HW112554   1.417   1.179   4.217
 3885SOL    HW212555   1.258   1.217   4.218
 3886SOL     OW12556   6.490   5.904   4.167
 3886SOL    HW112557   6.461   5.841   4.096
 3886SOL    HW212558   6.510   5.853   4.251
 3887SOL     OW12559   0.663   2.780   5.068
 3887SOL    HW112560   0.636   2.871   5.097
 3887SOL    HW212561   0.654   2.772   4.968
 3888SOL     OW12562   4.658   2.154   3.093
 3888SOL    HW112563   4.667   2.126   2.997
 3888SOL    HW212564   4.596   2.232   3.098
 3889SOL     OW12565   6.141   5.240   0.345
 3889SOL    HW112566   6.164   5.255   0.249
 3889SOL    HW212567   6.196   5.164   0.381
 3890SOL     OW12568   5.517   2.938   3.672
 3890SOL    HW112569   5.580   2.885   3.728
 3890SOL    HW212570   5.459   2.994   3.732
 3891SOL     OW12571   3.170   4.701   6.284
 3891SOL    HW112572   3.186   4.777   6.346
 3891SOL    HW212573   3.186   4.731   6.190
 3892SOL     OW12574   5.161   5.687   4.226
 3892SOL    HW112575   5.099   5.661   4.152
 3892SOL    HW212576   5.207   5.772   4.203
 3893SOL     OW12577   3.310   6.685   4.910
 3893SOL    HW112578   3.407   6.700   4.889
 3893SOL    HW212579   3.283   6.593   4.881
 3894SOL     OW12580   5.617   4.919   6.599
 3894SOL    HW112581   5.580   4.878   6.682
 3894SOL    HW212582   5.554   4.905   6.523
 3895SOL     OW12583   1.646   1.849   4.979
 3895SOL    HW112584   1.601   1.817   5.062
 3895SOL    HW212585   1.584   1.909   4.928
 3896SOL     OW12586   6.112   3.355   1.739
 3896SOL    HW112587   6.152   3.276   1.692
 3896SOL    HW212588   6.185   3.419   1.763
 3897SOL     OW12589   2.554   0.409   2.698
 3897SOL    HW112590   2.647   0.399   2.733
 3897SOL    HW212591   2.538   0.504   2.671
 3898SOL     OW12592   3.823   4.042   2.487
 3898SOL    HW112593   3.848   4.061   2.582
 3898SOL    HW212594   3.883   3.971   2.450
 3899SOL     OW12595   3.818   1.000   6.514
 3899SOL    HW112596   3.778   0.908   6.510
 3899SOL    HW212597   3.842   1.031   6.422
 3900SOL     OW12598   1.441   1.869   3.912
 3900SOL    HW112599   1.399   1.957   3.888
 3900SOL    HW212600   1.415   1.800   3.844
 3901SOL     OW12601   3.848   6.609   4.170
 3901SOL    HW112602   3.753   6.639   4.181
 3901SOL    HW212603   3.908   6.675   4.215
 3902SOL     OW12604   3.517   4.908   3.411
 3902SOL    HW112605   3.565   4.941   3.492
 3902SOL    HW212606   3.583   4.890   3.338
 3903SOL     OW12607   2.857   3.927   5.861
 3903SOL    HW112608   2.806   3.851   5.819
 3903SOL    HW212609   2.947   3.895   5.890
 3904SOL     OW12610   1.656   5.604   0.308
 3904SOL    HW112611   1.636   5.686   0.256
 3904SOL    HW212612   1.607   5.606   0.395
 3905SOL     OW12613   4.645   6.243   5.323
 3905SOL    HW112614   4.716   6.233   5.254
 3905SOL    HW212615   4.560   6.275   5.280
 3906SOL     OW12616   6.606   5.742   4.404
 3906SOL    HW112617   6.621   5.666   4.341
 3906SOL    HW212618   6.656   5.725   4.489
 3907SOL     OW12619   1.847   0.473   4.626
 3907SOL    HW112620   1.945   0.456   4.620
 3907SOL    HW212621   1.801   0.432   4.548
 3908SOL     OW12622   2.537   1.869   4.418
 3908SOL    HW112623   2.490   1.781   4.405
 3908SOL    HW212624   2.474   1.933   4.462
 3909SOL     OW12625   6.606   3.067   3.070
 3909SOL    HW112626   6.673   3.055   2.998
 3909SOL    HW212627   6.569   3.159   3.067
 3910SOL     OW12628   1.795   2.069   6.943
 3910SOL    HW112629   1.825   2.054   0.013
 3910SOL    HW212630   1.866   2.118   6.892
 3911SOL     OW12631   6.094   0.957   1.833
 3911SOL    HW112632   6.036   0.961   1.914
 3911SOL    HW212633   6.099   1.048   1.792
 3912SOL     OW12634   5.102   4.638   0.481
 3912SOL    HW112635   5.180   4.629   0.419
 3912SOL    HW212636   5.089   4.552   0.531
 3913SOL     OW12637   3.668   4.395   0.595
 3913SOL    HW112638   3.750   4.423   0.644
 3913SOL    HW212639   3.649   4.299   0.614
 3914SOL     OW12640   0.521   0.894   0.491
 3914SOL    HW112641   0.516   0.990   0.518
 3914SOL    HW212642   0.607   0.877   0.443
 3915SOL     OW12643   4.923   0.100   4.247
 3915SOL    HW112644   4.843   0.051   4.211
 3915SOL    HW212645   4.950   0.059   4.334
 3916SOL     OW12646   1.645   2.750   2.242
 3916SOL    HW112647   1.593   2.806   2.177
 3916SOL    HW212648   1.658   2.658   2.203
 3917SOL     OW12649   2.433   5.579   1.661
 3917SOL    HW112650   2.477   5.645   1.722
 3917SOL    HW212651   2.388   5.508   1.715
 3918SOL     OW12652   3.630   6.894   6.588
 3918SOL    HW112653   3.683   6.959   6.534
 3918SOL    HW212654   3.636   6.919   6.685
 3919SOL     OW12655   4.502   4.842   3.331
 3919SOL    HW112656   4.421   4.812   3.381
 3919SOL    HW212657   4.569   4.879   3.394
 3920SOL     OW12658   5.092   6.896   5.891
 3920SOL    HW112659   5.163   6.937   5.834
 3920SOL    HW212660   5.131   6.868   5.978
 3921SOL     OW12661   1.309   4.350   5.587
 3921SOL    HW112662   1.385   4.286   5.601
 3921SOL    HW212663   1.285   4.394   5.673
 3922SOL     OW12664   5.490   1.140   3.434
 3922SOL    HW112665   5.575   1.140   3.382
 3922SOL    HW212666   5.479   1.051   3.478
 3923SOL     OW12667   5.643   1.512   1.421
 3923SOL    HW112668   5.681   1.563   1.498
 3923SOL    HW212669   5.543   1.519   1.423
 3924SOL     OW12670   5.790   4.998   4.006
 3924SOL    HW112671   5.829   5.050   3.931
 3924SOL    HW212672   5.813   4.901   3.995
 3925SOL     OW12673   3.765   4.670   1.656
 3925SOL    HW112674   3.675   4.661   1.700
 3925SOL    HW212675   3.775   4.598   1.587
 3926SOL     OW12676   1.201   6.005   4.956
 3926SOL    HW112677   1.141   5.925   4.952
 3926SOL    HW212678   1.171   6.066   5.029
 3927SOL     OW12679   6.469   5.979   5.550
 3927SOL    HW112680   6.569   5.990   5.552
 3927SOL    HW212681   6.433   5.983   5.643
 3928SOL     OW12682   4.234   5.516   1.924
 3928SOL    HW112683   4.248   5.426   1.882
 3928SOL    HW212684   4.278   5.519   2.013
 3929SOL     OW12685   1.870   0.548   5.240
 3929SOL    HW112686   1.806   0.612   5.198
 3929SOL    HW212687   1.833   0.455   5.235
 3930SOL     OW12688   1.639   5.433   5.078
 3930SOL    HW112689   1.728   5.475   5.094
 3930SOL    HW212690   1.575   5.501   5.041
 3931SOL     OW12691   7.008   2.287   0.716
 3931SOL    HW112692   0.021   2.319   0.629
 3931SOL    HW212693   6.987   2.366   0.774
 3932SOL     OW12694   1.979   4.739   2.930
 3932SOL    HW112695   2.004   4.835   2.914
 3932SOL    HW212696   2.034   4.680   2.871
 3933SOL     OW12697   0.760   0.272   1.288
 3933SOL    HW112698   0.715   0.256   1.201
 3933SOL    HW212699   0.694   0.262   1.363
 3934SOL     OW12700   0.696   0.003   1.807
 3934SOL    HW112701   0.687   0.025   1.710
 3934SOL    HW212702   0.686   0.086   1.861
 3935SOL     OW12703   6.970   1.454   5.153
 3935SOL    HW112704   6.906   1.430   5.226
 3935SOL    HW212705   6.919   1.478   5.071
 3936SOL     OW12706   6.203   4.437   4.608
 3936SOL    HW112707   6.140   4.446   4.685
 3936SOL    HW212708   6.176   4.359   4.551
 3937SOL     OW12709   1.575   5.845   6.809
 3937SOL    HW112710   1.477   5.836   6.795
 3937SOL    HW212711   1.602   5.799   6.893
 3938SOL     OW12712   1.061   4.132   6.659
 3938SOL    HW112713   1.076   4.207   6.594
 3938SOL    HW212714   1.134   4.064   6.648
 3939SOL     OW12715   1.511   5.070   3.887
 3939SOL    HW112716   1.551   5.151   3.845
 3939SOL    HW212717   1.584   5.013   3.926
 3940SOL     OW12718   2.566   6.448   6.908
 3940SOL    HW112719   2.503   6.488   6.841
 3940SOL    HW212720   2.610   6.520   6.960
 3941SOL     OW12721   5.850   4.741   3.030
 3941SOL    HW112722   5.817   4.833   3.010
 3941SOL    HW212723   5.908   4.743   3.111
 3942SOL     OW12724   0.553   0.152   0.087
 3942SOL    HW112725   0.624   0.110   0.029
 3942SOL    HW212726   0.469   0.163   0.035
 3943SOL     OW12727   1.055   4.418   1.165
 3943SOL    HW112728   1.022   4.346   1.103
 3943SOL    HW212729   0.995   4.498   1.158
 3944SOL     OW12730   6.092   2.811   0.747
 3944SOL    HW112731   6.104   2.850   0.839
 3944SOL    HW212732   5.994   2.804   0.727
 3945SOL     OW12733   0.847   0.479   2.933
 3945SOL    HW112734   0.837   0.528   2.846
 3945SOL    HW212735   0.809   0.387   2.923
 3946SOL     OW12736   4.633   1.726   1.027
 3946SOL    HW112737   4.639   1.675   0.942
 3946SOL    HW212738   4.541   1.764   1.036
 3947SOL     OW12739   5.554   0.696   0.937
 3947SOL    HW112740   5.511   0.626   0.994
 3947SOL    HW212741   5.595   0.652   0.856
 3948SOL     OW12742   2.021   1.254   3.394
 3948SOL    HW112743   1.924   1.248   3.419
 3948SOL    HW212744   2.034   1.332   3.333
 3949SOL     OW12745   5.764   6.564   1.910
 3949SOL    HW112746   5.723   6.654   1.919
 3949SOL    HW212747   5.863   6.571   1.923
 3950SOL     OW12748   2.468   4.585   1.760
 3950SOL    HW112749   2.439   4.648   1.688
 3950SOL    HW212750   2.565   4.564   1.748
 3951SOL     OW12751   0.105   3.669   2.923
 3951SOL    HW112752   0.071   3.580   2.955
 3951SOL    HW212753   0.147   3.718   2.999
 3952SOL     OW12754   6.029   5.551   0.126
 3952SOL    HW112755   5.933   5.554   0.100
 3952SOL    HW212756   6.066   5.460   0.110
 3953SOL     OW12757   3.312   3.172   5.030
 3953SOL    HW112758   3.215   3.162   5.010
 3953SOL    HW212759   3.361   3.090   4.999
 3954SOL     OW12760   0.892   5.640   6.741
 3954SOL    HW112761   0.901   5.739   6.726
 3954SOL    HW212762   0.832   5.601   6.672
 3955SOL     OW12763   6.076   3.377   0.325
 3955SOL    HW112764   6.039   3.463   0.361
 3955SOL    HW212765   6.046   3.301   0.383
 3956SOL     OW12766   0.145   3.891   4.562
 3956SOL    HW112767   0.045   3.885   4.560
 3956SOL    HW212768   0.181   3.826   4.629
 3957SOL     OW12769   1.525   2.515   1.463
 3957SOL    HW112770   1.483   2.587   1.519
 3957SOL    HW212771   1.624   2.521   1.471
 3958SOL     OW12772   4.729   4.652   0.881
 3958SOL    HW112773   4.755   4.695   0.794
 3958SOL    HW212774   4.788   4.686   0.954
 3959SOL     OW12775   2.086   5.046   6.426
 3959SOL    HW112776   2.036   5.130   6.445
 3959SOL    HW212777   2.184   5.067   6.421
 3960SOL     OW12778   5.556   3.404   2.025
 3960SOL    HW112779   5.634   3.422   2.084
 3960SOL    HW212780   5.512   3.490   2.000
 3961SOL     OW12781   0.647   1.968   2.117
 3961SOL    HW112782   0.673   1.873   2.135
 3961SOL    HW212783   0.717   2.011   2.060
 3962SOL     OW12784   0.035   0.056   0.031
 3962SOL    HW112785   0.080   0.131   7.007
 3962SOL    HW212786   6.968   0.086   0.062
 3963SOL     OW12787   6.045   2.969   4.422
 3963SOL    HW112788   6.068   2.996   4.329
 3963SOL    HW212789   5.954   3.003   4.446
 3964SOL     OW12790   6.220   4.800   6.323
 3964SOL    HW112791   6.236   4.779   6.227
 3964SOL    HW212792   6.174   4.723   6.367
 3965SOL     OW12793   2.685   4.802   1.763
 3965SOL    HW112794   2.732   4.859   1.830
 3965SOL    HW212795   2.722   4.710   1.765
 3966SOL     OW12796   0.077   4.670   5.739
 3966SOL    HW112797   0.113   4.592   5.790
 3966SOL    HW212798   0.089   4.753   5.792
 3967SOL     OW12799   3.073   0.740   0.993
 3967SOL    HW112800   3.142   0.804   0.959
 3967SOL    HW212801   3.103   0.701   1.079
 3968SOL     OW12802   5.188   2.305   0.402
 3968SOL    HW112803   5.107   2.266   0.358
 3968SOL    HW212804   5.180   2.405   0.402
 3969SOL     OW12805   6.351   6.972   1.384
 3969SOL    HW112806   6.272   0.006   1.364
 3969SOL    HW212807   6.395   7.002   1.468
 3970SOL     OW12808   5.689   3.778   3.633
 3970SOL    HW112809   5.688   3.856   3.696
 3970SOL    HW212810   5.705   3.812   3.540
 3971SOL     OW12811   6.917   5.423   3.886
 3971SOL    HW112812   6.932   5.348   3.951
 3971SOL    HW212813   6.834   5.405   3.833
 3972SOL     OW12814   0.909   1.556   6.377
 3972SOL    HW112815   0.951   1.498   6.447
 3972SOL    HW212816   0.927   1.652   6.399
 3973SOL     OW12817   3.902   2.944   1.212
 3973SOL    HW112818   3.931   3.024   1.264
 3973SOL    HW212819   3.806   2.924   1.231
 3974SOL     OW12820   5.783   0.551   6.270
 3974SOL    HW112821   5.846   0.506   6.334
 3974SOL    HW212822   5.713   0.601   6.321
 3975SOL     OW12823   0.598   6.273   3.313
 3975SOL    HW112824   0.527   6.224   3.262
 3975SOL    HW212825   0.649   6.332   3.250
 3976SOL     OW12826   0.922   2.729   5.210
 3976SOL    HW112827   0.848   2.796   5.218
 3976SOL    HW212828   0.898   2.646   5.260
 3977SOL     OW12829   2.678   4.825   5.665
 3977SOL    HW112830   2.630   4.868   5.742
 3977SOL    HW212831   2.762   4.781   5.699
 3978SOL     OW12832   4.547   3.246   6.659
 3978SOL    HW112833   4.468   3.292   6.700
 3978SOL    HW212834   4.588   3.306   6.590
 3979SOL     OW12835   0.320   5.861   3.054
 3979SOL    HW112836   0.253   5.868   2.981
 3979SOL    HW212837   0.284   5.904   3.137
 3980SOL     OW12838   5.649   4.295   4.096
 3980SOL    HW112839   5.621   4.288   4.001
 3980SOL    HW212840   5.576   4.261   4.155
 3981SOL     OW12841   6.079   1.333   6.622
 3981SOL    HW112842   5.993   1.283   6.633
 3981SOL    HW212843   6.070   1.400   6.548
 3982SOL     OW12844   1.669   2.710   3.978
 3982SOL    HW112845   1.612   2.787   3.948
 3982SOL    HW212846   1.712   2.732   4.066
 3983SOL     OW12847   2.391   1.464   3.505
 3983SOL    HW112848   2.346   1.515   3.432
 3983SOL    HW212849   2.322   1.424   3.566
 3984SOL     OW12850   1.119   5.957   2.703
 3984SOL    HW112851   1.073   6.045   2.696
 3984SOL    HW212852   1.215   5.972   2.728
 3985SOL     OW12853   1.337   2.060   1.551
 3985SOL    HW112854   1.398   2.135   1.578
 3985SOL    HW212855   1.285   2.087   1.470
 3986SOL     OW12856   0.723   6.982   3.161
 3986SOL    HW112857   0.636   6.934   3.174
 3986SOL    HW212858   0.764   6.953   3.075
 3987SOL     OW12859   1.680   4.533   5.388
 3987SOL    HW112860   1.713   4.619   5.348
 3987SOL    HW212861   1.585   4.518   5.358
 3988SOL     OW12862   4.684   5.023   2.188
 3988SOL    HW112863   4.709   4.975   2.272
 3988SOL    HW212864   4.740   4.988   2.112
 3989SOL     OW12865   4.205   1.108   6.653
 3989SOL    HW112866   4.150   1.185   6.686
 3989SOL    HW212867   4.195   1.101   6.554
 3990SOL     OW12868   5.871   5.530   3.533
 3990SOL    HW112869   5.835   5.558   3.444
 3990SOL    HW212870   5.932   5.452   3.521
 3991SOL     OW12871   0.601   2.019   5.112
 3991SOL    HW112872   0.677   2.066   5.067
 3991SOL    HW212873   0.635   1.934   5.153
 3992SOL     OW12874   6.020   3.765   5.610
 3992SOL    HW112875   6.120   3.760   5.610
 3992SOL    HW212876   5.984   3.709   5.535
 3993SOL     OW12877   1.631   1.222   3.767
 3993SOL    HW112878   1.566   1.177   3.705
 3993SOL    HW212879   1.688   1.153   3.810
 3994SOL     OW12880   2.920   1.927   2.907
 3994SOL    HW112881   2.934   1.980   2.824
 3994SOL    HW212882   2.844   1.965   2.959
 3995SOL     OW12883   2.166   4.304   1.684
 3995SOL    HW112884   2.195   4.247   1.761
 3995SOL    HW212885   2.245   4.356   1.650
 3996SOL     OW12886   0.439   5.666   5.334
 3996SOL    HW112887   0.448   5.603   5.256
 3996SOL    HW212888   0.382   5.623   5.404
 3997SOL     OW12889   6.065   3.104   5.242
 3997SOL    HW112890   5.968   3.123   5.230
 3997SOL    HW212891   6.099   3.154   5.322
 3998SOL     OW12892   4.208   2.056   2.957
 3998SOL    HW112893   4.245   2.044   2.865
 3998SOL    HW212894   4.109   2.047   2.955
 3999SOL     OW12895   4.320   3.594   1.253
 3999SOL    HW112896   4.355   3.520   1.195
 3999SOL    HW212897   4.369   3.678   1.232
 4000SOL     OW12898   3.060   5.004   2.781
 4000SOL    HW112899   3.051   5.044   2.689
 4000SOL    HW212900   3.145   4.952   2.786
 4001SOL     OW12901   0.398   5.471   4.511
 4001SOL    HW112902   0.334   5.535   4.467
 4001SOL    HW212903   0.451   5.424   4.441
 4002SOL     OW12904   3.381   3.929   4.700
 4002SOL    HW112905   3.288   3.929   4.664
 4002SOL    HW212906   3.406   4.022   4.727
 4003SOL     OW12907   3.327   1.641   4.628
 4003SOL    HW112908   3.338   1.727   4.578
 4003SOL    HW212909   3.300   1.569   4.564
 4004SOL     OW12910   1.743   3.669   4.799
 4004SOL    HW112911   1.797   3.643   4.880
 4004SOL    HW212912   1.792   3.641   4.716
 4005SOL     OW12913   6.031   1.903   1.946
 4005SOL    HW112914   5.950   1.910   2.004
 4005SOL    HW212915   6.112   1.888   2.003
 4006SOL     OW12916   6.857   5.751   1.587
 4006SOL    HW112917   6.770   5.710   1.613
 4006SOL    HW212918   6.887   5.714   1.499
 4007SOL     OW12919   0.671   1.316   1.549
 4007SOL    HW112920   0.587   1.356   1.587
 4007SOL    HW212921   0.662   1.310   1.449
 4008SOL     OW12922   4.071   0.397   2.032
 4008SOL    HW112923   4.072   0.490   1.996
 4008SOL    HW212924   4.016   0.394   2.115
 4009SOL     OW12925   3.455   2.278   1.555
 4009SOL    HW112926   3.410   2.365   1.577
 4009SOL    HW212927   3.536   2.267   1.612
 4010SOL     OW12928   1.360   5.825   1.548
 4010SOL    HW112929   1.293   5.760   1.585
 4010SOL    HW212930   1.402   5.875   1.623
 4011SOL     OW12931   6.306   6.839   5.710
 4011SOL    HW112932   6.241   6.772   5.747
 4011SOL    HW212933   6.399   6.803   5.720
 4012SOL     OW12934   6.271   4.293   2.333
 4012SOL    HW112935   6.366   4.299   2.364
 4012SOL    HW212936   6.220   4.372   2.368
 4013SOL     OW12937   0.455   2.118   6.952
 4013SOL    HW112938   0.501   2.195   6.908
 4013SOL    HW212939   0.503   2.094   0.012
 4014SOL     OW12940   4.577   0.184   2.791
 4014SOL    HW112941   4.578   0.254   2.720
 4014SOL    HW212942   4.500   0.202   2.853
 4015SOL     OW12943   3.209   6.349   5.121
 4015SOL    HW112944   3.255   6.355   5.209
 4015SOL    HW212945   3.142   6.422   5.112
 4016SOL     OW12946   4.222   5.101   4.050
 4016SOL    HW112947   4.166   5.089   3.968
 4016SOL    HW212948   4.311   5.058   4.036
 4017SOL     OW12949   1.533   6.140   6.129
 4017SOL    HW112950   1.619   6.102   6.162
 4017SOL    HW212951   1.500   6.209   6.194
 4018SOL     OW12952   5.672   5.302   0.493
 4018SOL    HW112953   5.584   5.310   0.447
 4018SOL    HW212954   5.662   5.330   0.589
 4019SOL     OW12955   0.741   2.264   3.412
 4019SOL    HW112956   0.694   2.342   3.372
 4019SOL    HW212957   0.689   2.181   3.393
 4020SOL     OW12958   6.408   6.110   4.550
 4020SOL    HW112959   6.353   6.180   4.596
 4020SOL    HW212960   6.377   6.099   4.456
 4021SOL     OW12961   4.745   5.500   5.807
 4021SOL    HW112962   4.827   5.546   5.842
 4021SOL    HW212963   4.665   5.556   5.826
 4022SOL     OW12964   4.111   0.838   1.343
 4022SOL    HW112965   4.051   0.812   1.418
 4022SOL    HW212966   4.105   0.937   1.328
 4023SOL     OW12967   2.014   1.438   3.837
 4023SOL    HW112968   1.989   1.343   3.854
 4023SOL    HW212969   2.074   1.471   3.909
 4024SOL     OW12970   1.195   7.021   6.578
 4024SOL    HW112971   1.265   0.023   6.644
 4024SOL    HW212972   1.120   0.062   6.581
 4025SOL     OW12973   0.936   4.707   4.730
 4025SOL    HW112974   0.914   4.697   4.633
 4025SOL    HW212975   0.955   4.804   4.749
 4026SOL     OW12976   0.438   6.352   4.201
 4026SOL    HW112977   0.444   6.436   4.254
 4026SOL    HW212978   0.418   6.374   4.105
 4027SOL     OW12979   3.118   5.609   4.757
 4027SOL    HW112980   3.146   5.514   4.741
 4027SOL    HW212981   3.129   5.661   4.672
 4028SOL     OW12982   4.873   1.692   4.841
 4028SOL    HW112983   4.811   1.764   4.870
 4028SOL    HW212984   4.914   1.716   4.752
 4029SOL     OW12985   2.044   6.734   0.837
 4029SOL    HW112986   1.969   6.780   0.790
 4029SOL    HW212987   2.017   6.713   0.931
 4030SOL     OW12988   6.798   1.487   1.658
 4030SOL    HW112989   6.860   1.417   1.623
 4030SOL    HW212990   6.822   1.576   1.619
 4031SOL     OW12991   6.386   6.326   0.937
 4031SOL    HW112992   6.437   6.306   1.021
 4031SOL    HW212993   6.415   6.264   0.865
 4032SOL     OW12994   4.923   2.396   1.851
 4032SOL    HW112995   4.894   2.491   1.843
 4032SOL    HW212996   4.938   2.358   1.759
 4033SOL     OW12997   1.445   4.122   3.460
 4033SOL    HW112998   1.420   4.030   3.490
 4033SOL    HW212999   1.363   4.174   3.436
 4034SOL     OW13000   3.159   1.521   4.174
 4034SOL    HW113001   3.210   1.606   4.178
 4034SOL    HW213002   3.087   1.522   4.243
 4035SOL     OW13003   3.283   1.998   1.069
 4035SOL    HW113004   3.276   2.056   0.988
 4035SOL    HW213005   3.218   2.028   1.139
 4036SOL     OW13006   3.828   0.407   2.898
 4036SOL    HW113007   3.874   0.363   2.822
 4036SOL    HW213008   3.877   0.388   2.983
 4037SOL     OW13009   1.578   0.964   5.793
 4037SOL    HW113010   1.599   0.869   5.816
 4037SOL    HW213011   1.604   0.983   5.699
 4038SOL     OW13012   3.789   5.698   5.775
 4038SOL    HW113013   3.870   5.747   5.809
 4038SOL    HW213014   3.773   5.722   5.680
 4039SOL     OW13015   6.529   4.317   2.430
 4039SOL    HW113016   6.531   4.415   2.447
 4039SOL    HW213017   6.610   4.290   2.378
 4040SOL     OW13018   1.784   6.873   5.597
 4040SOL    HW113019   1.840   6.873   5.680
 4040SOL    HW213020   1.844   6.876   5.517
 4041SOL     OW13021   1.007   6.420   1.395
 4041SOL    HW113022   1.004   6.520   1.393
 4041SOL    HW213023   1.102   6.390   1.387
 4042SOL     OW13024   1.825   1.199   4.650
 4042SOL    HW113025   1.735   1.223   4.612
 4042SOL    HW213026   1.878   1.283   4.665
 4043SOL     OW13027   4.115   2.977   5.355
 4043SOL    HW113028   4.097   2.879   5.360
 4043SOL    HW213029   4.200   2.992   5.304
 4044SOL     OW13030   4.654   4.340   3.760
 4044SOL    HW113031   4.633   4.402   3.685
 4044SOL    HW213032   4.753   4.334   3.772
 4045SOL     OW13033   4.769   1.438   4.823
 4045SOL    HW113034   4.732   1.447   4.730
 4045SOL    HW213035   4.824   1.518   4.844
 4046SOL     OW13036   5.263   0.727   4.590
 4046SOL    HW113037   5.183   0.784   4.575
 4046SOL    HW213038   5.306   0.753   4.677
 4047SOL     OW13039   2.510   2.947   6.774
 4047SOL    HW113040   2.534   2.972   6.681
 4047SOL    HW213041   2.561   3.003   6.839
 4048SOL     OW13042   5.090   2.141   3.253
 4048SOL    HW113043   5.016   2.093   3.300
 4048SOL    HW213044   5.157   2.172   3.320
 4049SOL     OW13045   4.143   3.379   2.181
 4049SOL    HW113046   4.227   3.328   2.164
 4049SOL    HW213047   4.092   3.335   2.255
 4050SOL     OW13048   6.985   4.913   2.825
 4050SOL    HW113049   6.901   4.964   2.805
 4050SOL    HW213050   6.986   4.829   2.771
 4051SOL     OW13051   5.715   0.324   3.539
 4051SOL    HW113052   5.685   0.412   3.576
 4051SOL    HW213053   5.810   0.330   3.509
 4052SOL     OW13054   4.386   1.050   5.069
 4052SOL    HW113055   4.476   1.073   5.031
 4052SOL    HW213056   4.331   1.003   5.000
 4053SOL     OW13057   0.806   4.762   3.005
 4053SOL    HW113058   0.898   4.801   3.013
 4053SOL    HW213059   0.809   4.685   2.941
 4054SOL     OW13060   4.782   3.637   1.281
 4054SOL    HW113061   4.852   3.694   1.239
 4054SOL    HW213062   4.823   3.584   1.356
 4055SOL     OW13063   0.062   4.054   6.523
 4055SOL    HW113064   0.069   4.099   6.434
 4055SOL    HW213065   0.044   3.956   6.509
 4056SOL     OW13066   4.919   4.406   6.877
 4056SOL    HW113067   4.976   4.388   6.957
 4056SOL    HW213068   4.973   4.454   6.808
 4057SOL     OW13069   6.819   5.377   5.136
 4057SOL    HW113070   6.821   5.447   5.064
 4057SOL    HW213071   6.771   5.296   5.102
 4058SOL     OW13072   3.250   0.791   3.710
 4058SOL    HW113073   3.285   0.709   3.665
 4058SOL    HW213074   3.150   0.793   3.703
 4059SOL     OW13075   2.092   0.587   3.553
 4059SOL    HW113076   2.027   0.551   3.486
 4059SOL    HW213077   2.158   0.646   3.506
 4060SOL     OW13078   6.961   6.467   3.662
 4060SOL    HW113079   6.927   6.526   3.735
 4060SOL    HW213080   6.970   6.519   3.577
 4061SOL     OW13081   1.357   3.875   2.424
 4061SOL    HW113082   1.325   3.965   2.394
 4061SOL    HW213083   1.326   3.859   2.518
 4062SOL     OW13084   2.476   3.714   0.460
 4062SOL    HW113085   2.521   3.793   0.416
 4062SOL    HW213086   2.503   3.630   0.412
 4063SOL     OW13087   3.786   1.189   1.649
 4063SOL    HW113088   3.748   1.198   1.557
 4063SOL    HW213089   3.884   1.174   1.643
 4064SOL     OW13090   2.696   7.024   4.687
 4064SOL    HW113091   2.768   6.956   4.672
 4064SOL    HW213092   2.616   6.980   4.729
 4065SOL     OW13093   2.300   0.862   1.975
 4065SOL    HW113094   2.248   0.846   1.891
 4065SOL    HW213095   2.242   0.907   2.043
 4066SOL     OW13096   0.115   3.920   4.916
 4066SOL    HW113097   0.027   3.966   4.930
 4066SOL    HW213098   0.188   3.989   4.912
 4067SOL     OW13099   5.598   3.984   1.800
 4067SOL    HW113100   5.546   3.936   1.871
 4067SOL    HW213101   5.552   4.069   1.777
 4068SOL     OW13102   2.307   2.657   5.806
 4068SOL    HW113103   2.388   2.713   5.822
 4068SOL    HW213104   2.274   2.620   5.893
 4069SOL     OW13105   4.283   0.902   6.383
 4069SOL    HW113106   4.316   0.996   6.378
 4069SOL    HW213107   4.359   0.839   6.369
 4070SOL     OW13108   2.060   4.492   4.504
 4070SOL    HW113109   1.976   4.506   4.555
 4070SOL    HW213110   2.134   4.469   4.567
 4071SOL     OW13111   1.038   0.508   4.735
 4071SOL    HW113112   0.992   0.588   4.774
 4071SOL    HW213113   0.998   0.425   4.771
 4072SOL     OW13114   2.914   6.110   1.948
 4072SOL    HW113115   2.866   6.045   2.006
 4072SOL    HW213116   2.978   6.062   1.889
 4073SOL     OW13117   4.917   5.157   6.775
 4073SOL    HW113118   4.960   5.241   6.742
 4073SOL    HW213119   4.903   5.094   6.699
 4074SOL     OW13120   1.716   5.319   1.946
 4074SOL    HW113121   1.632   5.332   1.894
 4074SOL    HW213122   1.766   5.405   1.951
 4075SOL     OW13123   5.700   0.044   6.403
 4075SOL    HW113124   5.709   0.118   6.469
 4075SOL    HW213125   5.685   0.082   6.312
 4076SOL     OW13126   2.155   5.377   3.381
 4076SOL    HW113127   2.210   5.294   3.371
 4076SOL    HW213128   2.084   5.362   3.450
 4077SOL     OW13129   2.603   1.964   1.168
 4077SOL    HW113130   2.579   2.042   1.110
 4077SOL    HW213131   2.688   1.982   1.217
 4078SOL     OW13132   4.384   4.586   2.100
 4078SOL    HW113133   4.315   4.579   2.172
 4078SOL    HW213134   4.409   4.494   2.069
 4079SOL     OW13135   0.834   3.159   4.151
 4079SOL    HW113136   0.883   3.145   4.238
 4079SOL    HW213137   0.789   3.248   4.153
 4080SOL     OW13138   6.614   2.499   4.921
 4080SOL    HW113139   6.662   2.426   4.970
 4080SOL    HW213140   6.517   2.497   4.946
 4081SOL     OW13141   6.069   3.828   2.179
 4081SOL    HW113142   5.971   3.828   2.161
 4081SOL    HW213143   6.095   3.916   2.219
 4082SOL     OW13144   0.142   3.440   1.430
 4082SOL    HW113145   0.153   3.459   1.527
 4082SOL    HW213146   0.059   3.386   1.415
 4083SOL     OW13147   6.743   3.845   6.028
 4083SOL    HW113148   6.757   3.939   5.997
 4083SOL    HW213149   6.742   3.843   6.128
 4084SOL     OW13150   4.492   0.323   4.381
 4084SOL    HW113151   4.555   0.383   4.332
 4084SOL    HW213152   4.403   0.324   4.334
 4085SOL     OW13153   2.550   5.138   6.144
 4085SOL    HW113154   2.637   5.170   6.182
 4085SOL    HW213155   2.526   5.050   6.186
 4086SOL     OW13156   0.227   2.140   2.261
 4086SOL    HW113157   0.264   2.184   2.179
 4086SOL    HW213158   0.295   2.078   2.300
 4087SOL     OW13159   1.263   0.391   2.911
 4087SOL    HW113160   1.226   0.476   2.874
 4087SOL    HW213161   1.302   0.336   2.836
 4088SOL     OW13162   0.535   3.072   6.395
 4088SOL    HW113163   0.531   3.059   6.296
 4088SOL    HW213164   0.630   3.092   6.422
 4089SOL     OW13165   0.703   2.668   5.669
 4089SOL    HW113166   0.776   2.615   5.626
 4089SOL    HW213167   0.639   2.606   5.714
 4090SOL     OW13168   3.088   5.907   6.040
 4090SOL    HW113169   3.135   5.829   5.999
 4090SOL    HW213170   3.003   5.925   5.990
 4091SOL     OW13171   4.031   5.918   1.478
 4091SOL    HW113172   4.124   5.896   1.508
 4091SOL    HW213173   3.983   5.834   1.452
 4092SOL     OW13174   0.759   0.920   3.483
 4092SOL    HW113175   0.702   1.002   3.487
 4092SOL    HW213176   0.701   0.839   3.480
 4093SOL     OW13177   4.422   0.162   3.830
 4093SOL    HW113178   4.395   0.104   3.753
 4093SOL    HW213179   4.520   0.153   3.847
 4094SOL     OW13180   3.146   2.835   6.110
 4094SOL    HW113181   3.072   2.874   6.055
 4094SOL    HW213182   3.132   2.736   6.121
 4095SOL     OW13183   1.960   4.347   6.127
 4095SOL    HW113184   2.021   4.385   6.058
 4095SOL    HW213185   1.948   4.249   6.110
 4096SOL     OW13186   4.465   4.704   1.348
 4096SOL    HW113187   4.455   4.652   1.433
 4096SOL    HW213188   4.559   4.695   1.314
 4097SOL     OW13189   3.274   3.687   3.335
 4097SOL    HW113190   3.231   3.629   3.404
 4097SOL    HW213191   3.203   3.732   3.281
 4098SOL     OW13192   1.535   3.003   2.186
 4098SOL    HW113193   1.625   3.044   2.170
 4098SOL    HW213194   1.471   3.074   2.215
 4099SOL     OW13195   2.397   6.082   1.166
 4099SOL    HW113196   2.368   5.999   1.119
 4099SOL    HW213197   2.388   6.160   1.104
 4100SOL     OW13198   3.537   0.402   2.511
 4100SOL    HW113199   3.543   0.308   2.545
 4100SOL    HW213200   3.562   0.466   2.584
 4101SOL     OW13201   4.772   1.362   6.908
 4101SOL    HW113202   4.790   1.275   6.863
 4101SOL    HW213203   4.687   1.357   6.959
 4102SOL     OW13204   5.241   1.695   6.014
 4102SOL    HW113205   5.336   1.716   5.991
 4102SOL    HW213206   5.204   1.631   5.946
 4103SOL     OW13207   6.472   0.738   1.826
 4103SOL    HW113208   6.482   0.800   1.748
 4103SOL    HW213209   6.426   0.786   1.901
 4104SOL     OW13210   2.020   4.216   2.198
 4104SOL    HW113211   1.950   4.252   2.261
 4104SOL    HW213212   2.082   4.290   2.171
 4105SOL     OW13213   6.090   4.593   0.035
 4105SOL    HW113214   6.125   4.574   6.967
 4105SOL    HW213215   6.008   4.538   0.051
 4106SOL     OW13216   0.389   2.954   3.712
 4106SOL    HW113217   0.293   2.969   3.735
 4106SOL    HW213218   0.446   2.981   3.790
 4107SOL     OW13219   6.839   0.661   1.167
 4107SOL    HW113220   6.798   0.745   1.201
 4107SOL    HW213221   6.937   0.676   1.151
 4108SOL     OW13222   6.557   2.787   4.935
 4108SOL    HW113223   6.608   2.701   4.943
 4108SOL    HW213224   6.462   2.767   4.914
 4109SOL     OW13225   2.158   6.280   4.160
 4109SOL    HW113226   2.174   6.313   4.253
 4109SOL    HW213227   2.213   6.197   4.145
 4110SOL     OW13228   4.697   3.168   5.291
 4110SOL    HW113229   4.669   3.264   5.285
 4110SOL    HW213230   4.775   3.152   5.230
 4111SOL     OW13231   4.112   3.720   6.841
 4111SOL    HW113232   4.104   3.758   6.934
 4111SOL    HW213233   4.101   3.794   6.774
 4112SOL     OW13234   3.577   0.981   5.990
 4112SOL    HW113235   3.621   0.927   5.918
 4112SOL    HW213236   3.582   0.931   6.077
 4113SOL     OW13237   3.456   5.815   4.132
 4113SOL    HW113238   3.491   5.737   4.184
 4113SOL    HW213239   3.465   5.898   4.187
 4114SOL     OW13240   3.556   0.975   3.253
 4114SOL    HW113241   3.492   1.005   3.182
 4114SOL    HW213242   3.571   0.876   3.244
 4115SOL     OW13243   5.204   3.896   3.023
 4115SOL    HW113244   5.270   3.966   3.050
 4115SOL    HW213245   5.126   3.938   2.978
 4116SOL     OW13246   2.543   1.147   1.839
 4116SOL    HW113247   2.526   1.168   1.743
 4116SOL    HW213248   2.613   1.076   1.845
 4117SOL     OW13249   1.119   5.312   2.018
 4117SOL    HW113250   1.129   5.312   2.117
 4117SOL    HW213251   1.028   5.346   1.993
 4118SOL     OW13252   1.523   0.617   5.645
 4118SOL    HW113253   1.519   0.536   5.586
 4118SOL    HW213254   1.516   0.589   5.740
 4119SOL     OW13255   4.850   1.092   3.383
 4119SOL    HW113256   4.843   1.123   3.288
 4119SOL    HW213257   4.946   1.070   3.404
 4120SOL     OW13258   5.736   0.684   1.756
 4120SOL    HW113259   5.734   0.646   1.849
 4120SOL    HW213260   5.716   0.612   1.690
 4121SOL     OW13261   5.086   2.652   3.732
 4121SOL    HW113262   5.004   2.708   3.720
 4121SOL    HW213263   5.106   2.603   3.647
 4122SOL     OW13264   2.027   4.906   6.682
 4122SOL    HW113265   2.053   4.962   6.603
 4122SOL    HW213266   1.929   4.917   6.699
 4123SOL     OW13267   3.308   3.521   5.373
 4123SOL    HW113268   3.308   3.548   5.470
 4123SOL    HW213269   3.319   3.422   5.366
 4124SOL     OW13270   4.563   6.647   2.800
 4124SOL    HW113271   4.568   6.745   2.819
 4124SOL    HW213272   4.591   6.629   2.706
 4125SOL     OW13273   3.886   2.028   1.857
 4125SOL    HW113274   3.851   2.054   1.947
 4125SOL    HW213275   3.981   2.058   1.848
 4126SOL     OW13276   1.602   3.860   4.532
 4126SOL    HW113277   1.702   3.864   4.528
 4126SOL    HW213278   1.565   3.849   4.440
 4127SOL     OW13279   5.223   5.075   3.584
 4127SOL    HW113280   5.240   5.109   3.492
 4127SOL    HW213281   5.308   5.075   3.636
 4128SOL     OW13282   6.590   1.746   1.816
 4128SOL    HW113283   6.553   1.839   1.819
 4128SOL    HW213284   6.573   1.700   1.904
 4129SOL     OW13285   0.246   2.769   6.828
 4129SOL    HW113286   0.282   2.779   6.921
 4129SOL    HW213287   0.165   2.710   6.830
 4130SOL     OW13288   6.294   2.740   0.937
 4130SOL    HW113289   6.273   2.670   1.005
 4130SOL    HW213290   6.347   2.700   0.862
 4131SOL     OW13291   6.741   4.010   3.522
 4131SOL    HW113292   6.664   4.072   3.508
 4131SOL    HW213293   6.806   4.051   3.585
 4132SOL     OW13294   4.744   1.493   4.316
 4132SOL    HW113295   4.789   1.563   4.262
 4132SOL    HW213296   4.692   1.432   4.256
 4133SOL     OW13297   2.374   2.984   0.565
 4133SOL    HW113298   2.453   2.951   0.514
 4133SOL    HW213299   2.332   3.060   0.516
 4134SOL     OW13300   1.984   1.560   6.442
 4134SOL    HW113301   2.058   1.592   6.502
 4134SOL    HW213302   1.897   1.565   6.492
 4135SOL     OW13303   1.448   0.909   0.895
 4135SOL    HW113304   1.387   0.836   0.927
 4135SOL    HW213305   1.483   0.960   0.974
 4136SOL     OW13306   1.941   2.079   3.464
 4136SOL    HW113307   1.942   1.997   3.407
 4136SOL    HW213308   1.969   2.056   3.557
 4137SOL     OW13309   3.812   3.027   5.002
 4137SOL    HW113310   3.728   3.044   5.053
 4137SOL    HW213311   3.887   3.078   5.044
 4138SOL     OW13312   4.710   5.330   1.082
 4138SOL    HW113313   4.613   5.312   1.072
 4138SOL    HW213314   4.724   5.416   1.130
 4139SOL     OW13315   3.884   1.625   0.269
 4139SOL    HW113316   3.951   1.647   0.198
 4139SOL    HW213317   3.830   1.706   0.289
 4140SOL     OW13318   4.486   2.209   4.916
 4140SOL    HW113319   4.583   2.231   4.928
 4140SOL    HW213320   4.436   2.291   4.889
 4141SOL     OW13321   4.953   6.009   0.968
 4141SOL    HW113322   4.959   5.982   0.872
 4141SOL    HW213323   5.037   6.054   0.996
 4142SOL     OW13324   6.223   2.932   2.306
 4142SOL    HW113325   6.287   2.985   2.361
 4142SOL    HW213326   6.142   2.986   2.286
 4143SOL     OW13327   1.929   2.408   1.908
 4143SOL    HW113328   1.995   2.386   1.836
 4143SOL    HW213329   1.906   2.505   1.904
 4144SOL     OW13330   4.402   0.823   2.758
 4144SOL    HW113331   4.324   0.787   2.809
 4144SOL    HW213332   4.408   0.922   2.773
 4145SOL     OW13333   2.883   0.691   3.106
 4145SOL    HW113334   2.885   0.683   3.007
 4145SOL    HW213335   2.790   0.675   3.139
 4146SOL     OW13336   4.927   4.859   0.462
 4146SOL    HW113337   4.932   4.907   0.374
 4146SOL    HW213338   4.987   4.779   0.459
 4147SOL     OW13339   2.626   0.936   6.193
 4147SOL    HW113340   2.546   0.877   6.185
 4147SOL    HW213341   2.626   0.982   6.282
 4148SOL     OW13342   0.080   6.446   2.434
 4148SOL    HW113343   7.006   6.435   2.416
 4148SOL    HW213344   0.098   6.540   2.462
 4149SOL     OW13345   4.367   4.868   2.475
 4149SOL    HW113346   4.457   4.900   2.506
 4149SOL    HW213347   4.356   4.772   2.498
 4150SOL     OW13348   3.686   0.353   4.340
 4150SOL    HW113349   3.749   0.416   4.385
 4150SOL    HW213350   3.598   0.355   4.389
 4151SOL     OW13351   0.696   5.358   1.001
 4151SOL    HW113352   0.650   5.295   0.940
 4151SOL    HW213353   0.646   5.445   1.004
 4152SOL     OW13354   3.566   4.493   1.004
 4152SOL    HW113355   3.624   4.415   0.981
 4152SOL    HW213356   3.498   4.506   0.932
 4153SOL     OW13357   6.374   6.062   6.941
 4153SOL    HW113358   6.389   6.156   6.972
 4153SOL    HW213359   6.325   6.064   6.854
 4154SOL     OW13360   4.025   2.199   4.412
 4154SOL    HW113361   4.064   2.277   4.361
 4154SOL    HW213362   4.008   2.124   4.348
 4155SOL     OW13363   0.714   3.494   0.996
 4155SOL    HW113364   0.696   3.556   0.919
 4155SOL    HW213365   0.812   3.492   1.015
 4156SOL     OW13366   5.950   0.688   5.427
 4156SOL    HW113367   6.024   0.711   5.363
 4156SOL    HW213368   5.990   0.648   5.510
 4157SOL     OW13369   3.937   1.037   4.152
 4157SOL    HW113370   3.981   0.967   4.096
 4157SOL    HW213371   3.984   1.124   4.139
 4158SOL     OW13372   0.492   6.954   3.468
 4158SOL    HW113373   0.423   6.897   3.512
 4158SOL    HW213374   0.491   0.021   3.509
 4159SOL     OW13375   0.923   4.869   5.250
 4159SOL    HW113376   0.946   4.905   5.341
 4159SOL    HW213377   0.823   4.864   5.240
 4160SOL     OW13378   6.128   1.269   1.701
 4160SOL    HW113379   6.082   1.323   1.630
 4160SOL    HW213380   6.149   1.327   1.779
 4161SOL     OW13381   6.007   1.757   2.314
 4161SOL    HW113382   6.085   1.726   2.368
 4161SOL    HW213383   5.988   1.691   2.241
 4162SOL     OW13384   0.372   0.070   4.517
 4162SOL    HW113385   0.357   7.003   4.477
 4162SOL    HW213386   0.369   0.064   4.617
 4163SOL     OW13387   0.676   2.218   5.542
 4163SOL    HW113388   0.668   2.119   5.553
 4163SOL    HW213389   0.767   2.240   5.508
 4164SOL     OW13390   2.218   7.004   5.585
 4164SOL    HW113391   2.197   6.915   5.626
 4164SOL    HW213392   2.317   7.014   5.577
 4165SOL     OW13393   0.829   5.731   2.175
 4165SOL    HW113394   0.821   5.741   2.275
 4165SOL    HW213395   0.777   5.651   2.146
 4166SOL     OW13396   6.489   1.578   2.697
 4166SOL    HW113397   6.457   1.594   2.791
 4166SOL    HW213398   6.474   1.482   2.673
 4167SOL     OW13399   1.532   2.734   0.985
 4167SOL    HW113400   1.501   2.683   1.065
 4167SOL    HW213401   1.459   2.797   0.956
 4168SOL     OW13402   2.585   5.789   0.822
 4168SOL    HW113403   2.501   5.803   0.874
 4168SOL    HW213404   2.630   5.705   0.853
 4169SOL     OW13405   6.246   3.553   6.736
 4169SOL    HW113406   6.205   3.540   6.827
 4169SOL    HW213407   6.282   3.646   6.730
 4170SOL     OW13408   2.830   0.979   5.259
 4170SOL    HW113409   2.860   0.901   5.205
 4170SOL    HW213410   2.820   0.952   5.355
 4171SOL     OW13411   6.742   2.652   1.483
 4171SOL    HW113412   6.769   2.566   1.439
 4171SOL    HW213413   6.666   2.634   1.545
 4172SOL     OW13414   2.601   0.256   0.497
 4172SOL    HW113415   2.526   0.303   0.450
 4172SOL    HW213416   2.569   0.167   0.529
 4173SOL     OW13417   4.157   4.032   5.410
 4173SOL    HW113418   4.082   4.003   5.470
 4173SOL    HW213419   4.181   3.958   5.348
 4174SOL     OW13420   4.311   0.963   3.531
 4174SOL    HW113421   4.349   1.049   3.564
 4174SOL    HW213422   4.229   0.940   3.583
 4175SOL     OW13423   2.529   0.511   1.841
 4175SOL    HW113424   2.521   0.589   1.903
 4175SOL    HW213425   2.488   0.533   1.753
 4176SOL     OW13426   5.758   4.997   2.941
 4176SOL    HW113427   5.744   5.087   2.982
 4176SOL    HW213428   5.741   5.002   2.843
 4177SOL     OW13429   0.575   5.742   2.971
 4177SOL    HW113430   0.639   5.700   3.035
 4177SOL    HW213431   0.526   5.816   3.018
 4178SOL     OW13432   4.001   2.392   5.390
 4178SOL    HW113433   3.933   2.326   5.359
 4178SOL    HW213434   4.042   2.438   5.311
 4179SOL     OW13435   0.366   1.588   0.352
 4179SOL    HW113436   0.374   1.520   0.279
 4179SOL    HW213437   0.310   1.551   0.426
 4180SOL     OW13438   5.825   3.886   2.096
 4180SOL    HW113439   5.755   3.817   2.078
 4180SOL    HW213440   5.823   3.956   2.024
 4181SOL     OW13441   5.465   1.068   6.869
 4181SOL    HW113442   5.454   1.159   6.910
 4181SOL    HW213443   5.409   1.062   6.786
 4182SOL     OW13444   6.349   0.172   4.064
 4182SOL    HW113445   6.257   0.147   4.034
 4182SOL    HW213446   6.361   0.271   4.055
 4183SOL     OW13447   0.361   0.857   1.714
 4183SOL    HW113448   0.368   0.947   1.756
 4183SOL    HW213449   0.450   0.813   1.715
 4184SOL     OW13450   4.043   4.693   6.461
 4184SOL    HW113451   4.031   4.777   6.408
 4184SOL    HW213452   3.956   4.645   6.467
 4185SOL     OW13453   6.988   1.342   4.837
 4185SOL    HW113454   6.992   1.408   4.762
 4185SOL    HW213455   6.901   1.351   4.884
 4186SOL     OW13456   2.942   3.761   1.890
 4186SOL    HW113457   3.014   3.810   1.840
 4186SOL    HW213458   2.955   3.773   1.988
 4187SOL     OW13459   4.718   4.836   5.868
 4187SOL    HW113460   4.795   4.823   5.930
 4187SOL    HW213461   4.653   4.901   5.908
 4188SOL     OW13462   5.539   6.240   2.620
 4188SOL    HW113463   5.620   6.298   2.616
 4188SOL    HW213464   5.477   6.264   2.544
 4189SOL     OW13465   1.152   3.518   3.161
 4189SOL    HW113466   1.060   3.504   3.198
 4189SOL    HW213467   1.212   3.445   3.193
 4190SOL     OW13468   2.136   6.154   1.449
 4190SOL    HW113469   2.174   6.246   1.447
 4190SOL    HW213470   2.063   6.149   1.517
 4191SOL     OW13471   0.337   2.021   3.997
 4191SOL    HW113472   0.420   2.004   3.945
 4191SOL    HW213473   0.297   2.108   3.968
 4192SOL     OW13474   6.053   6.043   3.559
 4192SOL    HW113475   5.965   6.008   3.527
 4192SOL    HW213476   6.093   6.101   3.488
 4193SOL     OW13477   1.600   6.538   3.808
 4193SOL    HW113478   1.525   6.538   3.874
 4193SOL    HW213479   1.682   6.577   3.851
 4194SOL     OW13480   4.880   0.270   3.299
 4194SOL    HW113481   4.843   0.229   3.383
 4194SOL    HW213482   4.978   0.252   3.294
 4195SOL     OW13483   4.486   0.540   2.875
 4195SOL    HW113484   4.532   0.603   2.938
 4195SOL    HW213485   4.551   0.511   2.804
 4196SOL     OW13486   5.288   2.236   3.726
 4196SOL    HW113487   5.263   2.139   3.725
 4196SOL    HW213488   5.261   2.279   3.640
 4197SOL     OW13489   5.591   4.681   4.626
 4197SOL    HW113490   5.600   4.729   4.538
 4197SOL    HW213491   5.594   4.748   4.700
 4198SOL     OW13492   6.237   3.378   6.032
 4198SOL    HW113493   6.210   3.287   6.065
 4198SOL    HW213494   6.337   3.383   6.028
 4199SOL     OW13495   2.836   4.059   6.101
 4199SOL    HW113496   2.826   3.998   6.022
 4199SOL    HW213497   2.746   4.080   6.138
 4200SOL     OW13498   2.744   0.223   5.167
 4200SOL    HW113499   2.678   0.164   5.212
 4200SOL    HW213500   2.697   0.284   5.103
 4201SOL     OW13501   6.451   6.767   4.614
 4201SOL    HW113502   6.399   6.794   4.532
 4201SOL    HW213503   6.415   6.681   4.649
 4202SOL     OW13504   5.767   3.338   4.903
 4202SOL    HW113505   5.807   3.418   4.948
 4202SOL    HW213506   5.760   3.263   4.968
 4203SOL     OW13507   3.014   5.456   4.435
 4203SOL    HW113508   2.993   5.383   4.500
 4203SOL    HW213509   2.988   5.428   4.343
 4204SOL     OW13510   1.687   3.804   0.205
 4204SOL    HW113511   1.699   3.763   0.295
 4204SOL    HW213512   1.691   3.732   0.135
 4205SOL     OW13513   2.029   6.931   3.814
 4205SOL    HW113514   2.028   6.874   3.897
 4205SOL    HW213515   1.960   7.003   3.822
 4206SOL     OW13516   4.664   6.463   2.968
 4206SOL    HW113517   4.593   6.411   3.015
 4206SOL    HW213518   4.622   6.526   2.902
 4207SOL     OW13519   2.373   6.568   6.770
 4207SOL    HW113520   2.287   6.534   6.731
 4207SOL    HW213521   2.353   6.626   6.849
 4208SOL     OW13522   0.738   1.687   2.191
 4208SOL    HW113523   0.833   1.702   2.218
 4208SOL    HW213524   0.688   1.645   2.266
 4209SOL     OW13525   2.109   0.809   5.614
 4209SOL    HW113526   2.086   0.713   5.601
 4209SOL    HW213527   2.196   0.829   5.570
 4210SOL     OW13528   3.386   3.785   6.944
 4210SOL    HW113529   3.432   3.873   6.929
 4210SOL    HW213530   3.360   3.747   6.855
 4211SOL     OW13531   6.879   3.370   4.297
 4211SOL    HW113532   6.947   3.326   4.355
 4211SOL    HW213533   6.885   3.469   4.308
 4212SOL     OW13534   5.535   6.479   0.929
 4212SOL    HW113535   5.518   6.566   0.976
 4212SOL    HW213536   5.600   6.495   0.854
 4213SOL     OW13537   1.058   0.833   1.300
 4213SOL    HW113538   0.992   0.908   1.305
 4213SOL    HW213539   1.145   0.863   1.339
 4214SOL     OW13540   3.918   5.300   3.565
 4214SOL    HW113541   3.990   5.276   3.631
 4214SOL    HW213542   3.889   5.395   3.581
 4215SOL     OW13543   1.953   5.728   7.008
 4215SOL    HW113544   1.893   5.714   6.929
 4215SOL    HW213545   1.969   5.826   7.020
 4216SOL     OW13546   2.177   2.713   5.488
 4216SOL    HW113547   2.132   2.709   5.577
 4216SOL    HW213548   2.129   2.779   5.430
 4217SOL     OW13549   6.245   1.044   4.373
 4217SOL    HW113550   6.284   0.965   4.420
 4217SOL    HW213551   6.317   1.096   4.329
 4218SOL     OW13552   2.972   5.599   2.102
 4218SOL    HW113553   3.039   5.583   2.030
 4218SOL    HW213554   3.015   5.589   2.192
 4219SOL     OW13555   5.121   0.639   2.308
 4219SOL    HW113556   5.116   0.738   2.318
 4219SOL    HW213557   5.202   0.615   2.255
 4220SOL     OW13558   1.132   4.672   3.165
 4220SOL    HW113559   1.081   4.627   3.238
 4220SOL    HW213560   1.191   4.742   3.204
 4221SOL     OW13561   5.483   5.967   5.883
 4221SOL    HW113562   5.395   5.920   5.890
 4221SOL    HW213563   5.557   5.900   5.890
 4222SOL     OW13564   2.001   3.116   0.363
 4222SOL    HW113565   2.003   3.074   0.454
 4222SOL    HW213566   2.012   3.045   0.293
 4223SOL     OW13567   3.885   4.018   2.763
 4223SOL    HW113568   3.822   3.958   2.811
 4223SOL    HW213569   3.970   3.969   2.744
 4224SOL     OW13570   3.358   2.304   5.372
 4224SOL    HW113571   3.314   2.348   5.294
 4224SOL    HW213572   3.300   2.311   5.453
 4225SOL     OW13573   4.953   6.098   4.176
 4225SOL    HW113574   5.032   6.158   4.165
 4225SOL    HW213575   4.909   6.116   4.264
 4226SOL     OW13576   2.580   2.036   1.934
 4226SOL    HW113577   2.655   2.069   1.992
 4226SOL    HW213578   2.521   1.975   1.987
 4227SOL     OW13579   5.613   3.644   0.152
 4227SOL    HW113580   5.710   3.629   0.131
 4227SOL    HW213581   5.591   3.603   0.240
 4228SOL     OW13582   4.404   6.085   3.047
 4228SOL    HW113583   4.482   6.040   3.089
 4228SOL    HW213584   4.413   6.184   3.059
 4229SOL     OW13585   4.453   4.670   4.478
 4229SOL    HW113586   4.499   4.750   4.515
 4229SOL    HW213587   4.362   4.695   4.447
 4230SOL     OW13588   1.989   1.011   4.485
 4230SOL    HW113589   1.931   1.087   4.515
 4230SOL    HW213590   2.014   0.954   4.564
 4231SOL     OW13591   3.628   6.748   6.864
 4231SOL    HW113592   3.587   6.716   6.949
 4231SOL    HW213593   3.717   6.791   6.884
 4232SOL     OW13594   2.140   3.881   1.864
 4232SOL    HW113595   2.131   3.854   1.959
 4232SOL    HW213596   2.161   3.802   1.807
 4233SOL     OW13597   4.296   4.453   0.906
 4233SOL    HW113598   4.230   4.378   0.912
 4233SOL    HW213599   4.384   4.424   0.944
 4234SOL     OW13600   3.631   4.028   6.238
 4234SOL    HW113601   3.616   4.016   6.140
 4234SOL    HW213602   3.620   3.941   6.284
 4235SOL     OW13603   0.487   3.383   4.972
 4235SOL    HW113604   0.571   3.437   4.981
 4235SOL    HW213605   0.445   3.400   4.884
 4236SOL     OW13606   0.983   3.052   3.913
 4236SOL    HW113607   0.943   2.982   3.854
 4236SOL    HW213608   0.945   3.043   4.005
 4237SOL     OW13609   5.284   3.379   5.326
 4237SOL    HW113610   5.240   3.466   5.302
 4237SOL    HW213611   5.382   3.386   5.309
 4238SOL     OW13612   4.845   4.604   4.981
 4238SOL    HW113613   4.794   4.635   5.061
 4238SOL    HW213614   4.942   4.618   4.996
 4239SOL     OW13615   5.723   4.663   5.492
 4239SOL    HW113616   5.804   4.603   5.494
 4239SOL    HW213617   5.699   4.683   5.398
 4240SOL     OW13618   2.773   4.427   5.631
 4240SOL    HW113619   2.799   4.339   5.671
 4240SOL    HW213620   2.734   4.486   5.703
 4241SOL     OW13621   3.219   2.532   0.103
 4241SOL    HW113622   3.313   2.510   0.076
 4241SOL    HW213623   3.221   2.606   0.170
 4242SOL     OW13624   2.686   0.251   1.351
 4242SOL    HW113625   2.706   0.154   1.359
 4242SOL    HW213626   2.606   0.274   1.408
 4243SOL     OW13627   1.890   1.450   1.934
 4243SOL    HW113628   1.814   1.418   1.877
 4243SOL    HW213629   1.892   1.398   2.020
 4244SOL     OW13630   2.708   0.063   0.078
 4244SOL    HW113631   2.632   0.053   0.014
 4244SOL    HW213632   2.719   0.160   0.102
 4245SOL     OW13633   6.761   1.806   1.623
 4245SOL    HW113634   6.849   1.839   1.656
 4245SOL    HW213635   6.698   1.798   1.700
 4246SOL     OW13636   3.166   1.950   3.025
 4246SOL    HW113637   3.229   1.915   2.956
 4246SOL    HW213638   3.072   1.931   2.997
 4247SOL     OW13639   2.354   4.792   6.047
 4247SOL    HW113640   2.349   4.798   6.147
 4247SOL    HW213641   2.443   4.754   6.020
 4248SOL     OW13642   2.793   6.190   1.246
 4248SOL    HW113643   2.796   6.228   1.338
 4248SOL    HW213644   2.785   6.264   1.179
 4249SOL     OW13645   6.549   1.073   5.265
 4249SOL    HW113646   6.531   0.997   5.327
 4249SOL    HW213647   6.589   1.038   5.180
 4250SOL     OW13648   1.066   5.762   4.619
 4250SOL    HW113649   1.017   5.788   4.702
 4250SOL    HW213650   1.008   5.705   4.562
 4251SOL     OW13651   4.864   1.593   6.130
 4251SOL    HW113652   4.860   1.620   6.034
 4251SOL    HW213653   4.780   1.545   6.154
 4252SOL     OW13654   0.783   6.452   6.833
 4252SOL    HW113655   0.818   6.399   6.756
 4252SOL    HW213656   0.701   6.502   6.805
 4253SOL     OW13657   2.712   6.551   2.470
 4253SOL    HW113658   2.761   6.481   2.522
 4253SOL    HW213659   2.729   6.539   2.373
 4254SOL     OW13660   0.918   1.152   3.898
 4254SOL    HW113661   0.858   1.203   3.960
 4254SOL    HW213662   0.951   1.214   3.826
 4255SOL     OW13663   2.018   2.986   4.661
 4255SOL    HW113664   2.096   2.976   4.600
 4255SOL    HW213665   2.007   3.082   4.686
 4256SOL     OW13666   6.192   6.451   1.038
 4256SOL    HW113667   6.120   6.469   0.972
 4256SOL    HW213668   6.260   6.389   0.999
 4257SOL     OW13669   0.278   1.282   2.712
 4257SOL    HW113670   0.339   1.356   2.683
 4257SOL    HW213671   0.312   1.242   2.798
 4258SOL     OW13672   2.476   6.563   0.339
 4258SOL    HW113673   2.393   6.578   0.394
 4258SOL    HW213674   2.450   6.528   0.249
 4259SOL     OW13675   1.666   0.753   0.830
 4259SOL    HW113676   1.599   0.810   0.782
 4259SOL    HW213677   1.702   0.803   0.909
 4260SOL     OW13678   0.169   0.481   5.648
 4260SOL    HW113679   0.108   0.428   5.707
 4260SOL    HW213680   0.135   0.574   5.640
 4261SOL     OW13681   1.650   0.036   3.186
 4261SOL    HW113682   1.626   0.075   3.275
 4261SOL    HW213683   1.571   7.012   3.148
 4262SOL     OW13684   1.085   3.583   5.178
 4262SOL    HW113685   1.149   3.608   5.105
 4262SOL    HW213686   1.034   3.501   5.151
 4263SOL     OW13687   3.013   0.334   2.380
 4263SOL    HW113688   3.098   0.305   2.337
 4263SOL    HW213689   2.936   0.319   2.318
 4264SOL     OW13690   4.292   1.926   6.650
 4264SOL    HW113691   4.323   1.899   6.559
 4264SOL    HW213692   4.299   2.026   6.659
 4265SOL     OW13693   3.514   5.683   5.998
 4265SOL    HW113694   3.603   5.724   6.020
 4265SOL    HW213695   3.478   5.637   6.079
 4266SOL     OW13696   1.548   3.676   2.461
 4266SOL    HW113697   1.503   3.765   2.460
 4266SOL    HW213698   1.595   3.661   2.374
 4267SOL     OW13699   1.359   3.680   3.102
 4267SOL    HW113700   1.329   3.775   3.107
 4267SOL    HW213701   1.283   3.619   3.124
 4268SOL     OW13702   0.851   4.381   4.603
 4268SOL    HW113703   0.865   4.339   4.693
 4268SOL    HW213704   0.753   4.387   4.583
 4269SOL     OW13705   2.798   1.813   4.412
 4269SOL    HW113706   2.703   1.841   4.398
 4269SOL    HW213707   2.858   1.873   4.359
 4270SOL     OW13708   3.763   4.309   0.958
 4270SOL    HW113709   3.789   4.215   0.981
 4270SOL    HW213710   3.809   4.373   1.019
 4271SOL     OW13711   5.918   6.230   6.863
 4271SOL    HW113712   5.928   6.312   6.806
 4271SOL    HW213713   5.912   6.258   6.959
 4272SOL     OW13714   6.355   1.903   5.833
 4272SOL    HW113715   6.381   1.820   5.882
 4272SOL    HW213716   6.389   1.898   5.739
 4273SOL     OW13717   3.826   6.383   3.492
 4273SOL    HW113718   3.729   6.360   3.503
 4273SOL    HW213719   3.879   6.300   3.478
 4274SOL     OW13720   5.903   0.902   2.037
 4274SOL    HW113721   5.808   0.934   2.043
 4274SOL    HW213722   5.912   0.817   2.088
 4275SOL     OW13723   5.917   1.565   4.380
 4275SOL    HW113724   5.988   1.616   4.332
 4275SOL    HW213725   5.861   1.516   4.312
 4276SOL     OW13726   2.225   0.237   3.043
 4276SOL    HW113727   2.135   0.238   3.000
 4276SOL    HW213728   2.286   0.179   2.991
 4277SOL     OW13729   6.213   4.939   2.884
 4277SOL    HW113730   6.195   4.842   2.899
 4277SOL    HW213731   6.150   4.993   2.940
 4278SOL     OW13732   0.256   0.003   1.652
 4278SOL    HW113733   0.350   6.994   1.667
 4278SOL    HW213734   0.235   0.075   1.718
 4279SOL     OW13735   0.823   3.520   3.015
 4279SOL    HW113736   0.856   3.509   3.109
 4279SOL    HW213737   0.840   3.435   2.964
 4280SOL     OW13738   2.253   0.476   5.794
 4280SOL    HW113739   2.336   0.532   5.789
 4280SOL    HW213740   2.276   0.380   5.777
 4281SOL     OW13741   6.632   6.777   2.851
 4281SOL    HW113742   6.709   6.773   2.788
 4281SOL    HW213743   6.663   6.757   2.944
 4282SOL     OW13744   5.548   4.977   2.224
 4282SOL    HW113745   5.532   5.071   2.195
 4282SOL    HW213746   5.465   4.923   2.209
 4283SOL     OW13747   0.322   2.329   5.465
 4283SOL    HW113748   0.334   2.247   5.408
 4283SOL    HW213749   0.225   2.341   5.486
 4284SOL     OW13750   4.696   6.224   6.905
 4284SOL    HW113751   4.719   6.174   6.989
 4284SOL    HW213752   4.763   6.202   6.834
 4285SOL     OW13753   3.242   1.556   5.822
 4285SOL    HW113754   3.224   1.578   5.726
 4285SOL    HW213755   3.254   1.640   5.874
 4286SOL     OW13756   5.286   6.825   6.607
 4286SOL    HW113757   5.345   6.753   6.643
 4286SOL    HW213758   5.202   6.785   6.570
 4287SOL     OW13759   5.220   0.401   0.881
 4287SOL    HW113760   5.152   0.347   0.929
 4287SOL    HW213761   5.193   0.497   0.882
 4288SOL     OW13762   6.164   6.301   2.655
 4288SOL    HW113763   6.200   6.334   2.742
 4288SOL    HW213764   6.239   6.283   2.592
 4289SOL     OW13765   0.304   5.496   5.816
 4289SOL    HW113766   0.231   5.496   5.885
 4289SOL    HW213767   0.372   5.427   5.839
 4290SOL     OW13768   0.132   0.713   3.041
 4290SOL    HW113769   0.141   0.635   2.978
 4290SOL    HW213770   0.078   0.785   2.997
 4291SOL     OW13771   4.864   4.976   5.501
 4291SOL    HW113772   4.922   4.917   5.557
 4291SOL    HW213773   4.781   4.999   5.552
 4292SOL     OW13774   6.099   0.389   6.712
 4292SOL    HW113775   6.101   0.372   6.811
 4292SOL    HW213776   6.179   0.347   6.669
 4293SOL     OW13777   4.343   2.064   6.155
 4293SOL    HW113778   4.270   2.060   6.224
 4293SOL    HW213779   4.398   1.981   6.160
 4294SOL     OW13780   2.539   1.948   7.002
 4294SOL    HW113781   2.564   1.947   6.905
 4294SOL    HW213782   2.537   1.855   0.013
 4295SOL     OW13783   3.715   6.990   2.825
 4295SOL    HW113784   3.779   7.004   2.750
 4295SOL    HW213785   3.734   6.902   2.870
 4296SOL     OW13786   1.818   5.069   1.953
 4296SOL    HW113787   1.858   5.062   1.862
 4296SOL    HW213788   1.793   5.164   1.971
 4297SOL     OW13789   5.046   4.081   6.747
 4297SOL    HW113790   5.043   4.144   6.670
 4297SOL    HW213791   5.134   4.089   6.793
 4298SOL     OW13792   1.362   6.221   0.337
 4298SOL    HW113793   1.425   6.279   0.286
 4298SOL    HW213794   1.313   6.161   0.274
 4299SOL     OW13795   0.059   4.257   7.006
 4299SOL    HW113796   0.140   4.307   0.010
 4299SOL    HW213797   0.058   4.249   6.906
 4300SOL     OW13798   3.558   0.816   2.241
 4300SOL    HW113799   3.465   0.834   2.275
 4300SOL    HW213800   3.553   0.784   2.147
 4301SOL     OW13801   2.510   5.462   3.798
 4301SOL    HW113802   2.603   5.449   3.762
 4301SOL    HW213803   2.503   5.421   3.889
 4302SOL     OW13804   3.272   4.887   6.717
 4302SOL    HW113805   3.352   4.938   6.749
 4302SOL    HW213806   3.226   4.846   6.796
 4303SOL     OW13807   4.748   5.558   3.326
 4303SOL    HW113808   4.665   5.546   3.380
 4303SOL    HW213809   4.777   5.653   3.330
 4304SOL     OW13810   2.581   4.493   1.202
 4304SOL    HW113811   2.508   4.546   1.158
 4304SOL    HW213812   2.623   4.547   1.275
 4305SOL     OW13813   0.934   6.766   6.296
 4305SOL    HW113814   0.862   6.829   6.263
 4305SOL    HW213815   0.970   6.714   6.219
 4306SOL     OW13816   6.707   4.722   4.974
 4306SOL    HW113817   6.628   4.732   4.914
 4306SOL    HW213818   6.683   4.666   5.053
 4307SOL     OW13819   6.862   1.917   4.749
 4307SOL    HW113820   6.924   1.996   4.755
 4307SOL    HW213821   6.913   1.833   4.765
 4308SOL     OW13822   4.606   5.954   6.685
 4308SOL    HW113823   4.685   5.976   6.629
 4308SOL    HW213824   4.540   6.029   6.680
 4309SOL     OW13825   2.158   1.567   0.689
 4309SOL    HW113826   2.118   1.517   0.766
 4309SOL    HW213827   2.168   1.505   0.612
 4310SOL     OW13828   5.706   0.815   4.818
 4310SOL    HW113829   5.737   0.801   4.913
 4310SOL    HW213830   5.606   0.820   4.816
 4311SOL     OW13831   0.338   0.140   0.475
 4311SOL    HW113832   0.415   0.200   0.455
 4311SOL    HW213833   0.307   0.095   0.391
 4312SOL     OW13834   0.352   2.973   3.444
 4312SOL    HW113835   0.361   3.069   3.417
 4312SOL    HW213836   0.365   2.966   3.543
 4313SOL     OW13837   1.007   2.928   0.674
 4313SOL    HW113838   1.077   2.991   0.642
 4313SOL    HW213839   0.943   2.909   0.599
 4314SOL     OW13840   2.407   1.667   6.255
 4314SOL    HW113841   2.320   1.619   6.262
 4314SOL    HW213842   2.466   1.619   6.189
 4315SOL     OW13843   3.179   2.262   5.572
 4315SOL    HW113844   3.180   2.272   5.671
 4315SOL    HW213845   3.092   2.297   5.536
 4316SOL     OW13846   4.960   4.338   1.038
 4316SOL    HW113847   4.950   4.412   1.105
 4316SOL    HW213848   4.930   4.252   1.079
 4317SOL     OW13849   4.799   0.328   2.920
 4317SOL    HW113850   4.750   0.348   2.835
 4317SOL    HW213851   4.754   0.252   2.967
 4318SOL     OW13852   2.280   5.874   3.648
 4318SOL    HW113853   2.346   5.803   3.670
 4318SOL    HW213854   2.203   5.835   3.599
 4319SOL     OW13855   2.360   5.002   0.203
 4319SOL    HW113856   2.272   4.982   0.246
 4319SOL    HW213857   2.428   4.936   0.236
 4320SOL     OW13858   4.832   1.395   1.820
 4320SOL    HW113859   4.929   1.414   1.802
 4320SOL    HW213860   4.805   1.439   1.906
 4321SOL     OW13861   0.189   6.321   3.621
 4321SOL    HW113862   0.270   6.377   3.604
 4321SOL    HW213863   0.116   6.380   3.655
 4322SOL     OW13864   2.772   2.362   3.045
 4322SOL    HW113865   2.728   2.398   2.964
 4322SOL    HW213866   2.841   2.294   3.018
 4323SOL     OW13867   5.790   4.041   2.339
 4323SOL    HW113868   5.709   4.062   2.283
 4323SOL    HW213869   5.853   3.985   2.285
 4324SOL     OW13870   6.341   3.880   5.043
 4324SOL    HW113871   6.334   3.934   5.127
 4324SOL    HW213872   6.272   3.807   5.045
 4325SOL     OW13873   1.320   0.189   0.292
 4325SOL    HW113874   1.318   0.105   0.237
 4325SOL    HW213875   1.237   0.242   0.274
 4326SOL     OW13876   5.452   2.768   2.703
 4326SOL    HW113877   5.371   2.711   2.714
 4326SOL    HW213878   5.434   2.838   2.634
 4327SOL     OW13879   3.423   6.753   3.833
 4327SOL    HW113880   3.499   6.712   3.783
 4327SOL    HW213881   3.406   6.699   3.916
 4328SOL     OW13882   5.484   0.521   1.473
 4328SOL    HW113883   5.462   0.456   1.400
 4328SOL    HW213884   5.442   0.610   1.452
 4329SOL     OW13885   6.462   3.682   0.795
 4329SOL    HW113886   6.553   3.721   0.786
 4329SOL    HW213887   6.413   3.727   0.870
 4330SOL     OW13888   2.671   6.593   5.384
 4330SOL    HW113889   2.636   6.502   5.362
 4330SOL    HW213890   2.731   6.624   5.310
 4331SOL     OW13891   5.636   1.299   2.827
 4331SOL    HW113892   5.651   1.275   2.922
 4331SOL    HW213893   5.710   1.260   2.771
 4332SOL     OW13894   7.003   6.629   1.497
 4332SOL    HW113895   6.903   6.639   1.504
 4332SOL    HW213896   0.022   6.668   1.578
 4333SOL     OW13897   3.192   2.889   5.598
 4333SOL    HW113898   3.223   2.963   5.656
 4333SOL    HW213899   3.097   2.866   5.622
 4334SOL     OW13900   1.035   2.204   3.960
 4334SOL    HW113901   0.989   2.219   4.048
 4334SOL    HW213902   1.111   2.141   3.973
 4335SOL     OW13903   2.444   2.381   1.672
 4335SOL    HW113904   2.380   2.317   1.714
 4335SOL    HW213905   2.395   2.441   1.609
 4336SOL     OW13906   2.350   5.998   4.598
 4336SOL    HW113907   2.393   5.956   4.678
 4336SOL    HW213908   2.251   5.998   4.610
 4337SOL     OW13909   0.185   4.483   3.824
 4337SOL    HW113910   0.261   4.417   3.813
 4337SOL    HW213911   0.212   4.571   3.785
 4338SOL     OW13912   3.172   3.431   4.963
 4338SOL    HW113913   3.226   3.350   4.940
 4338SOL    HW213914   3.076   3.416   4.937
 4339SOL     OW13915   3.869   3.382   5.254
 4339SOL    HW113916   3.919   3.303   5.218
 4339SOL    HW213917   3.924   3.428   5.324
 4340SOL     OW13918   6.567   3.894   0.340
 4340SOL    HW113919   6.484   3.950   0.340
 4340SOL    HW213920   6.633   3.933   0.404
 4341SOL     OW13921   5.405   0.045   1.252
 4341SOL    HW113922   5.496   0.078   1.225
 4341SOL    HW213923   5.372   0.097   1.331
 4342SOL     OW13924   5.191   3.767   2.341
 4342SOL    HW113925   5.114   3.800   2.288
 4342SOL    HW213926   5.175   3.785   2.438
 4343SOL     OW13927   5.033   6.746   6.579
 4343SOL    HW113928   4.949   6.800   6.592
 4343SOL    HW213929   5.055   6.698   6.663
 4344SOL     OW13930   1.325   4.140   2.401
 4344SOL    HW113931   1.263   4.202   2.450
 4344SOL    HW213932   1.369   4.189   2.327
 4345SOL     OW13933   3.744   3.558   2.202
 4345SOL    HW113934   3.765   3.493   2.130
 4345SOL    HW213935   3.741   3.510   2.290
 4346SOL     OW13936   1.222   3.035   1.415
 4346SOL    HW113937   1.247   3.107   1.480
 4346SOL    HW213938   1.147   3.066   1.358
 4347SOL     OW13939   5.999   6.233   0.650
 4347SOL    HW113940   5.967   6.161   0.712
 4347SOL    HW213941   5.921   6.282   0.613
 4348SOL     OW13942   6.883   4.696   6.168
 4348SOL    HW113943   6.878   4.674   6.266
 4348SOL    HW213944   6.790   4.704   6.132
 4349SOL     OW13945   0.499   3.856   3.686
 4349SOL    HW113946   0.417   3.911   3.703
 4349SOL    HW213947   0.580   3.906   3.716
 4350SOL     OW13948   5.401   0.250   3.985
 4350SOL    HW113949   5.376   0.307   4.063
 4350SOL    HW213950   5.352   0.283   3.904
 4351SOL     OW13951   0.472   6.785   2.039
 4351SOL    HW113952   0.568   6.778   2.012
 4351SOL    HW213953   0.441   6.697   2.075
 4352SOL     OW13954   4.575   4.457   0.977
 4352SOL    HW113955   4.625   4.535   0.940
 4352SOL    HW213956   4.598   4.446   1.074
 4353SOL     OW13957   2.017   3.760   0.483
 4353SOL    HW113958   1.923   3.777   0.451
 4353SOL    HW213959   2.069   3.845   0.479
 4354SOL     OW13960   6.353   4.100   2.877
 4354SOL    HW113961   6.390   4.184   2.837
 4354SOL    HW213962   6.370   4.024   2.815
 4355SOL     OW13963   2.110   5.018   4.445
 4355SOL    HW113964   2.046   5.000   4.520
 4355SOL    HW213965   2.162   5.101   4.465
 4356SOL     OW13966   5.880   1.343   5.462
 4356SOL    HW113967   5.929   1.424   5.491
 4356SOL    HW213968   5.943   1.281   5.414
 4357SOL     OW13969   4.814   5.983   2.400
 4357SOL    HW113970   4.756   5.912   2.358
 4357SOL    HW213971   4.860   6.034   2.328
 4358SOL     OW13972   3.328   0.465   1.356
 4358SOL    HW113973   3.375   0.448   1.270
 4358SOL    HW213974   3.393   0.453   1.432
 4359SOL     OW13975   2.885   3.945   1.416
 4359SOL    HW113976   2.891   4.000   1.333
 4359SOL    HW213977   2.820   3.870   1.402
 4360SOL     OW13978   3.402   6.891   3.570
 4360SOL    HW113979   3.402   6.838   3.655
 4360SOL    HW213980   3.357   6.979   3.585
 4361SOL     OW13981   1.835   0.356   6.411
 4361SOL    HW113982   1.895   0.337   6.488
 4361SOL    HW213983   1.856   0.293   6.336
 4362SOL     OW13984   6.673   5.190   1.666
 4362SOL    HW113985   6.701   5.271   1.615
 4362SOL    HW213986   6.732   5.112   1.641
 4363SOL     OW13987   4.863   0.920   2.539
 4363SOL    HW113988   4.810   1.003   2.520
 4363SOL    HW213989   4.804   0.854   2.587
 4364SOL     OW13990   3.733   3.205   3.192
 4364SOL    HW113991   3.679   3.205   3.277
 4364SOL    HW213992   3.814   3.148   3.205
 4365SOL     OW13993   2.477   0.665   0.914
 4365SOL    HW113994   2.507   0.757   0.886
 4365SOL    HW213995   2.387   0.646   0.874
 4366SOL     OW13996   5.037   5.041   5.097
 4366SOL    HW113997   5.104   4.968   5.080
 4366SOL    HW213998   5.083   5.121   5.135
 4367SOL     OW13999   1.437   6.974   1.431
 4367SOL    HW114000   1.400   6.882   1.441
 4367SOL    HW214001   1.517   6.972   1.372
 4368SOL     OW14002   4.967   4.974   4.385
 4368SOL    HW114003   4.937   5.007   4.475
 4368SOL    HW214004   5.043   5.030   4.353
 4369SOL     OW14005   6.509   4.135   3.758
 4369SOL    HW114006   6.470   4.141   3.666
 4369SOL    HW214007   6.492   4.044   3.796
 4370SOL     OW14008   5.289   4.397   1.532
 4370SOL    HW114009   5.228   4.382   1.454
 4370SOL    HW214010   5.334   4.311   1.556
 4371SOL     OW14011   3.333   0.485   3.280
 4371SOL    HW114012   3.237   0.502   3.257
 4371SOL    HW214013   3.390   0.506   3.201
 4372SOL     OW14014   1.871   4.558   5.590
 4372SOL    HW114015   1.801   4.534   5.522
 4372SOL    HW214016   1.961   4.552   5.547
 4373SOL     OW14017   3.771   0.923   1.007
 4373SOL    HW114018   3.759   0.917   0.908
 4373SOL    HW214019   3.869   0.916   1.029
 4374SOL     OW14020   1.597   6.348   0.282
 4374SOL    HW114021   1.671   6.288   0.312
 4374SOL    HW214022   1.591   6.426   0.343
 4375SOL     OW14023   4.550   0.759   5.619
 4375SOL    HW114024   4.563   0.836   5.557
 4375SOL    HW214025   4.547   0.792   5.714
 4376SOL     OW14026   2.004   4.617   6.634
 4376SOL    HW114027   2.013   4.521   6.609
 4376SOL    HW214028   1.910   4.647   6.618
 4377SOL     OW14029   5.118   5.645   0.172
 4377SOL    HW114030   5.018   5.639   0.174
 4377SOL    HW214031   5.146   5.741   0.176
 4378SOL     OW14032   3.006   5.256   1.389
 4378SOL    HW114033   2.947   5.193   1.339
 4378SOL    HW214034   3.101   5.244   1.358
 4379SOL     OW14035   5.295   6.376   1.028
 4379SOL    HW114036   5.392   6.397   1.021
 4379SOL    HW214037   5.243   6.460   1.044
 4380SOL     OW14038   1.620   6.077   4.666
 4380SOL    HW114039   1.556   6.136   4.615
 4380SOL    HW214040   1.671   6.132   4.731
 4381SOL     OW14041   3.709   6.270   4.994
 4381SOL    HW114042   3.614   6.295   4.974
 4381SOL    HW214043   3.711   6.180   5.038
 4382SOL     OW14044   5.809   3.083   3.357
 4382SOL    HW114045   5.767   3.031   3.283
 4382SOL    HW214046   5.741   3.101   3.427
 4383SOL     OW14047   0.969   6.828   6.784
 4383SOL    HW114048   0.996   6.922   6.762
 4383SOL    HW214049   0.960   6.775   6.699
 4384SOL     OW14050   3.647   0.293   1.741
 4384SOL    HW114051   3.717   0.223   1.725
 4384SOL    HW214052   3.620   0.291   1.837
 4385SOL     OW14053   5.651   2.677   4.666
 4385SOL    HW114054   5.616   2.769   4.649
 4385SOL    HW214055   5.589   2.610   4.626
 4386SOL     OW14056   2.110   5.238   0.368
 4386SOL    HW114057   2.109   5.335   0.394
 4386SOL    HW214058   2.160   5.228   0.281
 4387SOL     OW14059   6.747   2.755   0.868
 4387SOL    HW114060   6.819   2.703   0.913
 4387SOL    HW214061   6.784   2.798   0.785
 4388SOL     OW14062   3.316   0.976   5.594
 4388SOL    HW114063   3.335   0.973   5.692
 4388SOL    HW214064   3.244   0.909   5.573
 4389SOL     OW14065   1.351   3.498   2.482
 4389SOL    HW114066   1.416   3.574   2.471
 4389SOL    HW214067   1.332   3.458   2.392
 4390SOL     OW14068   5.059   3.736   0.867
 4390SOL    HW114069   5.051   3.819   0.812
 4390SOL    HW214070   4.977   3.679   0.853
 4391SOL     OW14071   0.422   5.860   1.748
 4391SOL    HW114072   0.517   5.881   1.725
 4391SOL    HW214073   0.412   5.853   1.847
 4392SOL     OW14074   5.207   6.046   4.562
 4392SOL    HW114075   5.244   5.954   4.552
 4392SOL    HW214076   5.122   6.043   4.615
 4393SOL     OW14077   5.270   6.763   2.584
 4393SOL    HW114078   5.188   6.744   2.638
 4393SOL    HW214079   5.346   6.787   2.644
 4394SOL     OW14080   4.698   1.601   2.936
 4394SOL    HW114081   4.684   1.502   2.934
 4394SOL    HW214082   4.796   1.621   2.950
 4395SOL     OW14083   5.270   3.148   1.332
 4395SOL    HW114084   5.358   3.135   1.285
 4395SOL    HW214085   5.239   3.060   1.369
 4396SOL     OW14086   2.120   0.405   1.789
 4396SOL    HW114087   2.067   0.339   1.842
 4396SOL    HW214088   2.095   0.398   1.693
 4397SOL     OW14089   4.220   2.672   0.767
 4397SOL    HW114090   4.137   2.728   0.772
 4397SOL    HW214091   4.195   2.577   0.749
 4398SOL     OW14092   0.449   5.545   5.108
 4398SOL    HW114093   0.436   5.601   5.027
 4398SOL    HW214094   0.416   5.452   5.090
 4399SOL     OW14095   2.328   6.911   1.316
 4399SOL    HW114096   2.389   6.832   1.317
 4399SOL    HW214097   2.370   6.984   1.262
 4400SOL     OW14098   3.650   5.292   2.619
 4400SOL    HW114099   3.740   5.272   2.581
 4400SOL    HW214100   3.643   5.257   2.712
 4401SOL     OW14101   4.635   6.400   5.026
 4401SOL    HW114102   4.592   6.380   4.938
 4401SOL    HW214103   4.565   6.421   5.093
 4402SOL     OW14104   0.489   6.472   0.871
 4402SOL    HW114105   0.494   6.376   0.842
 4402SOL    HW214106   0.455   6.527   0.795
 4403SOL     OW14107   6.574   1.607   3.354
 4403SOL    HW114108   6.602   1.529   3.299
 4403SOL    HW214109   6.653   1.646   3.400
 4404SOL     OW14110   1.459   3.727   2.848
 4404SOL    HW114111   1.543   3.675   2.862
 4404SOL    HW214112   1.406   3.729   2.933
 4405SOL     OW14113   3.260   3.840   6.719
 4405SOL    HW114114   3.206   3.889   6.787
 4405SOL    HW214115   3.338   3.896   6.691
 4406SOL     OW14116   6.613   2.500   3.339
 4406SOL    HW114117   6.695   2.545   3.375
 4406SOL    HW214118   6.546   2.489   3.413
 4407SOL     OW14119   0.887   1.085   0.506
 4407SOL    HW114120   0.853   1.162   0.452
 4407SOL    HW214121   0.975   1.054   0.468
 4408SOL     OW14122   4.755   6.203   1.042
 4408SOL    HW114123   4.773   6.297   1.069
 4408SOL    HW214124   4.841   6.156   1.022
 4409SOL     OW14125   3.486   1.475   2.970
 4409SOL    HW114126   3.415   1.528   2.923
 4409SOL    HW214127   3.447   1.435   3.053
 4410SOL     OW14128   2.245   5.220   0.122
 4410SOL    HW114129   2.283   5.252   0.035
 4410SOL    HW214130   2.287   5.133   0.147
 4411SOL     OW14131   3.450   2.864   1.677
 4411SOL    HW114132   3.391   2.787   1.700
 4411SOL    HW214133   3.428   2.942   1.736
 4412SOL     OW14134   2.760   1.331   6.661
 4412SOL    HW114135   2.680   1.318   6.603
 4412SOL    HW214136   2.823   1.395   6.617
 4413SOL     OW14137   3.939   6.102   4.127
 4413SOL    HW114138   3.995   6.044   4.186
 4413SOL    HW214139   3.916   6.187   4.174
 4414SOL     OW14140   3.410   4.236   1.703
 4414SOL    HW114141   3.498   4.234   1.656
 4414SOL    HW214142   3.414   4.177   1.784
 4415SOL     OW14143   5.237   1.352   1.954
 4415SOL    HW114144   5.221   1.392   1.863
 4415SOL    HW214145   5.150   1.351   2.004
 4416SOL     OW14146   2.684   2.217   5.384
 4416SOL    HW114147   2.765   2.258   5.342
 4416SOL    HW214148   2.688   2.118   5.376
 4417SOL     OW14149   4.980   1.204   1.468
 4417SOL    HW114150   4.990   1.115   1.423
 4417SOL    HW214151   5.052   1.215   1.536
 4418SOL     OW14152   4.165   0.554   2.882
 4418SOL    HW114153   4.255   0.594   2.864
 4418SOL    HW214154   4.174   0.456   2.897
 4419SOL     OW14155   6.558   5.353   6.461
 4419SOL    HW114156   6.608   5.298   6.528
 4419SOL    HW214157   6.486   5.405   6.507
 4420SOL     OW14158   5.386   1.464   0.872
 4420SOL    HW114159   5.345   1.523   0.941
 4420SOL    HW214160   5.423   1.382   0.916
 4421SOL     OW14161   1.125   1.587   3.395
 4421SOL    HW114162   1.145   1.642   3.476
 4421SOL    HW214163   1.048   1.526   3.414
 4422SOL     OW14164   1.857   4.147   5.834
 4422SOL    HW114165   1.876   4.089   5.755
 4422SOL    HW214166   1.918   4.123   5.909
 4423SOL     OW14167   0.665   2.225   6.187
 4423SOL    HW114168   0.649   2.293   6.115
 4423SOL    HW214169   0.663   2.271   6.276
 4424SOL     OW14170   2.099   5.393   3.015
 4424SOL    HW114171   2.119   5.488   3.037
 4424SOL    HW214172   2.180   5.337   3.035
 4425SOL     OW14173   5.466   4.001   3.048
 4425SOL    HW114174   5.473   3.954   2.960
 4425SOL    HW214175   5.470   4.100   3.033
 4426SOL     OW14176   0.256   6.354   6.821
 4426SOL    HW114177   0.239   6.296   6.741
 4426SOL    HW214178   0.291   6.443   6.791
 4427SOL     OW14179   0.469   5.089   3.724
 4427SOL    HW114180   0.521   5.050   3.648
 4427SOL    HW214181   0.388   5.033   3.742
 4428SOL     OW14182   1.589   0.077   2.159
 4428SOL    HW114183   1.510   0.131   2.131
 4428SOL    HW214184   1.577   0.046   2.253
 4429SOL     OW14185   1.930   6.666   1.072
 4429SOL    HW114186   1.979   6.627   1.150
 4429SOL    HW214187   1.878   6.595   1.026
 4430SOL     OW14188   1.822   0.677   2.423
 4430SOL    HW114189   1.807   0.582   2.452
 4430SOL    HW214190   1.808   0.738   2.501
 4431SOL     OW14191   2.461   1.698   2.331
 4431SOL    HW114192   2.507   1.648   2.404
 4431SOL    HW214193   2.432   1.634   2.260
 4432SOL     OW14194   3.751   3.861   5.047
 4432SOL    HW114195   3.652   3.873   5.039
 4432SOL    HW214196   3.771   3.764   5.062
 4433SOL     OW14197   4.963   6.719   1.261
 4433SOL    HW114198   4.949   6.769   1.176
 4433SOL    HW214199   5.043   6.756   1.309
 4434SOL     OW14200   5.787   2.413   5.909
 4434SOL    HW114201   5.797   2.357   5.826
 4434SOL    HW214202   5.695   2.400   5.947
 4435SOL     OW14203   3.559   2.510   1.729
 4435SOL    HW114204   3.613   2.582   1.774
 4435SOL    HW214205   3.565   2.426   1.783
 4436SOL     OW14206   5.773   6.863   6.900
 4436SOL    HW114207   5.742   6.794   6.835
 4436SOL    HW214208   5.873   6.865   6.902
 4437SOL     OW14209   2.901   0.131   5.569
 4437SOL    HW114210   2.975   0.176   5.519
 4437SOL    HW214211   2.932   0.110   5.662
 4438SOL     OW14212   4.025   2.003   0.252
 4438SOL    HW114213   4.049   2.013   0.156
 4438SOL    HW214214   4.042   2.089   0.300
 4439SOL     OW14215   0.701   5.306   2.914
 4439SOL    HW114216   0.703   5.214   2.874
 4439SOL    HW214217   0.792   5.347   2.906
 4440SOL     OW14218   6.502   1.767   6.919
 4440SOL    HW114219   6.519   1.783   7.016
 4440SOL    HW214220   6.492   1.854   6.871
 4441SOL     OW14221   6.048   0.839   4.351
 4441SOL    HW114222   6.050   0.811   4.447
 4441SOL    HW214223   6.086   0.931   4.342
 4442SOL     OW14224   1.839   5.848   1.527
 4442SOL    HW114225   1.856   5.926   1.587
 4442SOL    HW214226   1.746   5.813   1.542
 4443SOL     OW14227   1.299   1.242   1.613
 4443SOL    HW114228   1.254   1.295   1.541
 4443SOL    HW214229   1.240   1.237   1.693
 4444SOL     OW14230   5.208   2.018   2.867
 4444SOL    HW114231   5.224   2.055   2.776
 4444SOL    HW214232   5.291   1.974   2.901
 4445SOL     OW14233   1.356   2.197   6.000
 4445SOL    HW114234   1.258   2.209   6.017
 4445SOL    HW214235   1.403   2.178   6.086
 4446SOL     OW14236   6.348   5.572   3.867
 4446SOL    HW114237   6.300   5.660   3.868
 4446SOL    HW214238   6.437   5.583   3.824
 4447SOL     OW14239   4.946   3.796   4.909
 4447SOL    HW114240   4.916   3.715   4.959
 4447SOL    HW214241   4.897   3.802   4.822
 4448SOL     OW14242   2.303   3.005   6.476
 4448SOL    HW114243   2.301   2.997   6.376
 4448SOL    HW214244   2.277   2.918   6.517
 4449SOL     OW14245   0.379   1.739   5.468
 4449SOL    HW114246   0.443   1.662   5.470
 4449SOL    HW214247   0.292   1.710   5.508
 4450SOL     OW14248   3.743   3.108   2.788
 4450SOL    HW114249   3.722   3.043   2.861
 4450SOL    HW214250   3.783   3.059   2.711
 4451SOL     OW14251   0.489   5.502   1.380
 4451SOL    HW114252   0.454   5.584   1.426
 4451SOL    HW214253   0.440   5.488   1.294
 4452SOL     OW14254   0.671   3.777   6.140
 4452SOL    HW114255   0.671   3.677   6.138
 4452SOL    HW214256   0.664   3.813   6.047
 4453SOL     OW14257   5.603   1.501   0.536
 4453SOL    HW114258   5.651   1.415   0.516
 4453SOL    HW214259   5.660   1.557   0.596
 4454SOL     OW14260   6.047   3.500   2.670
 4454SOL    HW114261   5.977   3.442   2.626
 4454SOL    HW214262   6.127   3.506   2.611
 4455SOL     OW14263   5.053   2.875   2.562
 4455SOL    HW114264   5.097   2.888   2.651
 4455SOL    HW214265   5.116   2.828   2.500
 4456SOL     OW14266   6.952   5.458   2.623
 4456SOL    HW114267   6.893   5.528   2.664
 4456SOL    HW214268   7.018   5.426   2.691
 4457SOL     OW14269   4.360   2.571   6.267
 4457SOL    HW114270   4.436   2.507   6.273
 4457SOL    HW214271   4.296   2.553   6.343
 4458SOL     OW14272   4.622   1.963   1.390
 4458SOL    HW114273   4.603   1.985   1.486
 4458SOL    HW214274   4.536   1.942   1.343
 4459SOL     OW14275   6.757   5.222   6.969
 4459SOL    HW114276   6.776   5.315   6.937
 4459SOL    HW214277   6.749   5.222   0.044
 4460SOL     OW14278   1.310   6.978   0.141
 4460SOL    HW114279   1.210   6.981   0.128
 4460SOL    HW214280   1.334   6.899   0.197
 4461SOL     OW14281   1.927   0.099   3.236
 4461SOL    HW114282   1.977   0.098   3.149
 4461SOL    HW214283   1.831   0.075   3.221
 4462SOL     OW14284   0.517   2.683   1.216
 4462SOL    HW114285   0.508   2.772   1.171
 4462SOL    HW214286   0.490   2.692   1.312
 4463SOL     OW14287   0.802   4.012   6.424
 4463SOL    HW114288   0.793   4.087   6.490
 4463SOL    HW214289   0.717   4.002   6.373
 4464SOL     OW14290   6.778   3.777   0.761
 4464SOL    HW114291   6.844   3.808   0.692
 4464SOL    HW214292   6.827   3.750   0.844
 4465SOL     OW14293   5.540   4.756   1.316
 4465SOL    HW114294   5.549   4.778   1.413
 4465SOL    HW214295   5.569   4.834   1.261
 4466SOL     OW14296   6.961   3.103   4.134
 4466SOL    HW114297   0.001   3.178   4.149
 4466SOL    HW214298   6.916   3.115   4.045
 4467SOL     OW14299   1.587   0.316   4.494
 4467SOL    HW114300   1.543   0.342   4.408
 4467SOL    HW214301   1.523   0.328   4.569
 4468SOL     OW14302   1.035   1.429   0.541
 4468SOL    HW114303   0.958   1.408   0.481
 4468SOL    HW214304   1.001   1.476   0.623
 4469SOL     OW14305   4.934   6.580   0.257
 4469SOL    HW114306   4.990   6.542   0.183
 4469SOL    HW214307   4.932   6.517   0.334
 4470SOL     OW14308   4.796   4.567   1.553
 4470SOL    HW114309   4.769   4.663   1.559
 4470SOL    HW214310   4.893   4.558   1.577
 4471SOL     OW14311   6.250   2.293   1.702
 4471SOL    HW114312   6.185   2.356   1.659
 4471SOL    HW214313   6.215   2.200   1.695
 4472SOL     OW14314   2.470   5.080   1.390
 4472SOL    HW114315   2.473   5.177   1.367
 4472SOL    HW214316   2.541   5.059   1.456
 4473SOL     OW14317   5.448   0.673   6.874
 4473SOL    HW114318   5.485   0.747   6.818
 4473SOL    HW214319   5.454   0.698   6.971
 4474SOL     OW14320   6.887   1.767   5.635
 4474SOL    HW114321   6.832   1.760   5.718
 4474SOL    HW214322   6.840   1.825   5.568
 4475SOL     OW14323   1.633   4.301   0.977
 4475SOL    HW114324   1.637   4.240   1.056
 4475SOL    HW214325   1.542   4.296   0.935
 4476SOL     OW14326   3.038   6.560   2.447
 4476SOL    HW114327   2.967   6.495   2.476
 4476SOL    HW214328   3.087   6.523   2.368
 4477SOL     OW14329   1.281   1.834   1.076
 4477SOL    HW114330   1.345   1.814   1.002
 4477SOL    HW214331   1.332   1.848   1.162
 4478SOL     OW14332   1.017   4.501   0.382
 4478SOL    HW114333   1.056   4.427   0.437
 4478SOL    HW214334   1.056   4.588   0.411
 4479SOL     OW14335   0.456   5.794   6.102
 4479SOL    HW114336   0.363   5.784   6.136
 4479SOL    HW214337   0.473   5.724   6.032
 4480SOL     OW14338   6.845   3.217   3.196
 4480SOL    HW114339   6.834   3.187   3.290
 4480SOL    HW214340   6.773   3.178   3.139
 4481SOL     OW14341   0.643   0.665   3.553
 4481SOL    HW114342   0.548   0.686   3.577
 4481SOL    HW214343   0.685   0.610   3.625
 4482SOL     OW14344   0.437   4.303   3.583
 4482SOL    HW114345   0.454   4.222   3.638
 4482SOL    HW214346   0.340   4.308   3.561
 4483SOL     OW14347   6.841   4.213   0.925
 4483SOL    HW114348   6.803   4.248   0.839
 4483SOL    HW214349   6.797   4.126   0.947
 4484SOL     OW14350   3.962   3.321   6.545
 4484SOL    HW114351   3.991   3.416   6.535
 4484SOL    HW214352   3.959   3.298   6.642
 4485SOL     OW14353   4.283   6.589   5.585
 4485SOL    HW114354   4.257   6.612   5.491
 4485SOL    HW214355   4.358   6.648   5.614
 4486SOL     OW14356   6.033   3.553   4.688
 4486SOL    HW114357   6.022   3.454   4.676
 4486SOL    HW214358   5.964   3.601   4.634
 4487SOL     OW14359   3.560   3.152   6.151
 4487SOL    HW114360   3.635   3.203   6.192
 4487SOL    HW214361   3.577   3.141   6.053
 4488SOL     OW14362   0.343   2.486   6.575
 4488SOL    HW114363   0.255   2.522   6.544
 4488SOL    HW214364   0.331   2.392   6.608
 4489SOL     OW14365   0.858   2.535   4.111
 4489SOL    HW114366   0.864   2.435   4.105
 4489SOL    HW214367   0.835   2.572   4.021
 4490SOL     OW14368   6.819   1.725   3.406
 4490SOL    HW114369   6.890   1.661   3.374
 4490SOL    HW214370   6.785   1.777   3.328
 4491SOL     OW14371   2.559   5.443   2.043
 4491SOL    HW114372   2.481   5.407   1.992
 4491SOL    HW214373   2.638   5.451   1.982
 4492SOL     OW14374   5.776   3.741   4.888
 4492SOL    HW114375   5.848   3.708   4.826
 4492SOL    HW214376   5.769   3.840   4.881
 4493SOL     OW14377   6.074   4.887   3.775
 4493SOL    HW114378   6.043   4.834   3.854
 4493SOL    HW214379   6.017   4.969   3.766
 4494SOL     OW14380   5.135   3.194   2.204
 4494SOL    HW114381   5.172   3.202   2.296
 4494SOL    HW214382   5.040   3.163   2.209
 4495SOL     OW14383   6.073   4.513   2.357
 4495SOL    HW114384   6.026   4.425   2.347
 4495SOL    HW214385   6.028   4.567   2.428
 4496SOL     OW14386   6.106   3.632   6.080
 4496SOL    HW114387   6.158   3.555   6.043
 4496SOL    HW214388   6.049   3.671   6.009
 4497SOL     OW14389   5.820   0.220   0.709
 4497SOL    HW114390   5.748   0.276   0.667
 4497SOL    HW214391   5.788   0.126   0.720
 4498SOL     OW14392   1.428   4.747   6.574
 4498SOL    HW114393   1.517   4.707   6.552
 4498SOL    HW214394   1.385   4.694   6.648
 4499SOL     OW14395   5.925   3.960   0.126
 4499SOL    HW114396   5.955   3.892   0.058
 4499SOL    HW214397   5.836   3.934   0.162
 4500SOL     OW14398   3.544   3.826   1.981
 4500SOL    HW114399   3.629   3.808   2.031
 4500SOL    HW214400   3.479   3.753   1.997
 4501SOL     OW14401   1.309   5.439   5.008
 4501SOL    HW114402   1.378   5.510   4.996
 4501SOL    HW214403   1.313   5.375   4.931
 4502SOL     OW14404   5.824   2.826   0.663
 4502SOL    HW114405   5.732   2.842   0.699
 4502SOL    HW214406   5.837   2.881   0.580
 4503SOL     OW14407   0.909   4.315   2.523
 4503SOL    HW114408   0.823   4.360   2.552
 4503SOL    HW214409   0.888   4.233   2.471
 4504SOL     OW14410   5.208   1.942   4.356
 4504SOL    HW114411   5.238   2.010   4.423
 4504SOL    HW214412   5.209   1.982   4.264
 4505SOL     OW14413   2.489   5.964   6.661
 4505SOL    HW114414   2.533   5.884   6.702
 4505SOL    HW214415   2.502   6.043   6.721
 4506SOL     OW14416   2.991   6.040   5.636
 4506SOL    HW114417   2.937   6.093   5.701
 4506SOL    HW214418   2.939   6.030   5.551
 4507SOL     OW14419   6.360   4.299   2.662
 4507SOL    HW114420   6.290   4.242   2.619
 4507SOL    HW214421   6.434   4.315   2.597
 4508SOL     OW14422   1.852   4.750   1.111
 4508SOL    HW114423   1.887   4.714   1.025
 4508SOL    HW214424   1.791   4.682   1.153
 4509SOL     OW14425   0.384   2.495   4.051
 4509SOL    HW114426   0.438   2.568   4.010
 4509SOL    HW214427   0.366   2.515   4.147
 4510SOL     OW14428   2.801   0.265   0.276
 4510SOL    HW114429   2.802   0.252   0.375
 4510SOL    HW214430   2.708   0.288   0.247
 4511SOL     OW14431   0.582   2.473   0.726
 4511SOL    HW114432   0.514   2.525   0.777
 4511SOL    HW214433   0.627   2.533   0.660
 4512SOL     OW14434   2.004   3.855   0.922
 4512SOL    HW114435   2.027   3.952   0.915
 4512SOL    HW214436   2.051   3.804   0.850
 4513SOL     OW14437   6.574   2.076   2.368
 4513SOL    HW114438   6.505   2.130   2.415
 4513SOL    HW214439   6.665   2.113   2.388
 4514SOL     OW14440   1.649   7.010   4.789
 4514SOL    HW114441   1.658   0.039   4.704
 4514SOL    HW214442   1.554   7.010   4.819
 4515SOL     OW14443   0.119   4.003   0.156
 4515SOL    HW114444   0.133   4.098   0.128
 4515SOL    HW214445   0.167   3.987   0.243
 4516SOL     OW14446   0.089   6.962   3.594
 4516SOL    HW114447   0.117   0.031   3.570
 4516SOL    HW214448   0.060   6.959   3.689
 4517SOL     OW14449   2.611   0.660   6.950
 4517SOL    HW114450   2.709   0.662   6.967
 4517SOL    HW214451   2.572   0.751   6.966
 4518SOL     OW14452   1.337   0.992   3.341
 4518SOL    HW114453   1.408   0.922   3.351
 4518SOL    HW214454   1.284   0.998   3.425
 4519SOL     OW14455   0.282   2.476   4.909
 4519SOL    HW114456   0.196   2.485   4.858
 4519SOL    HW214457   0.263   2.447   5.002
 4520SOL     OW14458   6.960   4.090   3.676
 4520SOL    HW114459   0.006   4.161   3.668
 4520SOL    HW214460   6.951   4.062   3.772
 4521SOL     OW14461   4.830   1.220   6.246
 4521SOL    HW114462   4.749   1.229   6.189
 4521SOL    HW214463   4.836   1.298   6.308
 4522SOL     OW14464   4.561   6.816   3.295
 4522SOL    HW114465   4.633   6.806   3.364
 4522SOL    HW214466   4.567   6.908   3.255
 4523SOL     OW14467   5.082   1.565   6.298
 4523SOL    HW114468   5.004   1.551   6.237
 4523SOL    HW214469   5.161   1.516   6.261
 4524SOL     OW14470   5.726   1.900   5.386
 4524SOL    HW114471   5.645   1.841   5.385
 4524SOL    HW214472   5.792   1.866   5.319
 4525SOL     OW14473   6.907   1.750   4.130
 4525SOL    HW114474   6.968   1.805   4.187
 4525SOL    HW214475   6.819   1.797   4.121
 4526SOL     OW14476   2.462   2.142   0.990
 4526SOL    HW114477   2.390   2.199   1.032
 4526SOL    HW214478   2.491   2.184   0.904
 4527SOL     OW14479   4.492   0.262   2.535
 4527SOL    HW114480   4.541   0.258   2.447
 4527SOL    HW214481   4.397   0.290   2.518
 4528SOL     OW14482   4.439   6.899   6.820
 4528SOL    HW114483   4.399   6.951   6.744
 4528SOL    HW214484   4.381   6.909   6.901
 4529SOL     OW14485   3.125   0.164   3.887
 4529SOL    HW114486   3.162   0.246   3.930
 4529SOL    HW214487   3.025   0.170   3.885
 4530SOL     OW14488   6.693   1.997   4.551
 4530SOL    HW114489   6.750   2.047   4.485
 4530SOL    HW214490   6.751   1.963   4.626
 4531SOL     OW14491   6.757   4.048   3.050
 4531SOL    HW114492   6.857   4.043   3.052
 4531SOL    HW214493   6.719   3.979   3.111
 4532SOL     OW14494   0.431   2.028   0.534
 4532SOL    HW114495   0.391   1.969   0.465
 4532SOL    HW214496   0.385   2.014   0.622
 4533SOL     OW14497   3.273   6.522   1.532
 4533SOL    HW114498   3.330   6.446   1.564
 4533SOL    HW214499   3.193   6.486   1.484
 4534SOL     OW14500   6.551   4.484   6.684
 4534SOL    HW114501   6.543   4.582   6.666
 4534SOL    HW214502   6.459   4.444   6.689
 4535SOL     OW14503   4.566   1.697   2.274
 4535SOL    HW114504   4.578   1.644   2.358
 4535SOL    HW214505   4.593   1.642   2.195
 4536SOL     OW14506   6.733   0.155   3.397
 4536SOL    HW114507   6.707   0.213   3.319
 4536SOL    HW214508   6.740   0.211   3.479
 4537SOL     OW14509   4.936   3.353   5.651
 4537SOL    HW114510   4.977   3.374   5.740
 4537SOL    HW214511   5.002   3.300   5.597
 4538SOL     OW14512   3.143   1.895   1.335
 4538SOL    HW114513   3.082   1.916   1.412
 4538SOL    HW214514   3.092   1.848   1.264
 4539SOL     OW14515   2.846   4.304   0.788
 4539SOL    HW114516   2.932   4.255   0.807
 4539SOL    HW214517   2.837   4.381   0.851
 4540SOL     OW14518   3.347   3.069   3.865
 4540SOL    HW114519   3.358   3.112   3.954
 4540SOL    HW214520   3.250   3.060   3.844
 4541SOL     OW14521   6.065   1.761   1.409
 4541SOL    HW114522   6.164   1.778   1.405
 4541SOL    HW214523   6.049   1.663   1.422
 4542SOL     OW14524   5.707   6.198   3.614
 4542SOL    HW114525   5.777   6.142   3.569
 4542SOL    HW214526   5.680   6.272   3.552
 4543SOL     OW14527   5.004   2.658   2.843
 4543SOL    HW114528   4.961   2.648   2.933
 4543SOL    HW214529   4.960   2.734   2.794
 4544SOL     OW14530   5.769   4.322   0.480
 4544SOL    HW114531   5.851   4.340   0.425
 4544SOL    HW214532   5.797   4.293   0.572
 4545SOL     OW14533   5.073   3.744   0.550
 4545SOL    HW114534   5.031   3.671   0.604
 4545SOL    HW214535   5.143   3.705   0.490
 4546SOL     OW14536   1.071   6.031   0.725
 4546SOL    HW114537   1.079   6.130   0.727
 4546SOL    HW214538   1.002   6.004   0.657
 4547SOL     OW14539   4.121   1.674   2.526
 4547SOL    HW114540   4.096   1.586   2.566
 4547SOL    HW214541   4.180   1.660   2.446
 4548SOL     OW14542   1.773   2.976   4.519
 4548SOL    HW114543   1.741   3.011   4.431
 4548SOL    HW214544   1.851   3.030   4.550
 4549SOL     OW14545   6.128   1.741   3.249
 4549SOL    HW114546   6.159   1.683   3.173
 4549SOL    HW214547   6.030   1.729   3.262
 4550SOL     OW14548   1.988   5.588   5.431
 4550SOL    HW114549   2.016   5.544   5.516
 4550SOL    HW214550   2.062   5.647   5.399
 4551SOL     OW14551   6.219   3.507   0.939
 4551SOL    HW114552   6.135   3.465   0.904
 4551SOL    HW214553   6.239   3.590   0.887
 4552SOL     OW14554   6.966   3.841   5.430
 4552SOL    HW114555   0.013   3.898   5.389
 4552SOL    HW214556   6.878   3.862   5.386
 4553SOL     OW14557   4.953   5.409   0.399
 4553SOL    HW114558   4.877   5.467   0.368
 4553SOL    HW214559   4.916   5.322   0.433
 4554SOL     OW14560   6.022   5.597   3.844
 4554SOL    HW114561   5.979   5.667   3.901
 4554SOL    HW214562   6.044   5.634   3.755
 4555SOL     OW14563   3.817   2.634   6.909
 4555SOL    HW114564   3.885   2.654   6.980
 4555SOL    HW214565   3.768   2.717   6.885
 4556SOL     OW14566   3.707   0.776   4.487
 4556SOL    HW114567   3.713   0.845   4.416
 4556SOL    HW214568   3.794   0.725   4.492
 4557SOL     OW14569   5.357   0.629   3.696
 4557SOL    HW114570   5.325   0.628   3.790
 4557SOL    HW214571   5.292   0.678   3.639
 4558SOL     OW14572   0.553   4.386   0.434
 4558SOL    HW114573   0.566   4.298   0.479
 4558SOL    HW214574   0.622   4.398   0.363
 4559SOL     OW14575   1.447   6.941   1.121
 4559SOL    HW114576   1.515   6.926   1.193
 4559SOL    HW214577   1.357   6.951   1.162
 4560SOL     OW14578   6.411   2.057   4.558
 4560SOL    HW114579   6.505   2.021   4.564
 4560SOL    HW214580   6.379   2.050   4.464
 4561SOL     OW14581   2.626   6.104   6.464
 4561SOL    HW114582   2.577   6.048   6.531
 4561SOL    HW214583   2.563   6.170   6.424
 4562SOL     OW14584   3.122   3.960   5.325
 4562SOL    HW114585   3.083   4.053   5.331
 4562SOL    HW214586   3.085   3.914   5.244
 4563SOL     OW14587   5.311   2.786   6.647
 4563SOL    HW114588   5.240   2.753   6.584
 4563SOL    HW214589   5.306   2.734   6.732
 4564SOL     OW14590   6.698   5.844   0.951
 4564SOL    HW114591   6.781   5.899   0.956
 4564SOL    HW214592   6.626   5.887   1.004
 4565SOL     OW14593   4.683   0.844   4.521
 4565SOL    HW114594   4.627   0.774   4.478
 4565SOL    HW214595   4.770   0.805   4.552
 4566SOL     OW14596   1.857   0.553   1.496
 4566SOL    HW114597   1.783   0.579   1.558
 4566SOL    HW214598   1.842   0.597   1.407
 4567SOL     OW14599   6.252   2.636   0.616
 4567SOL    HW114600   6.181   2.686   0.664
 4567SOL    HW214601   6.339   2.648   0.663
 4568SOL     OW14602   4.676   4.997   3.822
 4568SOL    HW114603   4.725   4.959   3.901
 4568SOL    HW214604   4.665   4.925   3.753
 4569SOL     OW14605   2.409   0.743   3.135
 4569SOL    HW114606   2.340   0.672   3.119
 4569SOL    HW214607   2.364   0.833   3.136
 4570SOL     OW14608   4.834   6.182   4.715
 4570SOL    HW114609   4.783   6.134   4.786
 4570SOL    HW214610   4.918   6.219   4.754
 4571SOL     OW14611   4.129   3.450   4.006
 4571SOL    HW114612   4.178   3.434   3.920
 4571SOL    HW214613   4.041   3.403   4.003
 4572SOL     OW14614   2.373   4.454   1.546
 4572SOL    HW114615   2.418   4.485   1.630
 4572SOL    HW214616   2.338   4.534   1.497
 4573SOL     OW14617   5.027   6.627   1.654
 4573SOL    HW114618   4.942   6.618   1.601
 4573SOL    HW214619   5.004   6.631   1.751
 4574SOL     OW14620   6.995   4.631   1.829
 4574SOL    HW114621   6.931   4.695   1.874
 4574SOL    HW214622   0.015   4.677   1.753
 4575SOL     OW14623   6.222   5.840   1.585
 4575SOL    HW114624   6.280   5.867   1.662
 4575SOL    HW214625   6.200   5.742   1.593
 4576SOL     OW14626   3.619   5.979   4.341
 4576SOL    HW114627   3.537   6.029   4.367
 4576SOL    HW214628   3.700   6.031   4.369
 4577SOL     OW14629   2.637   5.400   2.835
 4577SOL    HW114630   2.597   5.420   2.925
 4577SOL    HW214631   2.723   5.351   2.847
 4578SOL     OW14632   6.201   6.280   3.430
 4578SOL    HW114633   6.205   6.345   3.506
 4578SOL    HW214634   6.289   6.233   3.422
 4579SOL     OW14635   4.969   1.670   2.933
 4579SOL    HW114636   4.963   1.758   2.981
 4579SOL    HW214637   5.041   1.615   2.975
 4580SOL     OW14638   0.823   4.843   0.789
 4580SOL    HW114639   0.747   4.787   0.821
 4580SOL    HW214640   0.891   4.853   0.862
 4581SOL     OW14641   2.709   5.475   4.916
 4581SOL    HW114642   2.777   5.415   4.874
 4581SOL    HW214643   2.744   5.569   4.915
 4582SOL     OW14644   4.690   5.770   2.274
 4582SOL    HW114645   4.763   5.764   2.206
 4582SOL    HW214646   4.693   5.688   2.332
 4583SOL     OW14647   4.154   6.914   4.843
 4583SOL    HW114648   4.213   6.951   4.914
 4583SOL    HW214649   4.072   6.874   4.885
 4584SOL     OW14650   0.101   5.001   5.372
 4584SOL    HW114651   0.183   4.963   5.416
 4584SOL    HW214652   0.071   4.938   5.300
 4585SOL     OW14653   3.036   6.652   1.987
 4585SOL    HW114654   3.131   6.683   1.999
 4585SOL    HW214655   2.974   6.726   2.012
 4586SOL     OW14656   1.548   6.577   1.686
 4586SOL    HW114657   1.512   6.550   1.597
 4586SOL    HW214658   1.618   6.511   1.715
 4587SOL     OW14659   3.723   4.617   1.221
 4587SOL    HW114660   3.688   4.580   1.135
 4587SOL    HW214661   3.815   4.653   1.207
 4588SOL     OW14662   3.726   3.596   4.739
 4588SOL    HW114663   3.655   3.564   4.801
 4588SOL    HW214664   3.701   3.686   4.704
 4589SOL     OW14665   2.516   1.921   3.572
 4589SOL    HW114666   2.521   1.897   3.476
 4589SOL    HW214667   2.449   1.995   3.585
 4590SOL     OW14668   3.683   6.988   2.312
 4590SOL    HW114669   3.595   6.995   2.359
 4590SOL    HW214670   3.670   7.007   2.214
 4591SOL     OW14671   5.070   5.677   4.495
 4591SOL    HW114672   4.981   5.633   4.498
 4591SOL    HW214673   5.096   5.695   4.400
 4592SOL     OW14674   3.565   2.263   6.683
 4592SOL    HW114675   3.485   2.207   6.663
 4592SOL    HW214676   3.648   2.211   6.663
 4593SOL     OW14677   5.219   5.301   1.550
 4593SOL    HW114678   5.136   5.336   1.508
 4593SOL    HW214679   5.208   5.203   1.570
 4594SOL     OW14680   4.733   2.111   2.816
 4594SOL    HW114681   4.673   2.051   2.763
 4594SOL    HW214682   4.828   2.092   2.792
 4595SOL     OW14683   4.015   3.165   5.168
 4595SOL    HW114684   4.080   3.235   5.137
 4595SOL    HW214685   4.037   3.138   5.262
 4596SOL     OW14686   4.839   1.098   2.103
 4596SOL    HW114687   4.797   1.075   2.015
 4596SOL    HW214688   4.776   1.155   2.155
 4597SOL     OW14689   7.014   3.568   6.317
 4597SOL    HW114690   0.025   3.507   6.245
 4597SOL    HW214691   7.003   3.517   6.402
 4598SOL     OW14692   2.744   4.047   0.691
 4598SOL    HW114693   2.746   3.974   0.760
 4598SOL    HW214694   2.783   4.130   0.730
 4599SOL     OW14695   2.923   5.107   1.017
 4599SOL    HW114696   2.840   5.110   0.961
 4599SOL    HW214697   2.970   5.020   1.001
 4600SOL     OW14698   2.392   3.493   0.951
 4600SOL    HW114699   2.399   3.589   0.925
 4600SOL    HW214700   2.333   3.445   0.886
 4601SOL     OW14701   1.730   5.258   3.296
 4601SOL    HW114702   1.784   5.324   3.349
 4601SOL    HW214703   1.651   5.304   3.255
 4602SOL     OW14704   0.663   0.212   1.968
 4602SOL    HW114705   0.738   0.257   2.018
 4602SOL    HW214706   0.612   0.281   1.917
 4603SOL     OW14707   2.206   1.225   1.413
 4603SOL    HW114708   2.200   1.321   1.387
 4603SOL    HW214709   2.229   1.218   1.510
 4604SOL     OW14710   0.951   6.893   3.615
 4604SOL    HW114711   1.015   6.937   3.678
 4604SOL    HW214712   0.951   6.794   3.630
 4605SOL     OW14713   5.532   6.425   5.690
 4605SOL    HW114714   5.484   6.511   5.710
 4605SOL    HW214715   5.631   6.441   5.694
 4606SOL     OW14716   6.474   6.179   4.007
 4606SOL    HW114717   6.566   6.168   3.970
 4606SOL    HW214718   6.474   6.255   4.073
 4607SOL     OW14719   2.584   3.196   6.925
 4607SOL    HW114720   2.491   3.188   6.891
 4607SOL    HW214721   2.591   3.274   6.987
 4608SOL     OW14722   1.666   3.953   5.894
 4608SOL    HW114723   1.646   3.923   5.801
 4608SOL    HW214724   1.756   3.997   5.897
 4609SOL     OW14725   3.728   0.112   0.087
 4609SOL    HW114726   3.740   0.134   7.014
 4609SOL    HW214727   3.664   0.176   0.128
 4610SOL     OW14728   6.695   3.416   0.375
 4610SOL    HW114729   6.635   3.493   0.356
 4610SOL    HW214730   6.719   3.414   0.472
 4611SOL     OW14731   1.609   5.277   5.645
 4611SOL    HW114732   1.581   5.364   5.685
 4611SOL    HW214733   1.681   5.293   5.578
 4612SOL     OW14734   1.180   0.447   6.744
 4612SOL    HW114735   1.207   0.409   6.832
 4612SOL    HW214736   1.251   0.508   6.710
 4613SOL     OW14737   4.235   4.675   1.213
 4613SOL    HW114738   4.220   4.578   1.193
 4613SOL    HW214739   4.319   4.685   1.267
 4614SOL     OW14740   1.494   3.954   0.805
 4614SOL    HW114741   1.574   4.004   0.771
 4614SOL    HW214742   1.516   3.910   0.892
 4615SOL     OW14743   5.566   3.116   6.745
 4615SOL    HW114744   5.479   3.122   6.696
 4615SOL    HW214745   5.637   3.164   6.693
 4616SOL     OW14746   5.637   0.515   6.616
 4616SOL    HW114747   5.579   0.523   6.536
 4616SOL    HW214748   5.714   0.578   6.609
 4617SOL     OW14749   0.215   4.269   1.829
 4617SOL    HW114750   0.268   4.352   1.846
 4617SOL    HW214751   0.235   4.202   1.900
 4618SOL     OW14752   1.642   2.796   6.738
 4618SOL    HW114753   1.572   2.865   6.720
 4618SOL    HW214754   1.614   2.739   6.815
 4619SOL     OW14755   4.799   1.081   4.358
 4619SOL    HW114756   4.769   0.997   4.404
 4619SOL    HW214757   4.823   1.149   4.426
 4620SOL     OW14758   1.751   5.455   0.739
 4620SOL    HW114759   1.741   5.438   0.641
 4620SOL    HW214760   1.747   5.369   0.789
 4621SOL     OW14761   6.622   0.836   0.131
 4621SOL    HW114762   6.598   0.773   0.205
 4621SOL    HW214763   6.582   0.926   0.150
 4622SOL     OW14764   1.414   4.443   0.632
 4622SOL    HW114765   1.383   4.538   0.635
 4622SOL    HW214766   1.506   4.439   0.593
 4623SOL     OW14767   6.831   4.086   4.204
 4623SOL    HW114768   6.852   3.989   4.213
 4623SOL    HW214769   6.741   4.105   4.244
 4624SOL     OW14770   4.261   6.603   6.248
 4624SOL    HW114771   4.316   6.673   6.204
 4624SOL    HW214772   4.307   6.571   6.331
 4625SOL     OW14773   0.247   4.274   6.465
 4625SOL    HW114774   0.253   4.215   6.546
 4625SOL    HW214775   0.280   4.224   6.385
 4626SOL     OW14776   6.788   4.730   2.191
 4626SOL    HW114777   6.808   4.754   2.096
 4626SOL    HW214778   6.840   4.648   2.216
 4627SOL     OW14779   2.052   6.754   4.008
 4627SOL    HW114780   2.112   6.830   4.031
 4627SOL    HW214781   2.009   6.718   4.091
 4628SOL     OW14782   6.660   2.869   2.361
 4628SOL    HW114783   6.697   2.935   2.296
 4628SOL    HW214784   6.651   2.780   2.317
 4629SOL     OW14785   4.294   5.755   4.227
 4629SOL    HW114786   4.267   5.660   4.215
 4629SOL    HW214787   4.330   5.791   4.141
 4630SOL     OW14788   2.551   5.936   2.553
 4630SOL    HW114789   2.531   6.011   2.490
 4630SOL    HW214790   2.530   5.849   2.509
 4631SOL     OW14791   1.481   0.398   2.363
 4631SOL    HW114792   1.440   0.392   2.272
 4631SOL    HW214793   1.520   0.309   2.387
 4632SOL     OW14794   5.872   5.923   4.221
 4632SOL    HW114795   5.956   5.933   4.274
 4632SOL    HW214796   5.794   5.957   4.275
 4633SOL     OW14797   4.533   3.588   6.199
 4633SOL    HW114798   4.553   3.492   6.181
 4633SOL    HW214799   4.436   3.606   6.184
 4634SOL     OW14800   2.153   3.585   0.305
 4634SOL    HW114801   2.098   3.519   0.254
 4634SOL    HW214802   2.093   3.640   0.363
 4635SOL     OW14803   4.520   2.979   1.389
 4635SOL    HW114804   4.561   3.029   1.465
 4635SOL    HW214805   4.530   2.881   1.403
 4636SOL     OW14806   0.893   5.823   1.571
 4636SOL    HW114807   0.929   5.916   1.583
 4636SOL    HW214808   0.928   5.785   1.486
 4637SOL     OW14809   0.545   1.044   5.760
 4637SOL    HW114810   0.567   0.998   5.675
 4637SOL    HW214811   0.627   1.050   5.817
 4638SOL     OW14812   4.553   4.558   5.789
 4638SOL    HW114813   4.506   4.471   5.775
 4638SOL    HW214814   4.522   4.598   5.876
 4639SOL     OW14815   0.129   2.379   5.788
 4639SOL    HW114816   0.058   2.324   5.744
 4639SOL    HW214817   0.097   2.407   5.879
 4640SOL     OW14818   0.436   5.844   3.395
 4640SOL    HW114819   0.502   5.882   3.460
 4640SOL    HW214820   0.457   5.748   3.379
 4641SOL     OW14821   2.413   3.776   5.322
 4641SOL    HW114822   2.496   3.724   5.345
 4641SOL    HW214823   2.439   3.856   5.267
 4642SOL     OW14824   5.995   5.245   4.719
 4642SOL    HW114825   5.898   5.263   4.739
 4642SOL    HW214826   6.045   5.232   4.804
 4643SOL     OW14827   4.512   3.784   1.209
 4643SOL    HW114828   4.578   3.766   1.136
 4643SOL    HW214829   4.554   3.766   1.298
 4644SOL     OW14830   3.729   5.249   5.340
 4644SOL    HW114831   3.745   5.342   5.373
 4644SOL    HW214832   3.646   5.213   5.384
 4645SOL     OW14833   1.858   5.967   4.566
 4645SOL    HW114834   1.852   5.871   4.541
 4645SOL    HW214835   1.767   6.001   4.590
 4646SOL     OW14836   3.505   1.428   0.995
 4646SOL    HW114837   3.480   1.512   0.947
 4646SOL    HW214838   3.446   1.416   1.075
 4647SOL     OW14839   5.958   0.129   5.346
 4647SOL    HW114840   5.890   0.196   5.378
 4647SOL    HW214841   6.040   0.177   5.316
 4648SOL     OW14842   2.518   6.274   3.331
 4648SOL    HW114843   2.464   6.349   3.294
 4648SOL    HW214844   2.457   6.203   3.366
 4649SOL     OW14845   5.637   5.075   6.129
 4649SOL    HW114846   5.590   5.127   6.058
 4649SOL    HW214847   5.601   5.102   6.219
 4650SOL     OW14848   6.624   5.625   1.735
 4650SOL    HW114849   6.599   5.615   1.831
 4650SOL    HW214850   6.559   5.573   1.679
 4651SOL     OW14851   6.019   2.328   0.822
 4651SOL    HW114852   5.959   2.257   0.858
 4651SOL    HW214853   5.973   2.376   0.747
 4652SOL     OW14854   0.602   6.413   5.424
 4652SOL    HW114855   0.545   6.331   5.422
 4652SOL    HW214856   0.545   6.494   5.412
 4653SOL     OW14857   2.114   4.736   0.279
 4653SOL    HW114858   2.081   4.795   0.352
 4653SOL    HW214859   2.099   4.780   0.191
 4654SOL     OW14860   1.966   1.522   0.236
 4654SOL    HW114861   1.984   1.554   0.329
 4654SOL    HW214862   1.980   1.597   0.172
 4655SOL     OW14863   0.109   4.854   5.145
 4655SOL    HW114864   0.184   4.916   5.123
 4655SOL    HW214865   0.121   4.769   5.094
 4656SOL     OW14866   1.929   6.800   2.661
 4656SOL    HW114867   1.989   6.827   2.736
 4656SOL    HW214868   1.945   6.705   2.637
 4657SOL     OW14869   6.377   0.918   5.923
 4657SOL    HW114870   6.450   0.849   5.926
 4657SOL    HW214871   6.393   0.986   5.995
 4658SOL     OW14872   5.269   6.788   3.759
 4658SOL    HW114873   5.271   6.757   3.855
 4658SOL    HW214874   5.360   6.821   3.733
 4659SOL     OW14875   1.683   3.597   3.588
 4659SOL    HW114876   1.747   3.527   3.557
 4659SOL    HW214877   1.610   3.608   3.520
 4660SOL     OW14878   0.008   1.205   5.601
 4660SOL    HW114879   0.020   1.294   5.644
 4660SOL    HW214880   6.954   1.209   5.538
 4661SOL     OW14881   3.437   2.877   3.627
 4661SOL    HW114882   3.522   2.880   3.576
 4661SOL    HW214883   3.438   2.948   3.698
 4662SOL     OW14884   6.690   6.631   4.650
 4662SOL    HW114885   6.619   6.700   4.657
 4662SOL    HW214886   6.666   6.552   4.707
 4663SOL     OW14887   0.680   1.487   2.873
 4663SOL    HW114888   0.632   1.401   2.891
 4663SOL    HW214889   0.766   1.488   2.924
 4664SOL     OW14890   3.445   5.217   0.023
 4664SOL    HW114891   3.472   5.258   0.109
 4664SOL    HW214892   3.390   5.283   6.994
 4665SOL     OW14893   5.125   0.833   6.330
 4665SOL    HW114894   5.066   0.907   6.363
 4665SOL    HW214895   5.071   0.748   6.326
 4666SOL     OW14896   1.958   1.119   0.786
 4666SOL    HW114897   1.894   1.186   0.751
 4666SOL    HW214898   1.994   1.064   0.710
 4667SOL     OW14899   0.158   5.975   3.937
 4667SOL    HW114900   0.190   5.985   3.843
 4667SOL    HW214901   0.234   5.950   3.996
 4668SOL     OW14902   5.806   0.801   5.062
 4668SOL    HW114903   5.761   0.719   5.095
 4668SOL    HW214904   5.776   0.879   5.117
 4669SOL     OW14905   2.381   2.191   2.156
 4669SOL    HW114906   2.403   2.101   2.195
 4669SOL    HW214907   2.465   2.240   2.135
 4670SOL     OW14908   2.693   2.379   5.033
 4670SOL    HW114909   2.785   2.371   5.072
 4670SOL    HW214910   2.684   2.317   4.955
 4671SOL     OW14911   0.097   1.984   2.901
 4671SOL    HW114912   0.112   2.034   2.816
 4671SOL    HW214913   0.028   2.030   2.956
 4672SOL     OW14914   2.981   2.408   5.483
 4672SOL    HW114915   3.033   2.493   5.495
 4672SOL    HW214916   2.907   2.424   5.418
 4673SOL     OW14917   5.606   7.022   2.139
 4673SOL    HW114918   5.585   0.034   2.229
 4673SOL    HW214919   5.703   6.996   2.135
 4674SOL     OW14920   4.852   0.082   6.388
 4674SOL    HW114921   4.756   0.055   6.392
 4674SOL    HW214922   4.874   0.111   6.295
 4675SOL     OW14923   0.692   4.798   6.277
 4675SOL    HW114924   0.605   4.756   6.254
 4675SOL    HW214925   0.719   4.770   6.369
 4676SOL     OW14926   1.551   4.443   3.399
 4676SOL    HW114927   1.605   4.367   3.364
 4676SOL    HW214928   1.607   4.499   3.460
 4677SOL     OW14929   0.955   3.338   1.098
 4677SOL    HW114930   1.008   3.255   1.115
 4677SOL    HW214931   1.016   3.411   1.071
 4678SOL     OW14932   0.902   1.905   0.713
 4678SOL    HW114933   0.942   1.931   0.625
 4678SOL    HW214934   0.926   1.973   0.782
 4679SOL     OW14935   4.799   6.906   1.573
 4679SOL    HW114936   4.796   6.807   1.562
 4679SOL    HW214937   4.729   6.934   1.639
 4680SOL     OW14938   2.647   1.131   0.087
 4680SOL    HW114939   2.729   1.117   0.141
 4680SOL    HW214940   2.661   1.206   0.023
 4681SOL     OW14941   4.819   4.928   1.975
 4681SOL    HW114942   4.899   4.980   1.943
 4681SOL    HW214943   4.812   4.843   1.923
 4682SOL     OW14944   3.677   3.446   6.527
 4682SOL    HW114945   3.603   3.470   6.590
 4682SOL    HW214946   3.746   3.392   6.575
 4683SOL     OW14947   6.760   3.401   4.023
 4683SOL    HW114948   6.785   3.319   3.971
 4683SOL    HW214949   6.771   3.382   4.121
 4684SOL     OW14950   5.002   0.551   6.024
 4684SOL    HW114951   5.070   0.624   6.010
 4684SOL    HW214952   5.016   0.479   5.956
 4685SOL     OW14953   2.955   3.673   4.418
 4685SOL    HW114954   2.913   3.645   4.331
 4685SOL    HW214955   2.888   3.665   4.491
 4686SOL     OW14956   1.789   6.962   6.120
 4686SOL    HW114957   1.764   6.881   6.174
 4686SOL    HW214958   1.729   6.970   6.041
 4687SOL     OW14959   1.029   6.798   2.247
 4687SOL    HW114960   1.009   6.743   2.328
 4687SOL    HW214961   0.944   6.841   2.214
 4688SOL     OW14962   4.736   2.300   4.925
 4688SOL    HW114963   4.758   2.349   5.010
 4688SOL    HW214964   4.816   2.302   4.864
 4689SOL     OW14965   6.337   1.159   1.339
 4689SOL    HW114966   6.340   1.176   1.438
 4689SOL    HW214967   6.415   1.102   1.312
 4690SOL     OW14968   2.974   2.363   0.860
 4690SOL    HW114969   2.909   2.290   0.880
 4690SOL    HW214970   3.000   2.409   0.944
 4691SOL     OW14971   5.887   2.675   2.121
 4691SOL    HW114972   5.923   2.712   2.206
 4691SOL    HW214973   5.805   2.621   2.140
 4692SOL     OW14974   6.823   2.297   3.256
 4692SOL    HW114975   6.748   2.363   3.247
 4692SOL    HW214976   6.882   2.324   3.333
 4693SOL     OW14977   0.345   0.723   3.568
 4693SOL    HW114978   0.260   0.753   3.611
 4693SOL    HW214979   0.350   0.624   3.569
 4694SOL     OW14980   1.149   6.657   5.813
 4694SOL    HW114981   1.121   6.744   5.853
 4694SOL    HW214982   1.112   6.651   5.720
 4695SOL     OW14983   1.391   4.625   1.670
 4695SOL    HW114984   1.390   4.542   1.614
 4695SOL    HW214985   1.334   4.611   1.751
 4696SOL     OW14986   2.093   6.176   5.976
 4696SOL    HW114987   1.998   6.201   5.961
 4696SOL    HW214988   2.120   6.197   6.070
 4697SOL     OW14989   4.566   5.663   1.602
 4697SOL    HW114990   4.579   5.717   1.685
 4697SOL    HW214991   4.525   5.720   1.531
 4698SOL     OW14992   6.060   1.429   4.888
 4698SOL    HW114993   6.031   1.482   4.809
 4698SOL    HW214994   6.048   1.331   4.869
 4699SOL     OW14995   0.905   1.777   3.230
 4699SOL    HW114996   0.935   1.841   3.301
 4699SOL    HW214997   0.807   1.762   3.239
 4700SOL     OW14998   6.795   1.485   3.763
 4700SOL    HW114999   6.847   1.502   3.846
 4700SOL    HW215000   6.713   1.543   3.763
 4701SOL     OW15001   2.450   2.757   1.811
 4701SOL    HW115002   2.522   2.691   1.789
 4701SOL    HW215003   2.434   2.816   1.732
 4702SOL     OW15004   5.822   5.033   1.596
 4702SOL    HW115005   5.823   5.035   1.496
 4702SOL    HW215006   5.880   4.958   1.628
 4703SOL     OW15007   6.736   5.560   4.218
 4703SOL    HW115008   6.756   5.598   4.128
 4703SOL    HW215009   6.663   5.491   4.210
 4704SOL     OW15010   1.454   4.772   3.645
 4704SOL    HW115011   1.458   4.862   3.601
 4704SOL    HW215012   1.360   4.740   3.647
 4705SOL     OW15013   3.186   2.975   1.638
 4705SOL    HW115014   3.206   2.940   1.730
 4705SOL    HW215015   3.153   3.069   1.644
 4706SOL     OW15016   1.991   0.804   1.146
 4706SOL    HW115017   1.912   0.859   1.122
 4706SOL    HW215018   2.054   0.801   1.068
 4707SOL     OW15019   2.200   5.732   1.976
 4707SOL    HW115020   2.272   5.775   2.030
 4707SOL    HW215021   2.228   5.641   1.948
 4708SOL     OW15022   1.939   3.248   6.548
 4708SOL    HW115023   1.879   3.195   6.608
 4708SOL    HW215024   1.914   3.232   6.453
 4709SOL     OW15025   6.198   3.358   4.292
 4709SOL    HW115026   6.124   3.424   4.303
 4709SOL    HW215027   6.285   3.400   4.316
 4710SOL     OW15028   6.113   4.605   5.741
 4710SOL    HW115029   6.203   4.603   5.785
 4710SOL    HW215030   6.046   4.561   5.801
 4711SOL     OW15031   5.029   4.717   3.202
 4711SOL    HW115032   5.062   4.723   3.296
 4711SOL    HW215033   4.931   4.733   3.199
 4712SOL     OW15034   4.312   4.839   6.266
 4712SOL    HW115035   4.252   4.876   6.194
 4712SOL    HW215036   4.309   4.899   6.345
 4713SOL     OW15037   5.738   4.301   1.797
 4713SOL    HW115038   5.787   4.347   1.723
 4713SOL    HW215039   5.668   4.362   1.833
 4714SOL     OW15040   5.265   2.232   5.634
 4714SOL    HW115041   5.249   2.317   5.583
 4714SOL    HW215042   5.244   2.246   5.731
 4715SOL     OW15043   6.839   1.139   2.011
 4715SOL    HW115044   6.920   1.194   1.990
 4715SOL    HW215045   6.793   1.176   2.091
 4716SOL     OW15046   3.744   4.233   5.214
 4716SOL    HW115047   3.843   4.221   5.201
 4716SOL    HW215048   3.708   4.156   5.265
 4717SOL     OW15049   1.042   4.426   5.915
 4717SOL    HW115050   1.123   4.369   5.897
 4717SOL    HW215051   0.989   4.434   5.831
 4718SOL     OW15052   4.981   3.454   2.429
 4718SOL    HW115053   4.931   3.535   2.400
 4718SOL    HW215054   4.968   3.439   2.527
 4719SOL     OW15055   5.321   4.372   3.842
 4719SOL    HW115056   5.357   4.306   3.777
 4719SOL    HW215057   5.284   4.451   3.792
 4720SOL     OW15058   1.321   1.686   5.409
 4720SOL    HW115059   1.340   1.723   5.318
 4720SOL    HW215060   1.400   1.701   5.468
 4721SOL     OW15061   0.940   2.869   2.426
 4721SOL    HW115062   0.857   2.822   2.456
 4721SOL    HW215063   0.916   2.940   2.359
 4722SOL     OW15064   1.359   5.717   5.969
 4722SOL    HW115065   1.366   5.631   5.919
 4722SOL    HW215066   1.323   5.699   6.061
 4723SOL     OW15067   3.398   4.866   5.879
 4723SOL    HW115068   3.419   4.781   5.831
 4723SOL    HW215069   3.356   4.931   5.815
 4724SOL     OW15070   0.220   0.790   4.057
 4724SOL    HW115071   0.205   0.775   4.155
 4724SOL    HW215072   0.203   0.886   4.034
 4725SOL     OW15073   4.926   6.100   1.326
 4725SOL    HW115074   4.899   6.099   1.230
 4725SOL    HW215075   5.004   6.038   1.339
 4726SOL     OW15076   2.022   2.791   6.762
 4726SOL    HW115077   2.019   2.810   6.664
 4726SOL    HW215078   2.113   2.815   6.797
 4727SOL     OW15079   6.795   5.397   1.486
 4727SOL    HW115080   6.754   5.475   1.439
 4727SOL    HW215081   6.799   5.319   1.424
 4728SOL     OW15082   4.228   0.431   3.350
 4728SOL    HW115083   4.201   0.442   3.446
 4728SOL    HW215084   4.276   0.344   3.339
 4729SOL     OW15085   0.373   0.265   2.993
 4729SOL    HW115086   0.379   0.349   2.940
 4729SOL    HW215087   0.448   0.203   2.967
 4730SOL     OW15088   2.549   1.207   2.934
 4730SOL    HW115089   2.595   1.128   2.894
 4730SOL    HW215090   2.617   1.275   2.962
 4731SOL     OW15091   3.465   6.907   2.521
 4731SOL    HW115092   3.380   6.914   2.573
 4731SOL    HW215093   3.492   6.811   2.514
 4732SOL     OW15094   0.366   4.846   4.075
 4732SOL    HW115095   0.275   4.805   4.084
 4732SOL    HW215096   0.417   4.798   4.004
 4733SOL     OW15097   2.527   4.643   3.434
 4733SOL    HW115098   2.490   4.673   3.522
 4733SOL    HW215099   2.459   4.589   3.385
 4734SOL     OW15100   4.201   4.493   5.744
 4734SOL    HW115101   4.273   4.423   5.740
 4734SOL    HW215102   4.172   4.515   5.651
 4735SOL     OW15103   0.285   0.696   5.331
 4735SOL    HW115104   0.381   0.699   5.359
 4735SOL    HW215105   0.256   0.788   5.303
 4736SOL     OW15106   6.296   0.312   4.421
 4736SOL    HW115107   6.367   0.241   4.413
 4736SOL    HW215108   6.221   0.290   4.359
 4737SOL     OW15109   1.928   5.255   0.007
 4737SOL    HW115110   1.848   5.197   0.015
 4737SOL    HW215111   1.996   5.210   6.972
 4738SOL     OW15112   0.352   6.070   4.097
 4738SOL    HW115113   0.388   6.160   4.121
 4738SOL    HW215114   0.427   6.008   4.075
 4739SOL     OW15115   6.009   3.757   2.995
 4739SOL    HW115116   5.912   3.741   3.008
 4739SOL    HW215117   6.039   3.832   3.056
 4740SOL     OW15118   1.686   6.559   0.835
 4740SOL    HW115119   1.621   6.630   0.863
 4740SOL    HW215120   1.663   6.473   0.880
 4741SOL     OW15121   5.939   4.096   2.651
 4741SOL    HW115122   5.889   4.115   2.567
 4741SOL    HW215123   5.985   4.007   2.643
 4742SOL     OW15124   2.286   5.494   1.914
 4742SOL    HW115125   2.292   5.420   1.980
 4742SOL    HW215126   2.245   5.461   1.829
 4743SOL     OW15127   2.537   3.184   0.381
 4743SOL    HW115128   2.617   3.153   0.330
 4743SOL    HW215129   2.565   3.248   0.453
 4744SOL     OW15130   2.970   1.928   5.704
 4744SOL    HW115131   2.937   1.834   5.714
 4744SOL    HW215132   3.053   1.929   5.650
 4745SOL     OW15133   4.654   5.844   4.643
 4745SOL    HW115134   4.666   5.858   4.544
 4745SOL    HW215135   4.606   5.922   4.683
 4746SOL     OW15136   5.542   1.257   0.998
 4746SOL    HW115137   5.595   1.325   1.047
 4746SOL    HW215138   5.603   1.194   0.950
 4747SOL     OW15139   1.173   3.037   2.243
 4747SOL    HW115140   1.252   3.078   2.289
 4747SOL    HW215141   1.121   3.109   2.197
 4748SOL     OW15142   1.892   6.540   0.334
 4748SOL    HW115143   1.931   6.453   0.364
 4748SOL    HW215144   1.960   6.612   0.343
 4749SOL     OW15145   3.805   0.744   0.043
 4749SOL    HW115146   3.742   0.791   7.004
 4749SOL    HW215147   3.875   0.696   7.014
 4750SOL     OW15148   0.796   2.180   4.975
 4750SOL    HW115149   0.829   2.111   4.911
 4750SOL    HW215150   0.793   2.269   4.929
 4751SOL     OW15151   1.483   4.092   6.038
 4751SOL    HW115152   1.553   4.050   5.980
 4751SOL    HW215153   1.430   4.020   6.082
 4752SOL     OW15154   2.159   5.876   0.527
 4752SOL    HW115155   2.220   5.852   0.451
 4752SOL    HW215156   2.193   5.836   0.612
 4753SOL     OW15157   0.452   1.219   6.786
 4753SOL    HW115158   0.451   1.306   6.835
 4753SOL    HW215159   0.517   1.223   6.710
 4754SOL     OW15160   1.362   0.635   6.603
 4754SOL    HW115161   1.305   0.717   6.599
 4754SOL    HW215162   1.427   0.635   6.527
 4755SOL     OW15163   2.699   6.485   2.869
 4755SOL    HW115164   2.676   6.389   2.887
 4755SOL    HW215165   2.639   6.544   2.924
 4756SOL     OW15166   5.425   3.009   0.962
 4756SOL    HW115167   5.385   2.928   1.003
 4756SOL    HW215168   5.463   3.068   1.033
 4757SOL     OW15169   2.311   4.029   0.744
 4757SOL    HW115170   2.240   3.989   0.685
 4757SOL    HW215171   2.392   4.050   0.689
 4758SOL     OW15172   6.569   4.112   6.191
 4758SOL    HW115173   6.643   4.146   6.249
 4758SOL    HW215174   6.511   4.189   6.162
 4759SOL     OW15175   6.651   3.983   6.498
 4759SOL    HW115176   6.636   3.938   6.586
 4759SOL    HW215177   6.613   4.076   6.501
 4760SOL     OW15178   0.705   3.028   0.065
 4760SOL    HW115179   0.618   3.054   0.023
 4760SOL    HW215180   0.707   3.061   0.159
 4761SOL     OW15181   3.139   6.443   6.536
 4761SOL    HW115182   3.052   6.435   6.585
 4761SOL    HW215183   3.202   6.372   6.568
 4762SOL     OW15184   2.778   1.048   2.895
 4762SOL    HW115185   2.755   0.992   2.815
 4762SOL    HW215186   2.878   1.054   2.903
 4763SOL     OW15187   5.013   4.760   4.667
 4763SOL    HW115188   4.914   4.752   4.678
 4763SOL    HW215189   5.047   4.682   4.614
 4764SOL     OW15190   3.134   3.452   3.809
 4764SOL    HW115191   3.169   3.537   3.772
 4764SOL    HW215192   3.198   3.415   3.876
 4765SOL     OW15193   0.179   5.396   0.091
 4765SOL    HW115194   0.196   5.338   0.170
 4765SOL    HW215195   0.267   5.426   0.052
 4766SOL     OW15196   2.829   1.463   2.960
 4766SOL    HW115197   2.887   1.404   3.017
 4766SOL    HW215198   2.821   1.553   3.003
 4767SOL     OW15199   4.595   0.297   6.790
 4767SOL    HW115200   4.628   0.387   6.762
 4767SOL    HW215201   4.647   0.265   6.869
 4768SOL     OW15202   2.371   0.537   5.280
 4768SOL    HW115203   2.384   0.598   5.202
 4768SOL    HW215204   2.281   0.554   5.321
 4769SOL     OW15205   4.574   0.856   2.188
 4769SOL    HW115206   4.521   0.778   2.223
 4769SOL    HW215207   4.663   0.824   2.157
 4770SOL     OW15208   2.885   0.695   3.457
 4770SOL    HW115209   2.829   0.717   3.377
 4770SOL    HW215210   2.979   0.728   3.442
 4771SOL     OW15211   3.686   4.910   6.749
 4771SOL    HW115212   3.625   4.834   6.728
 4771SOL    HW215213   3.705   4.913   6.847
 4772SOL     OW15214   4.164   2.400   0.703
 4772SOL    HW115215   4.208   2.311   0.697
 4772SOL    HW215216   4.065   2.389   0.697
 4773SOL     OW15217   0.273   4.733   3.734
 4773SOL    HW115218   0.223   4.818   3.745
 4773SOL    HW215219   0.358   4.737   3.786
 4774SOL     OW15220   2.125   3.986   0.192
 4774SOL    HW115221   2.182   4.068   0.185
 4774SOL    HW215222   2.042   3.997   0.138
 4775SOL     OW15223   1.546   3.245   2.535
 4775SOL    HW115224   1.644   3.227   2.533
 4775SOL    HW215225   1.529   3.332   2.581
 4776SOL     OW15226   4.431   5.241   1.010
 4776SOL    HW115227   4.419   5.186   0.928
 4776SOL    HW215228   4.346   5.244   1.062
 4777SOL     OW15229   1.688   3.919   1.672
 4777SOL    HW115230   1.784   3.947   1.672
 4777SOL    HW215231   1.683   3.820   1.682
 4778SOL     OW15232   5.582   3.485   3.302
 4778SOL    HW115233   5.498   3.443   3.337
 4778SOL    HW215234   5.578   3.491   3.202
 4779SOL     OW15235   5.896   1.175   2.716
 4779SOL    HW115236   5.859   1.139   2.631
 4779SOL    HW215237   5.949   1.257   2.697
 4780SOL     OW15238   1.561   1.348   5.112
 4780SOL    HW115239   1.570   1.407   5.192
 4780SOL    HW215240   1.652   1.318   5.083
 4781SOL     OW15241   2.370   5.627   2.867
 4781SOL    HW115242   2.362   5.722   2.837
 4781SOL    HW215243   2.301   5.571   2.822
 4782SOL     OW15244   6.480   6.395   6.587
 4782SOL    HW115245   6.511   6.478   6.541
 4782SOL    HW215246   6.559   6.337   6.608
 4783SOL     OW15247   5.143   4.759   3.449
 4783SOL    HW115248   5.086   4.812   3.512
 4783SOL    HW215249   5.190   4.820   3.386
 4784SOL     OW15250   4.695   4.197   4.496
 4784SOL    HW115251   4.647   4.275   4.535
 4784SOL    HW215252   4.788   4.192   4.534
 4785SOL     OW15253   5.665   5.508   0.695
 4785SOL    HW115254   5.644   5.606   0.695
 4785SOL    HW215255   5.583   5.457   0.724
 4786SOL     OW15256   1.399   4.802   3.212
 4786SOL    HW115257   1.430   4.707   3.214
 4786SOL    HW215258   1.427   4.845   3.126
 4787SOL     OW15259   3.498   2.155   2.958
 4787SOL    HW115260   3.459   2.079   2.906
 4787SOL    HW215261   3.597   2.145   2.963
 4788SOL     OW15262   2.504   0.574   4.452
 4788SOL    HW115263   2.437   0.532   4.513
 4788SOL    HW215264   2.459   0.642   4.394
 4789SOL     OW15265   4.548   5.696   6.565
 4789SOL    HW115266   4.615   5.629   6.594
 4789SOL    HW215267   4.561   5.781   6.617
 4790SOL     OW15268   5.850   6.982   6.100
 4790SOL    HW115269   5.844   6.893   6.145
 4790SOL    HW215270   5.807   6.976   6.010
 4791SOL     OW15271   4.561   2.165   3.388
 4791SOL    HW115272   4.614   2.188   3.306
 4791SOL    HW215273   4.485   2.105   3.363
 4792SOL     OW15274   3.273   3.246   0.260
 4792SOL    HW115275   3.265   3.233   0.161
 4792SOL    HW215276   3.241   3.164   0.307
 4793SOL     OW15277   0.644   1.178   6.994
 4793SOL    HW115278   0.700   1.220   6.923
 4793SOL    HW215279   0.558   1.146   6.955
 4794SOL     OW15280   5.618   0.985   2.041
 4794SOL    HW115281   5.539   0.970   2.101
 4794SOL    HW215282   5.617   1.079   2.007
 4795SOL     OW15283   6.589   1.643   4.673
 4795SOL    HW115284   6.591   1.686   4.764
 4795SOL    HW215285   6.611   1.711   4.604
 4796SOL     OW15286   4.420   4.334   0.517
 4796SOL    HW115287   4.401   4.259   0.579
 4796SOL    HW215288   4.512   4.370   0.534
 4797SOL     OW15289   1.633   5.668   4.222
 4797SOL    HW115290   1.619   5.650   4.124
 4797SOL    HW215291   1.717   5.622   4.252
 4798SOL     OW15292   0.193   6.223   6.574
 4798SOL    HW115293   0.237   6.136   6.598
 4798SOL    HW215294   0.249   6.271   6.505
 4799SOL     OW15295   5.488   0.933   5.207
 4799SOL    HW115296   5.520   0.838   5.204
 4799SOL    HW215297   5.405   0.942   5.152
 4800SOL     OW15298   1.984   2.830   4.132
 4800SOL    HW115299   1.892   2.804   4.162
 4800SOL    HW215300   2.050   2.805   4.203
 4801SOL     OW15301   7.001   1.581   0.703
 4801SOL    HW115302   6.935   1.528   0.756
 4801SOL    HW215303   0.014   1.656   0.759
 4802SOL     OW15304   1.564   6.461   1.393
 4802SOL    HW115305   1.623   6.396   1.443
 4802SOL    HW215306   1.592   6.464   1.297
 4803SOL     OW15307   0.355   6.492   1.700
 4803SOL    HW115308   0.429   6.539   1.748
 4803SOL    HW215309   0.345   6.530   1.608
 4804SOL     OW15310   4.333   5.038   6.493
 4804SOL    HW115311   4.323   5.009   6.588
 4804SOL    HW215312   4.276   5.119   6.477
 4805SOL     OW15313   6.530   6.744   1.539
 4805SOL    HW115314   6.570   6.684   1.609
 4805SOL    HW215315   6.430   6.748   1.552
 4806SOL     OW15316   0.619   2.095   4.226
 4806SOL    HW115317   0.644   2.019   4.285
 4806SOL    HW215318   0.521   2.114   4.237
 4807SOL     OW15319   0.770   6.890   2.204
 4807SOL    HW115320   0.763   6.981   2.244
 4807SOL    HW215321   0.710   6.827   2.253
 4808SOL     OW15322   6.494   1.061   0.204
 4808SOL    HW115323   6.420   1.025   0.261
 4808SOL    HW215324   6.504   1.159   0.220
 4809SOL     OW15325   4.327   6.258   0.719
 4809SOL    HW115326   4.270   6.193   0.668
 4809SOL    HW215327   4.418   6.219   0.732
 4810SOL     OW15328   1.827   0.179   5.303
 4810SOL    HW115329   1.910   0.223   5.268
 4810SOL    HW215330   1.844   0.081   5.314
 4811SOL     OW15331   5.081   4.527   4.459
 4811SOL    HW115332   4.985   4.502   4.470
 4811SOL    HW215333   5.138   4.469   4.516
 4812SOL     OW15334   6.477   4.829   2.851
 4812SOL    HW115335   6.495   4.780   2.935
 4812SOL    HW215336   6.400   4.891   2.864
 4813SOL     OW15337   6.286   3.464   3.140
 4813SOL    HW115338   6.313   3.560   3.142
 4813SOL    HW215339   6.234   3.445   3.057
 4814SOL     OW15340   0.122   2.629   1.159
 4814SOL    HW115341   0.136   2.701   1.227
 4814SOL    HW215342   0.135   2.540   1.202
 4815SOL     OW15343   4.671   1.396   3.445
 4815SOL    HW115344   4.625   1.484   3.458
 4815SOL    HW215345   4.754   1.393   3.500
 4816SOL     OW15346   6.157   3.789   4.711
 4816SOL    HW115347   6.252   3.769   4.688
 4816SOL    HW215348   6.105   3.704   4.713
 4817SOL     OW15349   5.576   1.309   6.508
 4817SOL    HW115350   5.659   1.290   6.561
 4817SOL    HW215351   5.588   1.394   6.457
 4818SOL     OW15352   0.226   6.871   3.154
 4818SOL    HW115353   0.190   6.799   3.094
 4818SOL    HW215354   0.210   6.845   3.250
 4819SOL     OW15355   0.665   2.829   0.803
 4819SOL    HW115356   0.633   2.913   0.846
 4819SOL    HW215357   0.599   2.755   0.820
 4820SOL     OW15358   5.974   3.052   2.232
 4820SOL    HW115359   5.989   3.148   2.254
 4820SOL    HW215360   5.882   3.025   2.260
 4821SOL     OW15361   0.048   5.512   3.679
 4821SOL    HW115362   0.135   5.536   3.721
 4821SOL    HW215363   7.009   5.481   3.750
 4822SOL     OW15364   2.656   5.896   4.485
 4822SOL    HW115365   2.642   5.799   4.502
 4822SOL    HW215366   2.692   5.909   4.392
 4823SOL     OW15367   1.018   1.698   0.230
 4823SOL    HW115368   1.108   1.686   0.273
 4823SOL    HW215369   1.025   1.766   0.157
 4824SOL     OW15370   6.579   2.434   0.272
 4824SOL    HW115371   6.544   2.377   0.346
 4824SOL    HW215372   6.519   2.425   0.192
 4825SOL     OW15373   1.226   5.601   3.563
 4825SOL    HW115374   1.135   5.604   3.603
 4825SOL    HW215375   1.295   5.605   3.635
 4826SOL     OW15376   5.098   6.766   0.373
 4826SOL    HW115377   5.076   6.862   0.388
 4826SOL    HW215378   5.027   6.723   0.317
 4827SOL     OW15379   5.499   1.268   1.977
 4827SOL    HW115380   5.408   1.310   1.972
 4827SOL    HW215381   5.556   1.318   2.042
 4828SOL     OW15382   5.302   1.348   6.513
 4828SOL    HW115383   5.401   1.342   6.528
 4828SOL    HW215384   5.281   1.325   6.418
 4829SOL     OW15385   4.793   5.503   5.420
 4829SOL    HW115386   4.889   5.481   5.402
 4829SOL    HW215387   4.752   5.542   5.338
 4830SOL     OW15388   1.688   6.337   2.883
 4830SOL    HW115389   1.677   6.251   2.933
 4830SOL    HW215390   1.722   6.408   2.946
 4831SOL     OW15391   2.762   4.320   6.314
 4831SOL    HW115392   2.751   4.412   6.276
 4831SOL    HW215393   2.677   4.269   6.303
 4832SOL     OW15394   3.726   3.356   3.780
 4832SOL    HW115395   3.741   3.330   3.684
 4832SOL    HW215396   3.641   3.407   3.788
 4833SOL     OW15397   5.766   2.167   5.018
 4833SOL    HW115398   5.849   2.164   5.074
 4833SOL    HW215399   5.741   2.262   5.000
 4834SOL     OW15400   1.305   3.615   1.421
 4834SOL    HW115401   1.309   3.519   1.447
 4834SOL    HW215402   1.230   3.660   1.469
 4835SOL     OW15403   1.662   3.712   6.197
 4835SOL    HW115404   1.604   3.722   6.278
 4835SOL    HW215405   1.734   3.782   6.198
 4836SOL     OW15406   3.371   0.127   5.914
 4836SOL    HW115407   3.307   0.053   5.889
 4836SOL    HW215408   3.374   0.136   6.013
 4837SOL     OW15409   1.475   3.799   4.291
 4837SOL    HW115410   1.537   3.813   4.213
 4837SOL    HW215411   1.383   3.829   4.266
 4838SOL     OW15412   1.441   4.439   6.862
 4838SOL    HW115413   1.380   4.517   6.846
 4838SOL    HW215414   1.535   4.467   6.845
 4839SOL     OW15415   2.847   0.296   1.586
 4839SOL    HW115416   2.798   0.332   1.506
 4839SOL    HW215417   2.943   0.281   1.563
 4840SOL     OW15418   5.426   1.956   3.452
 4840SOL    HW115419   5.413   1.922   3.545
 4840SOL    HW215420   5.421   1.880   3.388
 4841SOL     OW15421   3.292   4.954   3.273
 4841SOL    HW115422   3.379   4.923   3.310
 4841SOL    HW215423   3.218   4.926   3.335
 4842SOL     OW15424   4.322   4.697   3.745
 4842SOL    HW115425   4.364   4.631   3.808
 4842SOL    HW215426   4.249   4.747   3.792
 4843SOL     OW15427   6.134   2.906   6.928
 4843SOL    HW115428   6.112   2.960   7.009
 4843SOL    HW215429   6.223   2.862   6.940
 4844SOL     OW15430   1.316   5.009   6.501
 4844SOL    HW115431   1.342   4.913   6.515
 4844SOL    HW215432   1.246   5.035   6.568
 4845SOL     OW15433   5.561   4.593   5.702
 4845SOL    HW115434   5.637   4.638   5.655
 4845SOL    HW215435   5.494   4.662   5.730
 4846SOL     OW15436   6.534   2.935   4.060
 4846SOL    HW115437   6.570   2.850   4.099
 4846SOL    HW215438   6.500   2.994   4.133
 4847SOL     OW15439   1.794   6.837   6.667
 4847SOL    HW115440   1.759   6.755   6.713
 4847SOL    HW215441   1.886   6.819   6.633
 4848SOL     OW15442   4.954   1.364   3.562
 4848SOL    HW115443   4.992   1.372   3.654
 4848SOL    HW215444   4.951   1.268   3.534
 4849SOL     OW15445   1.185   5.645   1.669
 4849SOL    HW115446   1.215   5.616   1.760
 4849SOL    HW215447   1.088   5.668   1.671
 4850SOL     OW15448   3.235   7.006   2.190
 4850SOL    HW115449   3.278   7.020   2.280
 4850SOL    HW215450   3.164   0.051   2.177
 4851SOL     OW15451   4.242   4.473   6.514
 4851SOL    HW115452   4.166   4.536   6.528
 4851SOL    HW215453   4.314   4.519   6.461
 4852SOL     OW15454   3.997   4.275   5.886
 4852SOL    HW115455   3.951   4.364   5.884
 4852SOL    HW215456   3.942   4.210   5.938
 4853SOL     OW15457   4.265   0.334   2.396
 4853SOL    HW115458   4.174   0.375   2.403
 4853SOL    HW215459   4.265   0.265   2.323
 4854SOL     OW15460   3.948   0.010   1.718
 4854SOL    HW115461   3.999   7.014   1.634
 4854SOL    HW215462   3.940   0.109   1.730
 4855SOL     OW15463   4.651   4.643   5.456
 4855SOL    HW115464   4.576   4.673   5.397
 4855SOL    HW215465   4.722   4.600   5.400
 4856SOL     OW15466   0.646   2.855   3.604
 4856SOL    HW115467   0.634   2.822   3.510
 4856SOL    HW215468   0.561   2.893   3.638
 4857SOL     OW15469   2.792   1.295   5.478
 4857SOL    HW115470   2.719   1.248   5.429
 4857SOL    HW215471   2.755   1.342   5.557
 4858SOL     OW15472   2.772   5.874   5.151
 4858SOL    HW115473   2.702   5.930   5.196
 4858SOL    HW215474   2.754   5.777   5.172
 4859SOL     OW15475   6.975   5.740   2.999
 4859SOL    HW115476   6.960   5.642   2.981
 4859SOL    HW215477   6.981   5.755   3.097
 4860SOL     OW15478   3.608   5.138   0.729
 4860SOL    HW115479   3.510   5.154   0.730
 4860SOL    HW215480   3.637   5.102   0.817
 4861SOL     OW15481   4.869   5.126   4.604
 4861SOL    HW115482   4.884   5.080   4.692
 4861SOL    HW215483   4.777   5.166   4.602
 4862SOL     OW15484   1.363   5.391   3.495
 4862SOL    HW115485   1.294   5.462   3.510
 4862SOL    HW215486   1.365   5.366   3.399
 4863SOL     OW15487   5.826   1.923   2.148
 4863SOL    HW115488   5.875   1.875   2.220
 4863SOL    HW215489   5.774   1.999   2.188
 4864SOL     OW15490   2.369   2.895   1.576
 4864SOL    HW115491   2.432   2.823   1.546
 4864SOL    HW215492   2.277   2.874   1.544
 4865SOL     OW15493   3.993   0.360   4.874
 4865SOL    HW115494   3.947   0.330   4.958
 4865SOL    HW215495   4.019   0.281   4.819
 4866SOL     OW15496   1.554   5.006   1.677
 4866SOL    HW115497   1.639   5.018   1.626
 4866SOL    HW215498   1.485   4.963   1.618
 4867SOL     OW15499   5.540   4.533   6.378
 4867SOL    HW115500   5.518   4.579   6.464
 4867SOL    HW215501   5.487   4.574   6.304
 4868SOL     OW15502   1.501   5.927   2.044
 4868SOL    HW115503   1.486   5.835   2.080
 4868SOL    HW215504   1.599   5.946   2.039
 4869SOL     OW15505   0.548   1.863   1.786
 4869SOL    HW115506   0.487   1.784   1.786
 4869SOL    HW215507   0.630   1.842   1.839
 4870SOL     OW15508   5.950   1.591   2.114
 4870SOL    HW115509   5.988   1.522   2.053
 4870SOL    HW215510   5.856   1.611   2.088
 4871SOL     OW15511   1.513   2.432   5.236
 4871SOL    HW115512   1.576   2.510   5.233
 4871SOL    HW215513   1.419   2.466   5.245
 4872SOL     OW15514   2.424   2.611   2.898
 4872SOL    HW115515   2.421   2.660   2.985
 4872SOL    HW215516   2.440   2.514   2.915
 4873SOL     OW15517   1.218   0.031   6.268
 4873SOL    HW115518   1.294   0.080   6.310
 4873SOL    HW215519   1.206   6.967   6.313
 4874SOL     OW15520   6.333   1.544   5.020
 4874SOL    HW115521   6.333   1.452   5.060
 4874SOL    HW215522   6.281   1.543   4.935
 4875SOL     OW15523   0.003   3.051   0.418
 4875SOL    HW115524   0.032   2.984   0.486
 4875SOL    HW215525   6.932   3.035   0.394
 4876SOL     OW15526   6.402   1.583   6.611
 4876SOL    HW115527   6.341   1.645   6.660
 4876SOL    HW215528   6.363   1.563   6.521
 4877SOL     OW15529   4.078   2.211   2.247
 4877SOL    HW115530   4.028   2.216   2.334
 4877SOL    HW215531   4.161   2.267   2.254
 4878SOL     OW15532   1.196   2.896   2.853
 4878SOL    HW115533   1.280   2.845   2.870
 4878SOL    HW215534   1.199   2.935   2.761
 4879SOL     OW15535   3.040   6.502   2.882
 4879SOL    HW115536   3.026   6.505   2.981
 4879SOL    HW215537   2.956   6.470   2.837
 4880SOL     OW15538   0.301   2.781   6.394
 4880SOL    HW115539   0.345   2.720   6.328
 4880SOL    HW215540   0.359   2.788   6.476
 4881SOL     OW15541   3.028   6.537   5.695
 4881SOL    HW115542   3.036   6.448   5.650
 4881SOL    HW215543   3.019   6.609   5.627
 4882SOL     OW15544   6.035   6.219   6.191
 4882SOL    HW115545   5.946   6.265   6.190
 4882SOL    HW215546   6.041   6.159   6.271
 4883SOL     OW15547   6.138   5.721   0.407
 4883SOL    HW115548   6.087   5.731   0.321
 4883SOL    HW215549   6.087   5.764   0.481
 4884SOL     OW15550   4.133   6.635   2.415
 4884SOL    HW115551   4.097   6.624   2.508
 4884SOL    HW215552   4.102   6.559   2.358
 4885SOL     OW15553   0.479   0.037   2.113
 4885SOL    HW115554   0.561   0.084   2.082
 4885SOL    HW215555   0.474   6.971   2.070
 4886SOL     OW15556   6.379   1.058   5.693
 4886SOL    HW115557   6.384   0.994   5.769
 4886SOL    HW215558   6.376   1.007   5.607
 4887SOL     OW15559   0.215   2.689   5.477
 4887SOL    HW115560   0.268   2.699   5.393
 4887SOL    HW215561   0.140   2.625   5.462
 4888SOL     OW15562   4.826   5.867   1.164
 4888SOL    HW115563   4.860   5.887   1.255
 4888SOL    HW215564   4.875   5.923   1.097
 4889SOL     OW15565   1.206   2.944   6.084
 4889SOL    HW115566   1.290   2.908   6.045
 4889SOL    HW215567   1.132   2.936   6.017
 4890SOL     OW15568   5.714   0.378   3.839
 4890SOL    HW115569   5.690   0.397   3.935
 4890SOL    HW215570   5.775   0.299   3.835
 4891SOL     OW15571   0.216   4.590   0.638
 4891SOL    HW115572   0.222   4.553   0.545
 4891SOL    HW215573   0.193   4.687   0.633
 4892SOL     OW15574   2.185   4.945   1.697
 4892SOL    HW115575   2.283   4.965   1.695
 4892SOL    HW215576   2.166   4.869   1.635
 4893SOL     OW15577   0.024   4.447   6.531
 4893SOL    HW115578   0.099   4.391   6.495
 4893SOL    HW215579   0.059   4.537   6.556
 4894SOL     OW15580   0.195   0.186   3.447
 4894SOL    HW115581   0.207   0.143   3.357
 4894SOL    HW215582   0.130   0.261   3.440
 4895SOL     OW15583   6.614   3.663   6.555
 4895SOL    HW115584   6.710   3.647   6.577
 4895SOL    HW215585   6.583   3.746   6.602
 4896SOL     OW15586   4.653   1.564   5.884
 4896SOL    HW115587   4.554   1.562   5.874
 4896SOL    HW215588   4.694   1.603   5.802
 4897SOL     OW15589   2.901   5.959   0.086
 4897SOL    HW115590   2.992   5.921   0.107
 4897SOL    HW215591   2.912   6.036   0.023
 4898SOL     OW15592   4.856   2.971   4.444
 4898SOL    HW115593   4.858   3.007   4.537
 4898SOL    HW215594   4.938   2.916   4.428
 4899SOL     OW15595   0.687   2.993   4.460
 4899SOL    HW115596   0.723   3.086   4.450
 4899SOL    HW215597   0.642   2.965   4.375
 4900SOL     OW15598   6.962   6.700   6.211
 4900SOL    HW115599   6.922   6.634   6.273
 4900SOL    HW215600   6.897   6.722   6.138
 4901SOL     OW15601   6.574   6.679   3.425
 4901SOL    HW115602   6.591   6.771   3.462
 4901SOL    HW215603   6.525   6.624   3.492
 4902SOL     OW15604   2.995   5.975   0.413
 4902SOL    HW115605   2.924   5.908   0.433
 4902SOL    HW215606   3.065   5.933   0.355
 4903SOL     OW15607   6.439   4.689   6.980
 4903SOL    HW115608   6.468   4.762   6.918
 4903SOL    HW215609   6.349   4.656   6.954
 4904SOL     OW15610   2.952   0.827   3.695
 4904SOL    HW115611   2.954   0.772   3.612
 4904SOL    HW215612   2.858   0.854   3.716
 4905SOL     OW15613   5.567   3.987   3.510
 4905SOL    HW115614   5.617   3.978   3.424
 4905SOL    HW215615   5.477   3.945   3.501
 4906SOL     OW15616   5.980   0.347   1.959
 4906SOL    HW115617   5.985   0.447   1.960
 4906SOL    HW215618   5.884   0.319   1.956
 4907SOL     OW15619   3.211   2.876   1.380
 4907SOL    HW115620   3.217   2.905   1.475
 4907SOL    HW215621   3.207   2.956   1.320
 4908SOL     OW15622   4.844   5.261   6.286
 4908SOL    HW115623   4.795   5.312   6.215
 4908SOL    HW215624   4.831   5.163   6.272
 4909SOL     OW15625   6.290   6.780   5.409
 4909SOL    HW115626   6.325   6.799   5.501
 4909SOL    HW215627   6.193   6.806   5.404
 4910SOL     OW15628   5.621   6.651   5.222
 4910SOL    HW115629   5.561   6.586   5.267
 4910SOL    HW215630   5.568   6.728   5.187
 4911SOL     OW15631   0.114   3.787   6.418
 4911SOL    HW115632   0.188   3.731   6.457
 4911SOL    HW215633   0.062   3.731   6.353
 4912SOL     OW15634   1.662   2.955   1.610
 4912SOL    HW115635   1.652   3.026   1.540
 4912SOL    HW215636   1.611   2.980   1.691
 4913SOL     OW15637   2.967   3.682   2.251
 4913SOL    HW115638   3.016   3.676   2.337
 4913SOL    HW215639   2.868   3.678   2.268
 4914SOL     OW15640   1.357   0.238   2.710
 4914SOL    HW115641   1.326   0.151   2.750
 4914SOL    HW215642   1.456   0.234   2.695
 4915SOL     OW15643   4.544   6.736   4.588
 4915SOL    HW115644   4.585   6.742   4.679
 4915SOL    HW215645   4.454   6.781   4.589
 4916SOL     OW15646   1.669   1.650   1.981
 4916SOL    HW115647   1.586   1.640   1.926
 4916SOL    HW215648   1.744   1.602   1.936
 4917SOL     OW15649   0.621   5.484   6.860
 4917SOL    HW115650   0.667   5.476   6.949
 4917SOL    HW215651   0.635   5.575   6.823
 4918SOL     OW15652   3.203   6.545   3.814
 4918SOL    HW115653   3.272   6.607   3.854
 4918SOL    HW215654   3.146   6.596   3.751
 4919SOL     OW15655   2.259   2.525   1.498
 4919SOL    HW115656   2.224   2.613   1.528
 4919SOL    HW215657   2.306   2.536   1.410
 4920SOL     OW15658   4.200   2.258   6.534
 4920SOL    HW115659   4.125   2.255   6.600
 4920SOL    HW215660   4.185   2.188   6.464
 4921SOL     OW15661   6.683   4.601   1.592
 4921SOL    HW115662   6.737   4.553   1.661
 4921SOL    HW215663   6.608   4.651   1.636
 4922SOL     OW15664   1.521   4.104   5.285
 4922SOL    HW115665   1.601   4.143   5.239
 4922SOL    HW215666   1.531   4.115   5.384
 4923SOL     OW15667   4.045   2.150   0.828
 4923SOL    HW115668   4.094   2.133   0.743
 4923SOL    HW215669   4.107   2.191   0.895
 4924SOL     OW15670   1.375   3.278   4.738
 4924SOL    HW115671   1.453   3.327   4.700
 4924SOL    HW215672   1.394   3.253   4.833
 4925SOL     OW15673   5.247   4.901   4.675
 4925SOL    HW115674   5.156   4.860   4.671
 4925SOL    HW215675   5.302   4.866   4.600
 4926SOL     OW15676   4.688   3.309   0.928
 4926SOL    HW115677   4.685   3.331   1.025
 4926SOL    HW215678   4.605   3.344   0.883
 4927SOL     OW15679   2.825   3.415   2.501
 4927SOL    HW115680   2.881   3.370   2.431
 4927SOL    HW215681   2.741   3.362   2.515
 4928SOL     OW15682   6.586   2.115   6.056
 4928SOL    HW115683   6.495   2.130   6.016
 4928SOL    HW215684   6.619   2.025   6.029
 4929SOL     OW15685   1.201   4.638   3.719
 4929SOL    HW115686   1.130   4.705   3.742
 4929SOL    HW215687   1.196   4.560   3.781
 4930SOL     OW15688   0.529   3.475   0.526
 4930SOL    HW115689   0.526   3.526   0.440
 4930SOL    HW215690   0.436   3.455   0.556
 4931SOL     OW15691   5.957   0.128   0.928
 4931SOL    HW115692   6.010   0.049   0.897
 4931SOL    HW215693   5.909   0.168   0.849
 4932SOL     OW15694   2.502   1.616   0.714
 4932SOL    HW115695   2.496   1.702   0.766
 4932SOL    HW215696   2.469   1.541   0.771
 4933SOL     OW15697   3.098   6.963   4.583
 4933SOL    HW115698   3.163   6.901   4.541
 4933SOL    HW215699   3.008   6.920   4.586
 4934SOL     OW15700   1.575   6.535   5.483
 4934SOL    HW115701   1.633   6.599   5.534
 4934SOL    HW215702   1.485   6.576   5.468
 4935SOL     OW15703   1.377   2.620   1.222
 4935SOL    HW115704   1.327   2.688   1.276
 4935SOL    HW215705   1.452   2.583   1.278
 4936SOL     OW15706   5.976   3.801   1.168
 4936SOL    HW115707   5.984   3.705   1.193
 4936SOL    HW215708   6.046   3.855   1.216
 4937SOL     OW15709   1.090   3.882   5.062
 4937SOL    HW115710   1.120   3.843   4.975
 4937SOL    HW215711   1.133   3.834   5.138
 4938SOL     OW15712   2.873   3.716   1.022
 4938SOL    HW115713   2.945   3.658   0.985
 4938SOL    HW215714   2.830   3.670   1.099
 4939SOL     OW15715   0.730   1.436   1.797
 4939SOL    HW115716   0.675   1.374   1.743
 4939SOL    HW215717   0.825   1.434   1.765
 4940SOL     OW15718   1.910   1.804   5.049
 4940SOL    HW115719   1.961   1.890   5.055
 4940SOL    HW215720   1.828   1.817   4.994
 4941SOL     OW15721   3.332   1.902   5.816
 4941SOL    HW115722   3.381   1.891   5.903
 4941SOL    HW215723   3.379   1.972   5.761
 4942SOL     OW15724   0.496   0.540   2.643
 4942SOL    HW115725   0.595   0.528   2.654
 4942SOL    HW215726   0.454   0.555   2.732
 4943SOL     OW15727   5.462   2.094   6.666
 4943SOL    HW115728   5.374   2.045   6.662
 4943SOL    HW215729   5.526   2.053   6.601
 4944SOL     OW15730   1.050   5.031   0.161
 4944SOL    HW115731   1.047   5.072   0.252
 4944SOL    HW215732   1.042   4.932   0.168
 4945SOL     OW15733   2.926   0.423   6.659
 4945SOL    HW115734   2.934   0.516   6.696
 4945SOL    HW215735   2.960   0.358   6.726
 4946SOL     OW15736   1.879   6.245   6.947
 4946SOL    HW115737   1.873   6.242   6.847
 4946SOL    HW215738   1.798   6.291   6.984
 4947SOL     OW15739   1.172   6.915   1.165
 4947SOL    HW115740   1.101   6.983   1.187
 4947SOL    HW215741   1.150   6.871   1.078
 4948SOL     OW15742   1.601   3.560   2.205
 4948SOL    HW115743   1.560   3.640   2.161
 4948SOL    HW215744   1.541   3.481   2.192
 4949SOL     OW15745   6.969   5.090   6.835
 4949SOL    HW115746   6.912   5.149   6.893
 4949SOL    HW215747   0.029   5.067   6.883
 4950SOL     OW15748   3.755   3.338   5.998
 4950SOL    HW115749   3.690   3.404   6.037
 4950SOL    HW215750   3.806   3.382   5.924
 4951SOL     OW15751   4.818   5.272   4.192
 4951SOL    HW115752   4.867   5.323   4.263
 4951SOL    HW215753   4.788   5.184   4.229
 4952SOL     OW15754   0.749   1.203   6.713
 4952SOL    HW115755   0.822   1.136   6.720
 4952SOL    HW215756   0.723   1.215   6.617
 4953SOL     OW15757   1.353   1.319   5.288
 4953SOL    HW115758   1.415   1.301   5.211
 4953SOL    HW215759   1.392   1.390   5.346
 4954SOL     OW15760   3.280   4.009   5.780
 4954SOL    HW115761   3.340   4.063   5.721
 4954SOL    HW215762   3.205   3.971   5.724
 4955SOL     OW15763   3.909   5.957   0.321
 4955SOL    HW115764   3.963   6.005   0.253
 4955SOL    HW215765   3.849   5.891   0.276
 4956SOL     OW15766   2.378   6.697   3.521
 4956SOL    HW115767   2.438   6.750   3.581
 4956SOL    HW215768   2.355   6.611   3.565
 4957SOL     OW15769   6.069   5.755   0.814
 4957SOL    HW115770   6.119   5.831   0.773
 4957SOL    HW215771   5.995   5.790   0.871
 4958SOL     OW15772   2.995   5.713   1.094
 4958SOL    HW115773   2.975   5.810   1.081
 4958SOL    HW215774   2.924   5.658   1.051
 4959SOL     OW15775   2.072   1.332   2.428
 4959SOL    HW115776   2.145   1.268   2.403
 4959SOL    HW215777   2.112   1.422   2.447
 4960SOL     OW15778   5.109   3.930   4.598
 4960SOL    HW115779   5.010   3.926   4.615
 4960SOL    HW215780   5.157   3.934   4.685
 4961SOL     OW15781   3.750   3.367   2.393
 4961SOL    HW115782   3.841   3.360   2.434
 4961SOL    HW215783   3.681   3.346   2.462
 4962SOL     OW15784   1.713   2.535   0.833
 4962SOL    HW115785   1.778   2.604   0.801
 4962SOL    HW215786   1.658   2.574   0.908
 4963SOL     OW15787   0.550   3.899   6.345
 4963SOL    HW115788   0.572   3.879   6.250
 4963SOL    HW215789   0.497   3.823   6.383
 4964SOL     OW15790   1.477   5.363   3.186
 4964SOL    HW115791   1.381   5.336   3.183
 4964SOL    HW215792   1.486   5.458   3.156
 4965SOL     OW15793   2.226   6.846   2.879
 4965SOL    HW115794   2.296   6.823   2.811
 4965SOL    HW215795   2.217   6.771   2.945
 4966SOL     OW15796   3.960   6.812   5.553
 4966SOL    HW115797   3.969   6.770   5.462
 4966SOL    HW215798   3.863   6.817   5.577
 4967SOL     OW15799   4.418   4.921   3.066
 4967SOL    HW115800   4.419   4.894   3.162
 4967SOL    HW215801   4.397   5.019   3.060
 4968SOL     OW15802   6.850   2.643   3.411
 4968SOL    HW115803   6.901   2.657   3.326
 4968SOL    HW215804   6.910   2.602   3.479
 4969SOL     OW15805   1.593   5.840   3.706
 4969SOL    HW115806   1.581   5.827   3.804
 4969SOL    HW215807   1.584   5.752   3.659
 4970SOL     OW15808   2.788   0.889   0.431
 4970SOL    HW115809   2.835   0.876   0.519
 4970SOL    HW215810   2.731   0.810   0.412
 4971SOL     OW15811   0.644   6.084   2.397
 4971SOL    HW115812   0.592   6.000   2.383
 4971SOL    HW215813   0.735   6.074   2.356
 4972SOL     OW15814   7.015   3.484   1.099
 4972SOL    HW115815   0.049   3.466   1.020
 4972SOL    HW215816   6.944   3.414   1.106
 4973SOL     OW15817   5.464   2.604   0.077
 4973SOL    HW115818   5.519   2.563   0.150
 4973SOL    HW215819   5.524   2.633   0.003
 4974SOL     OW15820   3.098   0.622   5.174
 4974SOL    HW115821   3.134   0.577   5.092
 4974SOL    HW215822   3.164   0.691   5.206
 4975SOL     OW15823   6.281   4.302   1.014
 4975SOL    HW115824   6.336   4.336   0.939
 4975SOL    HW215825   6.285   4.366   1.091
 4976SOL     OW15826   1.892   0.140   3.861
 4976SOL    HW115827   1.879   0.167   3.766
 4976SOL    HW215828   1.986   0.162   3.889
 4977SOL     OW15829   1.383   3.350   4.335
 4977SOL    HW115830   1.299   3.402   4.350
 4977SOL    HW215831   1.461   3.412   4.336
 4978SOL     OW15832   6.579   5.188   4.454
 4978SOL    HW115833   6.575   5.270   4.512
 4978SOL    HW215834   6.569   5.215   4.358
 4979SOL     OW15835   3.486   7.006   5.582
 4979SOL    HW115836   3.535   0.046   5.641
 4979SOL    HW215837   3.410   6.965   5.633
 4980SOL     OW15838   5.704   2.578   4.380
 4980SOL    HW115839   5.777   2.601   4.316
 4980SOL    HW215840   5.626   2.639   4.366
 4981SOL     OW15841   2.729   6.797   2.575
 4981SOL    HW115842   2.730   6.715   2.518
 4981SOL    HW215843   2.793   6.864   2.538
 4982SOL     OW15844   3.678   2.119   4.991
 4982SOL    HW115845   3.670   2.060   5.071
 4982SOL    HW215846   3.755   2.181   5.002
 4983SOL     OW15847   5.008   3.643   2.842
 4983SOL    HW115848   5.079   3.637   2.913
 4983SOL    HW215849   4.923   3.676   2.884
 4984SOL     OW15850   4.924   3.393   5.173
 4984SOL    HW115851   4.895   3.397   5.269
 4984SOL    HW215852   4.894   3.475   5.125
 4985SOL     OW15853   4.601   0.536   2.424
 4985SOL    HW115854   4.691   0.563   2.388
 4985SOL    HW215855   4.541   0.514   2.347
 4986SOL     OW15856   1.650   5.978   1.125
 4986SOL    HW115857   1.595   5.933   1.195
 4986SOL    HW215858   1.612   5.959   1.035
 4987SOL     OW15859   2.191   3.998   2.212
 4987SOL    HW115860   2.199   3.939   2.132
 4987SOL    HW215861   2.114   4.060   2.200
 4988SOL     OW15862   6.747   4.752   3.562
 4988SOL    HW115863   6.689   4.756   3.481
 4988SOL    HW215864   6.836   4.714   3.538
 4989SOL     OW15865   0.221   0.436   4.506
 4989SOL    HW115866   0.202   0.372   4.581
 4989SOL    HW215867   0.279   0.510   4.539
 4990SOL     OW15868   3.947   1.544   6.072
 4990SOL    HW115869   3.890   1.572   5.995
 4990SOL    HW215870   3.955   1.444   6.073
 4991SOL     OW15871   2.040   5.448   4.988
 4991SOL    HW115872   2.084   5.537   4.983
 4991SOL    HW215873   1.954   5.450   4.937
 4992SOL     OW15874   2.985   2.728   5.317
 4992SOL    HW115875   2.912   2.664   5.340
 4992SOL    HW215876   2.953   2.822   5.331
 4993SOL     OW15877   2.442   5.228   3.663
 4993SOL    HW115878   2.450   5.316   3.710
 4993SOL    HW215879   2.533   5.191   3.644
 4994SOL     OW15880   3.671   4.723   5.568
 4994SOL    HW115881   3.760   4.745   5.608
 4994SOL    HW215882   3.670   4.748   5.471
 4995SOL     OW15883   0.934   2.158   6.582
 4995SOL    HW115884   0.842   2.117   6.585
 4995SOL    HW215885   0.966   2.162   6.487
 4996SOL     OW15886   0.271   1.155   4.789
 4996SOL    HW115887   0.304   1.168   4.696
 4996SOL    HW215888   0.222   1.238   4.818
 4997SOL     OW15889   3.603   2.191   1.068
 4997SOL    HW115890   3.527   2.126   1.059
 4997SOL    HW215891   3.679   2.161   1.010
 4998SOL     OW15892   0.832   4.295   3.378
 4998SOL    HW115893   0.903   4.365   3.375
 4998SOL    HW215894   0.853   4.230   3.450
 4999SOL     OW15895   0.105   3.053   2.694
 4999SOL    HW115896   0.162   2.985   2.740
 4999SOL    HW215897   0.061   3.111   2.763
 5000SOL     OW15898   2.086   6.294   2.807
 5000SOL    HW115899   2.149   6.334   2.742
 5000SOL    HW215900   2.031   6.367   2.850
 5001SOL     OW15901   0.723   6.469   3.154
 5001SOL    HW115902   0.816   6.505   3.151
 5001SOL    HW215903   0.688   6.459   3.061
 5002SOL     OW15904   0.968   5.402   3.742
 5002SOL    HW115905   0.917   5.406   3.828
 5002SOL    HW215906   0.962   5.489   3.695
 5003SOL     OW15907   4.013   1.658   1.258
 5003SOL    HW115908   3.932   1.630   1.206
 5003SOL    HW215909   4.022   1.757   1.256
 5004SOL     OW15910   3.831   5.645   0.472
 5004SOL    HW115911   3.915   5.597   0.446
 5004SOL    HW215912   3.841   5.687   0.562
 5005SOL     OW15913   4.660   2.918   1.138
 5005SOL    HW115914   4.723   2.970   1.080
 5005SOL    HW215915   4.625   2.977   1.211
 5006SOL     OW15916   4.683   1.235   2.285
 5006SOL    HW115917   4.611   1.174   2.252
 5006SOL    HW215918   4.695   1.222   2.383
 5007SOL     OW15919   6.972   5.442   2.988
 5007SOL    HW115920   6.908   5.365   2.988
 5007SOL    HW215921   0.003   5.438   2.905
 5008SOL     OW15922   4.208   0.393   3.676
 5008SOL    HW115923   4.137   0.329   3.705
 5008SOL    HW215924   4.197   0.480   3.725
 5009SOL     OW15925   1.156   1.973   5.691
 5009SOL    HW115926   1.234   2.012   5.741
 5009SOL    HW215927   1.090   1.936   5.756
 5010SOL     OW15928   5.147   4.556   0.883
 5010SOL    HW115929   5.235   4.603   0.891
 5010SOL    HW215930   5.141   4.512   0.794
 5011SOL     OW15931   1.855   2.241   5.461
 5011SOL    HW115932   1.888   2.318   5.406
 5011SOL    HW215933   1.759   2.256   5.485
 5012SOL     OW15934   5.597   2.555   5.431
 5012SOL    HW115935   5.683   2.605   5.442
 5012SOL    HW215936   5.605   2.491   5.355
 5013SOL     OW15937   6.120   5.558   5.939
 5013SOL    HW115938   6.042   5.512   5.897
 5013SOL    HW215939   6.179   5.596   5.867
 5014SOL     OW15940   6.300   3.246   0.198
 5014SOL    HW115941   6.238   3.287   0.265
 5014SOL    HW215942   6.263   3.160   0.164
 5015SOL     OW15943   6.358   4.681   4.613
 5015SOL    HW115944   6.284   4.613   4.612
 5015SOL    HW215945   6.417   4.667   4.534
 5016SOL     OW15946   1.294   2.136   6.532
 5016SOL    HW115947   1.284   2.085   6.618
 5016SOL    HW215948   1.387   2.122   6.496
 5017SOL     OW15949   1.309   2.597   1.826
 5017SOL    HW115950   1.405   2.611   1.853
 5017SOL    HW215951   1.276   2.512   1.866
 5018SOL     OW15952   0.595   0.526   0.619
 5018SOL    HW115953   0.536   0.464   0.670
 5018SOL    HW215954   0.543   0.568   0.544
 5019SOL     OW15955   1.891   4.168   4.109
 5019SOL    HW115956   1.987   4.156   4.083
 5019SOL    HW215957   1.875   4.263   4.136
 5020SOL     OW15958   1.601   0.088   2.451
 5020SOL    HW115959   1.536   0.012   2.446
 5020SOL    HW215960   1.685   0.057   2.497
 5021SOL     OW15961   2.517   0.447   0.693
 5021SOL    HW115962   2.607   0.484   0.717
 5021SOL    HW215963   2.530   0.362   0.640
 5022SOL     OW15964   6.950   3.285   1.455
 5022SOL    HW115965   6.856   3.297   1.423
 5022SOL    HW215966   6.950   3.246   1.547
 5023SOL     OW15967   0.806   2.149   3.826
 5023SOL    HW115968   0.889   2.193   3.860
 5023SOL    HW215969   0.778   2.077   3.890
 5024SOL     OW15970   4.413   4.018   0.221
 5024SOL    HW115971   4.473   3.960   0.166
 5024SOL    HW215972   4.428   4.114   0.197
 5025SOL     OW15973   4.487   1.950   4.310
 5025SOL    HW115974   4.466   1.853   4.316
 5025SOL    HW215975   4.416   2.003   4.357
 5026SOL     OW15976   5.004   5.747   5.236
 5026SOL    HW115977   5.086   5.794   5.203
 5026SOL    HW215978   5.008   5.650   5.212
 5027SOL     OW15979   5.598   6.382   1.309
 5027SOL    HW115980   5.595   6.332   1.223
 5027SOL    HW215981   5.673   6.449   1.306
 5028SOL     OW15982   0.431   2.434   2.595
 5028SOL    HW115983   0.500   2.389   2.537
 5028SOL    HW215984   0.391   2.510   2.545
 5029SOL     OW15985   6.012   2.859   3.301
 5029SOL    HW115986   5.954   2.932   3.338
 5029SOL    HW215987   6.096   2.898   3.263
 5030SOL     OW15988   0.784   3.454   0.647
 5030SOL    HW115989   0.704   3.452   0.587
 5030SOL    HW215990   0.778   3.531   0.710
 5031SOL     OW15991   5.855   0.700   6.564
 5031SOL    HW115992   5.939   0.710   6.512
 5031SOL    HW215993   5.798   0.782   6.553
 5032SOL     OW15994   2.211   4.519   6.219
 5032SOL    HW115995   2.132   4.578   6.203
 5032SOL    HW215996   2.204   4.437   6.162
 5033SOL     OW15997   2.218   0.024   3.628
 5033SOL    HW115998   2.305   0.030   3.677
 5033SOL    HW215999   2.157   6.987   3.678
 5034SOL     OW16000   4.463   6.101   3.452
 5034SOL    HW116001   4.500   6.127   3.363
 5034SOL    HW216002   4.420   6.011   3.445
 5035SOL     OW16003   1.893   4.865   3.906
 5035SOL    HW116004   1.951   4.852   3.986
 5035SOL    HW216005   1.860   4.776   3.873
 5036SOL     OW16006   1.498   2.678   4.885
 5036SOL    HW116007   1.582   2.625   4.899
 5036SOL    HW216008   1.486   2.696   4.787
 5037SOL     OW16009   5.071   4.611   1.612
 5037SOL    HW116010   5.033   4.579   1.699
 5037SOL    HW216011   5.163   4.572   1.600
 5038SOL     OW16012   3.107   3.859   4.664
 5038SOL    HW116013   3.116   3.837   4.567
 5038SOL    HW216014   3.027   3.811   4.701
 5039SOL     OW16015   0.624   2.654   6.407
 5039SOL    HW116016   0.626   2.669   6.309
 5039SOL    HW216017   0.629   2.743   6.454
 5040SOL     OW16018   1.087   1.413   5.051
 5040SOL    HW116019   1.186   1.401   5.042
 5040SOL    HW216020   1.062   1.414   5.148
 5041SOL     OW16021   6.474   2.424   1.622
 5041SOL    HW116022   6.395   2.384   1.669
 5041SOL    HW216023   6.536   2.350   1.595
 5042SOL     OW16024   0.982   1.770   5.124
 5042SOL    HW116025   1.081   1.753   5.132
 5042SOL    HW216026   0.959   1.855   5.170
 5043SOL     OW16027   2.112   0.310   0.739
 5043SOL    HW116028   2.090   0.339   0.646
 5043SOL    HW216029   2.170   0.379   0.783
 5044SOL     OW16030   7.000   6.085   1.468
 5044SOL    HW116031   6.988   6.177   1.432
 5044SOL    HW216032   6.977   6.018   1.397
 5045SOL     OW16033   6.079   2.478   3.001
 5045SOL    HW116034   6.027   2.561   2.981
 5045SOL    HW216035   6.088   2.423   2.919
 5046SOL     OW16036   4.328   3.019   1.672
 5046SOL    HW116037   4.406   3.054   1.723
 5046SOL    HW216038   4.350   2.928   1.637
 5047SOL     OW16039   2.445   5.409   3.320
 5047SOL    HW116040   2.436   5.312   3.296
 5047SOL    HW216041   2.430   5.421   3.418
 5048SOL     OW16042   1.430   7.016   5.732
 5048SOL    HW116043   1.344   6.965   5.740
 5048SOL    HW216044   1.465   7.006   5.639
 5049SOL     OW16045   3.743   1.924   6.280
 5049SOL    HW116046   3.766   1.997   6.345
 5049SOL    HW216047   3.656   1.883   6.305
 5050SOL     OW16048   1.298   0.672   0.965
 5050SOL    HW116049   1.210   0.718   0.977
 5050SOL    HW216050   1.292   0.580   1.003
 5051SOL     OW16051   4.344   3.999   0.897
 5051SOL    HW116052   4.426   4.056   0.905
 5051SOL    HW216053   4.309   3.977   0.988
 5052SOL     OW16054   1.790   4.293   4.339
 5052SOL    HW116055   1.692   4.311   4.325
 5052SOL    HW216056   1.843   4.369   4.300
 5053SOL     OW16057   6.833   0.774   0.489
 5053SOL    HW116058   6.893   0.846   0.454
 5053SOL    HW216059   6.738   0.794   0.464
 5054SOL     OW16060   4.481   5.657   2.999
 5054SOL    HW116061   4.545   5.707   3.057
 5054SOL    HW216062   4.420   5.721   2.953
 5055SOL     OW16063   5.733   4.374   5.656
 5055SOL    HW116064   5.635   4.390   5.668
 5055SOL    HW216065   5.784   4.429   5.722
 5056SOL     OW16066   6.343   5.350   3.207
 5056SOL    HW116067   6.394   5.320   3.288
 5056SOL    HW216068   6.261   5.295   3.197
 5057SOL     OW16069   6.877   6.071   2.719
 5057SOL    HW116070   6.905   6.059   2.814
 5057SOL    HW216071   6.811   6.146   2.713
 5058SOL     OW16072   2.726   6.026   5.485
 5058SOL    HW116073   2.707   6.032   5.583
 5058SOL    HW216074   2.661   5.963   5.443
 5059SOL     OW16075   6.636   6.200   2.650
 5059SOL    HW116076   6.579   6.207   2.568
 5059SOL    HW216077   6.658   6.292   2.683
 5060SOL     OW16078   6.926   2.889   0.138
 5060SOL    HW116079   6.870   2.894   0.055
 5060SOL    HW216080   6.876   2.930   0.214
 5061SOL     OW16081   5.467   3.781   0.681
 5061SOL    HW116082   5.517   3.814   0.601
 5061SOL    HW216083   5.446   3.684   0.669
 5062SOL     OW16084   6.563   0.330   6.633
 5062SOL    HW116085   6.660   0.309   6.632
 5062SOL    HW216086   6.550   0.427   6.610
 5063SOL     OW16087   1.441   6.418   2.068
 5063SOL    HW116088   1.405   6.507   2.094
 5063SOL    HW216089   1.520   6.429   2.008
 5064SOL     OW16090   4.991   4.498   6.584
 5064SOL    HW116091   5.051   4.530   6.510
 5064SOL    HW216092   4.914   4.562   6.593
 5065SOL     OW16093   2.062   0.013   5.935
 5065SOL    HW116094   2.082   0.084   6.002
 5065SOL    HW216095   1.965   7.014   5.940
 5066SOL     OW16096   4.707   4.572   0.078
 5066SOL    HW116097   4.665   4.543   7.016
 5066SOL    HW216098   4.638   4.572   0.150
 5067SOL     OW16099   5.382   0.907   6.249
 5067SOL    HW116100   5.390   0.964   6.331
 5067SOL    HW216101   5.291   0.865   6.247
 5068SOL     OW16102   3.443   5.348   1.726
 5068SOL    HW116103   3.497   5.273   1.689
 5068SOL    HW216104   3.347   5.319   1.734
 5069SOL     OW16105   6.788   5.240   2.985
 5069SOL    HW116106   6.741   5.229   3.073
 5069SOL    HW216107   6.777   5.157   2.931
 5070SOL     OW16108   4.881   2.525   3.922
 5070SOL    HW116109   4.967   2.558   3.884
 5070SOL    HW216110   4.891   2.517   4.022
 5071SOL     OW16111   5.086   1.464   1.750
 5071SOL    HW116112   5.104   1.444   1.654
 5071SOL    HW216113   5.106   1.561   1.767
 5072SOL     OW16114   0.560   4.305   2.330
 5072SOL    HW116115   0.523   4.318   2.238
 5072SOL    HW216116   0.547   4.210   2.359
 5073SOL     OW16117   4.387   2.292   3.595
 5073SOL    HW116118   4.420   2.255   3.508
 5073SOL    HW216119   4.373   2.391   3.586
 5074SOL     OW16120   4.059   3.686   5.127
 5074SOL    HW116121   3.962   3.661   5.120
 5074SOL    HW216122   4.108   3.654   5.046
 5075SOL     OW16123   6.314   0.124   4.729
 5075SOL    HW116124   6.285   0.168   4.644
 5075SOL    HW216125   6.238   0.071   4.766
 5076SOL     OW16126   5.421   0.347   0.093
 5076SOL    HW116127   5.440   0.355   7.019
 5076SOL    HW216128   5.362   0.422   0.121
 5077SOL     OW16129   0.033   0.937   2.916
 5077SOL    HW116130   0.015   0.996   2.994
 5077SOL    HW216131   0.125   0.955   2.882
 5078SOL     OW16132   0.209   2.054   4.606
 5078SOL    HW116133   0.300   2.093   4.594
 5078SOL    HW216134   0.214   1.974   4.665
 5079SOL     OW16135   5.160   5.439   4.328
 5079SOL    HW116136   5.092   5.431   4.401
 5079SOL    HW216137   5.149   5.528   4.283
 5080SOL     OW16138   5.061   0.348   5.853
 5080SOL    HW116139   5.147   0.302   5.875
 5080SOL    HW216140   5.002   0.287   5.802
 5081SOL     OW16141   2.944   3.392   3.177
 5081SOL    HW116142   2.926   3.451   3.255
 5081SOL    HW216143   2.975   3.302   3.209
 5082SOL     OW16144   1.144   2.146   5.313
 5082SOL    HW116145   1.138   2.050   5.337
 5082SOL    HW216146   1.054   2.177   5.280
 5083SOL     OW16147   0.958   3.462   2.172
 5083SOL    HW116148   0.938   3.511   2.257
 5083SOL    HW216149   1.051   3.485   2.142
 5084SOL     OW16150   1.590   5.600   2.334
 5084SOL    HW116151   1.628   5.508   2.323
 5084SOL    HW216152   1.543   5.627   2.250
 5085SOL     OW16153   6.752   2.472   0.731
 5085SOL    HW116154   6.687   2.459   0.805
 5085SOL    HW216155   6.756   2.390   0.674
 5086SOL     OW16156   6.721   4.522   4.331
 5086SOL    HW116157   6.788   4.595   4.322
 5086SOL    HW216158   6.750   4.442   4.278
 5087SOL     OW16159   5.855   5.585   6.081
 5087SOL    HW116160   5.860   5.519   6.155
 5087SOL    HW216161   5.920   5.660   6.098
 5088SOL     OW16162   5.655   1.337   6.185
 5088SOL    HW116163   5.741   1.291   6.161
 5088SOL    HW216164   5.582   1.270   6.194
 5089SOL     OW16165   5.079   2.833   4.221
 5089SOL    HW116166   5.107   2.788   4.137
 5089SOL    HW216167   5.097   2.773   4.299
 5090SOL     OW16168   0.860   5.175   0.018
 5090SOL    HW116169   0.796   5.100   7.023
 5090SOL    HW216170   0.941   5.138   0.065
 5091SOL     OW16171   0.777   5.744   4.455
 5091SOL    HW116172   0.826   5.773   4.373
 5091SOL    HW216173   0.812   5.656   4.486
 5092SOL     OW16174   3.729   3.629   0.389
 5092SOL    HW116175   3.813   3.642   0.442
 5092SOL    HW216176   3.686   3.543   0.418
 5093SOL     OW16177   0.623   0.679   2.272
 5093SOL    HW116178   0.622   0.754   2.206
 5093SOL    HW216179   0.578   0.708   2.356
 5094SOL     OW16180   1.078   0.437   6.193
 5094SOL    HW116181   1.119   0.424   6.102
 5094SOL    HW216182   1.022   0.358   6.216
 5095SOL     OW16183   3.255   6.756   4.413
 5095SOL    HW116184   3.337   6.778   4.467
 5095SOL    HW216185   3.224   6.664   4.437
 5096SOL     OW16186   3.140   6.031   1.802
 5096SOL    HW116187   3.223   6.029   1.746
 5096SOL    HW216188   3.163   6.003   1.895
 5097SOL     OW16189   1.153   2.126   0.116
 5097SOL    HW116190   1.115   2.140   0.025
 5097SOL    HW216191   1.246   2.163   0.120
 5098SOL     OW16192   1.698   3.093   3.046
 5098SOL    HW116193   1.762   3.165   3.018
 5098SOL    HW216194   1.666   3.044   2.966
 5099SOL     OW16195   0.462   1.695   4.302
 5099SOL    HW116196   0.528   1.758   4.341
 5099SOL    HW216197   0.394   1.746   4.249
 5100SOL     OW16198   5.083   4.648   5.128
 5100SOL    HW116199   5.123   4.699   5.204
 5100SOL    HW216200   5.067   4.553   5.156
 5101SOL     OW16201   5.723   6.250   0.605
 5101SOL    HW116202   5.715   6.348   0.589
 5101SOL    HW216203   5.653   6.202   0.552
 5102SOL     OW16204   4.339   6.354   3.482
 5102SOL    HW116205   4.401   6.276   3.479
 5102SOL    HW216206   4.354   6.405   3.566
 5103SOL     OW16207   1.711   1.975   3.785
 5103SOL    HW116208   1.697   1.891   3.838
 5103SOL    HW216209   1.805   1.977   3.750
 5104SOL     OW16210   0.788   0.708   0.717
 5104SOL    HW116211   0.711   0.649   0.695
 5104SOL    HW216212   0.836   0.673   0.798
 5105SOL     OW16213   1.681   3.369   0.709
 5105SOL    HW116214   1.695   3.468   0.713
 5105SOL    HW216215   1.702   3.336   0.617
 5106SOL     OW16216   2.100   0.065   1.763
 5106SOL    HW116217   2.136   0.094   1.851
 5106SOL    HW216218   2.004   0.092   1.756
 5107SOL     OW16219   1.100   0.097   6.025
 5107SOL    HW116220   1.027   0.146   6.072
 5107SOL    HW216221   1.171   0.072   6.091
 5108SOL     OW16222   4.060   3.136   4.378
 5108SOL    HW116223   4.033   3.232   4.377
 5108SOL    HW216224   4.105   3.116   4.465
 5109SOL     OW16225   1.031   2.841   2.143
 5109SOL    HW116226   0.992   2.778   2.211
 5109SOL    HW216227   1.091   2.906   2.189
 5110SOL     OW16228   1.398   6.004   5.369
 5110SOL    HW116229   1.459   5.996   5.448
 5110SOL    HW216230   1.308   5.967   5.393
 5111SOL     OW16231   1.136   1.248   6.771
 5111SOL    HW116232   1.102   1.316   6.836
 5111SOL    HW216233   1.069   1.174   6.761
 5112SOL     OW16234   0.716   0.226   3.550
 5112SOL    HW116235   0.626   0.227   3.592
 5112SOL    HW216236   0.708   0.206   3.453
 5113SOL     OW16237   1.053   2.027   6.786
 5113SOL    HW116238   1.035   2.081   6.704
 5113SOL    HW216239   1.022   1.933   6.771
 5114SOL     OW16240   5.189   4.971   6.365
 5114SOL    HW116241   5.160   4.890   6.315
 5114SOL    HW216242   5.139   5.051   6.331
 5115SOL     OW16243   2.879   3.773   5.475
 5115SOL    HW116244   2.942   3.733   5.409
 5115SOL    HW216245   2.867   3.871   5.456
 5116SOL     OW16246   6.247   4.519   1.195
 5116SOL    HW116247   6.237   4.607   1.150
 5116SOL    HW216248   6.158   4.489   1.230
 5117SOL     OW16249   2.403   6.196   2.103
 5117SOL    HW116250   2.433   6.114   2.054
 5117SOL    HW216251   2.395   6.175   2.201
 5118SOL     OW16252   4.697   0.086   1.308
 5118SOL    HW116253   4.629   0.059   1.376
 5118SOL    HW216254   4.783   0.039   1.327
 5119SOL     OW16255   6.413   0.920   3.400
 5119SOL    HW116256   6.457   0.992   3.347
 5119SOL    HW216257   6.368   0.961   3.480
 5120SOL     OW16258   3.635   1.181   1.123
 5120SOL    HW116259   3.629   1.259   1.061
 5120SOL    HW216260   3.698   1.113   1.085
 5121SOL     OW16261   1.115   3.711   4.134
 5121SOL    HW116262   1.166   3.794   4.154
 5121SOL    HW216263   1.077   3.716   4.042
 5122SOL     OW16264   2.655   5.729   2.940
 5122SOL    HW116265   2.586   5.672   2.895
 5122SOL    HW216266   2.738   5.676   2.954
 5123SOL     OW16267   6.625   3.332   1.845
 5123SOL    HW116268   6.570   3.271   1.902
 5123SOL    HW216269   6.663   3.280   1.769
 5124SOL     OW16270   3.380   6.894   6.887
 5124SOL    HW116271   3.475   6.869   6.869
 5124SOL    HW216272   3.330   6.814   6.921
 5125SOL     OW16273   0.965   1.766   6.761
 5125SOL    HW116274   1.042   1.753   6.699
 5125SOL    HW216275   0.912   1.681   6.768
 5126SOL     OW16276   4.069   1.320   0.484
 5126SOL    HW116277   3.973   1.335   0.507
 5126SOL    HW216278   4.126   1.380   0.540
 5127SOL     OW16279   4.945   3.872   5.588
 5127SOL    HW116280   5.031   3.914   5.558
 5127SOL    HW216281   4.942   3.777   5.556
 5128SOL     OW16282   0.367   0.852   6.944
 5128SOL    HW116283   0.302   0.842   6.868
 5128SOL    HW216284   0.348   0.937   6.994
 5129SOL     OW16285   4.517   2.592   4.268
 5129SOL    HW116286   4.550   2.565   4.359
 5129SOL    HW216287   4.550   2.685   4.247
 5130SOL     OW16288   1.694   6.766   4.624
 5130SOL    HW116289   1.674   6.851   4.672
 5130SOL    HW216290   1.628   6.696   4.651
 5131SOL     OW16291   3.882   4.838   2.755
 5131SOL    HW116292   3.824   4.866   2.679
 5131SOL    HW216293   3.838   4.862   2.841
 5132SOL     OW16294   3.449   2.080   6.365
 5132SOL    HW116295   3.505   2.016   6.417
 5132SOL    HW216296   3.359   2.090   6.409
 5133SOL     OW16297   2.594   3.869   6.535
 5133SOL    HW116298   2.616   3.966   6.548
 5133SOL    HW216299   2.644   3.834   6.456
 5134SOL     OW16300   5.482   5.866   1.884
 5134SOL    HW116301   5.448   5.959   1.869
 5134SOL    HW216302   5.553   5.845   1.817
 5135SOL     OW16303   1.414   3.042   2.666
 5135SOL    HW116304   1.376   2.995   2.586
 5135SOL    HW216305   1.472   3.118   2.636
 5136SOL     OW16306   6.755   0.763   5.292
 5136SOL    HW116307   6.776   0.858   5.270
 5136SOL    HW216308   6.762   0.706   5.210
 5137SOL     OW16309   5.148   0.693   3.315
 5137SOL    HW116310   5.057   0.718   3.348
 5137SOL    HW216311   5.215   0.756   3.353
 5138SOL     OW16312   3.678   3.452   3.111
 5138SOL    HW116313   3.708   3.455   3.015
 5138SOL    HW216314   3.712   3.368   3.154
 5139SOL     OW16315   5.545   0.463   4.976
 5139SOL    HW116316   5.456   0.417   4.985
 5139SOL    HW216317   5.586   0.440   4.888
 5140SOL     OW16318   2.907   3.269   5.277
 5140SOL    HW116319   2.809   3.279   5.266
 5140SOL    HW216320   2.954   3.344   5.230
 5141SOL     OW16321   0.397   2.284   1.329
 5141SOL    HW116322   0.443   2.323   1.249
 5141SOL    HW216323   0.438   2.195   1.350
 5142SOL     OW16324   0.329   6.655   3.359
 5142SOL    HW116325   0.300   6.675   3.453
 5142SOL    HW216326   0.421   6.691   3.345
 5143SOL     OW16327   5.840   5.352   2.277
 5143SOL    HW116328   5.756   5.383   2.232
 5143SOL    HW216329   5.866   5.262   2.242
 5144SOL     OW16330   1.752   2.559   4.883
 5144SOL    HW116331   1.775   2.628   4.814
 5144SOL    HW216332   1.781   2.469   4.851
 5145SOL     OW16333   0.802   5.009   6.542
 5145SOL    HW116334   0.846   4.986   6.629
 5145SOL    HW216335   0.864   4.989   6.467
 5146SOL     OW16336   5.584   5.927   6.983
 5146SOL    HW116337   5.621   5.834   6.992
 5146SOL    HW216338   5.601   5.961   6.890
 5147SOL     OW16339   3.822   0.980   3.311
 5147SOL    HW116340   3.852   0.981   3.216
 5147SOL    HW216341   3.722   0.974   3.314
 5148SOL     OW16342   6.304   1.537   0.631
 5148SOL    HW116343   6.363   1.601   0.679
 5148SOL    HW216344   6.313   1.549   0.532
 5149SOL     OW16345   2.854   6.480   3.696
 5149SOL    HW116346   2.784   6.474   3.624
 5149SOL    HW216347   2.935   6.525   3.659
 5150SOL     OW16348   6.624   0.695   4.884
 5150SOL    HW116349   6.535   0.738   4.866
 5150SOL    HW216350   6.665   0.664   4.798
 5151SOL     OW16351   5.190   5.220   2.268
 5151SOL    HW116352   5.140   5.266   2.195
 5151SOL    HW216353   5.286   5.207   2.240
 5152SOL     OW16354   2.143   1.042   0.515
 5152SOL    HW116355   2.149   1.125   0.460
 5152SOL    HW216356   2.073   0.982   0.476
 5153SOL     OW16357   1.911   1.812   6.580
 5153SOL    HW116358   1.891   1.718   6.551
 5153SOL    HW216359   1.998   1.813   6.629
 5154SOL     OW16360   1.019   3.227   6.562
 5154SOL    HW116361   0.998   3.246   6.658
 5154SOL    HW216362   0.949   3.167   6.523
 5155SOL     OW16363   1.273   0.516   0.285
 5155SOL    HW116364   1.237   0.468   0.206
 5155SOL    HW216365   1.370   0.536   0.272
 5156SOL     OW16366   5.307   3.585   5.766
 5156SOL    HW116367   5.321   3.493   5.730
 5156SOL    HW216368   5.209   3.604   5.773
 5157SOL     OW16369   3.282   0.470   2.570
 5157SOL    HW116370   3.372   0.459   2.528
 5157SOL    HW216371   3.267   0.398   2.638
 5158SOL     OW16372   1.022   2.677   1.742
 5158SOL    HW116373   0.983   2.751   1.797
 5158SOL    HW216374   1.122   2.678   1.752
 5159SOL     OW16375   6.457   3.140   5.857
 5159SOL    HW116376   6.533   3.194   5.821
 5159SOL    HW216377   6.451   3.152   5.956
 5160SOL     OW16378   5.753   0.461   3.221
 5160SOL    HW116379   5.851   0.479   3.210
 5160SOL    HW216380   5.735   0.427   3.313
 5161SOL     OW16381   1.232   1.591   6.810
 5161SOL    HW116382   1.208   1.649   6.888
 5161SOL    HW216383   1.234   1.646   6.727
 5162SOL     OW16384   0.355   0.781   6.321
 5162SOL    HW116385   0.414   0.843   6.372
 5162SOL    HW216386   0.348   0.812   6.226
 5163SOL     OW16387   3.681   1.464   1.566
 5163SOL    HW116388   3.748   1.484   1.638
 5163SOL    HW216389   3.611   1.403   1.603
 5164SOL     OW16390   2.391   2.433   0.232
 5164SOL    HW116391   2.453   2.357   0.213
 5164SOL    HW216392   2.386   2.492   0.151
 5165SOL     OW16393   1.062   5.582   5.081
 5165SOL    HW116394   1.013   5.536   5.154
 5165SOL    HW216395   1.148   5.535   5.063
 5166SOL     OW16396   6.504   5.827   6.289
 5166SOL    HW116397   6.562   5.761   6.336
 5166SOL    HW216398   6.531   5.833   6.193
 5167SOL     OW16399   6.131   3.123   6.403
 5167SOL    HW116400   6.174   3.212   6.415
 5167SOL    HW216401   6.107   3.085   6.492
 5168SOL     OW16402   6.145   0.911   3.968
 5168SOL    HW116403   6.194   0.894   4.054
 5168SOL    HW216404   6.089   0.831   3.947
 5169SOL     OW16405   4.904   6.179   4.446
 5169SOL    HW116406   4.847   6.156   4.525
 5169SOL    HW216407   4.978   6.240   4.475
 5170SOL     OW16408   2.276   2.633   6.352
 5170SOL    HW116409   2.290   2.536   6.335
 5170SOL    HW216410   2.353   2.685   6.316
 5171SOL     OW16411   0.859   6.942   6.054
 5171SOL    HW116412   0.943   6.996   6.047
 5171SOL    HW216413   0.785   6.999   6.092
 5172SOL     OW16414   4.747   5.380   6.068
 5172SOL    HW116415   4.681   5.443   6.109
 5172SOL    HW216416   4.743   5.386   5.969
 5173SOL     OW16417   4.574   6.337   4.291
 5173SOL    HW116418   4.547   6.400   4.218
 5173SOL    HW216419   4.593   6.247   4.251
 5174SOL     OW16420   0.534   5.643   4.078
 5174SOL    HW116421   0.577   5.731   4.098
 5174SOL    HW216422   0.537   5.585   4.159
 5175SOL     OW16423   2.853   2.021   6.595
 5175SOL    HW116424   2.951   2.013   6.578
 5175SOL    HW216425   2.810   2.071   6.519
 5176SOL     OW16426   5.744   6.243   5.887
 5176SOL    HW116427   5.725   6.256   5.984
 5176SOL    HW216428   5.786   6.327   5.850
 5177SOL     OW16429   4.630   4.921   1.036
 5177SOL    HW116430   4.599   4.826   1.028
 5177SOL    HW216431   4.626   4.965   0.947
 5178SOL     OW16432   0.774   3.871   1.500
 5178SOL    HW116433   0.821   3.824   1.425
 5178SOL    HW216434   0.722   3.803   1.553
 5179SOL     OW16435   4.328   5.850   2.899
 5179SOL    HW116436   4.352   5.862   2.803
 5179SOL    HW216437   4.356   5.931   2.951
 5180SOL     OW16438   3.289   5.257   2.880
 5180SOL    HW116439   3.268   5.228   2.973
 5180SOL    HW216440   3.229   5.332   2.853
 5181SOL     OW16441   6.875   1.485   5.617
 5181SOL    HW116442   6.836   1.448   5.533
 5181SOL    HW216443   6.910   1.577   5.600
 5182SOL     OW16444   1.936   6.542   2.157
 5182SOL    HW116445   2.012   6.504   2.105
 5182SOL    HW216446   1.892   6.470   2.211
 5183SOL     OW16447   5.108   2.025   3.808
 5183SOL    HW116448   5.031   2.081   3.838
 5183SOL    HW216449   5.094   1.931   3.837
 5184SOL     OW16450   3.439   1.070   1.749
 5184SOL    HW116451   3.457   1.087   1.846
 5184SOL    HW216452   3.453   0.973   1.729
 5185SOL     OW16453   6.451   0.649   0.976
 5185SOL    HW116454   6.390   0.624   0.901
 5185SOL    HW216455   6.472   0.568   1.031
 5186SOL     OW16456   6.885   2.407   6.573
 5186SOL    HW116457   6.972   2.387   6.529
 5186SOL    HW216458   6.857   2.328   6.627
 5187SOL     OW16459   0.815   4.291   4.884
 5187SOL    HW116460   0.781   4.369   4.937
 5187SOL    HW216461   0.901   4.260   4.924
 5188SOL     OW16462   6.499   0.892   1.604
 5188SOL    HW116463   6.474   0.853   1.515
 5188SOL    HW216464   6.444   0.975   1.620
 5189SOL     OW16465   5.721   6.065   6.480
 5189SOL    HW116466   5.722   6.044   6.578
 5189SOL    HW216467   5.790   6.010   6.434
 5190SOL     OW16468   1.624   4.757   0.810
 5190SOL    HW116469   1.561   4.709   0.872
 5190SOL    HW216470   1.579   4.839   0.776
 5191SOL     OW16471   3.280   4.107   1.130
 5191SOL    HW116472   3.338   4.159   1.193
 5191SOL    HW216473   3.211   4.058   1.182
 5192SOL     OW16474   0.656   4.346   2.626
 5192SOL    HW116475   0.603   4.319   2.706
 5192SOL    HW216476   0.602   4.329   2.543
 5193SOL     OW16477   4.162   0.674   5.219
 5193SOL    HW116478   4.169   0.627   5.131
 5193SOL    HW216479   4.247   0.662   5.270
 5194SOL     OW16480   3.920   1.765   4.943
 5194SOL    HW116481   3.896   1.678   4.986
 5194SOL    HW216482   3.965   1.749   4.856
 5195SOL     OW16483   1.915   1.439   4.951
 5195SOL    HW116484   1.997   1.404   4.995
 5195SOL    HW216485   1.934   1.458   4.854
 5196SOL     OW16486   6.275   6.056   2.700
 5196SOL    HW116487   6.274   5.989   2.626
 5196SOL    HW216488   6.212   6.130   2.679
 5197SOL     OW16489   2.223   3.724   5.533
 5197SOL    HW116490   2.291   3.743   5.462
 5197SOL    HW216491   2.162   3.651   5.503
 5198SOL     OW16492   6.624   5.616   3.821
 5198SOL    HW116493   6.702   5.647   3.875
 5198SOL    HW216494   6.647   5.530   3.774
 5199SOL     OW16495   0.481   5.074   1.283
 5199SOL    HW116496   0.565   5.020   1.289
 5199SOL    HW216497   0.465   5.121   1.370
 5200SOL     OW16498   0.430   4.619   6.162
 5200SOL    HW116499   0.333   4.640   6.176
 5200SOL    HW216500   0.453   4.534   6.210
 5201SOL     OW16501   0.758   5.617   4.779
 5201SOL    HW116502   0.679   5.558   4.760
 5201SOL    HW216503   0.810   5.631   4.695
 5202SOL     OW16504   0.170   4.986   1.456
 5202SOL    HW116505   0.189   5.074   1.499
 5202SOL    HW216506   0.184   4.993   1.357
 5203SOL     OW16507   6.524   3.656   6.982
 5203SOL    HW116508   6.463   3.682   6.907
 5203SOL    HW216509   6.477   3.593   0.020
 5204SOL     OW16510   5.430   5.158   6.354
 5204SOL    HW116511   5.374   5.209   6.419
 5204SOL    HW216512   5.431   5.061   6.381
 5205SOL     OW16513   3.059   5.811   0.771
 5205SOL    HW116514   3.147   5.802   0.725
 5205SOL    HW216515   2.987   5.771   0.714
 5206SOL     OW16516   0.190   4.145   4.636
 5206SOL    HW116517   0.184   4.050   4.606
 5206SOL    HW216518   0.098   4.178   4.659
 5207SOL     OW16519   1.592   6.297   1.798
 5207SOL    HW116520   1.638   6.356   1.864
 5207SOL    HW216521   1.645   6.295   1.713
 5208SOL     OW16522   4.330   2.042   0.800
 5208SOL    HW116523   4.389   2.046   0.880
 5208SOL    HW216524   4.383   2.061   0.718
 5209SOL     OW16525   6.110   5.519   3.205
 5209SOL    HW116526   6.118   5.605   3.155
 5209SOL    HW216527   6.200   5.488   3.234
 5210SOL     OW16528   4.885   3.408   3.556
 5210SOL    HW116529   4.903   3.355   3.639
 5210SOL    HW216530   4.824   3.356   3.496
 5211SOL     OW16531   3.017   4.281   1.693
 5211SOL    HW116532   2.989   4.354   1.754
 5211SOL    HW216533   2.975   4.195   1.722
 5212SOL     OW16534   6.884   6.778   6.581
 5212SOL    HW116535   6.962   6.839   6.588
 5212SOL    HW216536   6.901   6.695   6.634
 5213SOL     OW16537   4.263   1.785   6.859
 5213SOL    HW116538   4.278   1.689   6.837
 5213SOL    HW216539   4.290   1.841   6.781
 5214SOL     OW16540   4.329   1.841   0.092
 5214SOL    HW116541   4.321   1.825   7.017
 5214SOL    HW216542   4.332   1.940   0.109
 5215SOL     OW16543   6.091   5.877   4.628
 5215SOL    HW116544   6.014   5.814   4.617
 5215SOL    HW216545   6.173   5.826   4.651
 5216SOL     OW16546   2.997   6.656   0.811
 5216SOL    HW116547   2.986   6.557   0.817
 5216SOL    HW216548   2.968   6.687   0.720
 5217SOL     OW16549   2.983   5.229   3.364
 5217SOL    HW116550   3.034   5.264   3.285
 5217SOL    HW216551   3.047   5.186   3.428
 5218SOL     OW16552   1.294   0.498   3.550
 5218SOL    HW116553   1.214   0.550   3.521
 5218SOL    HW216554   1.376   0.552   3.536
 5219SOL     OW16555   3.172   6.555   1.023
 5219SOL    HW116556   3.182   6.644   1.068
 5219SOL    HW216557   3.133   6.569   0.932
 5220SOL     OW16558   0.965   6.957   1.718
 5220SOL    HW116559   0.885   7.016   1.725
 5220SOL    HW216560   1.036   6.990   1.780
 5221SOL     OW16561   4.915   1.281   0.375
 5221SOL    HW116562   4.978   1.318   0.443
 5221SOL    HW216563   4.933   1.184   0.361
 5222SOL     OW16564   6.506   4.922   2.239
 5222SOL    HW116565   6.436   4.890   2.302
 5222SOL    HW216566   6.533   4.847   2.178
 5223SOL     OW16567   3.740   6.441   1.381
 5223SOL    HW116568   3.737   6.539   1.402
 5223SOL    HW216569   3.690   6.425   1.295
 5224SOL     OW16570   5.297   0.193   3.234
 5224SOL    HW116571   5.294   0.111   3.177
 5224SOL    HW216572   5.364   0.257   3.198
 5225SOL     OW16573   0.427   0.303   5.397
 5225SOL    HW116574   0.332   0.328   5.377
 5225SOL    HW216575   0.446   0.213   5.357
 5226SOL     OW16576   2.664   0.686   3.258
 5226SOL    HW116577   2.639   0.665   3.352
 5226SOL    HW216578   2.580   0.695   3.203
 5227SOL     OW16579   5.530   4.061   4.554
 5227SOL    HW116580   5.448   4.041   4.501
 5227SOL    HW216581   5.592   3.983   4.551
 5228SOL     OW16582   5.075   0.050   2.265
 5228SOL    HW116583   5.116   6.984   2.277
 5228SOL    HW216584   4.979   0.040   2.240
 5229SOL     OW16585   0.457   3.680   4.107
 5229SOL    HW116586   0.555   3.695   4.094
 5229SOL    HW216587   0.413   3.765   4.136
 5230SOL     OW16588   0.928   1.827   6.412
 5230SOL    HW116589   0.854   1.867   6.358
 5230SOL    HW216590   1.013   1.878   6.396
 5231SOL     OW16591   3.052   3.873   3.250
 5231SOL    HW116592   3.099   3.955   3.281
 5231SOL    HW216593   3.043   3.875   3.150
 5232SOL     OW16594   5.561   2.738   4.988
 5232SOL    HW116595   5.584   2.726   4.892
 5232SOL    HW216596   5.509   2.660   5.021
 5233SOL     OW16597   0.660   6.751   2.406
 5233SOL    HW116598   0.648   6.805   2.489
 5233SOL    HW216599   0.624   6.659   2.420
 5234SOL     OW16600   3.408   4.087   2.034
 5234SOL    HW116601   3.406   4.001   1.982
 5234SOL    HW216602   3.501   4.104   2.066
 5235SOL     OW16603   0.732   1.698   1.921
 5235SOL    HW116604   0.735   1.609   1.876
 5235SOL    HW216605   0.734   1.686   2.020
 5236SOL     OW16606   6.837   2.898   1.414
 5236SOL    HW116607   6.813   2.801   1.419
 5236SOL    HW216608   6.766   2.947   1.363
 5237SOL     OW16609   1.991   2.367   2.730
 5237SOL    HW116610   2.043   2.315   2.798
 5237SOL    HW216611   2.031   2.458   2.720
 5238SOL     OW16612   1.662   3.338   1.669
 5238SOL    HW116613   1.711   3.318   1.754
 5238SOL    HW216614   1.723   3.385   1.606
 5239SOL     OW16615   3.066   3.074   4.953
 5239SOL    HW116616   3.053   2.975   4.961
 5239SOL    HW216617   3.092   3.097   4.860
 5240SOL     OW16618   4.148   2.312   4.166
 5240SOL    HW116619   4.120   2.395   4.117
 5240SOL    HW216620   4.114   2.231   4.118
 5241SOL     OW16621   4.190   5.906   5.345
 5241SOL    HW116622   4.187   5.815   5.388
 5241SOL    HW216623   4.247   5.967   5.401
 5242SOL     OW16624   2.806   0.817   6.494
 5242SOL    HW116625   2.719   0.867   6.502
 5242SOL    HW216626   2.811   0.774   6.404
 5243SOL     OW16627   2.184   3.740   6.890
 5243SOL    HW116628   2.230   3.732   6.978
 5243SOL    HW216629   2.218   3.668   6.829
 5244SOL     OW16630   6.300   3.244   6.716
 5244SOL    HW116631   6.359   3.230   6.636
 5244SOL    HW216632   6.295   3.342   6.737
 5245SOL     OW16633   3.964   4.836   6.215
 5245SOL    HW116634   3.866   4.829   6.237
 5245SOL    HW216635   3.974   4.874   6.123
 5246SOL     OW16636   1.403   3.876   3.595
 5246SOL    HW116637   1.457   3.896   3.677
 5246SOL    HW216638   1.449   3.805   3.541
 5247SOL     OW16639   0.825   4.228   6.586
 5247SOL    HW116640   0.912   4.189   6.617
 5247SOL    HW216641   0.772   4.258   6.665
 5248SOL     OW16642   4.935   2.255   0.259
 5248SOL    HW116643   4.920   2.235   0.162
 5248SOL    HW216644   4.903   2.178   0.315
 5249SOL     OW16645   0.991   5.247   6.655
 5249SOL    HW116646   0.892   5.256   6.670
 5249SOL    HW216647   1.022   5.321   6.595
 5250SOL     OW16648   2.134   1.582   5.147
 5250SOL    HW116649   2.055   1.605   5.203
 5250SOL    HW216650   2.145   1.483   5.143
 5251SOL     OW16651   1.121   2.649   2.600
 5251SOL    HW116652   1.067   2.733   2.609
 5251SOL    HW216653   1.188   2.660   2.527
 5252SOL     OW16654   5.613   5.683   1.311
 5252SOL    HW116655   5.700   5.635   1.322
 5252SOL    HW216656   5.546   5.620   1.272
 5253SOL     OW16657   5.793   3.038   4.529
 5253SOL    HW116658   5.832   3.115   4.578
 5253SOL    HW216659   5.703   3.016   4.567
 5254SOL     OW16660   5.242   0.300   4.945
 5254SOL    HW116661   5.224   0.367   4.873
 5254SOL    HW216662   5.284   0.219   4.904
 5255SOL     OW16663   2.036   5.088   2.114
 5255SOL    HW116664   1.965   5.116   2.049
 5255SOL    HW216665   2.081   5.006   2.080
 5256SOL     OW16666   4.505   6.034   1.828
 5256SOL    HW116667   4.552   5.946   1.839
 5256SOL    HW216668   4.545   6.101   1.891
 5257SOL     OW16669   2.093   1.200   1.996
 5257SOL    HW116670   2.140   1.283   1.965
 5257SOL    HW216671   2.022   1.224   2.061
 5258SOL     OW16672   5.056   2.393   1.326
 5258SOL    HW116673   5.016   2.477   1.362
 5258SOL    HW216674   5.136   2.415   1.270
 5259SOL     OW16675   5.234   5.027   0.968
 5259SOL    HW116676   5.152   4.969   0.967
 5259SOL    HW216677   5.214   5.113   1.016
 5260SOL     OW16678   5.514   3.127   2.094
 5260SOL    HW116679   5.421   3.109   2.063
 5260SOL    HW216680   5.547   3.212   2.053
 5261SOL     OW16681   2.407   2.737   4.608
 5261SOL    HW116682   2.416   2.698   4.700
 5261SOL    HW216683   2.437   2.670   4.540
 5262SOL     OW16684   0.886   0.564   2.285
 5262SOL    HW116685   0.930   0.612   2.209
 5262SOL    HW216686   0.790   0.591   2.291
 5263SOL     OW16687   1.270   6.395   6.183
 5263SOL    HW116688   1.192   6.364   6.237
 5263SOL    HW216689   1.261   6.361   6.089
 5264SOL     OW16690   1.206   1.358   0.797
 5264SOL    HW116691   1.230   1.262   0.786
 5264SOL    HW216692   1.209   1.403   0.707
 5265SOL     OW16693   4.823   5.426   3.963
 5265SOL    HW116694   4.801   5.364   4.038
 5265SOL    HW216695   4.831   5.374   3.878
 5266SOL     OW16696   0.711   6.638   0.894
 5266SOL    HW116697   0.647   6.562   0.883
 5266SOL    HW216698   0.667   6.712   0.944
 5267SOL     OW16699   3.608   3.661   4.422
 5267SOL    HW116700   3.593   3.573   4.467
 5267SOL    HW216701   3.614   3.733   4.491
 5268SOL     OW16702   5.994   4.315   6.681
 5268SOL    HW116703   5.952   4.268   6.604
 5268SOL    HW216704   5.925   4.371   6.728
 5269SOL     OW16705   2.492   5.291   5.416
 5269SOL    HW116706   2.477   5.216   5.481
 5269SOL    HW216707   2.572   5.270   5.360
 5270SOL     OW16708   6.981   1.096   3.138
 5270SOL    HW116709   0.013   1.168   3.098
 5270SOL    HW216710   7.010   1.081   3.233
 5271SOL     OW16711   6.033   3.466   4.952
 5271SOL    HW116712   6.049   3.499   4.859
 5271SOL    HW216713   6.090   3.386   4.969
 5272SOL     OW16714   2.312   2.562   3.622
 5272SOL    HW116715   2.216   2.591   3.632
 5272SOL    HW216716   2.353   2.610   3.544
 5273SOL     OW16717   0.118   1.599   5.451
 5273SOL    HW116718   0.072   1.561   5.531
 5273SOL    HW216719   0.056   1.597   5.373
 5274SOL     OW16720   0.260   4.682   4.957
 5274SOL    HW116721   0.262   4.615   4.883
 5274SOL    HW216722   0.274   4.773   4.920
 5275SOL     OW16723   2.433   6.348   6.449
 5275SOL    HW116724   2.375   6.416   6.403
 5275SOL    HW216725   2.376   6.273   6.482
 5276SOL     OW16726   0.082   1.335   6.746
 5276SOL    HW116727   0.161   1.286   6.783
 5276SOL    HW216728   0.106   1.379   6.660
 5277SOL     OW16729   1.060   0.626   1.489
 5277SOL    HW116730   1.056   0.714   1.442
 5277SOL    HW216731   1.072   0.553   1.422
 5278SOL     OW16732   0.530   4.787   0.095
 5278SOL    HW116733   0.442   4.778   0.143
 5278SOL    HW216734   0.526   4.736   0.009
 5279SOL     OW16735   2.719   6.850   0.178
 5279SOL    HW116736   2.719   6.949   0.167
 5279SOL    HW216737   2.676   6.807   0.099
 5280SOL     OW16738   4.285   6.343   6.097
 5280SOL    HW116739   4.346   6.297   6.162
 5280SOL    HW216740   4.272   6.438   6.125
 5281SOL     OW16741   2.449   6.618   4.321
 5281SOL    HW116742   2.384   6.653   4.254
 5281SOL    HW216743   2.429   6.522   4.341
 5282SOL     OW16744   6.549   6.301   1.146
 5282SOL    HW116745   6.552   6.401   1.144
 5282SOL    HW216746   6.640   6.265   1.165
 5283SOL     OW16747   1.736   0.333   4.148
 5283SOL    HW116748   1.783   0.371   4.068
 5283SOL    HW216749   1.665   0.398   4.178
 5284SOL     OW16750   4.944   3.490   2.117
 5284SOL    HW116751   4.902   3.431   2.048
 5284SOL    HW216752   5.042   3.472   2.122
 5285SOL     OW16753   2.291   1.802   3.833
 5285SOL    HW116754   2.253   1.888   3.868
 5285SOL    HW216755   2.219   1.750   3.789
 5286SOL     OW16756   0.055   3.052   1.887
 5286SOL    HW116757   6.997   3.005   1.919
 5286SOL    HW216758   0.131   3.034   1.949
 5287SOL     OW16759   0.288   5.673   2.084
 5287SOL    HW116760   0.201   5.680   2.036
 5287SOL    HW216761   0.362   5.702   2.024
 5288SOL     OW16762   4.233   0.721   2.259
 5288SOL    HW116763   4.141   0.713   2.220
 5288SOL    HW216764   4.289   0.644   2.228
 5289SOL     OW16765   1.673   5.347   6.772
 5289SOL    HW116766   1.637   5.305   6.689
 5289SOL    HW216767   1.598   5.385   6.826
 5290SOL     OW16768   2.330   2.202   5.208
 5290SOL    HW116769   2.369   2.245   5.289
 5290SOL    HW216770   2.325   2.269   5.133
 5291SOL     OW16771   2.727   6.672   4.840
 5291SOL    HW116772   2.682   6.746   4.890
 5291SOL    HW216773   2.659   6.605   4.810
 5292SOL     OW16774   0.703   3.841   4.136
 5292SOL    HW116775   0.730   3.911   4.202
 5292SOL    HW216776   0.675   3.885   4.051
 5293SOL     OW16777   2.812   0.480   3.620
 5293SOL    HW116778   2.794   0.556   3.682
 5293SOL    HW216779   2.827   0.515   3.528
 5294SOL     OW16780   5.065   0.210   4.618
 5294SOL    HW116781   5.050   0.182   4.713
 5294SOL    HW216782   5.069   0.129   4.559
 5295SOL     OW16783   2.282   0.547   0.767
 5295SOL    HW116784   2.269   0.619   0.698
 5295SOL    HW216785   2.366   0.497   0.748
 5296SOL     OW16786   5.016   5.261   2.069
 5296SOL    HW116787   4.930   5.273   2.118
 5296SOL    HW216788   5.002   5.201   1.990
 5297SOL     OW16789   3.847   5.026   5.669
 5297SOL    HW116790   3.756   5.040   5.631
 5297SOL    HW216791   3.866   4.928   5.676
 5298SOL     OW16792   3.363   0.641   6.631
 5298SOL    HW116793   3.402   0.550   6.621
 5298SOL    HW216794   3.297   0.641   6.707
 5299SOL     OW16795   1.535   0.627   1.287
 5299SOL    HW116796   1.634   0.622   1.281
 5299SOL    HW216797   1.494   0.563   1.222
 5300SOL     OW16798   2.942   4.543   6.245
 5300SOL    HW116799   3.024   4.594   6.273
 5300SOL    HW216800   2.969   4.453   6.212
 5301SOL     OW16801   5.599   0.455   5.609
 5301SOL    HW116802   5.539   0.501   5.543
 5301SOL    HW216803   5.640   0.524   5.670
 5302SOL     OW16804   4.627   5.821   3.235
 5302SOL    HW116805   4.670   5.871   3.161
 5302SOL    HW216806   4.691   5.809   3.310
 5303SOL     OW16807   1.685   6.293   5.577
 5303SOL    HW116808   1.633   6.375   5.555
 5303SOL    HW216809   1.640   6.243   5.651
 5304SOL     OW16810   0.176   6.873   2.794
 5304SOL    HW116811   0.271   6.892   2.767
 5304SOL    HW216812   0.115   6.935   2.745
 5305SOL     OW16813   6.205   5.408   5.233
 5305SOL    HW116814   6.279   5.452   5.284
 5305SOL    HW216815   6.122   5.407   5.289
 5306SOL     OW16816   1.297   1.747   0.021
 5306SOL    HW116817   1.372   1.810   0.002
 5306SOL    HW216818   1.211   1.798   0.025
 5307SOL     OW16819   1.389   1.325   1.871
 5307SOL    HW116820   1.375   1.238   1.918
 5307SOL    HW216821   1.379   1.311   1.772
 5308SOL     OW16822   1.904   4.629   3.761
 5308SOL    HW116823   1.883   4.572   3.840
 5308SOL    HW216824   2.004   4.639   3.753
 5309SOL     OW16825   6.137   6.017   2.358
 5309SOL    HW116826   6.137   6.046   2.263
 5309SOL    HW216827   6.230   5.991   2.385
 5310SOL     OW16828   5.751   1.915   3.777
 5310SOL    HW116829   5.727   1.960   3.691
 5310SOL    HW216830   5.818   1.843   3.760
 5311SOL     OW16831   5.911   0.061   6.984
 5311SOL    HW116832   5.838   0.040   6.919
 5311SOL    HW216833   5.926   0.160   6.986
 5312SOL     OW16834   4.961   6.523   0.751
 5312SOL    HW116835   5.039   6.461   0.748
 5312SOL    HW216836   4.982   6.606   0.699
 5313SOL     OW16837   0.841   6.548   5.828
 5313SOL    HW116838   0.908   6.490   5.781
 5313SOL    HW216839   0.761   6.493   5.852
 5314SOL     OW16840   5.650   1.693   2.789
 5314SOL    HW116841   5.709   1.641   2.728
 5314SOL    HW216842   5.630   1.782   2.749
 5315SOL     OW16843   4.308   1.324   3.432
 5315SOL    HW116844   4.390   1.381   3.424
 5315SOL    HW216845   4.325   1.235   3.390
 5316SOL     OW16846   0.246   2.606   5.734
 5316SOL    HW116847   0.201   2.517   5.735
 5316SOL    HW216848   0.246   2.642   5.641
 5317SOL     OW16849   5.669   2.958   2.262
 5317SOL    HW116850   5.623   3.031   2.212
 5317SOL    HW216851   5.631   2.869   2.236
 5318SOL     OW16852   7.016   4.719   6.596
 5318SOL    HW116853   0.016   4.799   6.651
 5318SOL    HW216854   6.925   4.733   6.556
 5319SOL     OW16855   4.220   5.714   2.251
 5319SOL    HW116856   4.275   5.732   2.333
 5319SOL    HW216857   4.170   5.796   2.226
 5320SOL     OW16858   4.485   6.027   0.657
 5320SOL    HW116859   4.430   5.958   0.610
 5320SOL    HW216860   4.573   6.036   0.611
 5321SOL     OW16861   1.288   4.193   5.181
 5321SOL    HW116862   1.371   4.151   5.219
 5321SOL    HW216863   1.313   4.260   5.111
 5322SOL     OW16864   4.041   5.719   1.874
 5322SOL    HW116865   4.110   5.649   1.895
 5322SOL    HW216866   4.083   5.809   1.879
 5323SOL     OW16867   4.595   0.006   6.345
 5323SOL    HW116868   4.559   0.050   6.262
 5323SOL    HW216869   4.575   0.063   6.424
 5324SOL     OW16870   1.107   1.184   1.810
 5324SOL    HW116871   1.139   1.107   1.755
 5324SOL    HW216872   1.043   1.151   1.879
 5325SOL     OW16873   2.092   3.102   4.059
 5325SOL    HW116874   2.069   3.199   4.050
 5325SOL    HW216875   2.015   3.053   4.100
 5326SOL     OW16876   6.205   0.445   0.903
 5326SOL    HW116877   6.192   0.500   0.985
 5326SOL    HW216878   6.237   0.353   0.930
 5327SOL     OW16879   0.722   1.957   6.295
 5327SOL    HW116880   0.686   1.977   6.386
 5327SOL    HW216881   0.726   2.042   6.242
 5328SOL     OW16882   4.108   5.245   0.347
 5328SOL    HW116883   4.085   5.265   0.252
 5328SOL    HW216884   4.085   5.323   0.404
 5329SOL     OW16885   2.303   5.971   6.321
 5329SOL    HW116886   2.310   6.012   6.411
 5329SOL    HW216887   2.268   5.878   6.329
 5330SOL     OW16888   2.545   5.298   0.638
 5330SOL    HW116889   2.499   5.373   0.685
 5330SOL    HW216890   2.563   5.324   0.543
 5331SOL     OW16891   5.779   1.822   6.693
 5331SOL    HW116892   5.724   1.863   6.766
 5331SOL    HW216893   5.730   1.831   6.606
 5332SOL     OW16894   0.651   5.062   2.769
 5332SOL    HW116895   0.702   4.999   2.711
 5332SOL    HW216896   0.641   5.022   2.861
 5333SOL     OW16897   0.800   6.267   4.430
 5333SOL    HW116898   0.814   6.327   4.509
 5333SOL    HW216899   0.729   6.200   4.451
 5334SOL     OW16900   3.148   6.982   5.187
 5334SOL    HW116901   3.204   0.023   5.135
 5334SOL    HW216902   3.207   6.927   5.245
 5335SOL     OW16903   6.015   6.429   0.853
 5335SOL    HW116904   6.037   6.355   0.789
 5335SOL    HW216905   5.972   6.504   0.804
 5336SOL     OW16906   0.779   3.693   1.828
 5336SOL    HW116907   0.688   3.706   1.789
 5336SOL    HW216908   0.775   3.704   1.927
 5337SOL     OW16909   5.222   5.011   1.549
 5337SOL    HW116910   5.322   5.010   1.549
 5337SOL    HW216911   5.188   4.991   1.457
 5338SOL     OW16912   5.647   2.723   0.287
 5338SOL    HW116913   5.564   2.768   0.322
 5338SOL    HW216914   5.631   2.625   0.280
 5339SOL     OW16915   6.019   0.876   2.358
 5339SOL    HW116916   6.065   0.878   2.447
 5339SOL    HW216917   6.002   0.782   2.330
 5340SOL     OW16918   5.498   2.228   0.394
 5340SOL    HW116919   5.417   2.286   0.406
 5340SOL    HW216920   5.475   2.150   0.337
 5341SOL     OW16921   4.540   0.416   1.247
 5341SOL    HW116922   4.593   0.497   1.222
 5341SOL    HW216923   4.469   0.399   1.178
 5342SOL     OW16924   1.833   0.386   5.534
 5342SOL    HW116925   1.846   0.323   5.457
 5342SOL    HW216926   1.921   0.407   5.576
 5343SOL     OW16927   3.178   3.833   1.295
 5343SOL    HW116928   3.124   3.865   1.372
 5343SOL    HW216929   3.144   3.743   1.265
 5344SOL     OW16930   1.984   2.995   2.972
 5344SOL    HW116931   1.928   2.983   3.054
 5344SOL    HW216932   2.025   3.086   2.973
 5345SOL     OW16933   5.155   0.312   2.974
 5345SOL    HW116934   5.181   0.394   3.025
 5345SOL    HW216935   5.056   0.311   2.959
 5346SOL     OW16936   3.716   0.959   4.273
 5346SOL    HW116937   3.706   1.017   4.354
 5346SOL    HW216938   3.796   0.988   4.220
 5347SOL     OW16939   6.675   1.691   2.113
 5347SOL    HW116940   6.766   1.730   2.129
 5347SOL    HW216941   6.617   1.708   2.192
 5348SOL     OW16942   6.587   1.555   0.320
 5348SOL    HW116943   6.596   1.519   0.413
 5348SOL    HW216944   6.635   1.495   0.256
 5349SOL     OW16945   5.409   0.904   0.102
 5349SOL    HW116946   5.329   0.845   0.092
 5349SOL    HW216947   5.380   0.997   0.123
 5350SOL     OW16948   2.915   0.894   6.925
 5350SOL    HW116949   2.949   0.962   6.990
 5350SOL    HW216950   2.910   0.805   6.969
 5351SOL     OW16951   4.716   1.449   2.095
 5351SOL    HW116952   4.733   1.383   2.168
 5351SOL    HW216953   4.639   1.417   2.039
 5352SOL     OW16954   4.086   0.505   4.038
 5352SOL    HW116955   4.066   0.558   4.120
 5352SOL    HW216956   4.001   0.477   3.994
 5353SOL     OW16957   6.392   0.601   6.230
 5353SOL    HW116958   6.358   0.564   6.143
 5353SOL    HW216959   6.337   0.566   6.305
 5354SOL     OW16960   0.724   2.245   1.200
 5354SOL    HW116961   0.785   2.173   1.170
 5354SOL    HW216962   0.773   2.309   1.260
 5355SOL     OW16963   4.574   1.182   5.610
 5355SOL    HW116964   4.545   1.105   5.555
 5355SOL    HW216965   4.506   1.256   5.603
 5356SOL     OW16966   6.352   3.599   2.118
 5356SOL    HW116967   6.347   3.695   2.090
 5356SOL    HW216968   6.330   3.591   2.215
 5357SOL     OW16969   4.498   5.504   0.155
 5357SOL    HW116970   4.449   5.503   0.068
 5357SOL    HW216971   4.556   5.423   0.162
 5358SOL     OW16972   5.420   4.183   1.599
 5358SOL    HW116973   5.410   4.092   1.559
 5358SOL    HW216974   5.495   4.232   1.554
 5359SOL     OW16975   2.606   0.563   5.387
 5359SOL    HW116976   2.524   0.539   5.335
 5359SOL    HW216977   2.623   0.491   5.455
 5360SOL     OW16978   4.309   2.439   0.365
 5360SOL    HW116979   4.401   2.424   0.329
 5360SOL    HW216980   4.294   2.378   0.443
 5361SOL     OW16981   0.809   1.506   6.760
 5361SOL    HW116982   0.734   1.525   6.696
 5361SOL    HW216983   0.817   1.407   6.773
 5362SOL     OW16984   4.543   6.047   4.138
 5362SOL    HW116985   4.598   5.969   4.108
 5362SOL    HW216986   4.481   6.074   4.065
 5363SOL     OW16987   0.543   6.034   4.872
 5363SOL    HW116988   0.601   5.956   4.897
 5363SOL    HW216989   0.490   6.011   4.791
 5364SOL     OW16990   1.189   5.623   6.778
 5364SOL    HW116991   1.103   5.610   6.828
 5364SOL    HW216992   1.169   5.636   6.681
 5365SOL     OW16993   4.006   2.507   6.273
 5365SOL    HW116994   4.058   2.498   6.358
 5365SOL    HW216995   4.054   2.568   6.210
 5366SOL     OW16996   4.057   3.720   5.681
 5366SOL    HW116997   4.155   3.714   5.661
 5366SOL    HW216998   4.015   3.791   5.625
 5367SOL     OW16999   6.963   3.638   1.344
 5367SOL    HW117000   6.979   3.594   1.256
 5367SOL    HW217001   7.000   3.581   1.418
 5368SOL     OW17002   0.427   0.197   3.601
 5368SOL    HW117003   0.361   0.199   3.526
 5368SOL    HW217004   0.392   0.252   3.677
 5369SOL     OW17005   1.738   3.630   2.653
 5369SOL    HW117006   1.669   3.676   2.597
 5369SOL    HW217007   1.825   3.627   2.602
 5370SOL     OW17008   3.671   2.734   1.851
 5370SOL    HW117009   3.583   2.780   1.835
 5370SOL    HW217010   3.732   2.795   1.901
 5371SOL     OW17011   2.205   4.109   4.768
 5371SOL    HW117012   2.124   4.167   4.779
 5371SOL    HW217013   2.234   4.075   4.857
 5372SOL     OW17014   3.817   6.418   2.315
 5372SOL    HW117015   3.815   6.508   2.272
 5372SOL    HW217016   3.751   6.357   2.270
 5373SOL     OW17017   3.186   5.021   3.865
 5373SOL    HW117018   3.233   5.015   3.954
 5373SOL    HW217019   3.230   4.959   3.800
 5374SOL     OW17020   3.030   2.707   0.728
 5374SOL    HW117021   2.945   2.692   0.777
 5374SOL    HW217022   3.018   2.781   0.662
 5375SOL     OW17023   1.518   4.344   4.317
 5375SOL    HW117024   1.451   4.404   4.361
 5375SOL    HW217025   1.542   4.381   4.227
 5376SOL     OW17026   3.168   5.273   5.851
 5376SOL    HW117027   3.151   5.362   5.811
 5376SOL    HW217028   3.210   5.284   5.941
 5377SOL     OW17029   1.826   2.185   1.647
 5377SOL    HW117030   1.925   2.187   1.659
 5377SOL    HW217031   1.803   2.227   1.559
 5378SOL     OW17032   5.496   6.874   6.850
 5378SOL    HW117033   5.548   6.889   6.766
 5378SOL    HW217034   5.558   6.851   6.925
 5379SOL     OW17035   0.122   0.302   6.976
 5379SOL    HW117036   0.070   0.372   6.926
 5379SOL    HW217037   0.214   0.336   6.993
 5380SOL     OW17038   2.363   1.747   4.725
 5380SOL    HW117039   2.433   1.810   4.758
 5380SOL    HW217040   2.297   1.730   4.799
 5381SOL     OW17041   5.992   3.602   2.323
 5381SOL    HW117042   5.911   3.636   2.370
 5381SOL    HW217043   6.024   3.669   2.256
 5382SOL     OW17044   1.696   6.424   1.155
 5382SOL    HW117045   1.601   6.405   1.127
 5382SOL    HW217046   1.758   6.387   1.085
 5383SOL     OW17047   2.502   1.964   4.851
 5383SOL    HW117048   2.437   1.949   4.926
 5383SOL    HW217049   2.554   2.047   4.869
 5384SOL     OW17050   4.848   6.075   5.036
 5384SOL    HW117051   4.887   6.159   5.074
 5384SOL    HW217052   4.910   6.037   4.967
 5385SOL     OW17053   3.675   4.058   2.162
 5385SOL    HW117054   3.715   4.122   2.227
 5385SOL    HW217055   3.734   3.978   2.154
 5386SOL     OW17056   6.038   6.180   5.639
 5386SOL    HW117057   6.027   6.162   5.737
 5386SOL    HW217058   6.065   6.095   5.593
 5387SOL     OW17059   4.031   5.268   0.069
 5387SOL    HW117060   3.963   5.280   7.021
 5387SOL    HW217061   4.104   5.336   0.059
 5388SOL     OW17062   6.131   5.774   3.083
 5388SOL    HW117063   6.136   5.862   3.129
 5388SOL    HW217064   6.147   5.786   2.985
 5389SOL     OW17065   5.625   3.294   1.493
 5389SOL    HW117066   5.551   3.321   1.431
 5389SOL    HW217067   5.701   3.257   1.440
 5390SOL     OW17068   6.747   4.349   6.823
 5390SOL    HW117069   6.679   4.407   6.779
 5390SOL    HW217070   6.798   4.298   6.754
 5391SOL     OW17071   2.955   4.849   0.122
 5391SOL    HW117072   2.942   4.768   0.179
 5391SOL    HW217073   3.009   4.917   0.171
 5392SOL     OW17074   0.726   2.756   3.346
 5392SOL    HW117075   0.748   2.779   3.251
 5392SOL    HW217076   0.809   2.723   3.391
 5393SOL     OW17077   6.481   0.584   6.523
 5393SOL    HW117078   6.525   0.607   6.610
 5393SOL    HW217079   6.391   0.629   6.518
 5394SOL     OW17080   1.908   3.671   6.631
 5394SOL    HW117081   1.902   3.696   6.728
 5394SOL    HW217082   1.830   3.614   6.607
 5395SOL     OW17083   5.059   0.870   1.596
 5395SOL    HW117084   4.991   0.855   1.524
 5395SOL    HW217085   5.105   0.957   1.582
 5396SOL     OW17086   4.419   2.511   0.976
 5396SOL    HW117087   4.357   2.435   0.962
 5396SOL    HW217088   4.374   2.582   1.031
 5397SOL     OW17089   1.576   2.191   2.368
 5397SOL    HW117090   1.613   2.195   2.275
 5397SOL    HW217091   1.604   2.106   2.412
 5398SOL     OW17092   3.055   3.704   2.487
 5398SOL    HW117093   2.984   3.676   2.551
 5398SOL    HW217094   3.143   3.667   2.517
 5399SOL     OW17095   0.732   4.722   0.277
 5399SOL    HW117096   0.664   4.766   0.218
 5399SOL    HW217097   0.723   4.757   0.370
 5400SOL     OW17098   2.306   3.787   0.144
 5400SOL    HW117099   2.267   3.711   0.195
 5400SOL    HW217100   2.250   3.869   0.160
 5401SOL     OW17101   5.836   2.113   0.945
 5401SOL    HW117102   5.906   2.133   1.014
 5401SOL    HW217103   5.840   2.016   0.922
 5402SOL     OW17104   0.927   6.093   2.335
 5402SOL    HW117105   0.962   6.018   2.391
 5402SOL    HW217106   0.962   6.085   2.241
 5403SOL     OW17107   0.879   2.464   6.449
 5403SOL    HW117108   0.797   2.409   6.463
 5403SOL    HW217109   0.887   2.488   6.352
 5404SOL     OW17110   0.035   2.496   3.214
 5404SOL    HW117111   6.995   2.487   3.138
 5404SOL    HW217112   0.080   2.585   3.207
 5405SOL     OW17113   6.448   4.117   4.766
 5405SOL    HW117114   6.457   4.200   4.822
 5405SOL    HW217115   6.512   4.048   4.800
 5406SOL     OW17116   1.972   6.532   2.567
 5406SOL    HW117117   1.956   6.473   2.646
 5406SOL    HW217118   1.937   6.487   2.484
 5407SOL     OW17119   4.168   2.621   6.762
 5407SOL    HW117120   4.070   2.629   6.744
 5407SOL    HW217121   4.185   2.546   6.825
 5408SOL     OW17122   4.249   0.840   0.195
 5408SOL    HW117123   4.299   0.775   0.138
 5408SOL    HW217124   4.314   0.901   0.240
 5409SOL     OW17125   4.989   0.877   1.886
 5409SOL    HW117126   5.008   0.851   1.791
 5409SOL    HW217127   4.890   0.887   1.899
 5410SOL     OW17128   2.028   2.809   2.089
 5410SOL    HW117129   2.024   2.740   2.161
 5410SOL    HW217130   2.012   2.900   2.128
 5411SOL     OW17131   2.993   4.967   5.465
 5411SOL    HW117132   2.947   4.904   5.403
 5411SOL    HW217133   2.928   5.036   5.498
 5412SOL     OW17134   0.064   1.673   2.556
 5412SOL    HW117135   0.144   1.716   2.599
 5412SOL    HW217136   0.095   1.610   2.486
 5413SOL     OW17137   1.399   6.620   2.416
 5413SOL    HW117138   1.492   6.588   2.400
 5413SOL    HW217139   1.348   6.550   2.467
 5414SOL     OW17140   4.719   6.796   6.540
 5414SOL    HW117141   4.638   6.845   6.509
 5414SOL    HW217142   4.701   6.757   6.631
 5415SOL     OW17143   5.785   3.413   3.485
 5415SOL    HW117144   5.715   3.436   3.418
 5415SOL    HW217145   5.779   3.315   3.507
 5416SOL     OW17146   4.246   5.274   4.811
 5416SOL    HW117147   4.258   5.368   4.782
 5416SOL    HW217148   4.192   5.272   4.896
 5417SOL     OW17149   2.331   0.223   5.727
 5417SOL    HW117150   2.277   0.173   5.660
 5417SOL    HW217151   2.337   0.169   5.812
 5418SOL     OW17152   3.294   1.530   3.710
 5418SOL    HW117153   3.374   1.473   3.730
 5418SOL    HW217154   3.217   1.472   3.684
 5419SOL     OW17155   3.040   3.992   6.895
 5419SOL    HW117156   3.019   4.057   6.968
 5419SOL    HW217157   3.040   3.899   6.933
 5420SOL     OW17158   1.462   2.433   2.429
 5420SOL    HW117159   1.519   2.490   2.488
 5420SOL    HW217160   1.506   2.343   2.418
 5421SOL     OW17161   2.504   3.374   0.617
 5421SOL    HW117162   2.418   3.333   0.589
 5421SOL    HW217163   2.495   3.474   0.616
 5422SOL     OW17164   0.269   3.374   0.473
 5422SOL    HW117165   0.178   3.353   0.508
 5422SOL    HW217166   0.309   3.292   0.432
 5423SOL     OW17167   4.009   3.518   5.455
 5423SOL    HW117168   4.008   3.570   5.541
 5423SOL    HW217169   4.101   3.522   5.416
 5424SOL     OW17170   5.565   3.087   5.325
 5424SOL    HW117171   5.574   3.031   5.407
 5424SOL    HW217172   5.511   3.038   5.257
 5425SOL     OW17173   5.350   1.300   4.923
 5425SOL    HW117174   5.269   1.305   4.865
 5425SOL    HW217175   5.414   1.372   4.897
 5426SOL     OW17176   7.011   0.478   4.328
 5426SOL    HW117177   0.073   0.490   4.378
 5426SOL    HW217178   6.966   0.394   4.360
 5427SOL     OW17179   4.446   6.769   0.723
 5427SOL    HW117180   4.392   6.763   0.807
 5427SOL    HW217181   4.401   6.717   0.650
 5428SOL     OW17182   1.664   0.042   0.483
 5428SOL    HW117183   1.668   6.967   0.484
 5428SOL    HW217184   1.744   0.079   0.434
 5429SOL     OW17185   1.301   2.531   6.235
 5429SOL    HW117186   1.304   2.615   6.291
 5429SOL    HW217187   1.258   2.458   6.288
 5430SOL     OW17188   2.608   2.413   5.527
 5430SOL    HW117189   2.510   2.421   5.506
 5430SOL    HW217190   2.646   2.333   5.481
 5431SOL     OW17191   3.433   5.029   4.068
 5431SOL    HW117192   3.450   5.124   4.094
 5431SOL    HW217193   3.440   4.970   4.148
 5432SOL     OW17194   6.032   4.239   0.934
 5432SOL    HW117195   5.954   4.280   0.979
 5432SOL    HW217196   6.115   4.257   0.987
 5433SOL     OW17197   2.317   2.038   3.173
 5433SOL    HW117198   2.317   2.125   3.223
 5433SOL    HW217199   2.402   1.989   3.192
 5434SOL     OW17200   2.230   6.462   4.673
 5434SOL    HW117201   2.206   6.492   4.765
 5434SOL    HW217202   2.272   6.372   4.676
 5435SOL     OW17203   4.599   2.078   1.684
 5435SOL    HW117204   4.646   2.084   1.772
 5435SOL    HW217205   4.516   2.023   1.695
 5436SOL     OW17206   4.861   4.249   3.278
 5436SOL    HW117207   4.953   4.210   3.277
 5436SOL    HW217208   4.793   4.175   3.282
 5437SOL     OW17209   3.308   5.512   5.412
 5437SOL    HW117210   3.363   5.575   5.358
 5437SOL    HW217211   3.316   5.420   5.375
 5438SOL     OW17212   6.487   1.136   6.886
 5438SOL    HW117213   6.580   1.171   6.870
 5438SOL    HW217214   6.487   1.081   6.970
 5439SOL     OW17215   1.574   2.075   0.763
 5439SOL    HW117216   1.503   2.127   0.811
 5439SOL    HW217217   1.654   2.132   0.749
 5440SOL     OW17218   1.823   0.427   1.048
 5440SOL    HW117219   1.781   0.417   0.958
 5440SOL    HW217220   1.775   0.370   1.114
 5441SOL     OW17221   3.881   1.910   5.431
 5441SOL    HW117222   3.957   1.846   5.429
 5441SOL    HW217223   3.817   1.885   5.504
 5442SOL     OW17224   4.021   1.102   1.864
 5442SOL    HW117225   4.070   1.121   1.948
 5442SOL    HW217226   4.069   1.144   1.787
 5443SOL     OW17227   0.874   5.740   5.469
 5443SOL    HW117228   0.930   5.694   5.538
 5443SOL    HW217229   0.931   5.763   5.390
 5444SOL     OW17230   0.257   0.762   3.274
 5444SOL    HW117231   0.212   0.751   3.185
 5444SOL    HW217232   0.188   0.783   3.343
 5445SOL     OW17233   5.556   3.236   2.343
 5445SOL    HW117234   5.515   3.191   2.264
 5445SOL    HW217235   5.621   3.305   2.312
 5446SOL     OW17236   6.620   6.985   5.712
 5446SOL    HW117237   6.650   6.952   5.623
 5446SOL    HW217238   6.528   7.024   5.704
 5447SOL     OW17239   3.456   2.799   1.277
 5447SOL    HW117240   3.378   2.788   1.338
 5447SOL    HW217241   3.517   2.870   1.312
 5448SOL     OW17242   4.846   1.335   6.576
 5448SOL    HW117243   4.886   1.261   6.630
 5448SOL    HW217244   4.907   1.414   6.578
 5449SOL     OW17245   6.921   2.875   6.708
 5449SOL    HW117246   6.924   2.810   6.633
 5449SOL    HW217247   7.007   2.925   6.713
 5450SOL     OW17248   2.337   5.839   0.966
 5450SOL    HW117249   2.341   5.788   1.052
 5450SOL    HW217250   2.241   5.853   0.941
 5451SOL     OW17251   2.367   6.818   2.274
 5451SOL    HW117252   2.316   6.823   2.189
 5451SOL    HW217253   2.317   6.762   2.340
 5452SOL     OW17254   2.980   3.883   6.268
 5452SOL    HW117255   3.078   3.860   6.268
 5452SOL    HW217256   2.965   3.962   6.209
 5453SOL     OW17257   0.025   5.691   5.531
 5453SOL    HW117258   6.998   5.744   5.464
 5453SOL    HW217259   7.003   5.695   5.620
 5454SOL     OW17260   1.364   4.053   5.688
 5454SOL    HW117261   1.323   3.964   5.664
 5454SOL    HW217262   1.294   4.112   5.728
 5455SOL     OW17263   6.331   1.812   1.264
 5455SOL    HW117264   6.393   1.746   1.306
 5455SOL    HW217265   6.324   1.893   1.323
 5456SOL     OW17266   4.148   0.487   1.438
 5456SOL    HW117267   4.156   0.537   1.352
 5456SOL    HW217268   4.065   0.514   1.485
 5457SOL     OW17269   6.289   3.104   1.702
 5457SOL    HW117270   6.384   3.075   1.692
 5457SOL    HW217271   6.251   3.066   1.787
 5458SOL     OW17272   1.767   4.258   5.398
 5458SOL    HW117273   1.747   4.356   5.391
 5458SOL    HW217274   1.731   4.223   5.484
 5459SOL     OW17275   2.003   4.967   5.820
 5459SOL    HW117276   1.964   4.876   5.812
 5459SOL    HW217277   1.982   5.005   5.910
 5460SOL     OW17278   4.335   0.655   4.604
 5460SOL    HW117279   4.421   0.611   4.631
 5460SOL    HW217280   4.306   0.717   4.677
 5461SOL     OW17281   3.887   6.711   4.916
 5461SOL    HW117282   3.872   6.646   4.990
 5461SOL    HW217283   3.931   6.665   4.839
 5462SOL     OW17284   0.216   1.264   2.303
 5462SOL    HW117285   0.235   1.280   2.206
 5462SOL    HW217286   0.175   1.345   2.343
 5463SOL     OW17287   6.541   2.968   1.650
 5463SOL    HW117288   6.631   2.946   1.689
 5463SOL    HW217289   6.551   2.986   1.552
 5464SOL     OW17290   1.347   0.072   4.534
 5464SOL    HW117291   1.275   0.005   4.516
 5464SOL    HW217292   1.340   0.146   4.468
 5465SOL     OW17293   2.414   5.915   5.820
 5465SOL    HW117294   2.512   5.913   5.797
 5465SOL    HW217295   2.401   5.870   5.909
 5466SOL     OW17296   4.524   6.426   3.811
 5466SOL    HW117297   4.480   6.493   3.872
 5466SOL    HW217298   4.583   6.366   3.866
 5467SOL     OW17299   6.075   1.676   1.770
 5467SOL    HW117300   6.048   1.765   1.807
 5467SOL    HW217301   6.085   1.684   1.670
 5468SOL     OW17302   4.518   1.858   6.448
 5468SOL    HW117303   4.585   1.892   6.381
 5468SOL    HW217304   4.456   1.793   6.402
 5469SOL     OW17305   5.009   4.888   1.643
 5469SOL    HW117306   5.029   4.790   1.633
 5469SOL    HW217307   5.089   4.941   1.616
 5470SOL     OW17308   0.655   4.124   3.088
 5470SOL    HW117309   0.597   4.177   3.150
 5470SOL    HW217310   0.686   4.041   3.135
 5471SOL     OW17311   6.524   3.335   2.990
 5471SOL    HW117312   6.468   3.386   3.056
 5471SOL    HW217313   6.552   3.395   2.917
 5472SOL     OW17314   3.431   5.273   4.848
 5472SOL    HW117315   3.384   5.186   4.865
 5472SOL    HW217316   3.514   5.277   4.903
 5473SOL     OW17317   2.569   4.921   3.761
 5473SOL    HW117318   2.633   4.870   3.818
 5473SOL    HW217319   2.618   4.966   3.687
 5474SOL     OW17320   1.436   5.981   3.292
 5474SOL    HW117321   1.419   6.078   3.273
 5474SOL    HW217322   1.518   5.971   3.348
 5475SOL     OW17323   3.080   1.743   2.194
 5475SOL    HW117324   3.004   1.795   2.233
 5475SOL    HW217325   3.164   1.796   2.202
 5476SOL     OW17326   2.174   3.167   6.671
 5476SOL    HW117327   2.088   3.199   6.629
 5476SOL    HW217328   2.208   3.088   6.621
 5477SOL     OW17329   2.294   2.262   2.467
 5477SOL    HW117330   2.359   2.328   2.506
 5477SOL    HW217331   2.241   2.307   2.395
 5478SOL     OW17332   0.307   5.342   5.005
 5478SOL    HW117333   0.322   5.341   4.906
 5478SOL    HW217334   0.215   5.377   5.024
 5479SOL     OW17335   4.299   6.822   4.624
 5479SOL    HW117336   4.260   6.835   4.533
 5479SOL    HW217337   4.242   6.870   4.692
 5480SOL     OW17338   0.607   2.032   5.812
 5480SOL    HW117339   0.551   2.115   5.825
 5480SOL    HW217340   0.593   1.998   5.719
 5481SOL     OW17341   4.510   6.912   2.782
 5481SOL    HW117342   4.568   6.990   2.809
 5481SOL    HW217343   4.490   6.918   2.685
 5482SOL     OW17344   1.315   6.312   1.809
 5482SOL    HW117345   1.298   6.309   1.907
 5482SOL    HW217346   1.413   6.325   1.792
 5483SOL     OW17347   1.057   2.774   6.429
 5483SOL    HW117348   0.982   2.830   6.395
 5483SOL    HW217349   1.028   2.726   6.512
 5484SOL     OW17350   4.942   5.765   5.525
 5484SOL    HW117351   4.959   5.723   5.435
 5484SOL    HW217352   4.866   5.718   5.569
 5485SOL     OW17353   4.425   0.396   4.872
 5485SOL    HW117354   4.442   0.494   4.868
 5485SOL    HW217355   4.459   0.353   4.788
 5486SOL     OW17356   2.726   5.429   3.633
 5486SOL    HW117357   2.817   5.421   3.674
 5486SOL    HW217358   2.708   5.525   3.612
 5487SOL     OW17359   4.049   6.316   5.622
 5487SOL    HW117360   4.039   6.217   5.607
 5487SOL    HW217361   4.104   6.332   5.704
 5488SOL     OW17362   4.644   2.058   6.030
 5488SOL    HW117363   4.578   2.092   5.962
 5488SOL    HW217364   4.697   1.984   5.991
 5489SOL     OW17365   0.148   2.674   4.060
 5489SOL    HW117366   0.067   2.620   4.087
 5489SOL    HW217367   0.183   2.641   3.973
 5490SOL     OW17368   0.884   4.640   1.050
 5490SOL    HW117369   0.823   4.594   1.115
 5490SOL    HW217370   0.904   4.578   0.974
 5491SOL     OW17371   0.249   3.880   1.152
 5491SOL    HW117372   0.277   3.972   1.181
 5491SOL    HW217373   0.156   3.885   1.114
 5492SOL     OW17374   1.277   1.677   0.323
 5492SOL    HW117375   1.322   1.627   0.249
 5492SOL    HW217376   1.314   1.770   0.329
 5493SOL     OW17377   4.477   3.661   5.324
 5493SOL    HW117378   4.534   3.694   5.399
 5493SOL    HW217379   4.536   3.630   5.249
 5494SOL     OW17380   5.952   1.848   5.156
 5494SOL    HW117381   6.022   1.808   5.215
 5494SOL    HW217382   5.923   1.780   5.088
 5495SOL     OW17383   5.559   1.689   0.340
 5495SOL    HW117384   5.592   1.769   0.389
 5495SOL    HW217385   5.573   1.607   0.396
 5496SOL     OW17386   4.452   0.136   6.143
 5496SOL    HW117387   4.519   0.168   6.077
 5496SOL    HW217388   4.386   0.075   6.098
 5497SOL     OW17389   0.901   0.976   5.679
 5497SOL    HW117390   0.973   0.973   5.609
 5497SOL    HW217391   0.815   1.006   5.636
 5498SOL     OW17392   0.043   5.692   1.871
 5498SOL    HW117393   6.999   5.626   1.839
 5498SOL    HW217394   0.057   5.762   1.801
 5499SOL     OW17395   1.997   6.945   3.027
 5499SOL    HW117396   2.095   6.924   3.026
 5499SOL    HW217397   1.981   0.005   2.976
 5500SOL     OW17398   0.585   6.620   1.773
 5500SOL    HW117399   0.649   6.602   1.697
 5500SOL    HW217400   0.631   6.677   1.841
 5501SOL     OW17401   5.192   3.522   1.235
 5501SOL    HW117402   5.165   3.494   1.328
 5501SOL    HW217403   5.195   3.441   1.176
 5502SOL     OW17404   4.394   3.610   0.697
 5502SOL    HW117405   4.370   3.523   0.653
 5502SOL    HW217406   4.313   3.649   0.740
 5503SOL     OW17407   6.196   2.676   1.531
 5503SOL    HW117408   6.214   2.678   1.629
 5503SOL    HW217409   6.181   2.769   1.498
 5504SOL     OW17410   3.620   2.589   0.378
 5504SOL    HW117411   3.530   2.631   0.392
 5504SOL    HW217412   3.662   2.629   0.296
 5505SOL     OW17413   2.853   5.537   2.997
 5505SOL    HW117414   2.935   5.491   2.962
 5505SOL    HW217415   2.820   5.489   3.078
 5506SOL     OW17416   6.765   2.902   6.951
 5506SOL    HW117417   6.703   2.980   6.948
 5506SOL    HW217418   6.805   2.889   6.860
 5507SOL     OW17419   3.983   6.246   6.922
 5507SOL    HW117420   3.935   6.275   6.839
 5507SOL    HW217421   3.940   6.288   7.002
 5508SOL     OW17422   6.860   3.010   5.976
 5508SOL    HW117423   6.783   2.978   6.031
 5508SOL    HW217424   6.919   2.933   5.953
 5509SOL     OW17425   6.134   4.127   0.690
 5509SOL    HW117426   6.058   4.093   0.635
 5509SOL    HW217427   6.101   4.153   0.780
 5510SOL     OW17428   5.021   6.299   6.854
 5510SOL    HW117429   4.986   6.393   6.852
 5510SOL    HW217430   5.051   6.277   6.947
 5511SOL     OW17431   0.481   2.917   5.745
 5511SOL    HW117432   0.384   2.941   5.739
 5511SOL    HW217433   0.516   2.899   5.653
 5512SOL     OW17434   2.604   6.735   2.060
 5512SOL    HW117435   2.608   6.784   1.973
 5512SOL    HW217436   2.538   6.779   2.121
 5513SOL     OW17437   3.127   5.094   6.079
 5513SOL    HW117438   3.179   5.179   6.080
 5513SOL    HW217439   3.043   5.108   6.027
 5514SOL     OW17440   4.129   1.349   0.221
 5514SOL    HW117441   4.110   1.275   0.156
 5514SOL    HW217442   4.083   1.330   0.307
 5515SOL     OW17443   3.742   4.894   2.515
 5515SOL    HW117444   3.819   4.958   2.507
 5515SOL    HW217445   3.697   4.885   2.426
 5516SOL     OW17446   1.269   2.335   5.467
 5516SOL    HW117447   1.233   2.331   5.560
 5516SOL    HW217448   1.209   2.283   5.406
 5517SOL     OW17449   1.296   2.136   4.504
 5517SOL    HW117450   1.382   2.091   4.530
 5517SOL    HW217451   1.240   2.151   4.585
 5518SOL     OW17452   3.944   3.909   5.509
 5518SOL    HW117453   3.900   3.995   5.536
 5518SOL    HW217454   3.930   3.893   5.411
 5519SOL     OW17455   5.139   2.455   5.486
 5519SOL    HW117456   5.087   2.524   5.436
 5519SOL    HW217457   5.171   2.384   5.423
 5520SOL     OW17458   5.143   5.926   1.256
 5520SOL    HW117459   5.162   5.836   1.216
 5520SOL    HW217460   5.194   5.996   1.207
 5521SOL     OW17461   4.684   6.717   1.823
 5521SOL    HW117462   4.586   6.699   1.835
 5521SOL    HW217463   4.734   6.631   1.827
 5522SOL     OW17464   5.148   6.311   6.603
 5522SOL    HW117465   5.103   6.378   6.544
 5522SOL    HW217466   5.100   6.305   6.691
 5523SOL     OW17467   6.047   1.617   0.484
 5523SOL    HW117468   6.128   1.649   0.436
 5523SOL    HW217469   5.984   1.694   0.497
 5524SOL     OW17470   2.759   1.905   2.599
 5524SOL    HW117471   2.773   2.003   2.615
 5524SOL    HW217472   2.709   1.892   2.514
 5525SOL     OW17473   6.527   1.305   0.759
 5525SOL    HW117474   6.483   1.333   0.674
 5525SOL    HW217475   6.510   1.375   0.829
 5526SOL     OW17476   4.888   4.365   4.022
 5526SOL    HW117477   4.943   4.302   4.077
 5526SOL    HW217478   4.791   4.351   4.042
 5527SOL     OW17479   6.504   6.885   2.105
 5527SOL    HW117480   6.536   6.879   2.010
 5527SOL    HW217481   6.576   6.924   2.162
 5528SOL     OW17482   2.242   1.788   7.017
 5528SOL    HW117483   2.271   1.801   0.087
 5528SOL    HW217484   2.312   1.736   6.967
 5529SOL     OW17485   3.087   1.041   1.893
 5529SOL    HW117486   3.155   1.016   1.961
 5529SOL    HW217487   2.996   1.020   1.928
 5530SOL     OW17488   0.816   1.635   1.443
 5530SOL    HW117489   0.775   1.543   1.446
 5530SOL    HW217490   0.753   1.698   1.397
 5531SOL     OW17491   1.182   4.572   6.349
 5531SOL    HW117492   1.277   4.589   6.320
 5531SOL    HW217493   1.119   4.602   6.278
 5532SOL     OW17494   6.707   5.416   5.682
 5532SOL    HW117495   6.802   5.389   5.665
 5532SOL    HW217496   6.653   5.335   5.703
 5533SOL     OW17497   4.072   1.265   4.134
 5533SOL    HW117498   4.134   1.237   4.207
 5533SOL    HW217499   4.125   1.313   4.063
 5534SOL     OW17500   1.388   0.013   4.145
 5534SOL    HW117501   1.336   0.068   4.210
 5534SOL    HW217502   1.404   0.066   4.062
 5535SOL     OW17503   1.220   2.104   3.021
 5535SOL    HW117504   1.173   2.144   2.942
 5535SOL    HW217505   1.303   2.057   2.990
 5536SOL     OW17506   4.811   0.003   5.362
 5536SOL    HW117507   4.825   0.047   5.274
 5536SOL    HW217508   4.897   6.988   5.394
 5537SOL     OW17509   2.676   2.420   2.780
 5537SOL    HW117510   2.595   2.362   2.781
 5537SOL    HW217511   2.649   2.514   2.760
 5538SOL     OW17512   3.611   6.020   3.887
 5538SOL    HW117513   3.629   6.003   3.791
 5538SOL    HW217514   3.652   5.948   3.942
 5539SOL     OW17515   1.682   4.121   0.705
 5539SOL    HW117516   1.761   4.181   0.718
 5539SOL    HW217517   1.666   4.108   0.607
 5540SOL     OW17518   3.172   5.281   0.911
 5540SOL    HW117519   3.169   5.343   0.989
 5540SOL    HW217520   3.160   5.187   0.943
 5541SOL     OW17521   4.533   0.151   6.565
 5541SOL    HW117522   4.558   0.212   6.640
 5541SOL    HW217523   4.439   0.172   6.536
 5542SOL     OW17524   5.828   4.170   6.528
 5542SOL    HW117525   5.820   4.092   6.590
 5542SOL    HW217526   5.863   4.139   6.439
 5543SOL     OW17527   0.558   3.063   5.139
 5543SOL    HW117528   0.487   3.056   5.209
 5543SOL    HW217529   0.517   3.084   5.051
 5544SOL     OW17530   5.280   6.617   0.261
 5544SOL    HW117531   5.217   6.679   0.309
 5544SOL    HW217532   5.305   6.542   0.322
 5545SOL     OW17533   3.073   2.433   1.353
 5545SOL    HW117534   2.996   2.398   1.406
 5545SOL    HW217535   3.158   2.414   1.402
 5546SOL     OW17536   3.274   6.094   4.269
 5546SOL    HW117537   3.315   6.098   4.177
 5546SOL    HW217538   3.339   6.131   4.336
 5547SOL     OW17539   3.394   5.530   3.937
 5547SOL    HW117540   3.481   5.570   3.966
 5547SOL    HW217541   3.319   5.577   3.983
 5548SOL     OW17542   6.130   1.286   4.478
 5548SOL    HW117543   6.166   1.193   4.489
 5548SOL    HW217544   6.054   1.300   4.542
 5549SOL     OW17545   3.862   5.180   4.933
 5549SOL    HW117546   3.866   5.083   4.960
 5549SOL    HW217547   3.882   5.188   4.835
 5550SOL     OW17548   2.553   5.771   1.833
 5550SOL    HW117549   2.645   5.745   1.863
 5550SOL    HW217550   2.538   5.868   1.852
 5551SOL     OW17551   1.032   1.100   2.287
 5551SOL    HW117552   1.069   1.084   2.195
 5551SOL    HW217553   0.986   1.188   2.289
 5552SOL     OW17554   2.306   2.694   2.082
 5552SOL    HW117555   2.261   2.736   2.161
 5552SOL    HW217556   2.300   2.757   2.004
 5553SOL     OW17557   4.684   6.537   5.885
 5553SOL    HW117558   4.688   6.540   5.985
 5553SOL    HW217559   4.622   6.465   5.857
 5554SOL     OW17560   3.099   0.548   5.950
 5554SOL    HW117561   3.058   0.537   6.040
 5554SOL    HW217562   3.195   0.573   5.960
 5555SOL     OW17563   1.052   6.111   2.082
 5555SOL    HW117564   1.057   6.211   2.085
 5555SOL    HW217565   1.142   6.074   2.060
 5556SOL     OW17566   0.222   1.434   4.996
 5556SOL    HW117567   0.176   1.522   5.005
 5556SOL    HW217568   0.154   1.362   4.977
 5557SOL     OW17569   3.488   0.972   2.808
 5557SOL    HW117570   3.581   1.004   2.825
 5557SOL    HW217571   3.453   1.015   2.725
 5558SOL     OW17572   5.554   2.325   6.427
 5558SOL    HW117573   5.600   2.377   6.355
 5558SOL    HW217574   5.458   2.353   6.433
 5559SOL     OW17575   3.657   1.639   1.352
 5559SOL    HW117576   3.668   1.572   1.426
 5559SOL    HW217577   3.568   1.683   1.361
 5560SOL     OW17578   0.483   2.405   4.695
 5560SOL    HW117579   0.511   2.315   4.661
 5560SOL    HW217580   0.408   2.394   4.760
 5561SOL     OW17581   1.868   4.466   2.415
 5561SOL    HW117582   1.953   4.419   2.439
 5561SOL    HW217583   1.840   4.525   2.491
 5562SOL     OW17584   5.319   3.213   0.371
 5562SOL    HW117585   5.248   3.144   0.356
 5562SOL    HW217586   5.380   3.183   0.444
 5563SOL     OW17587   4.361   4.098   0.649
 5563SOL    HW117588   4.357   4.054   0.738
 5563SOL    HW217589   4.375   4.029   0.578
 5564SOL     OW17590   6.216   0.684   3.027
 5564SOL    HW117591   6.195   0.591   2.995
 5564SOL    HW217592   6.290   0.681   3.093
 5565SOL     OW17593   1.920   2.510   5.834
 5565SOL    HW117594   1.875   2.427   5.866
 5565SOL    HW217595   1.898   2.525   5.738
 5566SOL     OW17596   1.927   4.423   0.396
 5566SOL    HW117597   1.907   4.326   0.411
 5566SOL    HW217598   1.965   4.436   0.305
 5567SOL     OW17599   1.322   5.775   2.704
 5567SOL    HW117600   1.378   5.844   2.749
 5567SOL    HW217601   1.322   5.790   2.605
 5568SOL     OW17602   4.915   2.909   0.165
 5568SOL    HW117603   4.938   2.815   0.142
 5568SOL    HW217604   4.855   2.946   0.094
 5569SOL     OW17605   3.877   1.013   6.239
 5569SOL    HW117606   3.814   1.080   6.198
 5569SOL    HW217607   3.935   0.974   6.167
 5570SOL     OW17608   1.944   1.364   5.798
 5570SOL    HW117609   1.987   1.454   5.792
 5570SOL    HW217610   2.015   1.295   5.813
 5571SOL     OW17611   1.760   4.912   6.754
 5571SOL    HW117612   1.778   4.887   6.849
 5571SOL    HW217613   1.678   4.969   6.749
 5572SOL     OW17614   0.992   3.411   5.431
 5572SOL    HW117615   1.092   3.411   5.439
 5572SOL    HW217616   0.967   3.440   5.338
 5573SOL     OW17617   0.641   3.815   6.793
 5573SOL    HW117618   0.607   3.737   6.740
 5573SOL    HW217619   0.734   3.837   6.764
 5574SOL     OW17620   1.536   5.782   4.599
 5574SOL    HW117621   1.451   5.793   4.651
 5574SOL    HW217622   1.581   5.870   4.590
 5575SOL     OW17623   1.498   1.656   2.651
 5575SOL    HW117624   1.460   1.747   2.671
 5575SOL    HW217625   1.445   1.613   2.578
 5576SOL     OW17626   5.432   6.206   6.682
 5576SOL    HW117627   5.366   6.168   6.618
 5576SOL    HW217628   5.385   6.240   6.763
 5577SOL     OW17629   1.728   5.704   5.524
 5577SOL    HW117630   1.794   5.642   5.480
 5577SOL    HW217631   1.691   5.767   5.456
 5578SOL     OW17632   4.382   1.585   5.856
 5578SOL    HW117633   4.342   1.651   5.793
 5578SOL    HW217634   4.311   1.522   5.887
 5579SOL     OW17635   5.317   4.793   2.170
 5579SOL    HW117636   5.348   4.824   2.080
 5579SOL    HW217637   5.217   4.803   2.176
 5580SOL     OW17638   6.373   0.795   2.620
 5580SOL    HW117639   6.411   0.754   2.703
 5580SOL    HW217640   6.443   0.851   2.576
 5581SOL     OW17641   3.543   3.464   0.564
 5581SOL    HW117642   3.471   3.495   0.502
 5581SOL    HW217643   3.517   3.376   0.604
 5582SOL     OW17644   2.990   3.606   5.280
 5582SOL    HW117645   3.072   3.554   5.302
 5582SOL    HW217646   2.950   3.571   5.195
 5583SOL     OW17647   4.140   0.892   6.877
 5583SOL    HW117648   4.211   0.947   6.833
 5583SOL    HW217649   4.053   0.907   6.830
 5584SOL     OW17650   5.555   3.762   4.629
 5584SOL    HW117651   5.652   3.738   4.631
 5584SOL    HW217652   5.510   3.724   4.709
 5585SOL     OW17653   0.467   1.566   3.691
 5585SOL    HW117654   0.384   1.598   3.736
 5585SOL    HW217655   0.545   1.577   3.752
 5586SOL     OW17656   1.886   0.695   0.692
 5586SOL    HW117657   1.886   0.602   0.656
 5586SOL    HW217658   1.810   0.707   0.755
 5587SOL     OW17659   3.206   0.515   3.026
 5587SOL    HW117660   3.206   0.416   3.037
 5587SOL    HW217661   3.190   0.538   2.930
 5588SOL     OW17662   4.348   5.537   0.386
 5588SOL    HW117663   4.384   5.542   0.479
 5588SOL    HW217664   4.420   5.559   0.320
 5589SOL     OW17665   1.723   2.352   6.526
 5589SOL    HW117666   1.735   2.451   6.524
 5589SOL    HW217667   1.812   2.308   6.514
 5590SOL     OW17668   6.021   6.840   3.331
 5590SOL    HW117669   6.003   6.880   3.421
 5590SOL    HW217670   6.118   6.817   3.323
 5591SOL     OW17671   5.007   0.952   5.386
 5591SOL    HW117672   4.955   1.031   5.419
 5591SOL    HW217673   5.035   0.895   5.463
 5592SOL     OW17674   1.041   3.950   3.042
 5592SOL    HW117675   0.949   3.938   3.079
 5592SOL    HW217676   1.084   3.861   3.027
 5593SOL     OW17677   2.443   3.852   5.651
 5593SOL    HW117678   2.380   3.784   5.615
 5593SOL    HW217679   2.399   3.942   5.652
 5594SOL     OW17680   2.985   1.112   5.505
 5594SOL    HW117681   2.925   1.178   5.461
 5594SOL    HW217682   2.966   1.109   5.603
 5595SOL     OW17683   6.264   3.833   1.201
 5595SOL    HW117684   6.297   3.738   1.192
 5595SOL    HW217685   6.260   3.875   1.111
 5596SOL     OW17686   5.198   4.332   4.623
 5596SOL    HW117687   5.292   4.366   4.626
 5596SOL    HW217688   5.162   4.325   4.716
 5597SOL     OW17689   1.135   2.324   6.944
 5597SOL    HW117690   1.058   2.369   6.899
 5597SOL    HW217691   1.220   2.348   6.897
 5598SOL     OW17692   6.968   0.510   3.262
 5598SOL    HW117693   6.873   0.485   3.245
 5598SOL    HW217694   6.990   0.595   3.214
 5599SOL     OW17695   4.851   2.970   2.402
 5599SOL    HW117696   4.860   3.069   2.388
 5599SOL    HW217697   4.924   2.938   2.461
 5600SOL     OW17698   2.052   3.491   2.278
 5600SOL    HW117699   2.119   3.459   2.212
 5600SOL    HW217700   1.981   3.543   2.231
 5601SOL     OW17701   5.022   2.583   6.761
 5601SOL    HW117702   5.103   2.623   6.803
 5601SOL    HW217703   4.943   2.642   6.777
 5602SOL     OW17704   5.358   0.659   2.630
 5602SOL    HW117705   5.383   0.689   2.722
 5602SOL    HW217706   5.258   0.666   2.619
 5603SOL     OW17707   3.473   1.715   6.803
 5603SOL    HW117708   3.374   1.729   6.801
 5603SOL    HW217709   3.515   1.785   6.862
 5604SOL     OW17710   1.800   4.733   4.256
 5604SOL    HW117711   1.749   4.735   4.342
 5604SOL    HW217712   1.869   4.660   4.260
 5605SOL     OW17713   3.796   0.083   4.031
 5605SOL    HW117714   3.801   0.107   3.935
 5605SOL    HW217715   3.888   0.060   4.064
 5606SOL     OW17716   4.006   4.666   0.539
 5606SOL    HW117717   3.999   4.696   0.634
 5606SOL    HW217718   4.091   4.614   0.527
 5607SOL     OW17719   1.746   1.981   1.792
 5607SOL    HW117720   1.753   2.076   1.762
 5607SOL    HW217721   1.772   1.920   1.717
 5608SOL     OW17722   6.238   6.040   3.064
 5608SOL    HW117723   6.290   6.098   3.002
 5608SOL    HW217724   6.151   6.085   3.087
 5609SOL     OW17725   0.067   0.775   0.637
 5609SOL    HW117726   0.075   0.675   0.643
 5609SOL    HW217727   0.069   0.802   0.541
 5610SOL     OW17728   5.792   6.738   6.216
 5610SOL    HW117729   5.813   6.790   6.299
 5610SOL    HW217730   5.813   6.641   6.232
 5611SOL     OW17731   6.857   3.499   1.912
 5611SOL    HW117732   6.924   3.518   1.840
 5611SOL    HW217733   6.781   3.445   1.874
 5612SOL     OW17734   4.779   2.404   0.619
 5612SOL    HW117735   4.784   2.503   0.601
 5612SOL    HW217736   4.683   2.377   0.628
 5613SOL     OW17737   6.491   5.059   4.835
 5613SOL    HW117738   6.492   5.028   4.740
 5613SOL    HW217739   6.447   4.989   4.892
 5614SOL     OW17740   6.292   2.030   4.798
 5614SOL    HW117741   6.259   1.936   4.795
 5614SOL    HW217742   6.345   2.049   4.716
 5615SOL     OW17743   0.839   3.954   3.235
 5615SOL    HW117744   0.857   4.042   3.279
 5615SOL    HW217745   0.756   3.914   3.274
 5616SOL     OW17746   1.493   2.966   1.887
 5616SOL    HW117747   1.411   2.913   1.906
 5616SOL    HW217748   1.552   2.966   1.968
 5617SOL     OW17749   1.043   5.522   5.608
 5617SOL    HW117750   1.030   5.492   5.513
 5617SOL    HW217751   1.047   5.442   5.668
 5618SOL     OW17752   5.259   1.178   3.261
 5618SOL    HW117753   5.338   1.151   3.315
 5618SOL    HW217754   5.290   1.222   3.177
 5619SOL     OW17755   3.696   4.141   4.540
 5619SOL    HW117756   3.631   4.094   4.480
 5619SOL    HW217757   3.646   4.190   4.612
 5620SOL     OW17758   4.515   4.087   5.355
 5620SOL    HW117759   4.448   4.153   5.321
 5620SOL    HW217760   4.595   4.087   5.296
 5621SOL     OW17761   0.462   4.097   0.549
 5621SOL    HW117762   0.388   4.052   0.500
 5621SOL    HW217763   0.549   4.057   0.523
 5622SOL     OW17764   5.916   5.175   4.198
 5622SOL    HW117765   5.880   5.090   4.159
 5622SOL    HW217766   5.913   5.247   4.129
 5623SOL     OW17767   4.704   4.704   3.943
 5623SOL    HW117768   4.748   4.706   3.854
 5623SOL    HW217769   4.773   4.700   4.015
 5624SOL     OW17770   4.878   3.762   4.192
 5624SOL    HW117771   4.820   3.713   4.256
 5624SOL    HW217772   4.965   3.713   4.181
 5625SOL     OW17773   3.969   0.013   0.145
 5625SOL    HW117774   3.883   0.054   0.117
 5625SOL    HW217775   3.975   0.015   0.245
 5626SOL     OW17776   1.949   4.677   5.837
 5626SOL    HW117777   2.047   4.693   5.833
 5626SOL    HW217778   1.923   4.610   5.767
 5627SOL     OW17779   1.093   5.213   1.373
 5627SOL    HW117780   1.154   5.248   1.444
 5627SOL    HW217781   1.002   5.196   1.411
 5628SOL     OW17782   1.645   2.563   0.340
 5628SOL    HW117783   1.674   2.636   0.279
 5628SOL    HW217784   1.610   2.603   0.425
 5629SOL     OW17785   1.101   3.312   4.775
 5629SOL    HW117786   1.195   3.326   4.745
 5629SOL    HW217787   1.084   3.213   4.784
 5630SOL     OW17788   1.069   4.231   6.952
 5630SOL    HW117789   1.156   4.249   6.996
 5630SOL    HW217790   1.083   4.214   6.855
 5631SOL     OW17791   2.675   0.863   3.700
 5631SOL    HW117792   2.701   0.957   3.676
 5631SOL    HW217793   2.583   0.863   3.739
 5632SOL     OW17794   3.020   6.300   5.564
 5632SOL    HW117795   2.943   6.300   5.500
 5632SOL    HW217796   3.040   6.207   5.593
 5633SOL     OW17797   1.524   4.968   5.217
 5633SOL    HW117798   1.533   5.067   5.222
 5633SOL    HW217799   1.559   4.935   5.129
 5634SOL     OW17800   1.218   0.139   1.742
 5634SOL    HW117801   1.186   0.166   1.651
 5634SOL    HW217802   1.266   0.051   1.736
 5635SOL     OW17803   3.645   0.702   3.087
 5635SOL    HW117804   3.613   0.739   3.000
 5635SOL    HW217805   3.568   0.693   3.150
 5636SOL     OW17806   4.742   0.471   5.305
 5636SOL    HW117807   4.743   0.445   5.402
 5636SOL    HW217808   4.693   0.401   5.253
 5637SOL     OW17809   5.454   6.432   5.307
 5637SOL    HW117810   5.421   6.390   5.223
 5637SOL    HW217811   5.490   6.362   5.368
 5638SOL     OW17812   1.937   5.997   0.036
 5638SOL    HW117813   1.902   6.074   7.007
 5638SOL    HW217814   1.972   6.030   0.124
 5639SOL     OW17815   3.161   0.151   1.780
 5639SOL    HW117816   3.216   0.226   1.816
 5639SOL    HW217817   3.178   0.141   1.682
 5640SOL     OW17818   4.437   6.488   4.470
 5640SOL    HW117819   4.473   6.575   4.504
 5640SOL    HW217820   4.488   6.460   4.389
 5641SOL     OW17821   6.473   5.340   3.937
 5641SOL    HW117822   6.432   5.429   3.916
 5641SOL    HW217823   6.401   5.274   3.958
 5642SOL     OW17824   1.528   1.650   6.554
 5642SOL    HW117825   1.562   1.686   6.467
 5642SOL    HW217826   1.478   1.721   6.602
 5643SOL     OW17827   4.591   1.953   3.742
 5643SOL    HW117828   4.677   1.950   3.691
 5643SOL    HW217829   4.600   2.017   3.819
 5644SOL     OW17830   2.494   0.986   4.945
 5644SOL    HW117831   2.560   1.039   4.892
 5644SOL    HW217832   2.487   0.894   4.907
 5645SOL     OW17833   6.932   6.368   4.268
 5645SOL    HW117834   6.931   6.363   4.368
 5645SOL    HW217835   6.977   6.287   4.231
 5646SOL     OW17836   6.254   1.231   2.902
 5646SOL    HW117837   6.161   1.237   2.938
 5646SOL    HW217838   6.319   1.263   2.970
 5647SOL     OW17839   5.710   3.571   6.519
 5647SOL    HW117840   5.795   3.532   6.553
 5647SOL    HW217841   5.713   3.574   6.419
 5648SOL     OW17842   1.584   2.235   4.736
 5648SOL    HW117843   1.580   2.291   4.653
 5648SOL    HW217844   1.674   2.246   4.779
 5649SOL     OW17845   6.868   0.966   4.553
 5649SOL    HW117846   6.891   1.050   4.602
 5649SOL    HW217847   6.772   0.943   4.570
 5650SOL     OW17848   5.872   4.486   5.862
 5650SOL    HW117849   5.941   4.492   5.935
 5650SOL    HW217850   5.782   4.506   5.899
 5651SOL     OW17851   5.549   0.623   3.138
 5651SOL    HW117852   5.634   0.573   3.153
 5651SOL    HW217853   5.554   0.713   3.182
 5652SOL     OW17854   3.132   4.567   6.534
 5652SOL    HW117855   3.035   4.541   6.535
 5652SOL    HW217856   3.153   4.611   6.446
 5653SOL     OW17857   1.545   6.988   5.490
 5653SOL    HW117858   1.555   0.056   5.452
 5653SOL    HW217859   1.632   6.958   5.529
 5654SOL     OW17860   2.965   7.023   6.982
 5654SOL    HW117861   2.881   0.009   0.011
 5654SOL    HW217862   2.982   6.926   6.964
 5655SOL     OW17863   5.776   4.863   2.243
 5655SOL    HW117864   5.816   4.896   2.158
 5655SOL    HW217865   5.680   4.892   2.247
 5656SOL     OW17866   2.614   4.177   6.595
 5656SOL    HW117867   2.658   4.124   6.668
 5656SOL    HW217868   2.673   4.253   6.569
 5657SOL     OW17869   5.037   5.610   1.583
 5657SOL    HW117870   5.134   5.601   1.561
 5657SOL    HW217871   4.983   5.615   1.499
 5658SOL     OW17872   4.460   6.802   6.418
 5658SOL    HW117873   4.504   6.887   6.389
 5658SOL    HW217874   4.420   6.757   6.338
 5659SOL     OW17875   3.275   3.329   2.413
 5659SOL    HW117876   3.319   3.346   2.325
 5659SOL    HW217877   3.285   3.409   2.472
 5660SOL     OW17878   0.625   4.351   1.859
 5660SOL    HW117879   0.723   4.372   1.860
 5660SOL    HW217880   0.610   4.259   1.823
 5661SOL     OW17881   5.740   5.265   5.356
 5661SOL    HW117882   5.762   5.168   5.372
 5661SOL    HW217883   5.700   5.304   5.439
 5662SOL     OW17884   1.862   4.982   5.439
 5662SOL    HW117885   1.955   5.017   5.426
 5662SOL    HW217886   1.836   4.926   5.360
 5663SOL     OW17887   2.415   3.502   0.295
 5663SOL    HW117888   2.330   3.553   0.309
 5663SOL    HW217889   2.400   3.405   0.317
 5664SOL     OW17890   5.992   6.947   1.538
 5664SOL    HW117891   5.902   6.903   1.544
 5664SOL    HW217892   5.998   7.021   1.605
 5665SOL     OW17893   1.138   0.464   5.927
 5665SOL    HW117894   1.164   0.553   5.888
 5665SOL    HW217895   1.061   0.427   5.875
 5666SOL     OW17896   4.473   6.172   6.609
 5666SOL    HW117897   4.381   6.174   6.571
 5666SOL    HW217898   4.527   6.247   6.569
 5667SOL     OW17899   5.724   5.245   3.043
 5667SOL    HW117900   5.749   5.219   3.136
 5667SOL    HW217901   5.805   5.282   2.996
 5668SOL     OW17902   6.676   2.886   6.156
 5668SOL    HW117903   6.630   2.870   6.244
 5668SOL    HW217904   6.645   2.819   6.089
 5669SOL     OW17905   1.538   1.767   5.551
 5669SOL    HW117906   1.524   1.863   5.527
 5669SOL    HW217907   1.636   1.748   5.557
 5670SOL     OW17908   1.543   2.910   2.884
 5670SOL    HW117909   1.494   2.827   2.912
 5670SOL    HW217910   1.495   2.952   2.807
 5671SOL     OW17911   0.871   1.131   6.290
 5671SOL    HW117912   0.919   1.044   6.281
 5671SOL    HW217913   0.845   1.164   6.200
 5672SOL     OW17914   3.708   4.820   6.293
 5672SOL    HW117915   3.669   4.761   6.222
 5672SOL    HW217916   3.731   4.764   6.374
 5673SOL     OW17917   1.886   5.682   1.068
 5673SOL    HW117918   1.918   5.709   1.159
 5673SOL    HW217919   1.888   5.582   1.061
 5674SOL     OW17920   0.451   3.100   7.010
 5674SOL    HW117921   0.416   3.010   0.014
 5674SOL    HW217922   0.427   3.117   6.915
 5675SOL     OW17923   4.630   1.441   6.137
 5675SOL    HW117924   4.639   1.491   6.051
 5675SOL    HW217925   4.544   1.466   6.181
 5676SOL     OW17926   2.156   5.397   1.679
 5676SOL    HW117927   2.118   5.305   1.667
 5676SOL    HW217928   2.144   5.449   1.594
 5677SOL     OW17929   5.753   1.056   3.901
 5677SOL    HW117930   5.747   0.967   3.854
 5677SOL    HW217931   5.806   1.120   3.845
 5678SOL     OW17932   1.259   5.211   2.525
 5678SOL    HW117933   1.182   5.247   2.578
 5678SOL    HW217934   1.345   5.245   2.563
 5679SOL     OW17935   3.655   6.297   5.676
 5679SOL    HW117936   3.693   6.366   5.614
 5679SOL    HW217937   3.625   6.343   5.760
 5680SOL     OW17938   0.602   0.040   6.434
 5680SOL    HW117939   0.554   7.012   6.363
 5680SOL    HW217940   0.575   0.136   6.428
 5681SOL     OW17941   2.859   3.333   0.498
 5681SOL    HW117942   2.853   3.255   0.561
 5681SOL    HW217943   2.919   3.402   0.537
 5682SOL     OW17944   1.987   5.001   4.706
 5682SOL    HW117945   2.030   4.994   4.796
 5682SOL    HW217946   1.940   5.089   4.698
 5683SOL     OW17947   3.284   3.531   4.685
 5683SOL    HW117948   3.308   3.626   4.704
 5683SOL    HW217949   3.345   3.494   4.614
 5684SOL     OW17950   3.561   4.123   2.500
 5684SOL    HW117951   3.655   4.091   2.512
 5684SOL    HW217952   3.538   4.189   2.572
 5685SOL     OW17953   6.563   1.012   2.190
 5685SOL    HW117954   6.513   1.053   2.113
 5685SOL    HW217955   6.553   0.912   2.187
 5686SOL     OW17956   3.403   4.518   6.286
 5686SOL    HW117957   3.416   4.439   6.226
 5686SOL    HW217958   3.316   4.562   6.265
 5687SOL     OW17959   5.101   0.174   6.176
 5687SOL    HW117960   5.133   0.218   6.260
 5687SOL    HW217961   5.175   0.171   6.109
 5688SOL     OW17962   5.707   1.298   2.188
 5688SOL    HW117963   5.800   1.277   2.216
 5688SOL    HW217964   5.652   1.320   2.269
 5689SOL     OW17965   3.644   3.576   5.362
 5689SOL    HW117966   3.551   3.603   5.337
 5689SOL    HW217967   3.691   3.539   5.282
 5690SOL     OW17968   2.684   0.462   2.297
 5690SOL    HW117969   2.731   0.427   2.378
 5690SOL    HW217970   2.588   0.434   2.299
 5691SOL     OW17971   3.332   0.358   4.492
 5691SOL    HW117972   3.265   0.401   4.432
 5691SOL    HW217973   3.409   0.420   4.506
 5692SOL     OW17974   6.308   3.220   0.956
 5692SOL    HW117975   6.264   3.310   0.955
 5692SOL    HW217976   6.360   3.207   0.872
 5693SOL     OW17977   5.730   3.438   2.270
 5693SOL    HW117978   5.737   3.534   2.296
 5693SOL    HW217979   5.815   3.408   2.228
 5694SOL     OW17980   2.044   2.439   5.019
 5694SOL    HW117981   2.015   2.424   5.113
 5694SOL    HW217982   2.138   2.407   5.008
 5695SOL     OW17983   1.040   3.732   2.670
 5695SOL    HW117984   1.128   3.778   2.657
 5695SOL    HW217985   1.044   3.640   2.631
 5696SOL     OW17986   3.056   1.465   6.015
 5696SOL    HW117987   3.085   1.429   6.104
 5696SOL    HW217988   3.134   1.509   5.970
 5697SOL     OW17989   6.198   3.764   0.851
 5697SOL    HW117990   6.231   3.852   0.884
 5697SOL    HW217991   6.223   3.752   0.754
 5698SOL     OW17992   1.647   5.064   4.343
 5698SOL    HW117993   1.588   5.026   4.272
 5698SOL    HW217994   1.720   5.118   4.300
 5699SOL     OW17995   0.877   2.181   5.255
 5699SOL    HW117996   0.909   2.171   5.161
 5699SOL    HW217997   0.821   2.263   5.263
 5700SOL     OW17998   1.838   5.230   4.809
 5700SOL    HW117999   1.831   5.181   4.896
 5700SOL    HW218000   1.803   5.324   4.821
 5701SOL     OW18001   4.945   2.318   2.356
 5701SOL    HW118002   4.856   2.306   2.400
 5701SOL    HW218003   4.990   2.400   2.392
 5702SOL     OW18004   4.023   0.661   6.954
 5702SOL    HW118005   4.054   0.756   6.949
 5702SOL    HW218006   4.102   0.600   6.960
 5703SOL     OW18007   4.755   4.003   2.785
 5703SOL    HW118008   4.697   4.083   2.766
 5703SOL    HW218009   4.788   3.965   2.699
 5704SOL     OW18010   5.480   3.324   3.988
 5704SOL    HW118011   5.500   3.273   3.904
 5704SOL    HW218012   5.483   3.422   3.969
 5705SOL     OW18013   6.361   0.800   4.792
 5705SOL    HW118014   6.332   0.878   4.737
 5705SOL    HW218015   6.314   0.717   4.760
 5706SOL     OW18016   2.137   1.167   5.850
 5706SOL    HW118017   2.174   1.260   5.849
 5706SOL    HW218018   2.212   1.101   5.844
 5707SOL     OW18019   5.036   0.619   0.984
 5707SOL    HW118020   5.013   0.716   0.987
 5707SOL    HW218021   4.999   0.573   1.065
 5708SOL     OW18022   0.518   6.707   0.406
 5708SOL    HW118023   0.589   6.645   0.372
 5708SOL    HW218024   0.542   6.801   0.384
 5709SOL     OW18025   6.882   2.682   0.579
 5709SOL    HW118026   6.970   2.654   0.618
 5709SOL    HW218027   6.810   2.620   0.611
 5710SOL     OW18028   3.269   5.352   6.104
 5710SOL    HW118029   3.199   5.404   6.153
 5710SOL    HW218030   3.360   5.376   6.140
 5711SOL     OW18031   5.458   0.697   5.501
 5711SOL    HW118032   5.555   0.698   5.479
 5711SOL    HW218033   5.406   0.664   5.422
 5712SOL     OW18034   5.057   6.904   6.225
 5712SOL    HW118035   5.150   6.892   6.189
 5712SOL    HW218036   5.031   7.001   6.217
 5713SOL     OW18037   0.425   2.926   3.167
 5713SOL    HW118038   0.411   2.923   3.267
 5713SOL    HW218039   0.463   3.015   3.142
 5714SOL     OW18040   2.468   0.415   1.036
 5714SOL    HW118041   2.488   0.499   0.985
 5714SOL    HW218042   2.410   0.356   0.980
 5715SOL     OW18043   0.628   5.408   3.742
 5715SOL    HW118044   0.601   5.338   3.809
 5715SOL    HW218045   0.669   5.485   3.790
 5716SOL     OW18046   1.826   2.736   4.702
 5716SOL    HW118047   1.908   2.757   4.756
 5716SOL    HW218048   1.821   2.799   4.625
 5717SOL     OW18049   0.465   4.907   5.486
 5717SOL    HW118050   0.517   4.903   5.571
 5717SOL    HW218051   0.439   4.814   5.458
 5718SOL     OW18052   2.362   6.174   5.918
 5718SOL    HW118053   2.265   6.176   5.942
 5718SOL    HW218054   2.388   6.082   5.891
 5719SOL     OW18055   1.540   0.585   0.337
 5719SOL    HW118056   1.517   0.679   0.363
 5719SOL    HW218057   1.640   0.574   0.337
 5720SOL     OW18058   2.030   5.590   4.023
 5720SOL    HW118059   1.939   5.587   3.981
 5720SOL    HW218060   2.098   5.558   3.958
 5721SOL     OW18061   6.172   5.414   6.798
 5721SOL    HW118062   6.111   5.491   6.780
 5721SOL    HW218063   6.119   5.331   6.811
 5722SOL     OW18064   5.036   0.445   4.113
 5722SOL    HW118065   5.100   0.369   4.126
 5722SOL    HW218066   4.965   0.418   4.047
 5723SOL     OW18067   6.245   5.776   1.239
 5723SOL    HW118068   6.167   5.837   1.256
 5723SOL    HW218069   6.270   5.782   1.142
 5724SOL     OW18070   4.702   3.049   5.799
 5724SOL    HW118071   4.691   2.950   5.794
 5724SOL    HW218072   4.681   3.089   5.710
 5725SOL     OW18073   6.514   6.935   5.327
 5725SOL    HW118074   6.488   6.976   5.240
 5725SOL    HW218075   6.434   6.890   5.367
 5726SOL     OW18076   4.542   5.663   5.096
 5726SOL    HW118077   4.631   5.709   5.100
 5726SOL    HW218078   4.487   5.703   5.022
 5727SOL     OW18079   5.273   3.677   3.730
 5727SOL    HW118080   5.238   3.584   3.737
 5727SOL    HW218081   5.361   3.676   3.682
 5728SOL     OW18082   3.591   0.674   5.120
 5728SOL    HW118083   3.616   0.771   5.120
 5728SOL    HW218084   3.541   0.651   5.204
 5729SOL     OW18085   3.219   1.219   3.556
 5729SOL    HW118086   3.119   1.207   3.558
 5729SOL    HW218087   3.262   1.150   3.614
 5730SOL     OW18088   3.679   5.442   0.019
 5730SOL    HW118089   3.760   5.486   0.056
 5730SOL    HW218090   3.645   5.374   0.084
 5731SOL     OW18091   3.767   0.913   5.190
 5731SOL    HW118092   3.757   0.998   5.241
 5731SOL    HW218093   3.823   0.849   5.243
 5732SOL     OW18094   6.145   4.069   4.820
 5732SOL    HW118095   6.180   3.981   4.787
 5732SOL    HW218096   6.220   4.135   4.823
 5733SOL     OW18097   2.054   6.104   0.619
 5733SOL    HW118098   1.958   6.112   0.592
 5733SOL    HW218099   2.096   6.027   0.570
 5734SOL     OW18100   1.560   0.388   6.399
 5734SOL    HW118101   1.538   0.482   6.371
 5734SOL    HW218102   1.652   0.387   6.439
 5735SOL     OW18103   6.219   1.242   0.930
 5735SOL    HW118104   6.268   1.324   0.960
 5735SOL    HW218105   6.123   1.249   0.956
 5736SOL     OW18106   3.733   3.179   6.613
 5736SOL    HW118107   3.781   3.194   6.526
 5736SOL    HW218108   3.800   3.177   6.687
 5737SOL     OW18109   4.903   5.333   2.484
 5737SOL    HW118110   4.824   5.276   2.509
 5737SOL    HW218111   4.987   5.287   2.509
 5738SOL     OW18112   3.035   1.514   1.289
 5738SOL    HW118113   3.082   1.563   1.362
 5738SOL    HW218114   2.962   1.458   1.328
 5739SOL     OW18115   2.012   0.995   6.060
 5739SOL    HW118116   2.029   0.926   5.990
 5739SOL    HW218117   2.010   1.086   6.017
 5740SOL     OW18118   5.737   2.191   2.521
 5740SOL    HW118119   5.702   2.142   2.440
 5740SOL    HW218120   5.669   2.258   2.551
 5741SOL     OW18121   1.305   3.544   3.563
 5741SOL    HW118122   1.298   3.577   3.656
 5741SOL    HW218123   1.324   3.446   3.564
 5742SOL     OW18124   6.750   4.211   2.287
 5742SOL    HW118125   6.708   4.151   2.219
 5742SOL    HW218126   6.802   4.157   2.353
 5743SOL     OW18127   3.095   0.267   5.894
 5743SOL    HW118128   3.192   0.263   5.917
 5743SOL    HW218129   3.063   0.361   5.899
 5744SOL     OW18130   5.315   5.802   4.625
 5744SOL    HW118131   5.411   5.786   4.600
 5744SOL    HW218132   5.266   5.715   4.622
 5745SOL     OW18133   2.176   3.906   2.967
 5745SOL    HW118134   2.077   3.922   2.965
 5745SOL    HW218135   2.223   3.989   2.937
 5746SOL     OW18136   4.982   0.693   3.915
 5746SOL    HW118137   4.938   0.740   3.839
 5746SOL    HW218138   4.921   0.694   3.995
 5747SOL     OW18139   0.614   0.317   1.725
 5747SOL    HW118140   0.523   0.320   1.684
 5747SOL    HW218141   0.668   0.245   1.681
 5748SOL     OW18142   6.015   0.083   6.562
 5748SOL    HW118143   6.078   0.151   6.600
 5748SOL    HW218144   6.030   7.019   6.606
 5749SOL     OW18145   1.781   6.193   5.936
 5749SOL    HW118146   1.784   6.229   6.030
 5749SOL    HW218147   1.707   6.238   5.886
 5750SOL     OW18148   6.478   2.304   4.188
 5750SOL    HW118149   6.451   2.348   4.102
 5750SOL    HW218150   6.413   2.329   4.260
 5751SOL     OW18151   0.233   4.488   4.772
 5751SOL    HW118152   0.176   4.521   4.697
 5751SOL    HW218153   0.202   4.396   4.799
 5752SOL     OW18154   5.283   1.945   6.358
 5752SOL    HW118155   5.292   1.902   6.268
 5752SOL    HW218156   5.291   2.044   6.348
 5753SOL     OW18157   3.740   3.487   4.212
 5753SOL    HW118158   3.721   3.557   4.281
 5753SOL    HW218159   3.665   3.482   4.147
 5754SOL     OW18160   6.008   0.432   0.729
 5754SOL    HW118161   6.073   0.443   0.805
 5754SOL    HW218162   5.950   0.353   0.745
 5755SOL     OW18163   1.185   3.953   6.383
 5755SOL    HW118164   1.113   3.921   6.444
 5755SOL    HW218165   1.265   3.981   6.436
 5756SOL     OW18166   4.812   6.644   1.489
 5756SOL    HW118167   4.756   6.564   1.465
 5756SOL    HW218168   4.853   6.681   1.407
 5757SOL     OW18169   1.982   2.082   4.144
 5757SOL    HW118170   2.061   2.035   4.105
 5757SOL    HW218171   1.911   2.091   4.074
 5758SOL     OW18172   6.031   6.798   2.894
 5758SOL    HW118173   5.970   6.786   2.972
 5758SOL    HW218174   6.043   6.711   2.847
 5759SOL     OW18175   3.289   6.013   2.586
 5759SOL    HW118176   3.296   5.951   2.507
 5759SOL    HW218177   3.335   6.099   2.565
 5760SOL     OW18178   0.367   2.443   0.188
 5760SOL    HW118179   0.403   2.519   0.133
 5760SOL    HW218180   0.320   2.378   0.128
 5761SOL     OW18181   0.254   6.999   5.226
 5761SOL    HW118182   0.181   0.020   5.175
 5761SOL    HW218183   0.214   6.939   5.295
 5762SOL     OW18184   0.397   6.542   5.945
 5762SOL    HW118185   0.456   6.619   5.969
 5762SOL    HW218186   0.439   6.490   5.870
 5763SOL     OW18187   4.400   0.202   0.046
 5763SOL    HW118188   4.430   0.134   0.113
 5763SOL    HW218189   4.316   0.169   0.002
 5764SOL     OW18190   3.442   6.187   4.042
 5764SOL    HW118191   3.368   6.205   3.978
 5764SOL    HW218192   3.512   6.131   3.998
 5765SOL     OW18193   5.647   6.792   3.162
 5765SOL    HW118194   5.652   6.861   3.090
 5765SOL    HW218195   5.629   6.836   3.249
 5766SOL     OW18196   1.035   1.231   4.308
 5766SOL    HW118197   1.062   1.136   4.291
 5766SOL    HW218198   0.962   1.232   4.376
 5767SOL     OW18199   5.956   0.097   0.387
 5767SOL    HW118200   5.983   0.180   0.437
 5767SOL    HW218201   6.029   0.070   0.325
 5768SOL     OW18202   1.692   0.356   5.034
 5768SOL    HW118203   1.750   0.432   5.004
 5768SOL    HW218204   1.596   0.386   5.037
 5769SOL     OW18205   1.155   2.364   6.456
 5769SOL    HW118206   1.056   2.361   6.447
 5769SOL    HW218207   1.189   2.275   6.486
 5770SOL     OW18208   0.938   2.889   1.886
 5770SOL    HW118209   0.954   2.889   1.984
 5770SOL    HW218210   0.955   2.981   1.849
 5771SOL     OW18211   3.461   5.873   3.417
 5771SOL    HW118212   3.483   5.776   3.423
 5771SOL    HW218213   3.364   5.887   3.437
 5772SOL     OW18214   3.029   1.000   3.241
 5772SOL    HW118215   2.936   0.967   3.227
 5772SOL    HW218216   3.078   0.937   3.302
 5773SOL     OW18217   5.253   0.337   4.490
 5773SOL    HW118218   5.223   0.317   4.397
 5773SOL    HW218219   5.191   0.293   4.555
 5774SOL     OW18220   1.242   6.897   3.948
 5774SOL    HW118221   1.156   6.937   3.979
 5774SOL    HW218222   1.305   6.889   4.026
 5775SOL     OW18223   6.123   4.945   2.395
 5775SOL    HW118224   6.146   5.018   2.460
 5775SOL    HW218225   6.033   4.907   2.419
 5776SOL     OW18226   3.916   1.064   4.456
 5776SOL    HW118227   3.836   1.118   4.427
 5776SOL    HW218228   3.908   1.043   4.554
 5777SOL     OW18229   6.866   1.184   1.626
 5777SOL    HW118230   6.778   1.207   1.667
 5777SOL    HW218231   6.851   1.133   1.542
 5778SOL     OW18232   0.145   0.540   6.144
 5778SOL    HW118233   0.203   0.591   6.080
 5778SOL    HW218234   0.187   0.451   6.163
 5779SOL     OW18235   5.412   1.821   0.062
 5779SOL    HW118236   5.503   1.783   0.071
 5779SOL    HW218237   5.350   1.776   0.126
 5780SOL     OW18238   5.523   4.979   4.069
 5780SOL    HW118239   5.614   4.988   4.029
 5780SOL    HW218240   5.455   5.014   4.004
 5781SOL     OW18241   0.985   6.140   5.474
 5781SOL    HW118242   1.053   6.213   5.467
 5781SOL    HW218243   1.029   6.052   5.458
 5782SOL     OW18244   5.685   0.868   1.099
 5782SOL    HW118245   5.639   0.793   1.052
 5782SOL    HW218246   5.651   0.955   1.064
 5783SOL     OW18247   2.275   2.286   6.412
 5783SOL    HW118248   2.368   2.286   6.449
 5783SOL    HW218249   2.231   2.198   6.433
 5784SOL     OW18250   6.400   6.121   0.583
 5784SOL    HW118251   6.458   6.121   0.665
 5784SOL    HW218252   6.448   6.072   0.509
 5785SOL     OW18253   1.374   1.620   2.153
 5785SOL    HW118254   1.451   1.658   2.204
 5785SOL    HW218255   1.409   1.571   2.073
 5786SOL     OW18256   5.896   4.619   1.927
 5786SOL    HW118257   5.875   4.618   2.025
 5786SOL    HW218258   5.944   4.536   1.902
 5787SOL     OW18259   2.235   2.375   6.163
 5787SOL    HW118260   2.167   2.320   6.113
 5787SOL    HW218261   2.230   2.352   6.260
 5788SOL     OW18262   3.501   1.168   4.135
 5788SOL    HW118263   3.562   1.232   4.089
 5788SOL    HW218264   3.517   1.075   4.100
 5789SOL     OW18265   3.152   4.820   6.046
 5789SOL    HW118266   3.144   4.920   6.038
 5789SOL    HW218267   3.185   4.783   5.960
 5790SOL     OW18268   2.111   3.336   3.853
 5790SOL    HW118269   2.151   3.384   3.931
 5790SOL    HW218270   2.011   3.348   3.854
 5791SOL     OW18271   1.620   0.955   3.460
 5791SOL    HW118272   1.582   0.877   3.410
 5791SOL    HW218273   1.652   1.024   3.395
 5792SOL     OW18274   1.305   1.816   3.311
 5792SOL    HW118275   1.233   1.829   3.243
 5792SOL    HW218276   1.275   1.748   3.379
 5793SOL     OW18277   6.436   1.415   5.587
 5793SOL    HW118278   6.399   1.380   5.501
 5793SOL    HW218279   6.494   1.346   5.630
 5794SOL     OW18280   6.860   3.621   6.644
 5794SOL    HW118281   6.935   3.561   6.620
 5794SOL    HW218282   6.867   3.649   6.740
 5795SOL     OW18283   6.785   4.796   0.109
 5795SOL    HW118284   6.800   4.818   0.013
 5795SOL    HW218285   6.701   4.742   0.118
 5796SOL     OW18286   3.132   1.914   0.674
 5796SOL    HW118287   3.049   1.934   0.623
 5796SOL    HW218288   3.125   1.824   0.716
 5797SOL     OW18289   3.008   3.117   5.883
 5797SOL    HW118290   2.968   3.099   5.793
 5797SOL    HW218291   2.954   3.070   5.953
 5798SOL     OW18292   6.186   4.849   4.183
 5798SOL    HW118293   6.226   4.767   4.222
 5798SOL    HW218294   6.167   4.915   4.255
 5799SOL     OW18295   5.170   0.213   4.207
 5799SOL    HW118296   5.090   0.153   4.216
 5799SOL    HW218297   5.239   0.167   4.151
 5800SOL     OW18298   5.040   6.094   6.436
 5800SOL    HW118299   4.967   6.098   6.368
 5800SOL    HW218300   5.025   6.165   6.505
 5801SOL     OW18301   1.983   0.628   1.938
 5801SOL    HW118302   2.026   0.711   1.901
 5801SOL    HW218303   2.023   0.548   1.895
 5802SOL     OW18304   0.570   2.555   4.347
 5802SOL    HW118305   0.635   2.615   4.301
 5802SOL    HW218306   0.477   2.586   4.328
 5803SOL     OW18307   1.474   4.846   0.508
 5803SOL    HW118308   1.555   4.842   0.449
 5803SOL    HW218309   1.396   4.807   0.461
 5804SOL     OW18310   0.444   3.137   6.729
 5804SOL    HW118311   0.372   3.116   6.664
 5804SOL    HW218312   0.455   3.236   6.737
 5805SOL     OW18313   4.920   3.384   6.884
 5805SOL    HW118314   4.906   3.475   6.923
 5805SOL    HW218315   4.969   3.391   6.798
 5806SOL     OW18316   6.012   6.124   5.907
 5806SOL    HW118317   5.913   6.135   5.919
 5806SOL    HW218318   6.059   6.173   5.980
 5807SOL     OW18319   2.075   4.366   0.791
 5807SOL    HW118320   1.983   4.393   0.818
 5807SOL    HW218321   2.098   4.408   0.703
 5808SOL     OW18322   6.913   1.497   4.028
 5808SOL    HW118323   6.973   1.491   4.108
 5808SOL    HW218324   6.823   1.530   4.056
 5809SOL     OW18325   0.482   3.611   3.557
 5809SOL    HW118326   0.464   3.678   3.630
 5809SOL    HW218327   0.461   3.519   3.591
 5810SOL     OW18328   3.296   1.588   2.816
 5810SOL    HW118329   3.243   1.623   2.738
 5810SOL    HW218330   3.240   1.594   2.899
 5811SOL     OW18331   3.257   6.921   1.282
 5811SOL    HW118332   3.159   6.903   1.292
 5811SOL    HW218333   3.277   7.014   1.315
 5812SOL     OW18334   4.957   0.657   4.809
 5812SOL    HW118335   4.919   0.659   4.716
 5812SOL    HW218336   4.899   0.600   4.867
 5813SOL     OW18337   1.375   2.746   4.594
 5813SOL    HW118338   1.414   2.836   4.614
 5813SOL    HW218339   1.279   2.744   4.622
 5814SOL     OW18340   0.472   4.753   1.255
 5814SOL    HW118341   0.412   4.684   1.215
 5814SOL    HW218342   0.528   4.793   1.183
 5815SOL     OW18343   4.437   6.404   5.218
 5815SOL    HW118344   4.443   6.464   5.297
 5815SOL    HW218345   4.368   6.439   5.154
 5816SOL     OW18346   5.605   6.316   6.419
 5816SOL    HW118347   5.519   6.334   6.468
 5816SOL    HW218348   5.626   6.219   6.423
 5817SOL     OW18349   6.594   2.344   6.245
 5817SOL    HW118350   6.591   2.252   6.205
 5817SOL    HW218351   6.544   2.407   6.186
 5818SOL     OW18352   5.879   6.655   5.088
 5818SOL    HW118353   5.841   6.681   5.176
 5818SOL    HW218354   5.905   6.738   5.037
 5819SOL     OW18355   6.328   0.942   2.008
 5819SOL    HW118356   6.234   0.955   1.976
 5819SOL    HW218357   6.388   1.009   1.964
 5820SOL     OW18358   5.423   4.629   1.644
 5820SOL    HW118359   5.400   4.623   1.741
 5820SOL    HW218360   5.397   4.544   1.598
 5821SOL     OW18361   2.794   6.196   2.302
 5821SOL    HW118362   2.872   6.133   2.301
 5821SOL    HW218363   2.809   6.270   2.237
 5822SOL     OW18364   0.121   0.469   2.838
 5822SOL    HW118365   0.087   0.382   2.801
 5822SOL    HW218366   0.092   0.544   2.779
 5823SOL     OW18367   1.545   2.151   4.248
 5823SOL    HW118368   1.470   2.194   4.197
 5823SOL    HW218369   1.572   2.211   4.324
 5824SOL     OW18370   5.010   0.429   3.781
 5824SOL    HW118371   4.954   0.359   3.826
 5824SOL    HW218372   4.991   0.518   3.823
 5825SOL     OW18373   3.054   0.832   1.733
 5825SOL    HW118374   3.056   0.790   1.824
 5825SOL    HW218375   3.082   0.928   1.740
 5826SOL     OW18376   0.621   6.700   3.352
 5826SOL    HW118377   0.599   6.798   3.356
 5826SOL    HW218378   0.635   6.674   3.256
 5827SOL     OW18379   1.714   5.235   6.266
 5827SOL    HW118380   1.674   5.167   6.204
 5827SOL    HW218381   1.806   5.206   6.292
 5828SOL     OW18382   6.346   1.562   0.935
 5828SOL    HW118383   6.272   1.568   0.868
 5828SOL    HW218384   6.412   1.635   0.918
 5829SOL     OW18385   2.084   0.474   1.014
 5829SOL    HW118386   1.984   0.470   1.009
 5829SOL    HW218387   2.116   0.555   0.965
 5830SOL     OW18388   1.159   1.252   5.947
 5830SOL    HW118389   1.188   1.260   6.042
 5830SOL    HW218390   1.222   1.192   5.897
 5831SOL     OW18391   5.585   5.328   2.744
 5831SOL    HW118392   5.683   5.335   2.724
 5831SOL    HW218393   5.571   5.258   2.814
 5832SOL     OW18394   4.042   3.741   4.450
 5832SOL    HW118395   4.112   3.677   4.417
 5832SOL    HW218396   3.961   3.734   4.392
 5833SOL     OW18397   3.049   3.134   4.364
 5833SOL    HW118398   3.093   3.084   4.289
 5833SOL    HW218399   3.102   3.121   4.448
 5834SOL     OW18400   5.411   1.658   6.537
 5834SOL    HW118401   5.332   1.598   6.532
 5834SOL    HW218402   5.455   1.647   6.626
 5835SOL     OW18403   5.892   2.400   4.500
 5835SOL    HW118404   5.842   2.373   4.582
 5835SOL    HW218405   5.832   2.455   4.442
 5836SOL     OW18406   4.096   6.739   3.572
 5836SOL    HW118407   4.079   6.753   3.669
 5836SOL    HW218408   4.152   6.814   3.537
 5837SOL     OW18409   4.094   4.068   0.259
 5837SOL    HW118410   4.044   4.053   0.344
 5837SOL    HW218411   4.192   4.053   0.275
 5838SOL     OW18412   1.052   1.592   6.082
 5838SOL    HW118413   1.055   1.606   6.181
 5838SOL    HW218414   1.139   1.553   6.052
 5839SOL     OW18415   0.235   2.707   2.540
 5839SOL    HW118416   0.166   2.686   2.470
 5839SOL    HW218417   0.297   2.778   2.505
 5840SOL     OW18418   3.152   5.404   0.295
 5840SOL    HW118419   3.244   5.408   0.254
 5840SOL    HW218420   3.088   5.368   0.227
 5841SOL     OW18421   6.646   2.860   3.621
 5841SOL    HW118422   6.637   2.765   3.592
 5841SOL    HW218423   6.555   2.902   3.625
 5842SOL     OW18424   3.298   2.833   1.062
 5842SOL    HW118425   3.203   2.843   1.089
 5842SOL    HW218426   3.357   2.835   1.143
 5843SOL     OW18427   0.381   1.643   1.818
 5843SOL    HW118428   0.286   1.660   1.844
 5843SOL    HW218429   0.383   1.585   1.736
 5844SOL     OW18430   1.754   6.414   6.506
 5844SOL    HW118431   1.745   6.433   6.604
 5844SOL    HW218432   1.704   6.483   6.454
 5845SOL     OW18433   2.309   2.324   4.011
 5845SOL    HW118434   2.213   2.345   3.991
 5845SOL    HW218435   2.328   2.343   4.107
 5846SOL     OW18436   0.499   3.414   6.450
 5846SOL    HW118437   0.428   3.388   6.384
 5846SOL    HW218438   0.589   3.395   6.411
 5847SOL     OW18439   1.491   2.692   4.338
 5847SOL    HW118440   1.424   2.725   4.271
 5847SOL    HW218441   1.457   2.709   4.430
 5848SOL     OW18442   1.024   4.486   3.348
 5848SOL    HW118443   0.971   4.527   3.421
 5848SOL    HW218444   1.114   4.460   3.382
 5849SOL     OW18445   2.059   0.527   5.600
 5849SOL    HW118446   2.096   0.497   5.512
 5849SOL    HW218447   2.133   0.527   5.668
 5850SOL     OW18448   0.615   5.045   3.054
 5850SOL    HW118449   0.693   5.060   3.114
 5850SOL    HW218450   0.533   5.087   3.094
 5851SOL     OW18451   6.758   3.552   2.168
 5851SOL    HW118452   6.779   3.532   2.072
 5851SOL    HW218453   6.734   3.649   2.177
 5852SOL     OW18454   3.531   6.636   2.479
 5852SOL    HW118455   3.454   6.597   2.529
 5852SOL    HW218456   3.616   6.619   2.530
 5853SOL     OW18457   4.888   4.136   5.497
 5853SOL    HW118458   4.950   4.208   5.530
 5853SOL    HW218459   4.917   4.048   5.534
 5854SOL     OW18460   1.203   0.999   0.077
 5854SOL    HW118461   1.130   1.013   0.009
 5854SOL    HW218462   1.173   0.931   0.144
 5855SOL     OW18463   2.053   1.590   5.476
 5855SOL    HW118464   2.103   1.506   5.454
 5855SOL    HW218465   1.979   1.603   5.410
 5856SOL     OW18466   0.605   6.634   4.020
 5856SOL    HW118467   0.519   6.586   4.035
 5856SOL    HW218468   0.619   6.701   4.092
 5857SOL     OW18469   0.985   2.485   5.354
 5857SOL    HW118470   0.925   2.443   5.286
 5857SOL    HW218471   1.080   2.477   5.324
 5858SOL     OW18472   3.197   0.387   4.055
 5858SOL    HW118473   3.239   0.468   4.094
 5858SOL    HW218474   3.105   0.409   4.023
 5859SOL     OW18475   5.806   4.725   1.707
 5859SOL    HW118476   5.885   4.760   1.656
 5859SOL    HW218477   5.836   4.694   1.797
 5860SOL     OW18478   6.331   4.586   0.352
 5860SOL    HW118479   6.366   4.676   0.324
 5860SOL    HW218480   6.231   4.591   0.358
 5861SOL     OW18481   6.448   2.061   5.001
 5861SOL    HW118482   6.418   2.111   5.082
 5861SOL    HW218483   6.375   2.062   4.932
 5862SOL     OW18484   6.526   5.333   4.202
 5862SOL    HW118485   6.463   5.373   4.269
 5862SOL    HW218486   6.485   5.339   4.111
 5863SOL     OW18487   2.026   1.496   1.642
 5863SOL    HW118488   1.997   1.591   1.635
 5863SOL    HW218489   1.956   1.444   1.691
 5864SOL     OW18490   4.675   4.814   6.944
 5864SOL    HW118491   4.716   4.731   6.980
 5864SOL    HW218492   4.575   4.807   6.949
 5865SOL     OW18493   4.411   0.311   2.988
 5865SOL    HW118494   4.448   0.401   2.964
 5865SOL    HW218495   4.311   0.317   2.995
 5866SOL     OW18496   3.933   1.479   6.922
 5866SOL    HW118497   3.984   1.535   6.987
 5866SOL    HW218498   3.853   1.530   6.889
 5867SOL     OW18499   6.534   3.162   2.056
 5867SOL    HW118500   6.470   3.095   2.093
 5867SOL    HW218501   6.536   3.242   2.116
 5868SOL     OW18502   0.400   6.224   5.415
 5868SOL    HW118503   0.412   6.127   5.390
 5868SOL    HW218504   0.311   6.236   5.458
 5869SOL     OW18505   2.304   5.339   4.901
 5869SOL    HW118506   2.363   5.382   4.969
 5869SOL    HW218507   2.209   5.361   4.921
 5870SOL     OW18508   5.640   5.839   4.550
 5870SOL    HW118509   5.646   5.882   4.460
 5870SOL    HW218510   5.668   5.905   4.620
 5871SOL     OW18511   3.603   4.765   0.912
 5871SOL    HW118512   3.629   4.769   0.815
 5871SOL    HW218513   3.572   4.673   0.934
 5872SOL     OW18514   4.371   5.785   3.958
 5872SOL    HW118515   4.303   5.858   3.949
 5872SOL    HW218516   4.338   5.703   3.911
 5873SOL     OW18517   1.872   3.404   1.113
 5873SOL    HW118518   1.916   3.344   1.181
 5873SOL    HW218519   1.934   3.480   1.092
 5874SOL     OW18520   0.767   4.670   6.556
 5874SOL    HW118521   0.734   4.735   6.625
 5874SOL    HW218522   0.692   4.612   6.526
 5875SOL     OW18523   4.310   2.501   1.293
 5875SOL    HW118524   4.318   2.593   1.255
 5875SOL    HW218525   4.224   2.493   1.344
 5876SOL     OW18526   4.010   4.554   6.145
 5876SOL    HW118527   4.019   4.640   6.196
 5876SOL    HW218528   3.938   4.498   6.187
 5877SOL     OW18529   5.985   5.994   2.578
 5877SOL    HW118530   5.979   5.897   2.600
 5877SOL    HW218531   6.018   6.004   2.484
 5878SOL     OW18532   4.862   4.347   3.018
 5878SOL    HW118533   4.900   4.346   3.110
 5878SOL    HW218534   4.764   4.328   3.022
 5879SOL     OW18535   3.160   4.611   5.810
 5879SOL    HW118536   3.233   4.545   5.792
 5879SOL    HW218537   3.156   4.677   5.735
 5880SOL     OW18538   5.639   2.287   1.055
 5880SOL    HW118539   5.699   2.220   1.012
 5880SOL    HW218540   5.626   2.365   0.994
 5881SOL     OW18541   0.900   5.828   3.771
 5881SOL    HW118542   0.830   5.780   3.823
 5881SOL    HW218543   0.948   5.892   3.831
 5882SOL     OW18544   1.374   5.667   4.378
 5882SOL    HW118545   1.411   5.672   4.471
 5882SOL    HW218546   1.450   5.660   4.313
 5883SOL     OW18547   0.335   5.725   0.326
 5883SOL    HW118548   0.423   5.744   0.370
 5883SOL    HW218549   0.261   5.741   0.392
 5884SOL     OW18550   0.951   1.338   1.136
 5884SOL    HW118551   1.039   1.337   1.183
 5884SOL    HW218552   0.962   1.378   1.045
 5885SOL     OW18553   7.000   5.787   2.193
 5885SOL    HW118554   0.007   5.876   2.160
 5885SOL    HW218555   0.021   5.765   2.280
 5886SOL     OW18556   2.026   4.148   3.398
 5886SOL    HW118557   1.934   4.179   3.376
 5886SOL    HW218558   2.082   4.226   3.428
 5887SOL     OW18559   2.124   3.525   1.520
 5887SOL    HW118560   2.210   3.479   1.497
 5887SOL    HW218561   2.140   3.591   1.593
 5888SOL     OW18562   2.826   6.331   1.481
 5888SOL    HW118563   2.879   6.313   1.564
 5888SOL    HW218564   2.758   6.402   1.501
 5889SOL     OW18565   4.631   1.328   1.435
 5889SOL    HW118566   4.671   1.283   1.515
 5889SOL    HW218567   4.667   1.284   1.352
 5890SOL     OW18568   2.672   5.005   2.551
 5890SOL    HW118569   2.679   4.911   2.584
 5890SOL    HW218570   2.742   5.061   2.595
 5891SOL     OW18571   2.230   2.940   6.843
 5891SOL    HW118572   2.325   2.909   6.836
 5891SOL    HW218573   2.220   3.029   6.800
 5892SOL     OW18574   0.575   2.131   1.753
 5892SOL    HW118575   0.640   2.147   1.679
 5892SOL    HW218576   0.578   2.035   1.780
 5893SOL     OW18577   0.230   6.193   1.159
 5893SOL    HW118578   0.255   6.237   1.245
 5893SOL    HW218579   0.269   6.101   1.156
 5894SOL     OW18580   2.949   5.497   6.495
 5894SOL    HW118581   2.956   5.417   6.554
 5894SOL    HW218582   2.894   5.474   6.414
 5895SOL     OW18583   6.042   2.117   4.694
 5895SOL    HW118584   6.116   2.084   4.752
 5895SOL    HW218585   6.062   2.093   4.599
 5896SOL     OW18586   5.399   1.965   0.698
 5896SOL    HW118587   5.398   2.018   0.783
 5896SOL    HW218588   5.323   1.995   0.640
 5897SOL     OW18589   2.852   3.795   0.342
 5897SOL    HW118590   2.934   3.838   0.381
 5897SOL    HW218591   2.774   3.857   0.353
 5898SOL     OW18592   4.044   0.475   6.725
 5898SOL    HW118593   4.024   0.553   6.785
 5898SOL    HW218594   4.137   0.444   6.741
 5899SOL     OW18595   6.752   0.302   0.907
 5899SOL    HW118596   6.775   0.389   0.950
 5899SOL    HW218597   6.785   0.227   0.965
 5900SOL     OW18598   4.914   5.569   2.233
 5900SOL    HW118599   4.967   5.549   2.151
 5900SOL    HW218600   4.938   5.504   2.305
 5901SOL     OW18601   1.169   0.508   5.027
 5901SOL    HW118602   1.094   0.571   5.007
 5901SOL    HW218603   1.256   0.556   5.017
 5902SOL     OW18604   4.634   3.863   5.445
 5902SOL    HW118605   4.587   3.931   5.389
 5902SOL    HW218606   4.717   3.904   5.484
 5903SOL     OW18607   4.696   1.125   5.841
 5903SOL    HW118608   4.665   1.143   5.748
 5903SOL    HW218609   4.760   1.196   5.870
 5904SOL     OW18610   0.015   5.416   1.280
 5904SOL    HW118611   0.045   5.431   1.374
 5904SOL    HW218612   6.994   5.327   1.274
 5905SOL     OW18613   6.536   1.706   5.111
 5905SOL    HW118614   6.457   1.655   5.077
 5905SOL    HW218615   6.547   1.790   5.058
 5906SOL     OW18616   4.185   0.517   4.978
 5906SOL    HW118617   4.110   0.458   4.948
 5906SOL    HW218618   4.272   0.480   4.944
 5907SOL     OW18619   1.049   3.589   5.756
 5907SOL    HW118620   1.051   3.521   5.830
 5907SOL    HW218621   1.055   3.681   5.795
 5908SOL     OW18622   4.762   2.652   6.874
 5908SOL    HW118623   4.755   2.750   6.859
 5908SOL    HW218624   4.802   2.635   6.965
 5909SOL     OW18625   6.724   4.781   3.112
 5909SOL    HW118626   6.704   4.874   3.144
 5909SOL    HW218627   6.785   4.786   3.032
 5910SOL     OW18628   1.631   4.118   3.000
 5910SOL    HW118629   1.609   4.040   2.941
 5910SOL    HW218630   1.673   4.190   2.944
 5911SOL     OW18631   0.411   1.359   5.213
 5911SOL    HW118632   0.367   1.301   5.281
 5911SOL    HW218633   0.342   1.391   5.148
 5912SOL     OW18634   0.941   3.800   6.166
 5912SOL    HW118635   0.961   3.841   6.077
 5912SOL    HW218636   0.846   3.770   6.169
 5913SOL     OW18637   1.839   2.860   5.544
 5913SOL    HW118638   1.931   2.900   5.540
 5913SOL    HW218639   1.774   2.921   5.499
 5914SOL     OW18640   1.076   5.579   0.281
 5914SOL    HW118641   1.121   5.535   0.203
 5914SOL    HW218642   1.018   5.513   0.328
 5915SOL     OW18643   5.460   4.102   4.959
 5915SOL    HW118644   5.431   4.102   5.054
 5915SOL    HW218645   5.383   4.075   4.901
 5916SOL     OW18646   2.911   0.672   6.734
 5916SOL    HW118647   2.880   0.721   6.652
 5916SOL    HW218648   2.960   0.736   6.794
 5917SOL     OW18649   3.533   3.275   2.046
 5917SOL    HW118650   3.633   3.273   2.057
 5917SOL    HW218651   3.510   3.297   1.951
 5918SOL     OW18652   3.166   2.046   3.657
 5918SOL    HW118653   3.257   2.066   3.694
 5918SOL    HW218654   3.170   2.049   3.557
 5919SOL     OW18655   1.666   1.404   5.861
 5919SOL    HW118656   1.763   1.387   5.842
 5919SOL    HW218657   1.626   1.324   5.904
 5920SOL     OW18658   2.303   3.469   6.333
 5920SOL    HW118659   2.207   3.453   6.354
 5920SOL    HW218660   2.335   3.550   6.382
 5921SOL     OW18661   3.620   6.381   4.105
 5921SOL    HW118662   3.712   6.382   4.065
 5921SOL    HW218663   3.572   6.299   4.075
 5922SOL     OW18664   6.635   5.006   2.469
 5922SOL    HW118665   6.559   5.066   2.493
 5922SOL    HW218666   6.617   4.965   2.379
 5923SOL     OW18667   1.082   6.895   3.083
 5923SOL    HW118668   1.160   6.834   3.097
 5923SOL    HW218669   1.059   6.938   3.170
 5924SOL     OW18670   6.138   1.821   4.729
 5924SOL    HW118671   6.173   1.727   4.736
 5924SOL    HW218672   6.042   1.818   4.701
 5925SOL     OW18673   6.761   6.959   1.487
 5925SOL    HW118674   6.722   7.008   1.409
 5925SOL    HW218675   6.709   6.875   1.504
 5926SOL     OW18676   2.327   0.042   1.585
 5926SOL    HW118677   2.244   0.069   1.634
 5926SOL    HW218678   2.303   7.006   1.509
 5927SOL     OW18679   2.026   5.557   0.758
 5927SOL    HW118680   2.042   5.652   0.783
 5927SOL    HW218681   1.928   5.542   0.743
 5928SOL     OW18682   6.715   6.714   1.012
 5928SOL    HW118683   6.791   6.776   0.993
 5928SOL    HW218684   6.654   6.709   0.933
 5929SOL     OW18685   0.361   0.520   6.398
 5929SOL    HW118686   0.385   0.595   6.337
 5929SOL    HW218687   0.270   0.485   6.374
 5930SOL     OW18688   6.838   1.779   5.079
 5930SOL    HW118689   6.760   1.768   5.017
 5930SOL    HW218690   6.806   1.799   5.171
 5931SOL     OW18691   6.470   4.387   0.449
 5931SOL    HW118692   6.554   4.367   0.398
 5931SOL    HW218693   6.412   4.448   0.395
 5932SOL     OW18694   2.228   0.609   0.417
 5932SOL    HW118695   2.144   0.617   0.470
 5932SOL    HW218696   2.292   0.680   0.446
 5933SOL     OW18697   5.441   2.364   3.247
 5933SOL    HW118698   5.526   2.380   3.196
 5933SOL    HW218699   5.428   2.266   3.261
 5934SOL     OW18700   4.555   3.566   1.697
 5934SOL    HW118701   4.553   3.488   1.635
 5934SOL    HW218702   4.523   3.648   1.649
 5935SOL     OW18703   3.699   3.406   2.853
 5935SOL    HW118704   3.741   3.333   2.798
 5935SOL    HW218705   3.697   3.491   2.800
 5936SOL     OW18706   6.583   5.897   7.009
 5936SOL    HW118707   6.512   5.959   6.975
 5936SOL    HW218708   6.634   5.860   6.931
 5937SOL     OW18709   0.726   3.248   1.202
 5937SOL    HW118710   0.658   3.317   1.226
 5937SOL    HW218711   0.801   3.291   1.152
 5938SOL     OW18712   3.257   5.174   1.308
 5938SOL    HW118713   3.320   5.196   1.234
 5938SOL    HW218714   3.308   5.159   1.393
 5939SOL     OW18715   0.170   6.932   2.457
 5939SOL    HW118716   0.183   6.927   2.358
 5939SOL    HW218717   0.245   6.985   2.498
 5940SOL     OW18718   4.261   5.087   2.589
 5940SOL    HW118719   4.337   5.096   2.653
 5940SOL    HW218720   4.269   4.999   2.541
 5941SOL     OW18721   6.159   3.123   3.907
 5941SOL    HW118722   6.067   3.096   3.936
 5941SOL    HW218723   6.214   3.041   3.892
 5942SOL     OW18724   7.018   2.003   5.137
 5942SOL    HW118725   6.930   1.957   5.148
 5942SOL    HW218726   0.021   2.000   5.041
 5943SOL     OW18727   1.348   6.021   0.898
 5943SOL    HW118728   1.436   5.992   0.862
 5943SOL    HW218729   1.284   6.035   0.823
 5944SOL     OW18730   5.362   2.647   2.981
 5944SOL    HW118731   5.339   2.670   3.076
 5944SOL    HW218732   5.332   2.554   2.961
 5945SOL     OW18733   6.675   6.268   6.361
 5945SOL    HW118734   6.696   6.363   6.385
 5945SOL    HW218735   6.713   6.208   6.431
 5946SOL     OW18736   4.019   2.182   5.079
 5946SOL    HW118737   4.030   2.154   4.984
 5946SOL    HW218738   3.969   2.112   5.130
 5947SOL     OW18739   5.454   4.354   3.556
 5947SOL    HW118740   5.379   4.394   3.505
 5947SOL    HW218741   5.540   4.371   3.508
 5948SOL     OW18742   2.924   5.092   3.138
 5948SOL    HW118743   2.930   4.996   3.110
 5948SOL    HW218744   2.942   5.099   3.236
 5949SOL     OW18745   5.467   4.530   2.866
 5949SOL    HW118746   5.471   4.436   2.832
 5949SOL    HW218747   5.553   4.552   2.913
 5950SOL     OW18748   0.725   2.406   5.248
 5950SOL    HW118749   0.656   2.421   5.319
 5950SOL    HW218750   0.684   2.421   5.159
 5951SOL     OW18751   2.073   0.674   2.927
 5951SOL    HW118752   2.089   0.679   2.829
 5951SOL    HW218753   2.001   0.738   2.953
 5952SOL     OW18754   6.990   6.625   4.601
 5952SOL    HW118755   6.899   6.646   4.566
 5952SOL    HW218756   0.013   6.564   4.537
 5953SOL     OW18757   1.578   4.199   5.619
 5953SOL    HW118758   1.609   4.256   5.696
 5953SOL    HW218759   1.527   4.121   5.654
 5954SOL     OW18760   1.135   4.657   6.025
 5954SOL    HW118761   1.084   4.737   6.058
 5954SOL    HW218762   1.071   4.589   5.989
 5955SOL     OW18763   3.762   5.154   2.184
 5955SOL    HW118764   3.704   5.076   2.206
 5955SOL    HW218765   3.704   5.229   2.150
 5956SOL     OW18766   0.379   1.493   1.097
 5956SOL    HW118767   0.475   1.516   1.083
 5956SOL    HW218768   0.325   1.523   1.019
 5957SOL     OW18769   4.274   6.995   6.489
 5957SOL    HW118770   4.230   6.991   6.399
 5957SOL    HW218771   4.359   6.943   6.486
 5958SOL     OW18772   1.012   5.857   2.468
 5958SOL    HW118773   0.923   5.812   2.477
 5958SOL    HW218774   1.051   5.872   2.559
 5959SOL     OW18775   1.390   0.708   5.017
 5959SOL    HW118776   1.378   0.789   4.960
 5959SOL    HW218777   1.376   0.732   5.113
 5960SOL     OW18778   3.120   6.016   4.778
 5960SOL    HW118779   3.050   5.979   4.717
 5960SOL    HW218780   3.115   5.971   4.867
 5961SOL     OW18781   3.765   0.444   5.124
 5961SOL    HW118782   3.698   0.370   5.126
 5961SOL    HW218783   3.723   0.527   5.086
 5962SOL     OW18784   5.120   4.307   3.563
 5962SOL    HW118785   5.154   4.385   3.510
 5962SOL    HW218786   5.051   4.258   3.510
 5963SOL     OW18787   4.300   3.937   1.701
 5963SOL    HW118788   4.234   3.875   1.743
 5963SOL    HW218789   4.291   4.028   1.742
 5964SOL     OW18790   1.578   3.440   4.970
 5964SOL    HW118791   1.520   3.521   4.980
 5964SOL    HW218792   1.674   3.467   4.969
 5965SOL     OW18793   1.908   2.200   4.383
 5965SOL    HW118794   1.862   2.129   4.436
 5965SOL    HW218795   1.944   2.160   4.298
 5966SOL     OW18796   0.722   5.624   3.875
 5966SOL    HW118797   0.638   5.630   3.929
 5966SOL    HW218798   0.799   5.609   3.936
 5967SOL     OW18799   5.229   5.327   1.121
 5967SOL    HW118800   5.181   5.337   1.033
 5967SOL    HW218801   5.190   5.391   1.187
 5968SOL     OW18802   2.296   2.059   4.413
 5968SOL    HW118803   2.248   2.011   4.486
 5968SOL    HW218804   2.293   2.005   4.329
 5969SOL     OW18805   0.627   2.510   3.325
 5969SOL    HW118806   0.533   2.535   3.303
 5969SOL    HW218807   0.674   2.588   3.366
 5970SOL     OW18808   1.796   4.523   3.986
 5970SOL    HW118809   1.838   4.554   4.071
 5970SOL    HW218810   1.735   4.446   4.004
 5971SOL     OW18811   3.256   5.440   3.519
 5971SOL    HW118812   3.319   5.500   3.471
 5971SOL    HW218813   3.185   5.408   3.456
 5972SOL     OW18814   4.962   0.007   1.399
 5972SOL    HW118815   5.023   6.953   1.383
 5972SOL    HW218816   4.915   7.019   1.487
 5973SOL     OW18817   3.088   4.848   3.391
 5973SOL    HW118818   3.014   4.913   3.410
 5973SOL    HW218819   3.072   4.804   3.303
 5974SOL     OW18820   0.264   3.650   0.095
 5974SOL    HW118821   0.347   3.642   0.150
 5974SOL    HW218822   0.288   3.686   0.005
 5975SOL     OW18823   1.842   3.317   6.818
 5975SOL    HW118824   1.862   3.225   6.785
 5975SOL    HW218825   1.815   3.375   6.741
 5976SOL     OW18826   3.261   4.087   4.373
 5976SOL    HW118827   3.224   3.997   4.394
 5976SOL    HW218828   3.280   4.136   4.458
 5977SOL     OW18829   0.560   3.558   3.015
 5977SOL    HW118830   0.659   3.546   3.009
 5977SOL    HW218831   0.520   3.551   2.923
 5978SOL     OW18832   5.400   5.116   1.297
 5978SOL    HW118833   5.485   5.105   1.245
 5978SOL    HW218834   5.339   5.039   1.277
 5979SOL     OW18835   1.540   0.899   1.800
 5979SOL    HW118836   1.566   0.843   1.879
 5979SOL    HW218837   1.607   0.971   1.787
 5980SOL     OW18838   5.834   2.736   5.445
 5980SOL    HW118839   5.806   2.760   5.352
 5980SOL    HW218840   5.807   2.810   5.508
 5981SOL     OW18841   3.445   2.297   0.658
 5981SOL    HW118842   3.349   2.319   0.670
 5981SOL    HW218843   3.467   2.295   0.560
 5982SOL     OW18844   6.495   3.187   6.532
 5982SOL    HW118845   6.532   3.271   6.492
 5982SOL    HW218846   6.563   3.114   6.527
 5983SOL     OW18847   0.126   0.795   3.725
 5983SOL    HW118848   0.128   0.891   3.755
 5983SOL    HW218849   0.033   0.772   3.696
 5984SOL     OW18850   0.233   0.296   6.210
 5984SOL    HW118851   0.197   0.260   6.124
 5984SOL    HW218852   0.213   0.233   6.284
 5985SOL     OW18853   5.798   3.659   4.056
 5985SOL    HW118854   5.829   3.618   4.142
 5985SOL    HW218855   5.700   3.679   4.061
 5986SOL     OW18856   3.243   4.025   2.255
 5986SOL    HW118857   3.280   4.080   2.181
 5986SOL    HW218858   3.315   3.967   2.293
 5987SOL     OW18859   4.316   0.017   5.020
 5987SOL    HW118860   4.393   0.045   4.963
 5987SOL    HW218861   4.283   0.096   5.072
 5988SOL     OW18862   3.230   6.946   5.735
 5988SOL    HW118863   3.201   6.857   5.771
 5988SOL    HW218864   3.155   7.011   5.746
 5989SOL     OW18865   3.243   2.455   6.160
 5989SOL    HW118866   3.228   2.380   6.096
 5989SOL    HW218867   3.325   2.505   6.135
 5990SOL     OW18868   2.261   5.647   3.308
 5990SOL    HW118869   2.355   5.655   3.274
 5990SOL    HW218870   2.243   5.553   3.336
 5991SOL     OW18871   4.115   4.766   2.572
 5991SOL    HW118872   4.037   4.775   2.635
 5991SOL    HW218873   4.160   4.678   2.589
 5992SOL     OW18874   3.645   2.142   4.030
 5992SOL    HW118875   3.547   2.156   4.044
 5992SOL    HW218876   3.664   2.130   3.933
 5993SOL     OW18877   2.697   6.118   3.551
 5993SOL    HW118878   2.653   6.119   3.641
 5993SOL    HW218879   2.629   6.140   3.481
 5994SOL     OW18880   6.097   2.485   0.442
 5994SOL    HW118881   6.060   2.547   0.372
 5994SOL    HW218882   6.160   2.535   0.501
 5995SOL     OW18883   0.334   3.935   1.650
 5995SOL    HW118884   0.253   3.992   1.661
 5995SOL    HW218885   0.358   3.931   1.553
 5996SOL     OW18886   1.007   6.362   5.701
 5996SOL    HW118887   0.942   6.288   5.681
 5996SOL    HW218888   1.051   6.391   5.616
 5997SOL     OW18889   6.904   0.378   1.743
 5997SOL    HW118890   6.888   0.425   1.655
 5997SOL    HW218891   6.932   0.445   1.811
 5998SOL     OW18892   5.024   3.392   2.960
 5998SOL    HW118893   5.033   3.390   3.060
 5998SOL    HW218894   5.010   3.487   2.930
 5999SOL     OW18895   2.184   3.214   2.991
 5999SOL    HW118896   2.189   3.182   2.896
 5999SOL    HW218897   2.140   3.304   2.993
 6000SOL     OW18898   4.825   0.858   3.722
 6000SOL    HW118899   4.806   0.955   3.708
 6000SOL    HW218900   4.827   0.811   3.634
 6001SOL     OW18901   4.775   1.131   0.100
 6001SOL    HW118902   4.713   1.057   0.075
 6001SOL    HW218903   4.743   1.173   0.185
 6002SOL     OW18904   1.924   0.479   2.192
 6002SOL    HW118905   1.940   0.538   2.112
 6002SOL    HW218906   1.848   0.417   2.173
 6003SOL     OW18907   5.039   5.316   3.617
 6003SOL    HW118908   5.093   5.232   3.606
 6003SOL    HW218909   4.964   5.298   3.681
 6004SOL     OW18910   0.953   3.170   1.805
 6004SOL    HW118911   0.867   3.221   1.804
 6004SOL    HW218912   1.010   3.198   1.727
 6005SOL     OW18913   2.311   6.908   2.581
 6005SOL    HW118914   2.381   6.929   2.512
 6005SOL    HW218915   2.247   6.841   2.543
 6006SOL     OW18916   2.241   6.506   6.359
 6006SOL    HW118917   2.172   6.438   6.336
 6006SOL    HW218918   2.212   6.596   6.325
 6007SOL     OW18919   5.598   3.635   4.388
 6007SOL    HW118920   5.584   3.678   4.477
 6007SOL    HW218921   5.582   3.537   4.396
 6008SOL     OW18922   5.456   3.800   2.265
 6008SOL    HW118923   5.462   3.880   2.324
 6008SOL    HW218924   5.374   3.748   2.287
 6009SOL     OW18925   3.437   1.559   5.031
 6009SOL    HW118926   3.376   1.589   5.105
 6009SOL    HW218927   3.480   1.638   4.989
 6010SOL     OW18928   1.773   5.013   3.174
 6010SOL    HW118929   1.743   5.025   3.079
 6010SOL    HW218930   1.748   5.094   3.227
 6011SOL     OW18931   6.028   2.425   1.518
 6011SOL    HW118932   5.990   2.420   1.426
 6011SOL    HW218933   6.068   2.516   1.533
 6012SOL     OW18934   0.912   2.059   0.944
 6012SOL    HW118935   0.942   2.153   0.959
 6012SOL    HW218936   0.813   2.057   0.928
 6013SOL     OW18937   5.322   0.962   2.447
 6013SOL    HW118938   5.307   0.942   2.350
 6013SOL    HW218939   5.235   0.977   2.492
 6014SOL     OW18940   6.025   1.863   0.068
 6014SOL    HW118941   6.016   1.935   7.024
 6014SOL    HW218942   5.988   1.895   0.155
 6015SOL     OW18943   6.370   6.820   3.848
 6015SOL    HW118944   6.345   6.914   3.826
 6015SOL    HW218945   6.463   6.801   3.819
 6016SOL     OW18946   0.870   0.396   5.380
 6016SOL    HW118947   0.815   0.312   5.376
 6016SOL    HW218948   0.953   0.384   5.326
 6017SOL     OW18949   0.363   3.516   2.314
 6017SOL    HW118950   0.361   3.488   2.218
 6017SOL    HW218951   0.454   3.550   2.337
 6018SOL     OW18952   3.325   4.904   2.029
 6018SOL    HW118953   3.408   4.850   2.040
 6018SOL    HW218954   3.289   4.929   2.120
 6019SOL     OW18955   0.336   6.846   3.652
 6019SOL    HW118956   0.374   6.885   3.736
 6019SOL    HW218957   0.253   6.897   3.626
 6020SOL     OW18958   2.613   6.218   2.917
 6020SOL    HW118959   2.633   6.131   2.872
 6020SOL    HW218960   2.514   6.231   2.921
 6021SOL     OW18961   2.487   0.960   3.440
 6021SOL    HW118962   2.556   0.888   3.432
 6021SOL    HW218963   2.471   0.981   3.537
 6022SOL     OW18964   3.470   2.844   5.552
 6022SOL    HW118965   3.548   2.904   5.572
 6022SOL    HW218966   3.385   2.894   5.567
 6023SOL     OW18967   0.861   2.069   1.915
 6023SOL    HW118968   0.843   2.113   1.827
 6023SOL    HW218969   0.915   1.986   1.900
 6024SOL     OW18970   6.033   4.397   1.797
 6024SOL    HW118971   6.053   4.332   1.724
 6024SOL    HW218972   6.044   4.352   1.886
 6025SOL     OW18973   4.282   2.397   2.225
 6025SOL    HW118974   4.221   2.472   2.199
 6025SOL    HW218975   4.373   2.432   2.244
 6026SOL     OW18976   1.268   4.376   4.961
 6026SOL    HW118977   1.364   4.367   4.986
 6026SOL    HW218978   1.260   4.432   4.878
 6027SOL     OW18979   3.715   4.326   0.213
 6027SOL    HW118980   3.642   4.389   0.241
 6027SOL    HW218981   3.722   4.252   0.280
 6028SOL     OW18982   0.979   4.206   5.634
 6028SOL    HW118983   1.030   4.186   5.550
 6028SOL    HW218984   0.958   4.304   5.637
 6029SOL     OW18985   1.892   5.403   1.073
 6029SOL    HW118986   1.942   5.335   1.127
 6029SOL    HW218987   1.797   5.372   1.061
 6030SOL     OW18988   1.875   6.006   1.274
 6030SOL    HW118989   1.867   5.963   1.364
 6030SOL    HW218990   1.790   5.993   1.223
 6031SOL     OW18991   4.620   0.992   4.733
 6031SOL    HW118992   4.639   0.933   4.654
 6031SOL    HW218993   4.690   0.979   4.802
 6032SOL     OW18994   1.333   2.337   2.102
 6032SOL    HW118995   1.277   2.255   2.099
 6032SOL    HW218996   1.276   2.418   2.088
 6033SOL     OW18997   0.527   6.805   4.615
 6033SOL    HW118998   0.562   6.827   4.524
 6033SOL    HW218999   0.432   6.774   4.608
 6034SOL     OW19000   3.014   4.941   4.517
 6034SOL    HW119001   2.945   4.874   4.546
 6034SOL    HW219002   3.074   4.962   4.595
 6035SOL     OW19003   4.431   0.612   4.147
 6035SOL    HW119004   4.378   0.697   4.135
 6035SOL    HW219005   4.485   0.618   4.231
 6036SOL     OW19006   5.061   0.818   5.616
 6036SOL    HW119007   5.002   0.841   5.693
 6036SOL    HW219008   5.069   0.718   5.608
 6037SOL     OW19009   6.919   4.733   4.255
 6037SOL    HW119010   6.844   4.796   4.278
 6037SOL    HW219011   6.959   4.761   4.168
 6038SOL     OW19012   0.264   3.140   6.394
 6038SOL    HW119013   0.213   3.075   6.338
 6038SOL    HW219014   0.360   3.113   6.399
 6039SOL     OW19015   3.203   4.094   3.291
 6039SOL    HW119016   3.144   4.164   3.250
 6039SOL    HW219017   3.210   4.109   3.389
 6040SOL     OW19018   1.229   1.361   1.184
 6040SOL    HW119019   1.271   1.413   1.109
 6040SOL    HW219020   1.225   1.419   1.266
 6041SOL     OW19021   0.827   3.116   6.183
 6041SOL    HW119022   0.778   3.193   6.225
 6041SOL    HW219023   0.903   3.152   6.128
 6042SOL     OW19024   6.023   5.597   4.953
 6042SOL    HW119025   6.033   5.694   4.978
 6042SOL    HW219026   5.944   5.587   4.892
 6043SOL     OW19027   6.529   4.156   3.420
 6043SOL    HW119028   6.440   4.140   3.463
 6043SOL    HW219029   6.515   4.207   3.334
 6044SOL     OW19030   1.419   1.470   0.935
 6044SOL    HW119031   1.471   1.512   0.860
 6044SOL    HW219032   1.334   1.432   0.898
 6045SOL     OW19033   5.890   3.909   6.695
 6045SOL    HW119034   5.979   3.954   6.686
 6045SOL    HW219035   5.874   3.850   6.616
 6046SOL     OW19036   0.025   3.536   0.056
 6046SOL    HW119037   0.099   3.593   0.092
 6046SOL    HW219038   7.018   3.473   0.127
 6047SOL     OW19039   1.094   6.496   4.999
 6047SOL    HW119040   1.145   6.576   4.969
 6047SOL    HW219041   1.136   6.414   4.961
 6048SOL     OW19042   4.910   6.542   3.842
 6048SOL    HW119043   4.857   6.468   3.801
 6048SOL    HW219044   4.859   6.627   3.834
 6049SOL     OW19045   0.155   5.465   0.861
 6049SOL    HW119046   0.104   5.527   0.921
 6049SOL    HW219047   0.092   5.403   0.814
 6050SOL     OW19048   5.408   4.532   5.465
 6050SOL    HW119049   5.471   4.564   5.394
 6050SOL    HW219050   5.443   4.556   5.555
 6051SOL     OW19051   2.499   1.842   3.268
 6051SOL    HW119052   2.483   1.784   3.188
 6051SOL    HW219053   2.597   1.854   3.282
 6052SOL     OW19054   0.718   1.973   6.778
 6052SOL    HW119055   0.740   2.035   6.853
 6052SOL    HW219056   0.798   1.916   6.758
 6053SOL     OW19057   0.914   0.848   6.142
 6053SOL    HW119058   0.894   0.752   6.122
 6053SOL    HW219059   1.009   0.869   6.116
 6054SOL     OW19060   0.314   3.984   5.984
 6054SOL    HW119061   0.218   3.968   6.005
 6054SOL    HW219062   0.365   3.899   5.991
 6055SOL     OW19063   5.667   5.679   2.782
 6055SOL    HW119064   5.600   5.682   2.856
 6055SOL    HW219065   5.629   5.624   2.706
 6056SOL     OW19066   5.387   2.659   6.375
 6056SOL    HW119067   5.406   2.756   6.359
 6056SOL    HW219068   5.425   2.604   6.301
 6057SOL     OW19069   4.988   0.590   6.307
 6057SOL    HW119070   4.985   0.564   6.210
 6057SOL    HW219071   4.993   0.508   6.363
 6058SOL     OW19072   5.570   2.123   5.411
 6058SOL    HW119073   5.605   2.033   5.386
 6058SOL    HW219074   5.617   2.193   5.357
 6059SOL     OW19075   6.887   6.554   6.758
 6059SOL    HW119076   6.904   6.489   6.684
 6059SOL    HW219077   6.949   6.535   6.834
 6060SOL     OW19078   3.376   5.827   6.372
 6060SOL    HW119079   3.283   5.849   6.342
 6060SOL    HW219080   3.406   5.895   6.439
 6061SOL     OW19081   1.773   1.549   6.634
 6061SOL    HW119082   1.760   1.452   6.653
 6061SOL    HW219083   1.684   1.592   6.620
 6062SOL     OW19084   1.760   6.414   3.335
 6062SOL    HW119085   1.815   6.498   3.342
 6062SOL    HW219086   1.778   6.356   3.415
 6063SOL     OW19087   6.076   6.102   0.149
 6063SOL    HW119088   6.153   6.049   0.186
 6063SOL    HW219089   6.110   6.168   0.082
 6064SOL     OW19090   0.652   5.060   1.998
 6064SOL    HW119091   0.620   5.073   2.092
 6064SOL    HW219092   0.698   4.971   1.991
 6065SOL     OW19093   4.540   6.935   1.091
 6065SOL    HW119094   4.601   6.986   1.152
 6065SOL    HW219095   4.450   6.929   1.133
 6066SOL     OW19096   5.241   2.250   5.334
 6066SOL    HW119097   5.269   2.161   5.370
 6066SOL    HW219098   5.299   2.275   5.257
 6067SOL     OW19099   4.664   1.338   0.300
 6067SOL    HW119100   4.760   1.312   0.308
 6067SOL    HW219101   4.651   1.429   0.340
 6068SOL     OW19102   5.289   0.567   5.304
 6068SOL    HW119103   5.190   0.580   5.298
 6068SOL    HW219104   5.314   0.475   5.273
 6069SOL     OW19105   6.612   5.080   3.217
 6069SOL    HW119106   6.684   5.129   3.266
 6069SOL    HW219107   6.526   5.088   3.267
 6070SOL     OW19108   4.547   3.342   1.453
 6070SOL    HW119109   4.566   3.267   1.516
 6070SOL    HW219110   4.461   3.385   1.478
 6071SOL     OW19111   6.049   0.582   5.667
 6071SOL    HW119112   6.083   0.492   5.695
 6071SOL    HW219113   6.092   0.652   5.723
 6072SOL     OW19114   6.063   1.498   1.504
 6072SOL    HW119115   6.159   1.470   1.502
 6072SOL    HW219116   6.005   1.419   1.482
 6073SOL     OW19117   5.446   0.714   0.610
 6073SOL    HW119118   5.543   0.704   0.633
 6073SOL    HW219119   5.433   0.797   0.556
 6074SOL     OW19120   0.662   1.607   6.005
 6074SOL    HW119121   0.708   1.549   6.072
 6074SOL    HW219122   0.672   1.703   6.031
 6075SOL     OW19123   5.156   3.273   5.858
 6075SOL    HW119124   5.075   3.228   5.895
 6075SOL    HW219125   5.214   3.206   5.813
 6076SOL     OW19126   3.299   0.416   3.732
 6076SOL    HW119127   3.201   0.427   3.750
 6076SOL    HW219128   3.348   0.413   3.819
 6077SOL     OW19129   5.455   5.293   3.085
 6077SOL    HW119130   5.550   5.296   3.052
 6077SOL    HW219131   5.404   5.370   3.048
 6078SOL     OW19132   2.349   4.400   4.364
 6078SOL    HW119133   2.373   4.305   4.344
 6078SOL    HW219134   2.358   4.417   4.462
 6079SOL     OW19135   3.129   2.589   0.491
 6079SOL    HW119136   3.090   2.519   0.431
 6079SOL    HW219137   3.061   2.618   0.558
 6080SOL     OW19138   6.053   3.390   4.008
 6080SOL    HW119139   6.082   3.395   4.103
 6080SOL    HW219140   6.090   3.306   3.966
 6081SOL     OW19141   0.981   4.039   1.744
 6081SOL    HW119142   1.047   3.964   1.732
 6081SOL    HW219143   0.920   4.042   1.666
 6082SOL     OW19144   4.838   1.779   5.272
 6082SOL    HW119145   4.852   1.680   5.261
 6082SOL    HW219146   4.924   1.821   5.301
 6083SOL     OW19147   1.689   5.872   0.195
 6083SOL    HW119148   1.645   5.819   0.123
 6083SOL    HW219149   1.778   5.905   0.163
 6084SOL     OW19150   0.461   6.169   6.351
 6084SOL    HW119151   0.504   6.206   6.434
 6084SOL    HW219152   0.516   6.094   6.316
 6085SOL     OW19153   5.610   5.082   1.878
 6085SOL    HW119154   5.700   5.061   1.839
 6085SOL    HW219155   5.581   5.173   1.848
 6086SOL     OW19156   2.998   2.087   1.860
 6086SOL    HW119157   2.982   2.177   1.901
 6086SOL    HW219158   3.030   2.023   1.930
 6087SOL     OW19159   3.667   1.176   0.087
 6087SOL    HW119160   3.745   1.174   0.024
 6087SOL    HW219161   3.660   1.087   0.133
 6088SOL     OW19162   0.796   1.002   4.126
 6088SOL    HW119163   0.874   0.939   4.124
 6088SOL    HW219164   0.828   1.096   4.123
 6089SOL     OW19165   0.352   3.324   1.273
 6089SOL    HW119166   0.429   3.382   1.248
 6089SOL    HW219167   0.283   3.378   1.321
 6090SOL     OW19168   6.816   6.939   3.994
 6090SOL    HW119169   6.889   6.939   3.925
 6090SOL    HW219170   6.846   6.888   4.074
 6091SOL     OW19171   6.771   2.231   2.493
 6091SOL    HW119172   6.772   2.331   2.504
 6091SOL    HW219173   6.863   2.198   2.476
 6092SOL     OW19174   0.166   2.779   1.374
 6092SOL    HW119175   0.122   2.869   1.376
 6092SOL    HW219176   0.264   2.790   1.389
 6093SOL     OW19177   0.938   4.100   0.641
 6093SOL    HW119178   1.037   4.100   0.657
 6093SOL    HW219179   0.895   4.166   0.703
 6094SOL     OW19180   0.214   1.407   1.384
 6094SOL    HW119181   0.120   1.441   1.377
 6094SOL    HW219182   0.263   1.429   1.300
 6095SOL     OW19183   0.443   4.150   4.521
 6095SOL    HW119184   0.430   4.225   4.456
 6095SOL    HW219185   0.366   4.147   4.584
 6096SOL     OW19186   5.850   1.762   2.979
 6096SOL    HW119187   5.934   1.812   2.959
 6096SOL    HW219188   5.791   1.763   2.898
 6097SOL     OW19189   4.070   1.207   3.217
 6097SOL    HW119190   4.030   1.278   3.159
 6097SOL    HW219191   4.023   1.121   3.202
 6098SOL     OW19192   6.992   1.042   6.708
 6098SOL    HW119193   6.934   1.111   6.751
 6098SOL    HW219194   0.051   1.085   6.672
 6099SOL     OW19195   5.844   4.237   4.412
 6099SOL    HW119196   5.753   4.276   4.396
 6099SOL    HW219197   5.892   4.227   4.325
 6100SOL     OW19198   0.144   2.947   1.036
 6100SOL    HW119199   0.054   2.963   1.076
 6100SOL    HW219200   0.206   3.020   1.064
 6101SOL     OW19201   5.952   6.302   3.277
 6101SOL    HW119202   5.946   6.230   3.208
 6101SOL    HW219203   6.029   6.285   3.337
 6102SOL     OW19204   3.675   6.452   5.265
 6102SOL    HW119205   3.715   6.469   5.355
 6102SOL    HW219206   3.616   6.371   5.270
 6103SOL     OW19207   5.651   2.055   4.441
 6103SOL    HW119208   5.647   2.135   4.382
 6103SOL    HW219209   5.637   2.083   4.536
 6104SOL     OW19210   2.728   2.555   1.249
 6104SOL    HW119211   2.778   2.578   1.333
 6104SOL    HW219212   2.702   2.639   1.202
 6105SOL     OW19213   3.378   4.989   4.607
 6105SOL    HW119214   3.292   4.959   4.649
 6105SOL    HW219215   3.454   4.972   4.669
 6106SOL     OW19216   1.876   5.256   4.346
 6106SOL    HW119217   1.941   5.247   4.270
 6106SOL    HW219218   1.924   5.281   4.429
 6107SOL     OW19219   2.195   4.955   5.627
 6107SOL    HW119220   2.117   4.971   5.687
 6107SOL    HW219221   2.248   4.878   5.662
 6108SOL     OW19222   5.337   1.481   4.646
 6108SOL    HW119223   5.419   1.477   4.703
 6108SOL    HW219224   5.338   1.406   4.580
 6109SOL     OW19225   0.396   4.492   1.849
 6109SOL    HW119226   0.396   4.570   1.912
 6109SOL    HW219227   0.490   4.468   1.825
 6110SOL     OW19228   3.383   1.774   3.255
 6110SOL    HW119229   3.324   1.725   3.191
 6110SOL    HW219230   3.410   1.861   3.215
 6111SOL     OW19231   0.552   4.541   3.656
 6111SOL    HW119232   0.524   4.576   3.567
 6111SOL    HW219233   0.529   4.444   3.662
 6112SOL     OW19234   2.447   0.714   1.218
 6112SOL    HW119235   2.412   0.755   1.134
 6112SOL    HW219236   2.429   0.615   1.216
 6113SOL     OW19237   0.520   5.165   6.182
 6113SOL    HW119238   0.550   5.248   6.229
 6113SOL    HW219239   0.474   5.190   6.096
 6114SOL     OW19240   3.816   4.195   1.470
 6114SOL    HW119241   3.759   4.121   1.431
 6114SOL    HW219242   3.889   4.155   1.525
 6115SOL     OW19243   0.486   3.981   2.653
 6115SOL    HW119244   0.390   3.983   2.678
 6115SOL    HW219245   0.541   4.020   2.727
 6116SOL     OW19246   4.140   2.927   1.050
 6116SOL    HW119247   4.064   2.941   1.113
 6116SOL    HW219248   4.104   2.903   0.959
 6117SOL     OW19249   5.293   6.508   4.410
 6117SOL    HW119250   5.221   6.443   4.436
 6117SOL    HW219251   5.318   6.494   4.314
 6118SOL     OW19252   6.457   0.442   3.430
 6118SOL    HW119253   6.420   0.361   3.385
 6118SOL    HW219254   6.512   0.414   3.508
 6119SOL     OW19255   6.177   4.648   5.254
 6119SOL    HW119256   6.209   4.734   5.215
 6119SOL    HW219257   6.182   4.576   5.185
 6120SOL     OW19258   2.812   1.710   2.065
 6120SOL    HW119259   2.760   1.733   1.983
 6120SOL    HW219260   2.834   1.794   2.115
 6121SOL     OW19261   0.023   1.780   3.105
 6121SOL    HW119262   0.009   1.849   3.176
 6121SOL    HW219263   0.065   1.821   3.025
 6122SOL     OW19264   3.743   5.910   4.116
 6122SOL    HW119265   3.694   5.956   4.190
 6122SOL    HW219266   3.824   5.964   4.092
 6123SOL     OW19267   6.831   1.826   2.822
 6123SOL    HW119268   6.910   1.846   2.880
 6123SOL    HW219269   6.849   1.858   2.729
 6124SOL     OW19270   2.937   0.442   4.567
 6124SOL    HW119271   3.035   0.453   4.581
 6124SOL    HW219272   2.903   0.364   4.619
 6125SOL     OW19273   0.808   3.852   2.552
 6125SOL    HW119274   0.888   3.846   2.611
 6125SOL    HW219275   0.820   3.926   2.486
 6126SOL     OW19276   3.238   6.945   2.667
 6126SOL    HW119277   3.225   7.015   2.737
 6126SOL    HW219278   3.181   6.866   2.688
 6127SOL     OW19279   1.661   5.619   0.953
 6127SOL    HW119280   1.693   5.565   0.875
 6127SOL    HW219281   1.740   5.661   0.999
 6128SOL     OW19282   5.504   3.658   1.851
 6128SOL    HW119283   5.426   3.717   1.830
 6128SOL    HW219284   5.509   3.583   1.784
 6129SOL     OW19285   6.140   3.701   3.776
 6129SOL    HW119286   6.146   3.800   3.787
 6129SOL    HW219287   6.230   3.665   3.750
 6130SOL     OW19288   6.387   3.263   2.741
 6130SOL    HW119289   6.310   3.201   2.724
 6130SOL    HW219290   6.406   3.266   2.840
 6131SOL     OW19291   0.057   2.005   5.863
 6131SOL    HW119292   0.087   1.970   5.774
 6131SOL    HW219293   0.112   1.964   5.935
 6132SOL     OW19294   0.098   3.142   0.181
 6132SOL    HW119295   0.025   3.141   0.112
 6132SOL    HW219296   0.059   3.122   0.270
 6133SOL     OW19297   1.685   4.677   0.241
 6133SOL    HW119298   1.715   4.696   0.334
 6133SOL    HW219299   1.604   4.618   0.244
 6134SOL     OW19300   3.915   4.538   5.867
 6134SOL    HW119301   3.909   4.570   5.961
 6134SOL    HW219302   4.010   4.541   5.836
 6135SOL     OW19303   5.599   6.529   1.686
 6135SOL    HW119304   5.505   6.556   1.667
 6135SOL    HW219305   5.618   6.538   1.784
 6136SOL     OW19306   2.002   2.091   2.295
 6136SOL    HW119307   1.925   2.077   2.234
 6136SOL    HW219308   2.076   2.028   2.271
 6137SOL     OW19309   2.806   6.867   5.704
 6137SOL    HW119310   2.854   6.949   5.735
 6137SOL    HW219311   2.854   6.827   5.626
 6138SOL     OW19312   4.514   0.284   3.300
 6138SOL    HW119313   4.575   0.219   3.254
 6138SOL    HW219314   4.517   0.372   3.253
 6139SOL     OW19315   2.889   6.278   3.438
 6139SOL    HW119316   2.840   6.360   3.407
 6139SOL    HW219317   2.824   6.215   3.479
 6140SOL     OW19318   2.068   5.287   1.427
 6140SOL    HW119319   2.045   5.204   1.479
 6140SOL    HW219320   2.147   5.270   1.370
 6141SOL     OW19321   0.887   6.427   4.604
 6141SOL    HW119322   0.928   6.459   4.690
 6141SOL    HW219323   0.908   6.492   4.531
 6142SOL     OW19324   0.160   2.949   4.119
 6142SOL    HW119325   0.076   3.001   4.134
 6142SOL    HW219326   0.137   2.858   4.083
 6143SOL     OW19327   6.644   6.173   6.654
 6143SOL    HW119328   6.705   6.128   6.719
 6143SOL    HW219329   6.596   6.103   6.600
 6144SOL     OW19330   0.398   5.713   4.912
 6144SOL    HW119331   0.386   5.696   4.815
 6144SOL    HW219332   0.312   5.744   4.952
 6145SOL     OW19333   5.571   5.302   3.359
 6145SOL    HW119334   5.516   5.265   3.284
 6145SOL    HW219335   5.647   5.355   3.322
 6146SOL     OW19336   5.997   1.355   4.204
 6146SOL    HW119337   6.047   1.356   4.290
 6146SOL    HW219338   6.056   1.316   4.132
 6147SOL     OW19339   0.872   4.218   3.935
 6147SOL    HW119340   0.868   4.216   4.034
 6147SOL    HW219341   0.842   4.307   3.902
 6148SOL     OW19342   5.560   6.526   4.184
 6148SOL    HW119343   5.609   6.439   4.175
 6148SOL    HW219344   5.612   6.588   4.243
 6149SOL     OW19345   0.259   5.493   4.752
 6149SOL    HW119346   0.168   5.533   4.746
 6149SOL    HW219347   0.285   5.455   4.663
 6150SOL     OW19348   5.039   0.169   6.943
 6150SOL    HW119349   5.111   0.101   6.955
 6150SOL    HW219350   4.973   0.137   6.874
 6151SOL     OW19351   4.613   0.715   5.176
 6151SOL    HW119352   4.699   0.750   5.139
 6151SOL    HW219353   4.633   0.644   5.244
 6152SOL     OW19354   5.961   3.489   6.629
 6152SOL    HW119355   5.913   3.464   6.713
 6152SOL    HW219356   6.060   3.487   6.645
 6153SOL     OW19357   3.913   6.009   5.426
 6153SOL    HW119358   3.875   5.936   5.369
 6153SOL    HW219359   3.839   6.059   5.470
 6154SOL     OW19360   5.050   2.540   3.457
 6154SOL    HW119361   5.073   2.553   3.361
 6154SOL    HW219362   4.951   2.532   3.467
 6155SOL     OW19363   3.148   4.930   4.756
 6155SOL    HW119364   3.083   4.863   4.792
 6155SOL    HW219365   3.203   4.968   4.831
 6156SOL     OW19366   5.417   0.526   4.434
 6156SOL    HW119367   5.356   0.453   4.465
 6156SOL    HW219368   5.377   0.615   4.457
 6157SOL     OW19369   1.250   0.627   4.538
 6157SOL    HW119370   1.197   0.566   4.479
 6157SOL    HW219371   1.196   0.650   4.619
 6158SOL     OW19372   4.847   6.103   0.167
 6158SOL    HW119373   4.851   6.003   0.172
 6158SOL    HW219374   4.767   6.135   0.219
 6159SOL     OW19375   4.522   3.543   6.637
 6159SOL    HW119376   4.606   3.549   6.583
 6159SOL    HW219377   4.533   3.592   6.723
 6160SOL     OW19378   6.216   4.829   0.720
 6160SOL    HW119379   6.195   4.920   0.686
 6160SOL    HW219380   6.139   4.767   0.702
 6161SOL     OW19381   4.727   0.698   6.451
 6161SOL    HW119382   4.642   0.718   6.403
 6161SOL    HW219383   4.785   0.639   6.395
 6162SOL     OW19384   5.349   5.900   3.907
 6162SOL    HW119385   5.360   5.804   3.934
 6162SOL    HW219386   5.255   5.914   3.876
 6163SOL     OW19387   7.020   3.954   3.165
 6163SOL    HW119388   0.046   3.868   3.162
 6163SOL    HW219389   0.060   4.030   3.166
 6164SOL     OW19390   4.851   3.031   0.675
 6164SOL    HW119391   4.752   3.037   0.683
 6164SOL    HW219392   4.875   2.965   0.604
 6165SOL     OW19393   3.740   6.902   1.233
 6165SOL    HW119394   3.824   6.905   1.177
 6165SOL    HW219395   3.673   6.843   1.189
 6166SOL     OW19396   3.703   0.436   0.860
 6166SOL    HW119397   3.676   0.507   0.924
 6166SOL    HW219398   3.623   0.381   0.835
 6167SOL     OW19399   0.221   5.126   3.322
 6167SOL    HW119400   0.151   5.177   3.273
 6167SOL    HW219401   0.312   5.154   3.289
 6168SOL     OW19402   0.087   2.127   1.679
 6168SOL    HW119403   0.018   2.090   1.740
 6168SOL    HW219404   0.110   2.060   1.609
 6169SOL     OW19405   1.997   3.996   1.251
 6169SOL    HW119406   2.022   3.905   1.282
 6169SOL    HW219407   1.917   3.990   1.191
 6170SOL     OW19408   5.960   1.919   4.082
 6170SOL    HW119409   5.975   1.907   3.984
 6170SOL    HW219410   5.871   1.963   4.097
 6171SOL     OW19411   6.553   2.536   6.513
 6171SOL    HW119412   6.565   2.495   6.422
 6171SOL    HW219413   6.465   2.584   6.516
 6172SOL     OW19414   0.193   4.320   3.247
 6172SOL    HW119415   0.114   4.284   3.296
 6172SOL    HW219416   0.232   4.397   3.296
 6173SOL     OW19417   5.593   5.786   2.351
 6173SOL    HW119418   5.597   5.693   2.390
 6173SOL    HW219419   5.591   5.853   2.425
 6174SOL     OW19420   0.735   1.617   3.549
 6174SOL    HW119421   0.810   1.631   3.613
 6174SOL    HW219422   0.648   1.629   3.597
 6175SOL     OW19423   4.712   1.995   6.724
 6175SOL    HW119424   4.645   1.922   6.712
 6175SOL    HW219425   4.778   1.994   6.649
 6176SOL     OW19426   2.466   5.299   5.893
 6176SOL    HW119427   2.486   5.233   5.966
 6176SOL    HW219428   2.387   5.269   5.841
 6177SOL     OW19429   6.226   5.139   1.384
 6177SOL    HW119430   6.156   5.209   1.369
 6177SOL    HW219431   6.183   5.058   1.425
 6178SOL     OW19432   4.347   4.483   1.819
 6178SOL    HW119433   4.373   4.545   1.892
 6178SOL    HW219434   4.392   4.395   1.833
 6179SOL     OW19435   4.836   5.541   4.590
 6179SOL    HW119436   4.752   5.504   4.551
 6179SOL    HW219437   4.822   5.564   4.686
 6180SOL     OW19438   1.412   3.314   6.155
 6180SOL    HW119439   1.406   3.412   6.173
 6180SOL    HW219440   1.507   3.289   6.137
 6181SOL     OW19441   0.115   6.894   6.563
 6181SOL    HW119442   0.209   6.879   6.533
 6181SOL    HW219443   0.112   6.971   6.626
 6182SOL     OW19444   2.553   2.791   5.813
 6182SOL    HW119445   2.608   2.874   5.826
 6182SOL    HW219446   2.605   2.725   5.759
 6183SOL     OW19447   0.143   0.378   1.054
 6183SOL    HW119448   0.077   0.386   0.979
 6183SOL    HW219449   0.187   0.466   1.069
 6184SOL     OW19450   3.496   6.660   5.162
 6184SOL    HW119451   3.421   6.684   5.224
 6184SOL    HW219452   3.560   6.600   5.210
 6185SOL     OW19453   3.422   3.006   3.047
 6185SOL    HW119454   3.435   2.944   2.970
 6185SOL    HW219455   3.464   3.094   3.026
 6186SOL     OW19456   0.832   1.304   2.293
 6186SOL    HW119457   0.840   1.365   2.372
 6186SOL    HW219458   0.740   1.264   2.292
 6187SOL     OW19459   3.859   2.410   5.979
 6187SOL    HW119460   3.828   2.433   5.886
 6187SOL    HW219461   3.781   2.381   6.034
 6188SOL     OW19462   0.834   1.830   5.613
 6188SOL    HW119463   0.893   1.826   5.693
 6188SOL    HW219464   0.841   1.744   5.562
 6189SOL     OW19465   6.748   4.966   0.613
 6189SOL    HW119466   6.661   4.960   0.565
 6189SOL    HW219467   6.810   5.027   0.563
 6190SOL     OW19468   1.402   2.918   3.399
 6190SOL    HW119469   1.377   2.890   3.492
 6190SOL    HW219470   1.473   2.989   3.405
 6191SOL     OW19471   2.121   5.101   6.876
 6191SOL    HW119472   2.172   5.160   6.813
 6191SOL    HW219473   2.109   5.011   6.835
 6192SOL     OW19474   2.848   1.603   0.921
 6192SOL    HW119475   2.877   1.650   1.005
 6192SOL    HW219476   2.816   1.511   0.945
 6193SOL     OW19477   4.661   5.290   0.154
 6193SOL    HW119478   4.696   5.249   0.070
 6193SOL    HW219479   4.677   5.228   0.231
 6194SOL     OW19480   5.156   6.592   6.007
 6194SOL    HW119481   5.069   6.605   5.959
 6194SOL    HW219482   5.160   6.499   6.044
 6195SOL     OW19483   5.610   5.135   5.677
 6195SOL    HW119484   5.511   5.128   5.688
 6195SOL    HW219485   5.648   5.044   5.661
 6196SOL     OW19486   6.683   3.766   3.620
 6196SOL    HW119487   6.709   3.838   3.556
 6196SOL    HW219488   6.603   3.717   3.584
 6197SOL     OW19489   0.132   5.564   1.483
 6197SOL    HW119490   0.231   5.567   1.487
 6197SOL    HW219491   0.095   5.657   1.490
 6198SOL     OW19492   6.294   2.117   5.971
 6198SOL    HW119493   6.202   2.143   5.942
 6198SOL    HW219494   6.319   2.029   5.931
 6199SOL     OW19495   2.124   0.179   6.153
 6199SOL    HW119496   2.027   0.168   6.175
 6199SOL    HW219497   2.158   0.265   6.191
 6200SOL     OW19498   1.583   6.240   6.703
 6200SOL    HW119499   1.659   6.205   6.649
 6200SOL    HW219500   1.560   6.332   6.673
 6201SOL     OW19501   1.081   5.035   3.577
 6201SOL    HW119502   1.135   5.043   3.661
 6201SOL    HW219503   1.142   5.011   3.501
 6202SOL     OW19504   4.949   1.928   1.801
 6202SOL    HW119505   5.021   1.867   1.834
 6202SOL    HW219506   4.875   1.874   1.761
 6203SOL     OW19507   0.200   0.895   2.640
 6203SOL    HW119508   0.185   0.974   2.581
 6203SOL    HW219509   0.266   0.918   2.712
 6204SOL     OW19510   1.280   5.867   4.096
 6204SOL    HW119511   1.300   5.860   4.193
 6204SOL    HW219512   1.316   5.953   4.061
 6205SOL     OW19513   0.379   4.665   3.148
 6205SOL    HW119514   0.403   4.750   3.100
 6205SOL    HW219515   0.432   4.589   3.111
 6206SOL     OW19516   5.174   2.423   3.988
 6206SOL    HW119517   5.158   2.353   3.918
 6206SOL    HW219518   5.176   2.380   4.079
 6207SOL     OW19519   1.705   6.219   3.148
 6207SOL    HW119520   1.800   6.198   3.123
 6207SOL    HW219521   1.704   6.294   3.213
 6208SOL     OW19522   3.804   4.403   6.218
 6208SOL    HW119523   3.707   4.389   6.199
 6208SOL    HW219524   3.841   4.320   6.260
 6209SOL     OW19525   3.156   0.644   2.398
 6209SOL    HW119526   3.208   0.592   2.466
 6209SOL    HW219527   3.083   0.694   2.443
 6210SOL     OW19528   5.155   7.011   4.870
 6210SOL    HW119529   5.141   6.935   4.933
 6210SOL    HW219530   5.228   0.046   4.905
 6211SOL     OW19531   5.003   3.001   5.340
 6211SOL    HW119532   4.945   2.932   5.383
 6211SOL    HW219533   4.963   3.030   5.254
 6212SOL     OW19534   4.843   3.888   4.637
 6212SOL    HW119535   4.854   3.805   4.582
 6212SOL    HW219536   4.753   3.928   4.619
 6213SOL     OW19537   5.090   5.682   0.852
 6213SOL    HW119538   5.047   5.764   0.814
 6213SOL    HW219539   5.021   5.611   0.866
 6214SOL     OW19540   0.002   6.713   5.863
 6214SOL    HW119541   0.029   6.803   5.899
 6214SOL    HW219542   6.940   6.721   5.814
 6215SOL     OW19543   5.382   3.137   5.633
 6215SOL    HW119544   5.314   3.205   5.607
 6215SOL    HW219545   5.371   3.055   5.577
 6216SOL     OW19546   5.734   2.569   6.333
 6216SOL    HW119547   5.717   2.630   6.410
 6216SOL    HW219548   5.693   2.606   6.250
 6217SOL     OW19549   0.121   4.099   2.199
 6217SOL    HW119550   0.204   4.081   2.145
 6217SOL    HW219551   0.121   4.194   2.229
 6218SOL     OW19552   4.777   6.449   1.806
 6218SOL    HW119553   4.677   6.441   1.797
 6218SOL    HW219554   4.821   6.378   1.751
 6219SOL     OW19555   2.011   0.422   0.143
 6219SOL    HW119556   1.977   0.384   0.057
 6219SOL    HW219557   2.090   0.480   0.125
 6220SOL     OW19558   2.123   0.730   2.648
 6220SOL    HW119559   2.097   0.664   2.577
 6220SOL    HW219560   2.220   0.753   2.637
 6221SOL     OW19561   4.128   5.115   5.759
 6221SOL    HW119562   4.092   5.209   5.759
 6221SOL    HW219563   4.064   5.055   5.711
 6222SOL     OW19564   0.806   1.076   1.592
 6222SOL    HW119565   0.862   1.065   1.509
 6222SOL    HW219566   0.753   1.160   1.585
 6223SOL     OW19567   6.578   5.090   3.677
 6223SOL    HW119568   6.659   5.036   3.702
 6223SOL    HW219569   6.498   5.055   3.724
 6224SOL     OW19570   4.197   6.925   0.663
 6224SOL    HW119571   4.287   6.920   0.706
 6224SOL    HW219572   4.139   6.989   0.713
 6225SOL     OW19573   5.823   4.823   6.449
 6225SOL    HW119574   5.745   4.865   6.496
 6225SOL    HW219575   5.852   4.882   6.374
 6226SOL     OW19576   1.623   1.342   3.374
 6226SOL    HW119577   1.586   1.386   3.456
 6226SOL    HW219578   1.550   1.331   3.306
 6227SOL     OW19579   1.447   4.629   6.266
 6227SOL    HW119580   1.529   4.654   6.319
 6227SOL    HW219581   1.453   4.669   6.175
 6228SOL     OW19582   1.018   3.726   3.770
 6228SOL    HW119583   1.111   3.694   3.785
 6228SOL    HW219584   0.996   3.721   3.672
 6229SOL     OW19585   0.504   5.075   4.165
 6229SOL    HW119586   0.532   5.129   4.086
 6229SOL    HW219587   0.483   4.982   4.137
 6230SOL     OW19588   1.604   1.126   0.596
 6230SOL    HW119589   1.545   1.152   0.520
 6230SOL    HW219590   1.559   1.149   0.682
 6231SOL     OW19591   1.388   5.461   5.881
 6231SOL    HW119592   1.463   5.503   5.830
 6231SOL    HW219593   1.424   5.420   5.965
 6232SOL     OW19594   3.592   0.859   6.251
 6232SOL    HW119595   3.649   0.816   6.321
 6232SOL    HW219596   3.552   0.943   6.288
 6233SOL     OW19597   6.702   4.364   1.358
 6233SOL    HW119598   6.666   4.286   1.306
 6233SOL    HW219599   6.725   4.438   1.295
 6234SOL     OW19600   4.895   5.020   2.694
 6234SOL    HW119601   4.894   5.025   2.794
 6234SOL    HW219602   4.982   4.982   2.664
 6235SOL     OW19603   0.766   1.287   0.744
 6235SOL    HW119604   0.796   1.356   0.811
 6235SOL    HW219605   0.803   1.198   0.769
 6236SOL     OW19606   6.036   6.241   1.561
 6236SOL    HW119607   6.124   6.207   1.528
 6236SOL    HW219608   6.044   6.339   1.581
 6237SOL     OW19609   3.983   0.854   3.472
 6237SOL    HW119610   3.916   0.905   3.419
 6237SOL    HW219611   4.045   0.806   3.410
 6238SOL     OW19612   2.425   6.015   3.155
 6238SOL    HW119613   2.395   6.098   3.107
 6238SOL    HW219614   2.411   6.027   3.254
 6239SOL     OW19615   4.617   1.251   4.236
 6239SOL    HW119616   4.688   1.201   4.285
 6239SOL    HW219617   4.528   1.229   4.276
 6240SOL     OW19618   3.938   3.732   4.024
 6240SOL    HW119619   3.909   3.772   4.111
 6240SOL    HW219620   4.014   3.669   4.039
 6241SOL     OW19621   3.785   0.944   2.802
 6241SOL    HW119622   3.844   0.912   2.728
 6241SOL    HW219623   3.753   1.037   2.781
 6242SOL     OW19624   3.140   1.877   4.373
 6242SOL    HW119625   3.163   1.883   4.470
 6242SOL    HW219626   3.198   1.809   4.329
 6243SOL     OW19627   3.320   0.682   0.102
 6243SOL    HW119628   3.312   0.587   0.131
 6243SOL    HW219629   3.394   0.726   0.154
 6244SOL     OW19630   5.326   2.511   1.671
 6244SOL    HW119631   5.390   2.531   1.597
 6244SOL    HW219632   5.260   2.586   1.680
 6245SOL     OW19633   6.837   4.976   1.504
 6245SOL    HW119634   6.919   4.970   1.560
 6245SOL    HW219635   6.822   4.889   1.457
 6246SOL     OW19636   1.131   6.231   5.125
 6246SOL    HW119637   1.067   6.235   5.201
 6246SOL    HW219638   1.220   6.265   5.154
 6247SOL     OW19639   5.342   4.396   2.119
 6247SOL    HW119640   5.256   4.428   2.159
 6247SOL    HW219641   5.398   4.353   2.189
 6248SOL     OW19642   4.867   2.317   5.532
 6248SOL    HW119643   4.942   2.380   5.555
 6248SOL    HW219644   4.832   2.274   5.615
 6249SOL     OW19645   5.724   2.382   3.596
 6249SOL    HW119646   5.660   2.312   3.563
 6249SOL    HW219647   5.775   2.346   3.674
 6250SOL     OW19648   4.799   6.814   5.626
 6250SOL    HW119649   4.837   6.838   5.537
 6250SOL    HW219650   4.852   6.741   5.667
 6251SOL     OW19651   2.989   1.115   4.101
 6251SOL    HW119652   3.055   1.151   4.036
 6251SOL    HW219653   2.923   1.057   4.053
 6252SOL     OW19654   1.998   4.714   6.911
 6252SOL    HW119655   2.052   4.631   6.927
 6252SOL    HW219656   2.012   4.745   6.817
 6253SOL     OW19657   4.833   5.982   3.949
 6253SOL    HW119658   4.875   6.009   4.035
 6253SOL    HW219659   4.771   5.905   3.965
 6254SOL     OW19660   6.606   6.941   1.804
 6254SOL    HW119661   6.613   6.842   1.793
 6254SOL    HW219662   6.695   6.979   1.829
 6255SOL     OW19663   3.006   6.849   1.316
 6255SOL    HW119664   2.957   6.761   1.318
 6255SOL    HW219665   2.941   6.923   1.331
 6256SOL     OW19666   0.144   3.945   1.926
 6256SOL    HW119667   0.071   3.978   1.986
 6256SOL    HW219668   0.231   3.983   1.956
 6257SOL     OW19669   3.950   4.089   0.498
 6257SOL    HW119670   3.858   4.049   0.498
 6257SOL    HW219671   3.944   4.186   0.478
 6258SOL     OW19672   4.309   5.375   4.488
 6258SOL    HW119673   4.213   5.350   4.491
 6258SOL    HW219674   4.327   5.448   4.553
 6259SOL     OW19675   5.140   6.685   4.596
 6259SOL    HW119676   5.191   6.613   4.550
 6259SOL    HW219677   5.066   6.717   4.537
 6260SOL     OW19678   3.400   2.354   0.319
 6260SOL    HW119679   3.300   2.354   0.325
 6260SOL    HW219680   3.430   2.426   0.257
 6261SOL     OW19681   4.409   6.130   1.348
 6261SOL    HW119682   4.406   6.130   1.448
 6261SOL    HW219683   4.378   6.219   1.314
 6262SOL     OW19684   5.835   1.639   3.749
 6262SOL    HW119685   5.928   1.635   3.710
 6262SOL    HW219686   5.830   1.579   3.829
 6263SOL     OW19687   6.781   6.420   6.143
 6263SOL    HW119688   6.772   6.447   6.239
 6263SOL    HW219689   6.878   6.418   6.118
 6264SOL     OW19690   1.077   6.721   0.473
 6264SOL    HW119691   1.000   6.729   0.411
 6264SOL    HW219692   1.098   6.810   0.512
 6265SOL     OW19693   4.056   6.547   6.770
 6265SOL    HW119694   4.131   6.592   6.720
 6265SOL    HW219695   4.016   6.476   6.712
 6266SOL     OW19696   2.728   5.151   3.658
 6266SOL    HW119697   2.744   5.250   3.651
 6266SOL    HW219698   2.765   5.117   3.745
 6267SOL     OW19699   6.867   6.825   4.760
 6267SOL    HW119700   6.805   6.753   4.731
 6267SOL    HW219701   6.915   6.797   4.843
 6268SOL     OW19702   2.748   2.519   0.832
 6268SOL    HW119703   2.822   2.461   0.867
 6268SOL    HW219704   2.700   2.470   0.759
 6269SOL     OW19705   0.927   5.318   0.886
 6269SOL    HW119706   0.848   5.340   0.943
 6269SOL    HW219707   0.989   5.397   0.884
 6270SOL     OW19708   2.070   5.828   0.900
 6270SOL    HW119709   2.024   5.750   0.944
 6270SOL    HW219710   2.006   5.904   0.893
 6271SOL     OW19711   6.811   3.166   5.048
 6271SOL    HW119712   6.811   3.102   5.125
 6271SOL    HW219713   6.737   3.142   4.985
 6272SOL     OW19714   6.556   0.773   0.413
 6272SOL    HW119715   6.474   0.780   0.357
 6272SOL    HW219716   6.537   0.718   0.494
 6273SOL     OW19717   0.973   6.583   3.071
 6273SOL    HW119718   1.060   6.538   3.051
 6273SOL    HW219719   0.982   6.637   3.155
 6274SOL     OW19720   3.047   5.915   4.317
 6274SOL    HW119721   3.130   5.962   4.286
 6274SOL    HW219722   2.966   5.964   4.283
 6275SOL     OW19723   3.145   5.488   1.439
 6275SOL    HW119724   3.080   5.415   1.421
 6275SOL    HW219725   3.097   5.576   1.441
 6276SOL     OW19726   2.071   4.375   2.663
 6276SOL    HW119727   2.148   4.312   2.652
 6276SOL    HW219728   2.102   4.455   2.716
 6277SOL     OW19729   5.693   1.813   1.284
 6277SOL    HW119730   5.635   1.810   1.203
 6277SOL    HW219731   5.646   1.770   1.361
 6278SOL     OW19732   4.262   2.851   0.148
 6278SOL    HW119733   4.221   2.895   0.068
 6278SOL    HW219734   4.267   2.752   0.134
 6279SOL     OW19735   0.976   6.081   1.619
 6279SOL    HW119736   0.950   6.096   1.714
 6279SOL    HW219737   1.068   6.117   1.603
 6280SOL     OW19738   4.789   0.876   6.651
 6280SOL    HW119739   4.711   0.893   6.711
 6280SOL    HW219740   4.765   0.804   6.586
 6281SOL     OW19741   5.853   3.932   6.047
 6281SOL    HW119742   5.887   3.851   5.999
 6281SOL    HW219743   5.797   3.987   5.985
 6282SOL     OW19744   6.618   4.712   6.069
 6282SOL    HW119745   6.645   4.785   6.005
 6282SOL    HW219746   6.599   4.752   6.159
 6283SOL     OW19747   3.278   6.452   4.447
 6283SOL    HW119748   3.217   6.387   4.401
 6283SOL    HW219749   3.369   6.447   4.406
 6284SOL     OW19750   2.239   4.719   5.826
 6284SOL    HW119751   2.274   4.765   5.908
 6284SOL    HW219752   2.290   4.635   5.811
 6285SOL     OW19753   1.590   4.876   4.138
 6285SOL    HW119754   1.558   4.826   4.058
 6285SOL    HW219755   1.654   4.820   4.190
 6286SOL     OW19756   0.628   3.584   6.658
 6286SOL    HW119757   0.714   3.540   6.635
 6286SOL    HW219758   0.555   3.545   6.602
 6287SOL     OW19759   3.652   5.354   4.669
 6287SOL    HW119760   3.637   5.359   4.570
 6287SOL    HW219761   3.585   5.412   4.715
 6288SOL     OW19762   2.813   4.188   5.797
 6288SOL    HW119763   2.838   4.091   5.794
 6288SOL    HW219764   2.895   4.244   5.806
 6289SOL     OW19765   2.770   5.471   5.578
 6289SOL    HW119766   2.830   5.549   5.561
 6289SOL    HW219767   2.675   5.498   5.563
 6290SOL     OW19768   6.438   0.657   3.232
 6290SOL    HW119769   6.421   0.564   3.265
 6290SOL    HW219770   6.458   0.717   3.309
 6291SOL     OW19771   2.801   3.384   1.870
 6291SOL    HW119772   2.791   3.335   1.957
 6291SOL    HW219773   2.815   3.481   1.888
 6292SOL     OW19774   0.656   3.984   4.545
 6292SOL    HW119775   0.605   3.900   4.565
 6292SOL    HW219776   0.593   4.061   4.540
 6293SOL     OW19777   3.303   2.083   0.822
 6293SOL    HW119778   3.230   2.055   0.759
 6293SOL    HW219779   3.363   2.148   0.776
 6294SOL     OW19780   0.356   0.834   2.083
 6294SOL    HW119781   0.301   0.807   2.162
 6294SOL    HW219782   0.448   0.859   2.113
 6295SOL     OW19783   4.669   3.202   5.573
 6295SOL    HW119784   4.677   3.178   5.477
 6295SOL    HW219785   4.743   3.263   5.599
 6296SOL     OW19786   6.661   2.234   0.587
 6296SOL    HW119787   6.709   2.251   0.501
 6296SOL    HW219788   6.566   2.265   0.580
 6297SOL     OW19789   0.796   1.694   4.920
 6297SOL    HW119790   0.701   1.716   4.946
 6297SOL    HW219791   0.858   1.725   4.992
 6298SOL     OW19792   0.376   1.271   6.013
 6298SOL    HW119793   0.476   1.270   6.012
 6298SOL    HW219794   0.344   1.365   6.026
 6299SOL     OW19795   3.445   1.758   3.766
 6299SOL    HW119796   3.467   1.717   3.854
 6299SOL    HW219797   3.381   1.699   3.717
 6300SOL     OW19798   2.406   2.022   0.577
 6300SOL    HW119799   2.351   2.102   0.552
 6300SOL    HW219800   2.346   1.949   0.611
 6301SOL     OW19801   4.394   5.693   1.054
 6301SOL    HW119802   4.368   5.785   1.024
 6301SOL    HW219803   4.312   5.636   1.062
 6302SOL     OW19804   1.728   3.646   0.726
 6302SOL    HW119805   1.812   3.671   0.773
 6302SOL    HW219806   1.734   3.673   0.630
 6303SOL     OW19807   6.489   4.755   5.638
 6303SOL    HW119808   6.496   4.715   5.546
 6303SOL    HW219809   6.514   4.852   5.634
 6304SOL     OW19810   2.046   2.692   4.935
 6304SOL    HW119811   2.024   2.595   4.942
 6304SOL    HW219812   2.134   2.709   4.978
 6305SOL     OW19813   1.434   6.363   5.075
 6305SOL    HW119814   1.446   6.341   5.172
 6305SOL    HW219815   1.523   6.386   5.035
 6306SOL     OW19816   1.988   4.533   4.220
 6306SOL    HW119817   2.028   4.529   4.311
 6306SOL    HW219818   2.061   4.527   4.151
 6307SOL     OW19819   3.793   3.264   2.149
 6307SOL    HW119820   3.883   3.222   2.133
 6307SOL    HW219821   3.785   3.291   2.245
 6308SOL     OW19822   1.529   0.900   1.371
 6308SOL    HW119823   1.434   0.898   1.403
 6308SOL    HW219824   1.557   0.807   1.346
 6309SOL     OW19825   2.092   6.030   4.677
 6309SOL    HW119826   2.004   6.006   4.636
 6309SOL    HW219827   2.094   5.998   4.772
 6310SOL     OW19828   1.052   6.780   2.659
 6310SOL    HW119829   1.145   6.754   2.685
 6310SOL    HW219830   1.018   6.716   2.590
 6311SOL     OW19831   5.228   0.696   5.971
 6311SOL    HW119832   5.274   0.671   5.885
 6311SOL    HW219833   5.247   0.792   5.991
 6312SOL     OW19834   4.036   5.066   1.371
 6312SOL    HW119835   4.008   5.149   1.419
 6312SOL    HW219836   4.032   4.988   1.432
 6313SOL     OW19837   5.983   5.559   2.886
 6313SOL    HW119838   6.052   5.629   2.872
 6313SOL    HW219839   5.899   5.584   2.837
 6314SOL     OW19840   2.327   5.212   2.941
 6314SOL    HW119841   2.373   5.167   2.865
 6314SOL    HW219842   2.375   5.297   2.963
 6315SOL     OW19843   2.091   2.777   3.868
 6315SOL    HW119844   2.187   2.807   3.866
 6315SOL    HW219845   2.049   2.804   3.954
 6316SOL     OW19846   4.559   0.500   5.693
 6316SOL    HW119847   4.529   0.502   5.789
 6316SOL    HW219848   4.562   0.593   5.658
 6317SOL     OW19849   4.752   4.471   3.395
 6317SOL    HW119850   4.792   4.397   3.341
 6317SOL    HW219851   4.823   4.517   3.448
 6318SOL     OW19852   5.907   6.149   0.340
 6318SOL    HW119853   5.997   6.139   0.299
 6318SOL    HW219854   5.912   6.128   0.438
 6319SOL     OW19855   5.400   1.847   4.056
 6319SOL    HW119856   5.387   1.833   3.958
 6319SOL    HW219857   5.377   1.762   4.105
 6320SOL     OW19858   5.885   2.906   6.625
 6320SOL    HW119859   5.977   2.944   6.611
 6320SOL    HW219860   5.821   2.981   6.640
 6321SOL     OW19861   0.116   3.012   6.783
 6321SOL    HW119862   0.166   2.927   6.802
 6321SOL    HW219863   0.129   3.076   6.858
 6322SOL     OW19864   2.363   0.753   2.378
 6322SOL    HW119865   2.277   0.702   2.383
 6322SOL    HW219866   2.357   0.833   2.438
 6323SOL     OW19867   1.611   5.953   0.838
 6323SOL    HW119868   1.706   5.973   0.813
 6323SOL    HW219869   1.582   5.868   0.796
 6324SOL     OW19870   5.541   4.312   2.310
 6324SOL    HW119871   5.538   4.229   2.255
 6324SOL    HW219872   5.637   4.339   2.323
 6325SOL     OW19873   0.759   3.192   3.797
 6325SOL    HW119874   0.841   3.161   3.846
 6325SOL    HW219875   0.683   3.201   3.862
 6326SOL     OW19876   5.799   5.649   4.785
 6326SOL    HW119877   5.727   5.717   4.796
 6326SOL    HW219878   5.854   5.671   4.704
 6327SOL     OW19879   0.622   0.891   2.070
 6327SOL    HW119880   0.662   0.904   1.980
 6327SOL    HW219881   0.595   0.979   2.108
 6328SOL     OW19882   4.020   3.588   4.696
 6328SOL    HW119883   4.010   3.648   4.617
 6328SOL    HW219884   3.930   3.554   4.723
 6329SOL     OW19885   0.049   3.213   4.427
 6329SOL    HW119886   7.005   3.153   4.468
 6329SOL    HW219887   0.115   3.159   4.375
 6330SOL     OW19888   4.317   1.493   3.037
 6330SOL    HW119889   4.277   1.403   3.021
 6330SOL    HW219890   4.401   1.483   3.090
 6331SOL     OW19891   1.555   2.556   3.752
 6331SOL    HW119892   1.550   2.589   3.846
 6331SOL    HW219893   1.615   2.477   3.748
 6332SOL     OW19894   4.685   1.578   0.471
 6332SOL    HW119895   4.714   1.530   0.554
 6332SOL    HW219896   4.598   1.625   0.489
 6333SOL     OW19897   6.344   1.772   0.147
 6333SOL    HW119898   6.265   1.774   0.086
 6333SOL    HW219899   6.337   1.847   0.212
 6334SOL     OW19900   2.691   1.259   2.628
 6334SOL    HW119901   2.790   1.265   2.645
 6334SOL    HW219902   2.674   1.271   2.530
 6335SOL     OW19903   6.134   2.083   5.473
 6335SOL    HW119904   6.197   2.012   5.439
 6335SOL    HW219905   6.061   2.040   5.526
 6336SOL     OW19906   0.802   5.598   5.888
 6336SOL    HW119907   0.707   5.627   5.882
 6336SOL    HW219908   0.829   5.555   5.802
 6337SOL     OW19909   6.229   0.510   6.018
 6337SOL    HW119910   6.295   0.463   5.959
 6337SOL    HW219911   6.176   0.442   6.069
 6338SOL     OW19912   1.195   0.962   1.999
 6338SOL    HW119913   1.191   0.974   1.900
 6338SOL    HW219914   1.233   1.045   2.040
 6339SOL     OW19915   6.974   4.628   3.484
 6339SOL    HW119916   6.929   4.587   3.405
 6339SOL    HW219917   0.049   4.623   3.473
 6340SOL     OW19918   2.707   5.228   6.580
 6340SOL    HW119919   2.675   5.143   6.538
 6340SOL    HW219920   2.796   5.213   6.623
 6341SOL     OW19921   1.128   4.246   3.081
 6341SOL    HW119922   1.038   4.212   3.055
 6341SOL    HW219923   1.140   4.239   3.180
 6342SOL     OW19924   2.864   6.646   1.090
 6342SOL    HW119925   2.790   6.712   1.107
 6342SOL    HW219926   2.921   6.680   1.014
 6343SOL     OW19927   1.736   3.593   0.037
 6343SOL    HW119928   1.790   3.525   0.086
 6343SOL    HW219929   1.776   3.610   6.972
 6344SOL     OW19930   2.437   0.456   4.049
 6344SOL    HW119931   2.381   0.524   4.097
 6344SOL    HW219932   2.380   0.401   3.990
 6345SOL     OW19933   0.031   3.594   4.209
 6345SOL    HW119934   0.090   3.672   4.231
 6345SOL    HW219935   6.983   3.623   4.146
 6346SOL     OW19936   0.884   4.215   4.223
 6346SOL    HW119937   0.919   4.276   4.294
 6346SOL    HW219938   0.861   4.127   4.263
 6347SOL     OW19939   1.677   1.448   2.170
 6347SOL    HW119940   1.657   1.505   2.090
 6347SOL    HW219941   1.633   1.488   2.251
 6348SOL     OW19942   1.038   2.500   0.173
 6348SOL    HW119943   1.036   2.451   0.086
 6348SOL    HW219944   1.132   2.507   0.205
 6349SOL     OW19945   6.127   1.097   0.681
 6349SOL    HW119946   6.081   1.015   0.715
 6349SOL    HW219947   6.168   1.147   0.757
 6350SOL     OW19948   6.561   0.369   1.653
 6350SOL    HW119949   6.620   0.401   1.727
 6350SOL    HW219950   6.560   0.437   1.579
 6351SOL     OW19951   6.614   2.052   2.727
 6351SOL    HW119952   6.664   2.083   2.646
 6351SOL    HW219953   6.667   2.074   2.809
 6352SOL     OW19954   3.575   0.529   4.894
 6352SOL    HW119955   3.587   0.577   4.981
 6352SOL    HW219956   3.478   0.517   4.875
 6353SOL     OW19957   3.740   6.536   5.552
 6353SOL    HW119958   3.839   6.544   5.566
 6353SOL    HW219959   3.702   6.627   5.534
 6354SOL     OW19960   6.428   5.111   3.432
 6354SOL    HW119961   6.509   5.119   3.490
 6354SOL    HW219962   6.346   5.101   3.489
 6355SOL     OW19963   4.199   6.268   0.351
 6355SOL    HW119964   4.241   6.196   0.296
 6355SOL    HW219965   4.221   6.254   0.447
 6356SOL     OW19966   7.005   6.984   6.269
 6356SOL    HW119967   7.013   6.890   6.300
 6356SOL    HW219968   7.012   6.987   6.169
 6357SOL     OW19969   4.843   1.870   3.605
 6357SOL    HW119970   4.914   1.920   3.556
 6357SOL    HW219971   4.790   1.816   3.541
 6358SOL     OW19972   1.710   0.762   4.585
 6358SOL    HW119973   1.709   0.782   4.488
 6358SOL    HW219974   1.774   0.687   4.603
 6359SOL     OW19975   6.831   4.531   1.190
 6359SOL    HW119976   6.762   4.536   1.117
 6359SOL    HW219977   6.915   4.493   1.152
 6360SOL     OW19978   2.944   2.889   0.520
 6360SOL    HW119979   2.893   2.959   0.569
 6360SOL    HW219980   2.895   2.865   0.436
 6361SOL     OW19981   0.623   1.768   2.854
 6361SOL    HW119982   0.641   1.670   2.863
 6361SOL    HW219983   0.570   1.800   2.932
 6362SOL     OW19984   2.090   4.889   0.054
 6362SOL    HW119985   2.070   4.826   7.003
 6362SOL    HW219986   2.109   4.980   0.016
 6363SOL     OW19987   0.539   1.717   1.403
 6363SOL    HW119988   0.531   1.729   1.304
 6363SOL    HW219989   0.533   1.805   1.449
 6364SOL     OW19990   2.760   1.896   3.354
 6364SOL    HW119991   2.765   1.993   3.331
 6364SOL    HW219992   2.825   1.875   3.427
 6365SOL     OW19993   5.936   6.925   2.007
 6365SOL    HW119994   6.026   6.968   2.004
 6365SOL    HW219995   5.923   6.869   1.925
 6366SOL     OW19996   6.606   1.687   5.440
 6366SOL    HW119997   6.566   1.644   5.358
 6366SOL    HW219998   6.615   1.620   5.513
 6367SOL     OW19999   1.873   3.262   4.410
 6367SOL    HW120000   1.924   3.344   4.382
 6367SOL    HW220001   1.795   3.249   4.349
 6368SOL     OW20002   5.421   3.460   5.042
 6368SOL    HW120003   5.332   3.426   5.013
 6368SOL    HW220004   5.450   3.411   5.125
 6369SOL     OW20005   3.090   4.203   0.824
 6369SOL    HW120006   3.162   4.228   0.889
 6369SOL    HW220007   3.053   4.113   0.848
 6370SOL     OW20008   6.069   3.180   4.916
 6370SOL    HW120009   6.003   3.159   4.988
 6370SOL    HW220010   6.154   3.215   4.957
 6371SOL     OW20011   6.095   4.231   1.561
 6371SOL    HW120012   6.123   4.137   1.578
 6371SOL    HW220013   6.174   4.284   1.529
 6372SOL     OW20014   5.689   1.643   1.986
 6372SOL    HW120015   5.616   1.710   1.970
 6372SOL    HW220016   5.718   1.604   1.899
 6373SOL     OW20017   5.679   1.721   1.612
 6373SOL    HW120018   5.685   1.817   1.639
 6373SOL    HW220019   5.709   1.663   1.687
 6374SOL     OW20020   3.792   3.249   6.301
 6374SOL    HW120021   3.861   3.177   6.292
 6374SOL    HW220022   3.837   3.335   6.323
 6375SOL     OW20023   5.225   1.501   2.283
 6375SOL    HW120024   5.230   1.588   2.235
 6375SOL    HW220025   5.176   1.434   2.227
 6376SOL     OW20026   3.547   6.503   0.075
 6376SOL    HW120027   3.614   6.537   0.142
 6376SOL    HW220028   3.525   6.408   0.095
 6377SOL     OW20029   0.147   2.149   0.353
 6377SOL    HW120030   0.209   2.077   0.382
 6377SOL    HW220031   0.155   2.162   0.254
 6378SOL     OW20032   6.151   4.049   2.337
 6378SOL    HW120033   6.203   4.133   2.322
 6378SOL    HW220034   6.161   4.020   2.433
 6379SOL     OW20035   2.259   4.712   6.640
 6379SOL    HW120036   2.289   4.620   6.665
 6379SOL    HW220037   2.163   4.724   6.665
 6380SOL     OW20038   2.136   2.736   4.358
 6380SOL    HW120039   2.128   2.798   4.436
 6380SOL    HW220040   2.230   2.700   4.353
 6381SOL     OW20041   3.718   4.810   0.335
 6381SOL    HW120042   3.712   4.898   0.383
 6381SOL    HW220043   3.631   4.791   0.290
 6382SOL     OW20044   2.150   1.207   0.969
 6382SOL    HW120045   2.089   1.160   0.905
 6382SOL    HW220046   2.220   1.143   1.001
 6383SOL     OW20047   3.227   1.462   2.016
 6383SOL    HW120048   3.288   1.502   1.948
 6383SOL    HW220049   3.135   1.502   2.006
 6384SOL     OW20050   0.661   1.382   2.070
 6384SOL    HW120051   0.735   1.394   2.003
 6384SOL    HW220052   0.597   1.458   2.062
 6385SOL     OW20053   0.188   3.540   1.721
 6385SOL    HW120054   0.197   3.442   1.741
 6385SOL    HW220055   0.171   3.590   1.806
 6386SOL     OW20056   2.875   5.036   1.279
 6386SOL    HW120057   2.862   4.940   1.257
 6386SOL    HW220058   2.883   5.089   1.194
 6387SOL     OW20059   6.462   1.687   5.999
 6387SOL    HW120060   6.422   1.597   5.984
 6387SOL    HW220061   6.442   1.718   6.092
 6388SOL     OW20062   6.789   4.815   1.910
 6388SOL    HW120063   6.793   4.905   1.868
 6388SOL    HW220064   6.696   4.778   1.901
 6389SOL     OW20065   6.807   0.605   0.686
 6389SOL    HW120066   6.821   0.660   0.604
 6389SOL    HW220067   6.786   0.665   0.763
 6390SOL     OW20068   4.025   5.864   0.825
 6390SOL    HW120069   3.981   5.808   0.895
 6390SOL    HW220070   4.097   5.919   0.867
 6391SOL     OW20071   0.983   1.735   4.728
 6391SOL    HW120072   0.913   1.737   4.656
 6391SOL    HW220073   0.940   1.721   4.816
 6392SOL     OW20074   4.276   6.607   2.820
 6392SOL    HW120075   4.372   6.629   2.838
 6392SOL    HW220076   4.236   6.564   2.902
 6393SOL     OW20077   1.997   4.115   0.423
 6393SOL    HW120078   2.027   4.053   0.350
 6393SOL    HW220079   2.077   4.155   0.467
 6394SOL     OW20080   1.561   5.019   2.005
 6394SOL    HW120081   1.512   5.025   1.918
 6394SOL    HW220082   1.660   5.028   1.988
 6395SOL     OW20083   0.867   3.412   5.132
 6395SOL    HW120084   0.896   3.345   5.063
 6395SOL    HW220085   0.803   3.476   5.090
 6396SOL     OW20086   1.090   3.393   4.045
 6396SOL    HW120087   0.999   3.418   4.013
 6396SOL    HW220088   1.093   3.398   4.145
 6397SOL     OW20089   1.196   3.667   4.906
 6397SOL    HW120090   1.295   3.663   4.894
 6397SOL    HW220091   1.152   3.637   4.822
 6398SOL     OW20092   0.011   0.304   2.208
 6398SOL    HW120093   0.058   0.218   2.187
 6398SOL    HW220094   0.069   0.381   2.182
 6399SOL     OW20095   2.256   6.735   6.215
 6399SOL    HW120096   2.227   6.670   6.145
 6399SOL    HW220097   2.340   6.781   6.184
 6400SOL     OW20098   2.025   0.150   2.405
 6400SOL    HW120099   2.079   0.143   2.488
 6400SOL    HW220100   1.950   0.084   2.409
 6401SOL     OW20101   3.933   4.471   1.071
 6401SOL    HW120102   3.955   4.566   1.094
 6401SOL    HW220103   4.018   4.418   1.065
 6402SOL     OW20104   3.642   3.400   6.823
 6402SOL    HW120105   3.640   3.341   6.904
 6402SOL    HW220106   3.713   3.470   6.835
 6403SOL     OW20107   3.100   5.530   6.237
 6403SOL    HW120108   3.184   5.574   6.206
 6403SOL    HW220109   3.114   5.489   6.327
 6404SOL     OW20110   5.412   6.571   6.795
 6404SOL    HW120111   5.376   6.511   6.866
 6404SOL    HW220112   5.427   6.663   6.832
 6405SOL     OW20113   4.092   0.853   3.719
 6405SOL    HW120114   4.130   0.761   3.731
 6405SOL    HW220115   4.039   0.855   3.635
 6406SOL     OW20116   0.229   3.279   1.790
 6406SOL    HW120117   0.179   3.261   1.875
 6406SOL    HW220118   0.239   3.193   1.739
 6407SOL     OW20119   1.179   0.036   2.838
 6407SOL    HW120120   1.156   6.974   2.794
 6407SOL    HW220121   1.210   0.019   2.931
 6408SOL     OW20122   0.986   0.217   2.876
 6408SOL    HW120123   1.043   0.139   2.848
 6408SOL    HW220124   0.909   0.183   2.931
 6409SOL     OW20125   6.535   4.499   3.641
 6409SOL    HW120126   6.569   4.458   3.725
 6409SOL    HW220127   6.555   4.597   3.641
 6410SOL     OW20128   2.410   0.445   6.964
 6410SOL    HW120129   2.478   0.512   6.935
 6410SOL    HW220130   2.353   0.485   0.012
 6411SOL     OW20131   1.740   1.937   4.245
 6411SOL    HW120132   1.830   1.968   4.215
 6411SOL    HW220133   1.684   2.016   4.271
 6412SOL     OW20134   5.137   0.664   0.084
 6412SOL    HW120135   5.109   0.584   0.030
 6412SOL    HW220136   5.223   0.643   0.130
 6413SOL     OW20137   4.653   6.240   3.307
 6413SOL    HW120138   4.726   6.191   3.260
 6413SOL    HW220139   4.679   6.254   3.403
 6414SOL     OW20140   3.333   0.140   6.978
 6414SOL    HW120141   3.346   0.050   6.936
 6414SOL    HW220142   3.312   0.129   0.051
 6415SOL     OW20143   0.545   1.869   3.715
 6415SOL    HW120144   0.587   1.826   3.795
 6415SOL    HW220145   0.449   1.840   3.708
 6416SOL     OW20146   2.272   4.182   0.409
 6416SOL    HW120147   2.319   4.105   0.452
 6416SOL    HW220148   2.325   4.266   0.423
 6417SOL     OW20149   4.475   2.996   5.311
 6417SOL    HW120150   4.429   2.993   5.400
 6417SOL    HW220151   4.553   3.057   5.316
 6418SOL     OW20152   4.599   5.938   6.978
 6418SOL    HW120153   4.552   6.026   6.991
 6418SOL    HW220154   4.566   5.895   6.894
 6419SOL     OW20155   1.516   6.760   6.811
 6419SOL    HW120156   1.467   6.761   6.724
 6419SOL    HW220157   1.503   6.847   6.858
 6420SOL     OW20158   3.149   5.142   3.545
 6420SOL    HW120159   3.226   5.192   3.507
 6420SOL    HW220160   3.182   5.068   3.605
 6421SOL     OW20161   4.401   6.727   1.941
 6421SOL    HW120162   4.444   6.770   2.021
 6421SOL    HW220163   4.307   6.758   1.934
 6422SOL     OW20164   1.345   1.046   5.406
 6422SOL    HW120165   1.343   1.138   5.368
 6422SOL    HW220166   1.431   1.032   5.455
 6423SOL     OW20167   0.793   3.430   3.669
 6423SOL    HW120168   0.773   3.500   3.737
 6423SOL    HW220169   0.800   3.341   3.714
 6424SOL     OW20170   5.917   4.252   6.084
 6424SOL    HW120171   5.944   4.170   6.135
 6424SOL    HW220172   5.819   4.268   6.097
 6425SOL     OW20173   0.965   6.994   3.978
 6425SOL    HW120174   0.895   0.041   3.977
 6425SOL    HW220175   0.922   6.905   3.964
 6426SOL     OW20176   3.686   5.362   4.105
 6426SOL    HW120177   3.764   5.331   4.160
 6426SOL    HW220178   3.703   5.455   4.072
 6427SOL     OW20179   2.924   3.609   2.706
 6427SOL    HW120180   2.894   3.532   2.650
 6427SOL    HW220181   2.943   3.576   2.799
 6428SOL     OW20182   7.020   4.075   6.254
 6428SOL    HW120183   6.935   4.026   6.273
 6428SOL    HW220184   6.999   4.169   6.229
 6429SOL     OW20185   2.997   1.575   4.392
 6429SOL    HW120186   2.946   1.498   4.429
 6429SOL    HW220187   2.939   1.656   4.388
 6430SOL     OW20188   6.473   1.150   4.267
 6430SOL    HW120189   6.484   1.192   4.177
 6430SOL    HW220190   6.517   1.207   4.336
 6431SOL     OW20191   3.732   4.901   2.969
 6431SOL    HW120192   3.735   4.874   3.066
 6431SOL    HW220193   3.639   4.926   2.944
 6432SOL     OW20194   3.474   3.751   0.166
 6432SOL    HW120195   3.561   3.802   0.163
 6432SOL    HW220196   3.449   3.723   0.073
 6433SOL     OW20197   3.766   5.629   6.388
 6433SOL    HW120198   3.729   5.692   6.456
 6433SOL    HW220199   3.825   5.562   6.433
 6434SOL     OW20200   6.669   5.203   6.679
 6434SOL    HW120201   6.682   5.179   6.775
 6434SOL    HW220202   6.750   5.176   6.627
 6435SOL     OW20203   4.112   0.421   0.846
 6435SOL    HW120204   4.030   0.370   0.820
 6435SOL    HW220205   4.101   0.518   0.823
 6436SOL     OW20206   1.354   1.647   3.728
 6436SOL    HW120207   1.298   1.691   3.659
 6436SOL    HW220208   1.301   1.636   3.812
 6437SOL     OW20209   1.144   3.213   0.146
 6437SOL    HW120210   1.080   3.276   0.192
 6437SOL    HW220211   1.111   3.119   0.156
 6438SOL     OW20212   1.295   5.471   1.894
 6438SOL    HW120213   1.236   5.428   1.963
 6438SOL    HW220214   1.352   5.401   1.851
 6439SOL     OW20215   4.122   6.062   3.041
 6439SOL    HW120216   4.221   6.071   3.031
 6439SOL    HW220217   4.089   6.132   3.105
 6440SOL     OW20218   2.398   1.703   5.227
 6440SOL    HW120219   2.412   1.779   5.163
 6440SOL    HW220220   2.316   1.653   5.201
 6441SOL     OW20221   1.237   1.035   2.514
 6441SOL    HW120222   1.287   0.952   2.489
 6441SOL    HW220223   1.181   1.065   2.437
 6442SOL     OW20224   3.334   1.739   4.182
 6442SOL    HW120225   3.270   1.759   4.109
 6442SOL    HW220226   3.368   1.825   4.221
 6443SOL     OW20227   2.314   1.256   6.402
 6443SOL    HW120228   2.259   1.337   6.383
 6443SOL    HW220229   2.265   1.175   6.370
 6444SOL     OW20230   6.646   3.806   5.762
 6444SOL    HW120231   6.674   3.851   5.847
 6444SOL    HW220232   6.710   3.733   5.740
 6445SOL     OW20233   3.254   2.966   3.304
 6445SOL    HW120234   3.331   3.006   3.255
 6445SOL    HW220235   3.245   2.870   3.279
 6446SOL     OW20236   0.206   0.509   1.641
 6446SOL    HW120237   0.115   0.494   1.678
 6446SOL    HW220238   0.270   0.531   1.715
 6447SOL     OW20239   0.954   4.102   2.017
 6447SOL    HW120240   0.979   4.192   2.052
 6447SOL    HW220241   0.966   4.100   1.918
 6448SOL     OW20242   3.985   4.117   1.694
 6448SOL    HW120243   3.943   4.127   1.785
 6448SOL    HW220244   4.071   4.169   1.691
 6449SOL     OW20245   4.344   6.556   0.109
 6449SOL    HW120246   4.434   6.513   0.100
 6449SOL    HW220247   4.272   6.487   0.101
 6450SOL     OW20248   4.680   3.626   0.767
 6450SOL    HW120249   4.690   3.724   0.750
 6450SOL    HW220250   4.583   3.602   0.765
 6451SOL     OW20251   4.391   3.326   1.181
 6451SOL    HW120252   4.345   3.287   1.261
 6451SOL    HW220253   4.489   3.336   1.201
 6452SOL     OW20254   4.598   1.386   4.015
 6452SOL    HW120255   4.619   1.316   4.084
 6452SOL    HW220256   4.558   1.466   4.060
 6453SOL     OW20257   2.918   0.496   2.601
 6453SOL    HW120258   2.977   0.440   2.543
 6453SOL    HW220259   2.898   0.446   2.685
 6454SOL     OW20260   4.414   3.356   5.625
 6454SOL    HW120261   4.400   3.259   5.607
 6454SOL    HW220262   4.510   3.379   5.613
 6455SOL     OW20263   0.078   3.255   5.798
 6455SOL    HW120264   0.163   3.239   5.747
 6455SOL    HW220265   0.069   3.353   5.816
 6456SOL     OW20266   6.047   2.143   3.551
 6456SOL    HW120267   6.112   2.185   3.488
 6456SOL    HW220268   6.060   2.182   3.643
 6457SOL     OW20269   1.802   6.181   2.655
 6457SOL    HW120270   1.893   6.207   2.623
 6457SOL    HW220271   1.760   6.258   2.702
 6458SOL     OW20272   1.392   0.037   4.897
 6458SOL    HW120273   1.300   0.015   4.930
 6458SOL    HW220274   1.396   0.134   4.873
 6459SOL     OW20275   6.924   3.235   3.610
 6459SOL    HW120276   6.880   3.155   3.569
 6459SOL    HW220277   7.024   3.223   3.608
 6460SOL     OW20278   1.609   5.570   5.726
 6460SOL    HW120279   1.630   5.640   5.794
 6460SOL    HW220280   1.643   5.600   5.637
 6461SOL     OW20281   6.000   0.630   2.276
 6461SOL    HW120282   5.999   0.602   2.180
 6461SOL    HW220283   5.975   0.552   2.334
 6462SOL     OW20284   2.989   4.209   5.280
 6462SOL    HW120285   2.957   4.301   5.257
 6462SOL    HW220286   2.997   4.155   5.197
 6463SOL     OW20287   4.808   3.515   1.791
 6463SOL    HW120288   4.803   3.423   1.830
 6463SOL    HW220289   4.720   3.540   1.752
 6464SOL     OW20290   0.623   3.505   3.343
 6464SOL    HW120291   0.549   3.480   3.282
 6464SOL    HW220292   0.585   3.543   3.428
 6465SOL     OW20293   2.823   0.882   2.419
 6465SOL    HW120294   2.845   0.967   2.371
 6465SOL    HW220295   2.760   0.828   2.363
 6466SOL     OW20296   6.395   5.081   6.620
 6466SOL    HW120297   6.455   5.160   6.630
 6466SOL    HW220298   6.379   5.064   6.523
 6467SOL     OW20299   3.000   3.068   6.260
 6467SOL    HW120300   2.904   3.076   6.286
 6467SOL    HW220301   3.021   2.973   6.238
 6468SOL     OW20302   0.671   1.275   6.460
 6468SOL    HW120303   0.625   1.337   6.397
 6468SOL    HW220304   0.755   1.241   6.418
 6469SOL     OW20305   3.287   0.902   0.842
 6469SOL    HW120306   3.325   0.861   0.925
 6469SOL    HW220307   3.356   0.961   0.800
 6470SOL     OW20308   5.825   1.181   6.637
 6470SOL    HW120309   5.861   1.111   6.575
 6470SOL    HW220310   5.793   1.137   6.721
 6471SOL     OW20311   0.310   0.043   4.842
 6471SOL    HW120312   0.354   6.991   4.889
 6471SOL    HW220313   0.255   0.009   4.767
 6472SOL     OW20314   1.115   6.470   0.860
 6472SOL    HW120315   1.163   6.390   0.896
 6472SOL    HW220316   1.132   6.477   0.761
 6473SOL     OW20317   3.223   1.611   3.096
 6473SOL    HW120318   3.143   1.593   3.154
 6473SOL    HW220319   3.287   1.536   3.103
 6474SOL     OW20320   4.522   0.049   4.857
 6474SOL    HW120321   4.524   0.108   4.776
 6474SOL    HW220322   4.587   6.998   4.845
 6475SOL     OW20323   5.405   5.345   4.560
 6475SOL    HW120324   5.454   5.328   4.474
 6475SOL    HW220325   5.365   5.436   4.559
 6476SOL     OW20326   5.400   4.503   4.338
 6476SOL    HW120327   5.410   4.535   4.432
 6476SOL    HW220328   5.303   4.497   4.314
 6477SOL     OW20329   0.865   0.230   0.875
 6477SOL    HW120330   0.952   0.181   0.867
 6477SOL    HW220331   0.847   0.279   0.790
 6478SOL     OW20332   2.078   6.750   0.361
 6478SOL    HW120333   2.177   6.755   0.347
 6478SOL    HW220334   2.035   6.832   0.323
 6479SOL     OW20335   4.915   5.000   4.833
 6479SOL    HW120336   4.959   5.060   4.901
 6479SOL    HW220337   4.965   4.913   4.828
 6480SOL     OW20338   2.399   7.018   5.012
 6480SOL    HW120339   2.458   6.989   4.937
 6480SOL    HW220340   2.362   0.085   4.992
 6481SOL     OW20341   4.079   3.686   1.300
 6481SOL    HW120342   4.166   3.642   1.278
 6481SOL    HW220343   4.096   3.780   1.330
 6482SOL     OW20344   5.549   3.366   4.336
 6482SOL    HW120345   5.581   3.274   4.312
 6482SOL    HW220346   5.469   3.388   4.280
 6483SOL     OW20347   1.882   6.810   5.861
 6483SOL    HW120348   1.895   6.789   5.958
 6483SOL    HW220349   1.935   6.747   5.805
 6484SOL     OW20350   3.100   0.757   3.971
 6484SOL    HW120351   3.149   0.842   3.950
 6484SOL    HW220352   3.034   0.739   3.899
 6485SOL     OW20353   2.440   5.431   5.150
 6485SOL    HW120354   2.387   5.386   5.223
 6485SOL    HW220355   2.526   5.382   5.137
 6486SOL     OW20356   6.849   3.371   2.589
 6486SOL    HW120357   6.900   3.351   2.673
 6486SOL    HW220358   6.860   3.296   2.525
 6487SOL     OW20359   5.934   6.093   4.777
 6487SOL    HW120360   5.937   6.083   4.877
 6487SOL    HW220361   5.989   6.022   4.735
 6488SOL     OW20362   3.771   5.632   2.805
 6488SOL    HW120363   3.678   5.648   2.839
 6488SOL    HW220364   3.768   5.566   2.730
 6489SOL     OW20365   0.164   4.483   5.326
 6489SOL    HW120366   0.138   4.446   5.416
 6489SOL    HW220367   0.200   4.409   5.269
 6490SOL     OW20368   1.888   3.413   6.177
 6490SOL    HW120369   1.923   3.437   6.268
 6490SOL    HW220370   1.877   3.497   6.123
 6491SOL     OW20371   0.714   6.789   1.957
 6491SOL    HW120372   0.718   6.858   1.884
 6491SOL    HW220373   0.748   6.828   2.042
 6492SOL     OW20374   3.996   3.301   2.962
 6492SOL    HW120375   3.924   3.236   2.989
 6492SOL    HW220376   4.009   3.368   3.034
 6493SOL     OW20377   2.595   5.079   4.388
 6493SOL    HW120378   2.509   5.036   4.417
 6493SOL    HW220379   2.605   5.070   4.289
 6494SOL     OW20380   6.223   1.546   2.181
 6494SOL    HW120381   6.263   1.454   2.175
 6494SOL    HW220382   6.123   1.539   2.178
 6495SOL     OW20383   6.897   5.822   2.576
 6495SOL    HW120384   6.870   5.897   2.635
 6495SOL    HW220385   6.846   5.740   2.600
 6496SOL     OW20386   2.688   2.860   1.174
 6496SOL    HW120387   2.741   2.906   1.103
 6496SOL    HW220388   2.709   2.901   1.263
 6497SOL     OW20389   6.880   3.235   0.804
 6497SOL    HW120390   6.919   3.144   0.789
 6497SOL    HW220391   6.878   3.254   0.902
 6498SOL     OW20392   2.812   4.788   4.624
 6498SOL    HW120393   2.762   4.728   4.562
 6498SOL    HW220394   2.748   4.850   4.669
 6499SOL     OW20395   5.287   1.621   3.017
 6499SOL    HW120396   5.314   1.589   2.926
 6499SOL    HW220397   5.224   1.554   3.058
 6500SOL     OW20398   1.762   3.694   2.910
 6500SOL    HW120399   1.828   3.768   2.924
 6500SOL    HW220400   1.766   3.663   2.815
 6501SOL     OW20401   6.125   0.345   2.785
 6501SOL    HW120402   6.175   0.341   2.698
 6501SOL    HW220403   6.048   0.410   2.777
 6502SOL     OW20404   1.015   2.849   3.212
 6502SOL    HW120405   1.003   2.828   3.115
 6502SOL    HW220406   1.057   2.939   3.222
 6503SOL     OW20407   1.036   3.136   5.710
 6503SOL    HW120408   0.941   3.143   5.741
 6503SOL    HW220409   1.038   3.130   5.611
 6504SOL     OW20410   3.955   6.788   6.204
 6504SOL    HW120411   3.868   6.759   6.164
 6504SOL    HW220412   4.020   6.712   6.200
 6505SOL     OW20413   0.713   0.053   6.922
 6505SOL    HW120414   0.690   0.120   6.851
 6505SOL    HW220415   0.810   0.029   6.915
 6506SOL     OW20416   1.522   5.177   2.230
 6506SOL    HW120417   1.435   5.144   2.266
 6506SOL    HW220418   1.535   5.140   2.138
 6507SOL     OW20419   5.500   5.308   0.781
 6507SOL    HW120420   5.469   5.223   0.740
 6507SOL    HW220421   5.448   5.327   0.864
 6508SOL     OW20422   6.676   1.398   4.683
 6508SOL    HW120423   6.661   1.497   4.680
 6508SOL    HW220424   6.742   1.372   4.612
 6509SOL     OW20425   2.937   1.899   6.260
 6509SOL    HW120426   2.941   1.965   6.184
 6509SOL    HW220427   2.864   1.925   6.323
 6510SOL     OW20428   4.177   4.716   4.363
 6510SOL    HW120429   4.174   4.814   4.344
 6510SOL    HW220430   4.146   4.666   4.282
 6511SOL     OW20431   3.684   3.321   0.086
 6511SOL    HW120432   3.647   3.409   0.115
 6511SOL    HW220433   3.630   3.247   0.127
 6512SOL     OW20434   5.153   1.274   2.508
 6512SOL    HW120435   5.232   1.315   2.555
 6512SOL    HW220436   5.106   1.345   2.455
 6513SOL     OW20437   3.275   4.218   1.427
 6513SOL    HW120438   3.193   4.276   1.426
 6513SOL    HW220439   3.326   4.234   1.511
 6514SOL     OW20440   5.835   5.612   5.750
 6514SOL    HW120441   5.803   5.684   5.812
 6514SOL    HW220442   5.846   5.526   5.801
 6515SOL     OW20443   0.544   4.643   2.223
 6515SOL    HW120444   0.583   4.729   2.257
 6515SOL    HW220445   0.500   4.660   2.135
 6516SOL     OW20446   5.920   1.246   3.778
 6516SOL    HW120447   6.006   1.209   3.743
 6516SOL    HW220448   5.856   1.256   3.702
 6517SOL     OW20449   6.877   3.890   1.472
 6517SOL    HW120450   6.843   3.943   1.394
 6517SOL    HW220451   6.900   3.798   1.442
 6518SOL     OW20452   1.371   1.777   2.964
 6518SOL    HW120453   1.278   1.776   3.000
 6518SOL    HW220454   1.405   1.683   2.957
 6519SOL     OW20455   2.592   1.684   3.057
 6519SOL    HW120456   2.506   1.669   3.009
 6519SOL    HW220457   2.652   1.741   3.001
 6520SOL     OW20458   5.622   6.840   6.610
 6520SOL    HW120459   5.667   6.901   6.546
 6520SOL    HW220460   5.570   6.771   6.560
 6521SOL     OW20461   1.548   4.943   4.595
 6521SOL    HW120462   1.566   4.983   4.504
 6521SOL    HW220463   1.567   5.012   4.665
 6522SOL     OW20464   2.632   3.291   5.299
 6522SOL    HW120465   2.627   3.307   5.398
 6522SOL    HW220466   2.618   3.194   5.280
 6523SOL     OW20467   4.755   6.735   0.586
 6523SOL    HW120468   4.683   6.733   0.517
 6523SOL    HW220469   4.756   6.649   0.636
 6524SOL     OW20470   3.693   2.340   1.261
 6524SOL    HW120471   3.676   2.435   1.235
 6524SOL    HW220472   3.643   2.279   1.200
 6525SOL     OW20473   3.537   5.198   3.510
 6525SOL    HW120474   3.633   5.170   3.509
 6525SOL    HW220475   3.522   5.262   3.586
 6526SOL     OW20476   6.596   6.709   0.504
 6526SOL    HW120477   6.639   6.779   0.446
 6526SOL    HW220478   6.536   6.651   0.448
 6527SOL     OW20479   5.347   2.653   0.668
 6527SOL    HW120480   5.307   2.735   0.712
 6527SOL    HW220481   5.278   2.581   0.664
 6528SOL     OW20482   4.266   0.189   0.810
 6528SOL    HW120483   4.214   0.275   0.808
 6528SOL    HW220484   4.202   0.112   0.813
 6529SOL     OW20485   3.188   5.981   1.434
 6529SOL    HW120486   3.135   5.998   1.351
 6529SOL    HW220487   3.249   5.903   1.419
 6530SOL     OW20488   1.105   3.025   4.498
 6530SOL    HW120489   1.114   2.925   4.505
 6530SOL    HW220490   1.189   3.062   4.459
 6531SOL     OW20491   2.964   3.339   4.227
 6531SOL    HW120492   2.974   3.307   4.133
 6531SOL    HW220493   2.988   3.265   4.290
 6532SOL     OW20494   0.840   6.015   0.146
 6532SOL    HW120495   0.918   6.056   0.193
 6532SOL    HW220496   0.795   6.083   0.088
 6533SOL     OW20497   5.861   5.049   1.290
 6533SOL    HW120498   5.777   5.019   1.245
 6533SOL    HW220499   5.867   5.149   1.286
 6534SOL     OW20500   6.376   2.582   4.591
 6534SOL    HW120501   6.280   2.567   4.568
 6534SOL    HW220502   6.384   2.609   4.687
 6535SOL     OW20503   5.317   3.435   6.753
 6535SOL    HW120504   5.264   3.398   6.829
 6535SOL    HW220505   5.279   3.524   6.726
 6536SOL     OW20506   6.908   5.645   6.156
 6536SOL    HW120507   6.980   5.611   6.096
 6536SOL    HW220508   6.819   5.620   6.117
 6537SOL     OW20509   6.731   5.029   4.022
 6537SOL    HW120510   6.759   4.984   3.937
 6537SOL    HW220511   6.779   5.116   4.031
 6538SOL     OW20512   0.997   4.368   3.675
 6538SOL    HW120513   0.929   4.395   3.743
 6538SOL    HW220514   1.087   4.366   3.717
 6539SOL     OW20515   5.973   6.602   5.991
 6539SOL    HW120516   6.034   6.643   6.059
 6539SOL    HW220517   5.938   6.515   6.026
 6540SOL     OW20518   0.742   2.943   5.318
 6540SOL    HW120519   0.686   2.916   5.397
 6540SOL    HW220520   0.685   2.993   5.253
 6541SOL     OW20521   3.543   1.547   6.253
 6541SOL    HW120522   3.508   1.641   6.251
 6541SOL    HW220523   3.587   1.527   6.165
 6542SOL     OW20524   1.708   4.950   1.224
 6542SOL    HW120525   1.738   4.899   1.144
 6542SOL    HW220526   1.610   4.936   1.239
 6543SOL     OW20527   4.214   1.737   3.684
 6543SOL    HW120528   4.135   1.736   3.624
 6543SOL    HW220529   4.296   1.759   3.631
 6544SOL     OW20530   0.969   1.458   0.870
 6544SOL    HW120531   1.052   1.404   0.863
 6544SOL    HW220532   0.981   1.545   0.821
 6545SOL     OW20533   6.366   4.072   0.299
 6545SOL    HW120534   6.368   4.129   0.382
 6545SOL    HW220535   6.300   4.110   0.234
 6546SOL     OW20536   4.109   5.994   4.319
 6546SOL    HW120537   4.073   5.936   4.392
 6546SOL    HW220538   4.178   5.942   4.268
 6547SOL     OW20539   6.677   6.171   4.668
 6547SOL    HW120540   6.614   6.115   4.615
 6547SOL    HW220541   6.747   6.112   4.708
 6548SOL     OW20542   1.821   0.888   5.055
 6548SOL    HW120543   1.798   0.916   4.961
 6548SOL    HW220544   1.739   0.896   5.112
 6549SOL     OW20545   2.126   1.708   1.901
 6549SOL    HW120546   2.068   1.788   1.914
 6549SOL    HW220547   2.105   1.639   1.971
 6550SOL     OW20548   5.671   0.545   2.024
 6550SOL    HW120549   5.572   0.555   2.012
 6550SOL    HW220550   5.707   0.623   2.074
 6551SOL     OW20551   2.350   5.521   1.142
 6551SOL    HW120552   2.299   5.475   1.069
 6551SOL    HW220553   2.304   5.606   1.166
 6552SOL     OW20554   2.434   3.263   6.501
 6552SOL    HW120555   2.396   3.172   6.484
 6552SOL    HW220556   2.388   3.330   6.442
 6553SOL     OW20557   0.780   1.976   3.592
 6553SOL    HW120558   0.785   2.043   3.666
 6553SOL    HW220559   0.690   1.981   3.548
 6554SOL     OW20560   2.610   1.489   3.882
 6554SOL    HW120561   2.561   1.576   3.886
 6554SOL    HW220562   2.621   1.462   3.786
 6555SOL     OW20563   1.940   3.507   1.913
 6555SOL    HW120564   1.904   3.415   1.902
 6555SOL    HW220565   2.040   3.504   1.914
 6556SOL     OW20566   4.865   2.807   3.376
 6556SOL    HW120567   4.827   2.832   3.287
 6556SOL    HW220568   4.836   2.714   3.399
 6557SOL     OW20569   1.866   6.946   2.439
 6557SOL    HW120570   1.890   6.890   2.359
 6557SOL    HW220571   1.856   6.887   2.519
 6558SOL     OW20572   4.948   5.901   0.710
 6558SOL    HW120573   4.989   5.883   0.620
 6558SOL    HW220574   4.851   5.877   0.708
 6559SOL     OW20575   0.436   2.097   6.096
 6559SOL    HW120576   0.509   2.151   6.137
 6559SOL    HW220577   0.358   2.092   6.160
 6560SOL     OW20578   6.842   3.897   6.329
 6560SOL    HW120579   6.909   3.866   6.396
 6560SOL    HW220580   6.755   3.916   6.374
 6561SOL     OW20581   2.365   5.633   6.669
 6561SOL    HW120582   2.288   5.575   6.694
 6561SOL    HW220583   2.404   5.674   6.751
 6562SOL     OW20584   5.110   2.710   0.858
 6562SOL    HW120585   5.124   2.623   0.812
 6562SOL    HW220586   5.012   2.731   0.862
 6563SOL     OW20587   5.943   4.212   5.766
 6563SOL    HW120588   5.936   4.256   5.855
 6563SOL    HW220589   5.869   4.244   5.707
 6564SOL     OW20590   6.239   3.988   2.579
 6564SOL    HW120591   6.335   3.962   2.586
 6564SOL    HW220592   6.182   3.915   2.617
 6565SOL     OW20593   5.738   5.564   2.131
 6565SOL    HW120594   5.663   5.583   2.067
 6565SOL    HW220595   5.793   5.647   2.142
 6566SOL     OW20596   5.626   5.843   4.900
 6566SOL    HW120597   5.650   5.912   4.832
 6566SOL    HW220598   5.642   5.880   4.992
 6567SOL     OW20599   2.519   0.136   2.728
 6567SOL    HW120600   2.504   0.235   2.727
 6567SOL    HW220601   2.553   0.106   2.639
 6568SOL     OW20602   5.280   1.410   1.215
 6568SOL    HW120603   5.289   1.318   1.253
 6568SOL    HW220604   5.330   1.416   1.128
 6569SOL     OW20605   1.147   3.948   3.520
 6569SOL    HW120606   1.083   3.877   3.489
 6569SOL    HW220607   1.231   3.905   3.553
 6570SOL     OW20608   4.118   0.125   2.206
 6570SOL    HW120609   4.044   0.104   2.270
 6570SOL    HW220610   4.092   0.203   2.149
 6571SOL     OW20611   2.316   6.430   3.599
 6571SOL    HW120612   2.231   6.391   3.634
 6571SOL    HW220613   2.393   6.389   3.648
 6572SOL     OW20614   0.688   0.066   3.996
 6572SOL    HW120615   0.652   0.104   4.081
 6572SOL    HW220616   0.624   7.021   3.960
 6573SOL     OW20617   1.129   2.171   3.452
 6573SOL    HW120618   1.166   2.239   3.389
 6573SOL    HW220619   1.094   2.217   3.534
 6574SOL     OW20620   1.694   5.253   1.394
 6574SOL    HW120621   1.709   5.156   1.373
 6574SOL    HW220622   1.765   5.308   1.351
 6575SOL     OW20623   6.936   0.881   4.291
 6575SOL    HW120624   6.996   0.958   4.268
 6575SOL    HW220625   6.880   0.905   4.370
 6576SOL     OW20626   3.950   0.690   3.013
 6576SOL    HW120627   3.948   0.606   2.959
 6576SOL    HW220628   3.872   0.748   2.988
 6577SOL     OW20629   2.799   0.691   5.207
 6577SOL    HW120630   2.896   0.671   5.196
 6577SOL    HW220631   2.761   0.636   5.281
 6578SOL     OW20632   0.784   5.736   0.340
 6578SOL    HW120633   0.756   5.801   0.270
 6578SOL    HW220634   0.862   5.772   0.391
 6579SOL     OW20635   2.362   1.879   2.493
 6579SOL    HW120636   2.299   1.831   2.554
 6579SOL    HW220637   2.398   1.815   2.425
 6580SOL     OW20638   3.009   2.536   6.935
 6580SOL    HW120639   2.984   2.443   6.962
 6580SOL    HW220640   3.096   2.561   6.976
 6581SOL     OW20641   0.796   2.329   2.322
 6581SOL    HW120642   0.830   2.301   2.412
 6581SOL    HW220643   0.834   2.268   2.252
 6582SOL     OW20644   3.513   6.774   2.992
 6582SOL    HW120645   3.445   6.727   2.936
 6582SOL    HW220646   3.603   6.767   2.947
 6583SOL     OW20647   2.055   4.483   0.162
 6583SOL    HW120648   2.126   4.479   0.091
 6583SOL    HW220649   2.067   4.565   0.217
 6584SOL     OW20650   4.705   3.430   5.369
 6584SOL    HW120651   4.698   3.461   5.464
 6584SOL    HW220652   4.704   3.509   5.308
 6585SOL     OW20653   4.880   6.120   1.816
 6585SOL    HW120654   4.796   6.161   1.853
 6585SOL    HW220655   4.905   6.040   1.871
 6586SOL     OW20656   6.833   2.021   0.102
 6586SOL    HW120657   6.876   1.955   0.041
 6586SOL    HW220658   6.760   1.977   0.154
 6587SOL     OW20659   2.745   5.031   5.211
 6587SOL    HW120660   2.757   5.045   5.112
 6587SOL    HW220661   2.799   4.952   5.240
 6588SOL     OW20662   1.815   2.375   0.442
 6588SOL    HW120663   1.899   2.429   0.444
 6588SOL    HW220664   1.739   2.432   0.412
 6589SOL     OW20665   6.130   0.818   0.119
 6589SOL    HW120666   6.184   0.902   0.126
 6589SOL    HW220667   6.090   0.798   0.209
 6590SOL     OW20668   0.513   5.825   4.409
 6590SOL    HW120669   0.540   5.918   4.431
 6590SOL    HW220670   0.590   5.763   4.422
 6591SOL     OW20671   5.872   3.575   3.704
 6591SOL    HW120672   5.862   3.528   3.616
 6591SOL    HW220673   5.827   3.664   3.700
 6592SOL     OW20674   0.418   0.588   4.015
 6592SOL    HW120675   0.493   0.616   4.074
 6592SOL    HW220676   0.342   0.652   4.025
 6593SOL     OW20677   0.532   6.870   3.879
 6593SOL    HW120678   0.594   6.875   3.801
 6593SOL    HW220679   0.527   6.776   3.912
 6594SOL     OW20680   5.811   6.411   6.204
 6594SOL    HW120681   5.726   6.454   6.174
 6594SOL    HW220682   5.794   6.354   6.284
 6595SOL     OW20683   0.700   6.865   4.821
 6595SOL    HW120684   0.686   6.933   4.893
 6595SOL    HW220685   0.620   6.863   4.762
 6596SOL     OW20686   4.823   0.819   3.154
 6596SOL    HW120687   4.807   0.832   3.056
 6596SOL    HW220688   4.859   0.727   3.170
 6597SOL     OW20689   0.786   5.157   1.766
 6597SOL    HW120690   0.738   5.131   1.850
 6597SOL    HW220691   0.814   5.074   1.717
 6598SOL     OW20692   1.938   5.086   1.697
 6598SOL    HW120693   1.859   5.065   1.639
 6598SOL    HW220694   2.009   5.017   1.683
 6599SOL     OW20695   0.444   5.505   0.828
 6599SOL    HW120696   0.491   5.547   0.906
 6599SOL    HW220697   0.348   5.489   0.852
 6600SOL     OW20698   5.214   0.495   4.762
 6600SOL    HW120699   5.152   0.570   4.740
 6600SOL    HW220700   5.240   0.447   4.679
 6601SOL     OW20701   1.166   1.944   4.056
 6601SOL    HW120702   1.208   1.940   4.147
 6601SOL    HW220703   1.232   1.982   3.991
 6602SOL     OW20704   6.589   6.880   1.272
 6602SOL    HW120705   6.595   6.780   1.271
 6602SOL    HW220706   6.497   6.907   1.301
 6603SOL     OW20707   6.990   4.709   2.645
 6603SOL    HW120708   0.054   4.730   2.602
 6603SOL    HW220709   6.916   4.732   2.582
 6604SOL     OW20710   2.190   4.938   3.007
 6604SOL    HW120711   2.152   5.006   3.070
 6604SOL    HW220712   2.245   4.872   3.059
 6605SOL     OW20713   6.941   6.011   0.993
 6605SOL    HW120714   7.011   5.956   0.948
 6605SOL    HW220715   6.909   6.082   0.930
 6606SOL     OW20716   0.650   5.120   3.328
 6606SOL    HW120717   0.668   5.197   3.389
 6606SOL    HW220718   0.735   5.069   3.312
 6607SOL     OW20719   0.764   2.727   4.264
 6607SOL    HW120720   0.720   2.807   4.223
 6607SOL    HW220721   0.801   2.669   4.192
 6608SOL     OW20722   0.955   6.791   5.141
 6608SOL    HW120723   1.025   6.784   5.070
 6608SOL    HW220724   0.880   6.727   5.121
 6609SOL     OW20725   2.207   1.902   6.703
 6609SOL    HW120726   2.175   1.920   6.796
 6609SOL    HW220727   2.304   1.925   6.696
 6610SOL     OW20728   2.808   5.561   7.016
 6610SOL    HW120729   2.907   5.557   0.003
 6610SOL    HW220730   2.769   5.626   0.058
 6611SOL     OW20731   2.610   0.797   4.751
 6611SOL    HW120732   2.679   0.808   4.679
 6611SOL    HW220733   2.519   0.807   4.711
 6612SOL     OW20734   5.858   0.374   6.958
 6612SOL    HW120735   5.849   0.447   6.891
 6612SOL    HW220736   5.924   0.400   0.004
 6613SOL     OW20737   5.676   5.793   0.751
 6613SOL    HW120738   5.728   5.741   0.819
 6613SOL    HW220739   5.663   5.887   0.784
 6614SOL     OW20740   3.996   5.759   1.141
 6614SOL    HW120741   3.971   5.758   1.238
 6614SOL    HW220742   3.915   5.778   1.086
 6615SOL     OW20743   3.446   5.802   5.618
 6615SOL    HW120744   3.371   5.867   5.608
 6615SOL    HW220745   3.414   5.720   5.663
 6616SOL     OW20746   3.991   2.118   7.005
 6616SOL    HW120747   3.911   2.177   7.010
 6616SOL    HW220748   4.073   2.170   0.003
 6617SOL     OW20749   4.376   2.070   4.036
 6617SOL    HW120750   4.390   1.972   4.052
 6617SOL    HW220751   4.465   2.115   4.026
 6618SOL     OW20752   5.811   2.445   4.106
 6618SOL    HW120753   5.884   2.475   4.045
 6618SOL    HW220754   5.731   2.504   4.095
 6619SOL     OW20755   4.816   5.248   3.764
 6619SOL    HW120756   4.760   5.311   3.711
 6619SOL    HW220757   4.776   5.156   3.759
 6620SOL     OW20758   1.275   3.010   4.108
 6620SOL    HW120759   1.306   3.036   4.200
 6620SOL    HW220760   1.195   3.065   4.084
 6621SOL     OW20761   3.499   3.844   3.477
 6621SOL    HW120762   3.532   3.932   3.441
 6621SOL    HW220763   3.428   3.808   3.416
 6622SOL     OW20764   0.092   4.916   0.844
 6622SOL    HW120765   0.101   4.924   0.943
 6622SOL    HW220766   0.003   4.875   0.822
 6623SOL     OW20767   3.366   3.962   3.924
 6623SOL    HW120768   3.461   3.966   3.956
 6623SOL    HW220769   3.313   4.034   3.968
 6624SOL     OW20770   2.481   2.459   2.362
 6624SOL    HW120771   2.570   2.416   2.369
 6624SOL    HW220772   2.467   2.494   2.269
 6625SOL     OW20773   0.877   5.292   6.200
 6625SOL    HW120774   0.939   5.249   6.266
 6625SOL    HW220775   0.862   5.230   6.123
 6626SOL     OW20776   3.365   6.020   6.004
 6626SOL    HW120777   3.448   5.967   5.989
 6626SOL    HW220778   3.285   5.963   5.984
 6627SOL     OW20779   2.456   6.898   4.760
 6627SOL    HW120780   2.468   6.834   4.683
 6627SOL    HW220781   2.370   6.948   4.748
 6628SOL     OW20782   4.537   6.559   4.147
 6628SOL    HW120783   4.543   6.633   4.214
 6628SOL    HW220784   4.453   6.568   4.095
 6629SOL     OW20785   5.513   5.758   5.417
 6629SOL    HW120786   5.464   5.746   5.330
 6629SOL    HW220787   5.448   5.785   5.488
 6630SOL     OW20788   1.779   6.789   0.432
 6630SOL    HW120789   1.852   6.720   0.432
 6630SOL    HW220790   1.752   6.809   0.338
 6631SOL     OW20791   2.520   1.519   5.401
 6631SOL    HW120792   2.605   1.571   5.411
 6631SOL    HW220793   2.449   1.579   5.364
 6632SOL     OW20794   1.065   1.075   5.480
 6632SOL    HW120795   1.161   1.059   5.459
 6632SOL    HW220796   1.042   1.170   5.462
 6633SOL     OW20797   5.277   0.472   6.108
 6633SOL    HW120798   5.271   0.478   6.208
 6633SOL    HW220799   5.239   0.554   6.066
 6634SOL     OW20800   2.714   2.256   4.066
 6634SOL    HW120801   2.758   2.184   4.013
 6634SOL    HW220802   2.771   2.278   4.146
 6635SOL     OW20803   4.378   5.304   6.262
 6635SOL    HW120804   4.298   5.293   6.203
 6635SOL    HW220805   4.350   5.351   6.346
 6636SOL     OW20806   5.047   1.839   1.075
 6636SOL    HW120807   4.963   1.883   1.045
 6636SOL    HW220808   5.121   1.906   1.075
 6637SOL     OW20809   0.226   3.889   6.906
 6637SOL    HW120810   0.305   3.941   6.873
 6637SOL    HW220811   0.177   3.942   6.975
 6638SOL     OW20812   3.632   3.833   4.633
 6638SOL    HW120813   3.692   3.895   4.684
 6638SOL    HW220814   3.537   3.862   4.644
 6639SOL     OW20815   6.489   2.340   3.002
 6639SOL    HW120816   6.455   2.319   3.093
 6639SOL    HW220817   6.478   2.437   2.984
 6640SOL     OW20818   0.114   3.331   4.148
 6640SOL    HW120819   0.067   3.417   4.168
 6640SOL    HW220820   0.201   3.329   4.197
 6641SOL     OW20821   5.798   2.170   0.507
 6641SOL    HW120822   5.776   2.164   0.410
 6641SOL    HW220823   5.720   2.208   0.557
 6642SOL     OW20824   0.686   4.978   6.940
 6642SOL    HW120825   0.646   4.920   7.011
 6642SOL    HW220826   0.666   4.939   6.850
 6643SOL     OW20827   6.453   5.410   5.980
 6643SOL    HW120828   6.441   5.363   6.067
 6643SOL    HW220829   6.363   5.429   5.940
 6644SOL     OW20830   1.973   6.537   2.886
 6644SOL    HW120831   2.047   6.597   2.919
 6644SOL    HW220832   1.893   6.549   2.944
 6645SOL     OW20833   5.017   2.810   5.611
 6645SOL    HW120834   4.986   2.727   5.657
 6645SOL    HW220835   4.938   2.869   5.593
 6646SOL     OW20836   4.670   6.846   6.077
 6646SOL    HW120837   4.704   6.881   5.990
 6646SOL    HW220838   4.727   6.882   6.152
 6647SOL     OW20839   3.140   5.035   0.317
 6647SOL    HW120840   3.131   5.110   0.382
 6647SOL    HW220841   3.143   4.948   0.366
 6648SOL     OW20842   3.373   6.117   4.748
 6648SOL    HW120843   3.368   6.194   4.811
 6648SOL    HW220844   3.282   6.077   4.738
 6649SOL     OW20845   5.473   1.764   5.382
 6649SOL    HW120846   5.485   1.706   5.301
 6649SOL    HW220847   5.381   1.804   5.381
 6650SOL     OW20848   2.892   0.825   4.459
 6650SOL    HW120849   2.968   0.840   4.396
 6650SOL    HW220850   2.838   0.746   4.429
 6651SOL     OW20851   6.299   1.442   3.725
 6651SOL    HW120852   6.342   1.354   3.700
 6651SOL    HW220853   6.253   1.480   3.644
 6652SOL     OW20854   0.135   5.068   0.016
 6652SOL    HW120855   0.136   5.156   0.063
 6652SOL    HW220856   0.228   5.045   7.010
 6653SOL     OW20857   5.496   3.727   6.928
 6653SOL    HW120858   5.490   3.648   6.866
 6653SOL    HW220859   5.537   3.697   7.014
 6654SOL     OW20860   6.603   1.808   2.989
 6654SOL    HW120861   6.546   1.727   2.974
 6654SOL    HW220862   6.663   1.822   2.910
 6655SOL     OW20863   6.425   5.486   1.583
 6655SOL    HW120864   6.364   5.462   1.658
 6655SOL    HW220865   6.376   5.477   1.496
 6656SOL     OW20866   5.907   1.972   2.622
 6656SOL    HW120867   5.868   1.903   2.561
 6656SOL    HW220868   6.007   1.962   2.625
 6657SOL     OW20869   5.344   1.831   3.678
 6657SOL    HW120870   5.404   1.800   3.752
 6657SOL    HW220871   5.300   1.751   3.636
 6658SOL     OW20872   6.429   4.804   3.599
 6658SOL    HW120873   6.352   4.862   3.572
 6658SOL    HW220874   6.477   4.773   3.517
 6659SOL     OW20875   0.847   6.641   0.663
 6659SOL    HW120876   0.808   6.652   0.755
 6659SOL    HW220877   0.930   6.696   0.656
 6660SOL     OW20878   1.845   0.881   3.590
 6660SOL    HW120879   1.771   0.915   3.532
 6660SOL    HW220880   1.907   0.956   3.612
 6661SOL     OW20881   3.844   6.658   3.509
 6661SOL    HW120882   3.939   6.688   3.516
 6661SOL    HW220883   3.841   6.558   3.506
 6662SOL     OW20884   3.901   5.688   1.417
 6662SOL    HW120885   3.957   5.604   1.419
 6662SOL    HW220886   3.804   5.663   1.419
 6663SOL     OW20887   1.564   5.042   5.778
 6663SOL    HW120888   1.570   5.127   5.724
 6663SOL    HW220889   1.632   4.977   5.744
 6664SOL     OW20890   2.680   6.811   1.810
 6664SOL    HW120891   2.652   6.899   1.771
 6664SOL    HW220892   2.731   6.759   1.742
 6665SOL     OW20893   2.982   0.003   0.357
 6665SOL    HW120894   2.906   0.030   0.298
 6665SOL    HW220895   2.969   0.043   0.448
 6666SOL     OW20896   2.433   0.048   7.014
 6666SOL    HW120897   2.388   0.137   7.014
 6666SOL    HW220898   2.394   7.015   6.941
 6667SOL     OW20899   1.475   5.366   0.285
 6667SOL    HW120900   1.440   5.383   0.377
 6667SOL    HW220901   1.527   5.446   0.254
 6668SOL     OW20902   6.837   3.174   5.735
 6668SOL    HW120903   6.820   3.119   5.816
 6668SOL    HW220904   6.935   3.190   5.726
 6669SOL     OW20905   0.687   3.791   3.441
 6669SOL    HW120906   0.644   3.824   3.525
 6669SOL    HW220907   0.653   3.699   3.420
 6670SOL     OW20908   1.578   3.846   1.065
 6670SOL    HW120909   1.586   3.824   1.162
 6670SOL    HW220910   1.660   3.896   1.035
 6671SOL     OW20911   5.747   4.984   0.545
 6671SOL    HW120912   5.757   4.963   0.447
 6671SOL    HW220913   5.718   5.080   0.555
 6672SOL     OW20914   1.812   2.307   1.132
 6672SOL    HW120915   1.846   2.266   1.047
 6672SOL    HW220916   1.839   2.403   1.136
 6673SOL     OW20917   5.664   3.866   4.274
 6673SOL    HW120918   5.610   3.788   4.306
 6673SOL    HW220919   5.603   3.936   4.237
 6674SOL     OW20920   6.102   1.465   7.003
 6674SOL    HW120921   6.168   1.399   6.967
 6674SOL    HW220922   6.022   1.416   0.013
 6675SOL     OW20923   5.709   1.076   0.869
 6675SOL    HW120924   5.777   1.003   0.875
 6675SOL    HW220925   5.680   1.087   0.774
 6676SOL     OW20926   0.562   3.986   5.350
 6676SOL    HW120927   0.653   3.972   5.391
 6676SOL    HW220928   0.502   4.028   5.418
 6677SOL     OW20929   0.430   2.407   0.460
 6677SOL    HW120930   0.421   2.433   0.364
 6677SOL    HW220931   0.504   2.340   0.470
 6678SOL     OW20932   3.157   4.220   6.781
 6678SOL    HW120933   3.130   4.149   6.846
 6678SOL    HW220934   3.161   4.182   6.689
 6679SOL     OW20935   1.447   6.453   3.447
 6679SOL    HW120936   1.369   6.514   3.460
 6679SOL    HW220937   1.532   6.506   3.447
 6680SOL     OW20938   6.151   5.332   1.719
 6680SOL    HW120939   6.060   5.290   1.715
 6680SOL    HW220940   6.221   5.261   1.712
 6681SOL     OW20941   2.992   6.371   0.843
 6681SOL    HW120942   2.934   6.351   0.922
 6681SOL    HW220943   3.021   6.285   0.800
 6682SOL     OW20944   2.014   4.686   6.147
 6682SOL    HW120945   1.967   4.762   6.192
 6682SOL    HW220946   2.011   4.700   6.048
 6683SOL     OW20947   6.542   6.540   6.028
 6683SOL    HW120948   6.621   6.552   6.088
 6683SOL    HW220949   6.524   6.443   6.015
 6684SOL     OW20950   2.976   0.032   5.832
 6684SOL    HW120951   2.951   6.977   5.888
 6684SOL    HW220952   2.995   0.110   5.892
 6685SOL     OW20953   4.083   3.347   0.597
 6685SOL    HW120954   4.080   3.329   0.696
 6685SOL    HW220955   4.176   3.370   0.571
 6686SOL     OW20956   3.908   4.853   5.295
 6686SOL    HW120957   3.962   4.925   5.337
 6686SOL    HW220958   3.968   4.779   5.266
 6687SOL     OW20959   6.801   2.292   1.039
 6687SOL    HW120960   6.897   2.309   1.016
 6687SOL    HW220961   6.748   2.278   0.955
 6688SOL     OW20962   5.328   5.612   0.525
 6688SOL    HW120963   5.370   5.646   0.441
 6688SOL    HW220964   5.308   5.515   0.516
 6689SOL     OW20965   3.724   4.941   5.928
 6689SOL    HW120966   3.627   4.930   5.909
 6689SOL    HW220967   3.772   4.964   5.843
 6690SOL     OW20968   0.387   0.749   0.176
 6690SOL    HW120969   0.440   0.825   0.214
 6690SOL    HW220970   0.398   0.747   0.077
 6691SOL     OW20971   2.538   2.144   2.409
 6691SOL    HW120972   2.606   2.216   2.398
 6691SOL    HW220973   2.446   2.183   2.408
 6692SOL     OW20974   4.014   6.781   2.109
 6692SOL    HW120975   3.973   6.831   2.186
 6692SOL    HW220976   4.029   6.686   2.135
 6693SOL     OW20977   2.876   1.348   5.854
 6693SOL    HW120978   2.917   1.393   5.933
 6693SOL    HW220979   2.923   1.262   5.836
 6694SOL     OW20980   4.661   4.457   1.849
 6694SOL    HW120981   4.589   4.417   1.906
 6694SOL    HW220982   4.734   4.390   1.837
 6695SOL     OW20983   3.084   2.023   0.147
 6695SOL    HW120984   3.022   2.087   0.193
 6695SOL    HW220985   3.099   1.944   0.206
 6696SOL     OW20986   3.965   2.963   5.627
 6696SOL    HW120987   3.947   2.991   5.532
 6696SOL    HW220988   3.914   2.880   5.648
 6697SOL     OW20989   4.387   1.087   2.750
 6697SOL    HW120990   4.387   1.133   2.661
 6697SOL    HW220991   4.345   1.147   2.818
 6698SOL     OW20992   2.546   3.234   1.285
 6698SOL    HW120993   2.626   3.246   1.345
 6698SOL    HW220994   2.467   3.207   1.340
 6699SOL     OW20995   1.684   3.887   5.060
 6699SOL    HW120996   1.725   3.929   4.979
 6699SOL    HW220997   1.744   3.900   5.139
 6700SOL     OW20998   4.641   6.457   1.402
 6700SOL    HW120999   4.693   6.426   1.322
 6700SOL    HW221000   4.565   6.515   1.372
 6701SOL     OW21001   6.406   0.399   1.199
 6701SOL    HW121002   6.405   0.344   1.115
 6701SOL    HW221003   6.500   0.427   1.218
 6702SOL     OW21004   5.198   2.883   1.343
 6702SOL    HW121005   5.153   2.920   1.424
 6702SOL    HW221006   5.131   2.866   1.271
 6703SOL     OW21007   6.894   0.567   1.527
 6703SOL    HW121008   6.931   0.642   1.582
 6703SOL    HW221009   6.950   0.555   1.445
 6704SOL     OW21010   1.986   5.608   6.398
 6704SOL    HW121011   2.036   5.541   6.343
 6704SOL    HW221012   2.052   5.662   6.452
 6705SOL     OW21013   2.080   4.315   3.117
 6705SOL    HW121014   2.111   4.346   3.207
 6705SOL    HW221015   2.004   4.371   3.087
 6706SOL     OW21016   0.548   5.524   1.796
 6706SOL    HW121017   0.640   5.489   1.784
 6706SOL    HW221018   0.549   5.602   1.859
 6707SOL     OW21019   5.437   0.642   2.891
 6707SOL    HW121020   5.337   0.639   2.900
 6707SOL    HW221021   5.478   0.639   2.982
 6708SOL     OW21022   0.342   3.139   1.076
 6708SOL    HW121023   0.317   3.209   1.143
 6708SOL    HW221024   0.380   3.182   0.994
 6709SOL     OW21025   2.253   4.152   2.646
 6709SOL    HW121026   2.204   4.069   2.617
 6709SOL    HW221027   2.275   4.146   2.743
 6710SOL     OW21028   5.217   2.274   1.803
 6710SOL    HW121029   5.262   2.349   1.755
 6710SOL    HW221030   5.153   2.228   1.741
 6711SOL     OW21031   3.931   5.502   6.589
 6711SOL    HW121032   3.881   5.541   6.666
 6711SOL    HW221033   3.891   5.414   6.565
 6712SOL     OW21034   5.936   3.699   0.889
 6712SOL    HW121035   6.026   3.695   0.846
 6712SOL    HW221036   5.946   3.694   0.989
 6713SOL     OW21037   2.394   4.873   4.462
 6713SOL    HW121038   2.310   4.897   4.414
 6713SOL    HW221039   2.379   4.880   4.561
 6714SOL     OW21040   6.241   0.410   3.042
 6714SOL    HW121041   6.196   0.362   2.967
 6714SOL    HW221042   6.340   0.398   3.034
 6715SOL     OW21043   0.593   0.231   4.631
 6715SOL    HW121044   0.519   0.278   4.678
 6715SOL    HW221045   0.555   0.176   4.557
 6716SOL     OW21046   1.953   4.227   1.492
 6716SOL    HW121047   1.920   4.139   1.459
 6716SOL    HW221048   2.023   4.213   1.561
 6717SOL     OW21049   5.920   3.719   5.885
 6717SOL    HW121050   5.960   3.713   5.793
 6717SOL    HW221051   5.838   3.662   5.889
 6718SOL     OW21052   5.187   2.088   0.594
 6718SOL    HW121053   5.216   2.162   0.533
 6718SOL    HW221054   5.090   2.099   0.616
 6719SOL     OW21055   1.026   0.137   0.459
 6719SOL    HW121056   1.102   0.077   0.483
 6719SOL    HW221057   1.041   0.228   0.498
 6720SOL     OW21058   2.039   1.853   4.636
 6720SOL    HW121059   2.077   1.760   4.632
 6720SOL    HW221060   2.113   1.919   4.647
 6721SOL     OW21061   6.865   6.469   0.944
 6721SOL    HW121062   6.784   6.525   0.963
 6721SOL    HW221063   6.843   6.402   0.873
 6722SOL     OW21064   6.673   3.431   1.430
 6722SOL    HW121065   6.618   3.471   1.504
 6722SOL    HW221066   6.759   3.481   1.423
 6723SOL     OW21067   2.429   4.372   3.373
 6723SOL    HW121068   2.448   4.346   3.468
 6723SOL    HW221069   2.485   4.317   3.312
 6724SOL     OW21070   2.120   3.912   5.716
 6724SOL    HW121071   2.142   3.817   5.691
 6724SOL    HW221072   2.035   3.938   5.670
 6725SOL     OW21073   4.490   2.387   3.106
 6725SOL    HW121074   4.489   2.426   3.014
 6725SOL    HW221075   4.397   2.360   3.132
 6726SOL     OW21076   0.189   1.100   0.599
 6726SOL    HW121077   0.273   1.103   0.544
 6726SOL    HW221078   0.211   1.075   0.693
 6727SOL     OW21079   1.021   5.832   5.243
 6727SOL    HW121080   0.969   5.910   5.208
 6727SOL    HW221081   1.021   5.758   5.176
 6728SOL     OW21082   4.037   2.008   5.754
 6728SOL    HW121083   4.078   2.042   5.838
 6728SOL    HW221084   4.033   2.082   5.687
 6729SOL     OW21085   4.278   1.693   2.305
 6729SOL    HW121086   4.373   1.722   2.309
 6729SOL    HW221087   4.243   1.706   2.213
 6730SOL     OW21088   6.381   2.516   1.401
 6730SOL    HW121089   6.310   2.579   1.435
 6730SOL    HW221090   6.439   2.488   1.477
 6731SOL     OW21091   3.963   0.653   5.699
 6731SOL    HW121092   4.017   0.573   5.723
 6731SOL    HW221093   4.024   0.731   5.686
 6732SOL     OW21094   6.422   4.334   6.166
 6732SOL    HW121095   6.347   4.348   6.101
 6732SOL    HW221096   6.384   4.322   6.258
 6733SOL     OW21097   5.800   4.710   6.162
 6733SOL    HW121098   5.776   4.701   6.259
 6733SOL    HW221099   5.875   4.648   6.140
 6734SOL     OW21100   5.563   2.262   4.617
 6734SOL    HW121101   5.546   2.353   4.579
 6734SOL    HW221102   5.652   2.262   4.662
 6735SOL     OW21103   5.205   2.282   4.707
 6735SOL    HW121104   5.105   2.283   4.714
 6735SOL    HW221105   5.240   2.375   4.717
 6736SOL     OW21106   4.391   3.050   1.001
 6736SOL    HW121107   4.326   2.979   0.976
 6736SOL    HW221108   4.466   3.010   1.053
 6737SOL     OW21109   5.864   2.651   1.842
 6737SOL    HW121110   5.836   2.555   1.833
 6737SOL    HW221111   5.848   2.681   1.936
 6738SOL     OW21112   1.634   6.795   2.811
 6738SOL    HW121113   1.730   6.822   2.808
 6738SOL    HW221114   1.577   6.876   2.827
 6739SOL     OW21115   0.653   0.888   6.196
 6739SOL    HW121116   0.750   0.865   6.206
 6739SOL    HW221117   0.633   0.971   6.248
 6740SOL     OW21118   1.130   0.254   1.497
 6740SOL    HW121119   1.148   0.198   1.416
 6740SOL    HW221120   1.174   0.343   1.485
 6741SOL     OW21121   2.696   2.316   0.389
 6741SOL    HW121122   2.623   2.252   0.415
 6741SOL    HW221123   2.762   2.323   0.464
 6742SOL     OW21124   6.133   4.528   2.709
 6742SOL    HW121125   6.106   4.434   2.730
 6742SOL    HW221126   6.233   4.532   2.699
 6743SOL     OW21127   3.869   4.598   6.797
 6743SOL    HW121128   3.908   4.689   6.788
 6743SOL    HW221129   3.864   4.573   6.894
 6744SOL     OW21130   6.568   6.575   5.266
 6744SOL    HW121131   6.554   6.531   5.354
 6744SOL    HW221132   6.613   6.663   5.279
 6745SOL     OW21133   5.675   3.440   4.671
 6745SOL    HW121134   5.724   3.391   4.743
 6745SOL    HW221135   5.707   3.407   4.582
 6746SOL     OW21136   0.946   2.812   2.934
 6746SOL    HW121137   1.025   2.846   2.884
 6746SOL    HW221138   0.935   2.714   2.918
 6747SOL     OW21139   0.713   6.131   5.346
 6747SOL    HW121140   0.800   6.179   5.330
 6747SOL    HW221141   0.678   6.155   5.436
 6748SOL     OW21142   1.766   2.710   4.242
 6748SOL    HW121143   1.672   2.697   4.273
 6748SOL    HW221144   1.826   2.649   4.294
 6749SOL     OW21145   3.188   5.290   2.252
 6749SOL    HW121146   3.157   5.310   2.158
 6749SOL    HW221147   3.110   5.295   2.314
 6750SOL     OW21148   3.910   0.665   5.972
 6750SOL    HW121149   3.923   0.665   5.873
 6750SOL    HW221150   3.999   0.664   6.017
 6751SOL     OW21151   4.467   1.626   4.322
 6751SOL    HW121152   4.377   1.585   4.337
 6751SOL    HW221153   4.498   1.670   4.405
 6752SOL     OW21154   2.187   5.288   2.220
 6752SOL    HW121155   2.144   5.210   2.174
 6752SOL    HW221156   2.286   5.272   2.228
 6753SOL     OW21157   3.394   4.490   6.579
 6753SOL    HW121158   3.401   4.492   6.479
 6753SOL    HW221159   3.304   4.523   6.607
 6754SOL     OW21160   5.664   0.612   0.111
 6754SOL    HW121161   5.726   0.659   0.048
 6754SOL    HW221162   5.696   0.518   0.126
 6755SOL     OW21163   3.917   6.188   5.196
 6755SOL    HW121164   3.984   6.262   5.206
 6755SOL    HW221165   3.916   6.133   5.279
 6756SOL     OW21166   4.348   2.989   5.547
 6756SOL    HW121167   4.359   2.936   5.631
 6756SOL    HW221168   4.251   3.005   5.530
 6757SOL     OW21169   3.404   0.145   1.444
 6757SOL    HW121170   3.392   0.236   1.484
 6757SOL    HW221171   3.477   0.148   1.376
 6758SOL     OW21172   4.737   2.609   3.483
 6758SOL    HW121173   4.663   2.611   3.417
 6758SOL    HW221174   4.716   2.543   3.555
 6759SOL     OW21175   1.704   2.500   2.144
 6759SOL    HW121176   1.633   2.430   2.153
 6759SOL    HW221177   1.789   2.466   2.184
 6760SOL     OW21178   5.056   2.036   5.527
 6760SOL    HW121179   4.962   2.058   5.555
 6760SOL    HW221180   5.118   2.107   5.559
 6761SOL     OW21181   3.024   0.217   5.260
 6761SOL    HW121182   3.050   0.122   5.242
 6761SOL    HW221183   2.924   0.225   5.256
 6762SOL     OW21184   5.616   5.115   4.792
 6762SOL    HW121185   5.670   5.197   4.773
 6762SOL    HW221186   5.520   5.139   4.798
 6763SOL     OW21187   5.386   5.643   4.033
 6763SOL    HW121188   5.346   5.632   4.124
 6763SOL    HW221189   5.393   5.553   3.989
 6764SOL     OW21190   1.295   4.394   2.239
 6764SOL    HW121191   1.361   4.373   2.167
 6764SOL    HW221192   1.248   4.479   2.217
 6765SOL     OW21193   0.205   4.327   2.366
 6765SOL    HW121194   0.214   4.405   2.304
 6765SOL    HW221195   0.123   4.339   2.423
 6766SOL     OW21196   5.612   0.215   1.393
 6766SOL    HW121197   5.694   0.221   1.450
 6766SOL    HW221198   5.624   0.271   1.311
 6767SOL     OW21199   2.760   0.084   1.099
 6767SOL    HW121200   2.760   0.173   1.054
 6767SOL    HW221201   2.847   0.038   1.082
 6768SOL     OW21202   2.366   0.792   6.266
 6768SOL    HW121203   2.409   0.714   6.312
 6768SOL    HW221204   2.267   0.784   6.274
 6769SOL     OW21205   5.520   2.626   1.497
 6769SOL    HW121206   5.544   2.718   1.528
 6769SOL    HW221207   5.603   2.577   1.471
 6770SOL     OW21208   6.866   1.608   1.923
 6770SOL    HW121209   6.834   1.569   1.836
 6770SOL    HW221210   6.792   1.604   1.990
 6771SOL     OW21211   4.125   0.555   4.437
 6771SOL    HW121212   4.089   0.630   4.381
 6771SOL    HW221213   4.210   0.583   4.480
 6772SOL     OW21214   2.794   0.886   5.527
 6772SOL    HW121215   2.840   0.826   5.593
 6772SOL    HW221216   2.738   0.953   5.576
 6773SOL     OW21217   6.922   3.163   2.420
 6773SOL    HW121218   6.893   3.124   2.332
 6773SOL    HW221219   7.021   3.151   2.430
 6774SOL     OW21220   1.484   1.443   5.538
 6774SOL    HW121221   1.389   1.446   5.568
 6774SOL    HW221222   1.543   1.418   5.614
 6775SOL     OW21223   0.005   3.292   0.564
 6775SOL    HW121224   6.951   3.318   0.620
 6775SOL    HW221225   7.015   3.200   0.528
 6776SOL     OW21226   6.505   6.624   5.767
 6776SOL    HW121227   6.475   6.537   5.728
 6776SOL    HW221228   6.515   6.614   5.866
 6777SOL     OW21229   4.543   4.502   0.289
 6777SOL    HW121230   4.567   4.561   0.366
 6777SOL    HW221231   4.445   4.507   0.272
 6778SOL     OW21232   6.613   5.402   3.440
 6778SOL    HW121233   6.659   5.488   3.462
 6778SOL    HW221234   6.676   5.341   3.392
 6779SOL     OW21235   5.345   3.700   6.396
 6779SOL    HW121236   5.259   3.751   6.409
 6779SOL    HW221237   5.415   3.737   6.456
 6780SOL     OW21238   1.481   2.276   1.596
 6780SOL    HW121239   1.527   2.308   1.679
 6780SOL    HW221240   1.479   2.350   1.529
 6781SOL     OW21241   6.202   4.369   5.135
 6781SOL    HW121242   6.111   4.333   5.155
 6781SOL    HW221243   6.270   4.320   5.190
 6782SOL     OW21244   6.299   1.379   3.991
 6782SOL    HW121245   6.308   1.396   3.893
 6782SOL    HW221246   6.234   1.305   4.007
 6783SOL     OW21247   1.181   5.382   0.092
 6783SOL    HW121248   1.113   5.435   0.041
 6783SOL    HW221249   1.161   5.285   0.085
 6784SOL     OW21250   4.214   3.723   0.341
 6784SOL    HW121251   4.198   3.731   0.439
 6784SOL    HW221252   4.133   3.754   0.291
 6785SOL     OW21253   5.040   6.460   1.289
 6785SOL    HW121254   5.116   6.414   1.245
 6785SOL    HW221255   5.068   6.553   1.315
 6786SOL     OW21256   2.117   3.465   5.440
 6786SOL    HW121257   2.204   3.416   5.439
 6786SOL    HW221258   2.052   3.418   5.381
 6787SOL     OW21259   0.935   4.256   2.804
 6787SOL    HW121260   0.945   4.267   2.705
 6787SOL    HW221261   0.852   4.204   2.823
 6788SOL     OW21262   2.737   3.588   1.257
 6788SOL    HW121263   2.657   3.544   1.215
 6788SOL    HW221264   2.709   3.670   1.306
 6789SOL     OW21265   2.085   4.720   3.332
 6789SOL    HW121266   2.009   4.747   3.273
 6789SOL    HW221267   2.049   4.669   3.411
 6790SOL     OW21268   0.861   2.706   1.504
 6790SOL    HW121269   0.932   2.698   1.575
 6790SOL    HW221270   0.774   2.730   1.547
 6791SOL     OW21271   3.370   3.687   5.609
 6791SOL    HW121272   3.274   3.698   5.635
 6791SOL    HW221273   3.428   3.686   5.691
 6792SOL     OW21274   1.240   4.878   1.007
 6792SOL    HW121275   1.182   4.892   0.927
 6792SOL    HW221276   1.193   4.910   1.089
 6793SOL     OW21277   5.639   1.206   0.208
 6793SOL    HW121278   5.675   1.119   0.173
 6793SOL    HW221279   5.539   1.206   0.200
 6794SOL     OW21280   3.334   1.794   5.540
 6794SOL    HW121281   3.265   1.859   5.508
 6794SOL    HW221282   3.330   1.787   5.639
 6795SOL     OW21283   4.182   5.895   0.264
 6795SOL    HW121284   4.135   5.917   0.178
 6795SOL    HW221285   4.114   5.877   0.335
 6796SOL     OW21286   3.959   2.139   2.524
 6796SOL    HW121287   3.876   2.097   2.486
 6796SOL    HW221288   4.037   2.079   2.507
 6797SOL     OW21289   6.907   2.627   2.998
 6797SOL    HW121290   6.811   2.604   3.015
 6797SOL    HW221291   6.932   2.706   3.054
 6798SOL     OW21292   6.315   0.252   1.941
 6798SOL    HW121293   6.411   0.277   1.958
 6798SOL    HW221294   6.283   0.300   1.858
 6799SOL     OW21295   4.471   5.878   2.392
 6799SOL    HW121296   4.495   5.971   2.420
 6799SOL    HW221297   4.548   5.837   2.342
 6800SOL     OW21298   3.514   3.546   6.274
 6800SOL    HW121299   3.590   3.507   6.327
 6800SOL    HW221300   3.427   3.519   6.314
 6801SOL     OW21301   0.124   2.930   3.810
 6801SOL    HW121302   0.034   2.956   3.777
 6801SOL    HW221303   0.131   2.830   3.814
 6802SOL     OW21304   3.408   5.407   2.269
 6802SOL    HW121305   3.320   5.360   2.268
 6802SOL    HW221306   3.470   5.364   2.203
 6803SOL     OW21307   4.791   2.325   7.021
 6803SOL    HW121308   4.824   2.383   0.071
 6803SOL    HW221309   4.855   2.331   6.944
 6804SOL     OW21310   1.390   5.901   2.993
 6804SOL    HW121311   1.359   5.990   2.961
 6804SOL    HW221312   1.445   5.912   3.075
 6805SOL     OW21313   6.390   1.422   5.936
 6805SOL    HW121314   6.459   1.370   5.885
 6805SOL    HW221315   6.303   1.372   5.934
 6806SOL     OW21316   4.632   5.255   5.396
 6806SOL    HW121317   4.681   5.342   5.392
 6806SOL    HW221318   4.655   5.208   5.482
 6807SOL     OW21319   4.567   3.146   6.990
 6807SOL    HW121320   4.513   3.230   6.994
 6807SOL    HW221321   4.660   3.164   7.022
 6808SOL     OW21322   2.929   5.132   3.960
 6808SOL    HW121323   2.888   5.089   4.041
 6808SOL    HW221324   3.021   5.096   3.947
 6809SOL     OW21325   1.224   3.022   6.597
 6809SOL    HW121326   1.150   3.075   6.554
 6809SOL    HW221327   1.272   2.970   6.528
 6810SOL     OW21328   6.358   1.784   3.397
 6810SOL    HW121329   6.285   1.756   3.335
 6810SOL    HW221330   6.436   1.724   3.386
 6811SOL     OW21331   4.817   6.443   2.098
 6811SOL    HW121332   4.742   6.505   2.121
 6811SOL    HW221333   4.804   6.409   2.005
 6812SOL     OW21334   3.788   3.334   3.509
 6812SOL    HW121335   3.876   3.291   3.487
 6812SOL    HW221336   3.790   3.430   3.483
 6813SOL     OW21337   5.302   3.609   0.923
 6813SOL    HW121338   5.282   3.514   0.900
 6813SOL    HW221339   5.226   3.667   0.895
 6814SOL     OW21340   2.256   2.853   0.799
 6814SOL    HW121341   2.195   2.929   0.823
 6814SOL    HW221342   2.332   2.888   0.744
 6815SOL     OW21343   1.437   6.472   6.592
 6815SOL    HW121344   1.369   6.447   6.661
 6815SOL    HW221345   1.413   6.559   6.551
 6816SOL     OW21346   5.181   4.359   1.286
 6816SOL    HW121347   5.200   4.367   1.188
 6816SOL    HW221348   5.122   4.280   1.302
 6817SOL     OW21349   1.655   1.904   5.806
 6817SOL    HW121350   1.612   1.845   5.738
 6817SOL    HW221351   1.733   1.951   5.765
 6818SOL     OW21352   4.251   5.102   0.525
 6818SOL    HW121353   4.242   5.008   0.495
 6818SOL    HW221354   4.219   5.164   0.453
 6819SOL     OW21355   2.714   1.124   3.702
 6819SOL    HW121356   2.812   1.143   3.691
 6819SOL    HW221357   2.663   1.209   3.702
 6820SOL     OW21358   1.412   5.086   4.789
 6820SOL    HW121359   1.414   5.014   4.720
 6820SOL    HW221360   1.395   5.044   4.879
 6821SOL     OW21361   2.304   1.944   4.171
 6821SOL    HW121362   2.288   1.991   4.084
 6821SOL    HW221363   2.384   1.885   4.163
 6822SOL     OW21364   5.502   1.034   5.467
 6822SOL    HW121365   5.536   0.974   5.540
 6822SOL    HW221366   5.492   0.981   5.383
 6823SOL     OW21367   3.998   3.392   2.519
 6823SOL    HW121368   4.060   3.438   2.582
 6823SOL    HW221369   4.023   3.295   2.513
 6824SOL     OW21370   0.687   5.819   4.950
 6824SOL    HW121371   0.617   5.775   5.006
 6824SOL    HW221372   0.730   5.750   4.892
 6825SOL     OW21373   6.063   0.463   4.075
 6825SOL    HW121374   6.001   0.531   4.114
 6825SOL    HW221375   6.075   0.388   4.140
 6826SOL     OW21376   1.330   2.568   3.485
 6826SOL    HW121377   1.421   2.554   3.523
 6826SOL    HW221378   1.333   2.553   3.386
 6827SOL     OW21379   4.175   5.683   5.486
 6827SOL    HW121380   4.225   5.655   5.405
 6827SOL    HW221381   4.109   5.613   5.511
 6828SOL     OW21382   2.261   2.320   1.126
 6828SOL    HW121383   2.204   2.376   1.066
 6828SOL    HW221384   2.311   2.379   1.190
 6829SOL     OW21385   5.749   4.577   3.972
 6829SOL    HW121386   5.697   4.495   3.997
 6829SOL    HW221387   5.725   4.651   4.034
 6830SOL     OW21388   4.555   0.864   3.776
 6830SOL    HW121389   4.643   0.904   3.750
 6830SOL    HW221390   4.557   0.765   3.761
 6831SOL     OW21391   1.255   1.681   6.285
 6831SOL    HW121392   1.282   1.585   6.286
 6831SOL    HW221393   1.309   1.731   6.217
 6832SOL     OW21394   2.946   4.802   1.583
 6832SOL    HW121395   2.955   4.717   1.636
 6832SOL    HW221396   3.011   4.801   1.507
 6833SOL     OW21397   4.285   6.388   6.907
 6833SOL    HW121398   4.199   6.384   6.855
 6833SOL    HW221399   4.318   6.482   6.909
 6834SOL     OW21400   2.669   4.725   2.579
 6834SOL    HW121401   2.634   4.700   2.669
 6834SOL    HW221402   2.616   4.678   2.508
 6835SOL     OW21403   4.058   6.710   3.979
 6835SOL    HW121404   3.980   6.740   3.923
 6835SOL    HW221405   4.024   6.664   4.061
 6836SOL     OW21406   3.285   4.922   0.746
 6836SOL    HW121407   3.337   4.841   0.718
 6836SOL    HW221408   3.301   4.939   0.844
 6837SOL     OW21409   0.892   3.482   3.280
 6837SOL    HW121410   0.795   3.501   3.293
 6837SOL    HW221411   0.921   3.408   3.341
 6838SOL     OW21412   2.345   2.607   0.450
 6838SOL    HW121413   2.429   2.661   0.458
 6838SOL    HW221414   2.354   2.544   0.373
 6839SOL     OW21415   3.784   1.001   2.267
 6839SOL    HW121416   3.862   0.966   2.318
 6839SOL    HW221417   3.705   0.941   2.281
 6840SOL     OW21418   0.726   1.464   5.754
 6840SOL    HW121419   0.719   1.518   5.838
 6840SOL    HW221420   0.806   1.405   5.759
 6841SOL     OW21421   6.719   2.879   5.659
 6841SOL    HW121422   6.784   2.950   5.632
 6841SOL    HW221423   6.637   2.921   5.698
 6842SOL     OW21424   2.635   4.596   2.848
 6842SOL    HW121425   2.604   4.650   2.926
 6842SOL    HW221426   2.735   4.589   2.849
 6843SOL     OW21427   3.111   6.307   1.415
 6843SOL    HW121428   3.148   6.215   1.428
 6843SOL    HW221429   3.011   6.304   1.422
 6844SOL     OW21430   5.803   6.965   5.211
 6844SOL    HW121431   5.872   7.020   5.257
 6844SOL    HW221432   5.770   7.015   5.130
 6845SOL     OW21433   5.936   2.459   3.433
 6845SOL    HW121434   5.917   2.423   3.342
 6845SOL    HW221435   5.860   2.437   3.495
 6846SOL     OW21436   1.389   3.661   0.935
 6846SOL    HW121437   1.460   3.730   0.945
 6846SOL    HW221438   1.347   3.642   1.024
 6847SOL     OW21439   6.748   1.857   3.654
 6847SOL    HW121440   6.802   1.802   3.590
 6847SOL    HW221441   6.807   1.927   3.695
 6848SOL     OW21442   6.932   4.011   3.940
 6848SOL    HW121443   6.926   4.065   4.024
 6848SOL    HW221444   6.872   3.931   3.947
 6849SOL     OW21445   2.830   4.030   5.440
 6849SOL    HW121446   2.886   4.090   5.383
 6849SOL    HW221447   2.735   4.062   5.438
 6850SOL     OW21448   5.888   0.644   4.211
 6850SOL    HW121449   5.807   0.690   4.175
 6850SOL    HW221450   5.947   0.710   4.257
 6851SOL     OW21451   2.417   4.357   3.673
 6851SOL    HW121452   2.323   4.349   3.706
 6851SOL    HW221453   2.479   4.366   3.750
 6852SOL     OW21454   4.586   2.974   0.647
 6852SOL    HW121455   4.519   2.932   0.708
 6852SOL    HW221456   4.586   2.926   0.560
 6853SOL     OW21457   5.544   5.238   5.936
 6853SOL    HW121458   5.571   5.322   5.985
 6853SOL    HW221459   5.555   5.253   5.837
 6854SOL     OW21460   5.659   6.080   5.712
 6854SOL    HW121461   5.694   6.141   5.784
 6854SOL    HW221462   5.584   6.024   5.749
 6855SOL     OW21463   4.891   6.225   3.173
 6855SOL    HW121464   4.878   6.209   3.075
 6855SOL    HW221465   4.957   6.299   3.187
 6856SOL     OW21466   6.550   2.410   1.203
 6856SOL    HW121467   6.558   2.313   1.178
 6856SOL    HW221468   6.470   2.422   1.262
 6857SOL     OW21469   1.160   4.525   5.216
 6857SOL    HW121470   1.196   4.477   5.137
 6857SOL    HW221471   1.061   4.534   5.208
 6858SOL     OW21472   1.270   3.325   1.483
 6858SOL    HW121473   1.174   3.335   1.512
 6858SOL    HW221474   1.330   3.358   1.556
 6859SOL     OW21475   2.326   2.297   0.517
 6859SOL    HW121476   2.378   2.359   0.459
 6859SOL    HW221477   2.243   2.343   0.549
 6860SOL     OW21478   0.435   0.215   6.658
 6860SOL    HW121479   0.450   0.271   6.576
 6860SOL    HW221480   0.421   0.120   6.630
 6861SOL     OW21481   5.850   3.565   0.082
 6861SOL    HW121482   5.888   3.627   0.014
 6861SOL    HW221483   5.862   3.470   0.051
 6862SOL     OW21484   0.380   5.354   2.843
 6862SOL    HW121485   0.438   5.341   2.762
 6862SOL    HW221486   0.408   5.290   2.914
 6863SOL     OW21487   5.114   1.208   5.176
 6863SOL    HW121488   5.138   1.298   5.140
 6863SOL    HW221489   5.113   1.211   5.276
 6864SOL     OW21490   2.392   3.689   6.471
 6864SOL    HW121491   2.463   3.759   6.462
 6864SOL    HW221492   2.306   3.732   6.498
 6865SOL     OW21493   1.728   1.122   2.941
 6865SOL    HW121494   1.766   1.187   3.007
 6865SOL    HW221495   1.715   1.167   2.853
 6866SOL     OW21496   1.307   4.983   6.166
 6866SOL    HW121497   1.353   4.902   6.129
 6866SOL    HW221498   1.306   4.978   6.266
 6867SOL     OW21499   1.696   1.992   6.654
 6867SOL    HW121500   1.726   2.022   6.744
 6867SOL    HW221501   1.765   1.932   6.614
 6868SOL     OW21502   4.234   5.037   3.769
 6868SOL    HW121503   4.219   5.064   3.674
 6868SOL    HW221504   4.328   5.006   3.781
 6869SOL     OW21505   0.977   0.539   5.584
 6869SOL    HW121506   1.067   0.565   5.549
 6869SOL    HW221507   0.928   0.489   5.513
 6870SOL     OW21508   6.515   3.136   6.159
 6870SOL    HW121509   6.502   3.160   6.255
 6870SOL    HW221510   6.564   3.048   6.154
 6871SOL     OW21511   5.916   2.848   3.717
 6871SOL    HW121512   5.864   2.808   3.642
 6871SOL    HW221513   5.964   2.930   3.684
 6872SOL     OW21514   2.416   4.772   1.532
 6872SOL    HW121515   2.426   4.851   1.591
 6872SOL    HW221516   2.327   4.774   1.486
 6873SOL     OW21517   0.301   3.279   2.936
 6873SOL    HW121518   0.376   3.222   2.968
 6873SOL    HW221519   0.338   3.367   2.906
 6874SOL     OW21520   3.473   6.254   1.703
 6874SOL    HW121521   3.522   6.171   1.731
 6874SOL    HW221522   3.473   6.260   1.603
 6875SOL     OW21523   2.802   0.393   6.412
 6875SOL    HW121524   2.857   0.391   6.496
 6875SOL    HW221525   2.715   0.348   6.430
 6876SOL     OW21526   5.669   5.863   3.103
 6876SOL    HW121527   5.604   5.840   3.031
 6876SOL    HW221528   5.717   5.780   3.132
 6877SOL     OW21529   1.488   3.698   1.731
 6877SOL    HW121530   1.585   3.674   1.727
 6877SOL    HW221531   1.470   3.755   1.811
 6878SOL     OW21532   1.366   0.213   3.518
 6878SOL    HW121533   1.387   0.167   3.604
 6878SOL    HW221534   1.328   0.304   3.537
 6879SOL     OW21535   1.582   1.512   1.149
 6879SOL    HW121536   1.593   1.420   1.186
 6879SOL    HW221537   1.523   1.509   1.068
 6880SOL     OW21538   0.920   6.798   0.234
 6880SOL    HW121539   0.915   6.887   0.279
 6880SOL    HW221540   0.827   6.765   0.214
 6881SOL     OW21541   6.554   3.571   1.655
 6881SOL    HW121542   6.563   3.495   1.720
 6881SOL    HW221543   6.561   3.658   1.703
 6882SOL     OW21544   2.772   6.759   6.716
 6882SOL    HW121545   2.766   6.833   6.649
 6882SOL    HW221546   2.840   6.691   6.686
 6883SOL     OW21547   4.563   7.014   0.836
 6883SOL    HW121548   4.567   6.991   0.933
 6883SOL    HW221549   4.549   6.931   0.782
 6884SOL     OW21550   1.439   5.646   3.126
 6884SOL    HW121551   1.387   5.665   3.209
 6884SOL    HW221552   1.423   5.720   3.060
 6885SOL     OW21553   5.451   4.457   4.610
 6885SOL    HW121554   5.507   4.539   4.599
 6885SOL    HW221555   5.511   4.377   4.621
 6886SOL     OW21556   5.854   3.374   0.626
 6886SOL    HW121557   5.786   3.341   0.691
 6886SOL    HW221558   5.888   3.297   0.572
 6887SOL     OW21559   5.356   6.200   5.796
 6887SOL    HW121560   5.430   6.258   5.763
 6887SOL    HW221561   5.393   6.118   5.838
 6888SOL     OW21562   6.959   4.314   1.498
 6888SOL    HW121563   6.904   4.320   1.414
 6888SOL    HW221564   6.905   4.346   1.575
 6889SOL     OW21565   0.559   2.836   5.492
 6889SOL    HW121566   0.621   2.763   5.521
 6889SOL    HW221567   0.483   2.796   5.441
 6890SOL     OW21568   4.899   4.626   4.141
 6890SOL    HW121569   4.974   4.688   4.162
 6890SOL    HW221570   4.936   4.541   4.102
 6891SOL     OW21571   1.531   1.647   0.502
 6891SOL    HW121572   1.507   1.742   0.485
 6891SOL    HW221573   1.545   1.601   0.414
 6892SOL     OW21574   0.986   0.817   5.273
 6892SOL    HW121575   1.021   0.882   5.341
 6892SOL    HW221576   0.892   0.793   5.296
 6893SOL     OW21577   5.987   3.537   1.145
 6893SOL    HW121578   6.081   3.504   1.154
 6893SOL    HW221579   5.926   3.461   1.125
 6894SOL     OW21580   5.559   5.228   0.088
 6894SOL    HW121581   5.534   5.218   0.184
 6894SOL    HW221582   5.505   5.303   0.047
 6895SOL     OW21583   1.200   5.335   3.084
 6895SOL    HW121584   1.111   5.375   3.063
 6895SOL    HW221585   1.257   5.335   3.002
 6896SOL     OW21586   4.615   0.957   6.220
 6896SOL    HW121587   4.697   0.917   6.181
 6896SOL    HW221588   4.601   1.049   6.183
 6897SOL     OW21589   4.401   2.448   4.782
 6897SOL    HW121590   4.336   2.473   4.854
 6897SOL    HW221591   4.478   2.511   4.782
 6898SOL     OW21592   1.875   6.024   0.953
 6898SOL    HW121593   1.914   6.076   1.030
 6898SOL    HW221594   1.776   6.031   0.956
 6899SOL     OW21595   6.122   5.053   3.159
 6899SOL    HW121596   6.204   5.110   3.152
 6899SOL    HW221597   6.041   5.111   3.158
 6900SOL     OW21598   0.516   4.581   4.767
 6900SOL    HW121599   0.576   4.538   4.700
 6900SOL    HW221600   0.443   4.517   4.792
 6901SOL     OW21601   4.837   4.222   6.131
 6901SOL    HW121602   4.780   4.154   6.084
 6901SOL    HW221603   4.933   4.206   6.109
 6902SOL     OW21604   0.124   5.993   5.034
 6902SOL    HW121605   0.171   6.035   4.957
 6902SOL    HW221606   0.162   6.027   5.120
 6903SOL     OW21607   0.556   6.617   5.045
 6903SOL    HW121608   0.651   6.600   5.022
 6903SOL    HW221609   0.497   6.560   4.988
 6904SOL     OW21610   0.192   0.135   6.425
 6904SOL    HW121611   0.127   0.059   6.423
 6904SOL    HW221612   0.246   0.132   6.509
 6905SOL     OW21613   4.366   5.582   5.277
 6905SOL    HW121614   4.435   5.613   5.211
 6905SOL    HW221615   4.318   5.503   5.241
 6906SOL     OW21616   2.305   2.128   3.578
 6906SOL    HW121617   2.257   2.164   3.498
 6906SOL    HW221618   2.330   2.204   3.638
 6907SOL     OW21619   5.581   3.486   0.372
 6907SOL    HW121620   5.521   3.452   0.299
 6907SOL    HW221621   5.529   3.494   0.457
 6908SOL     OW21622   2.760   5.577   1.011
 6908SOL    HW121623   2.718   5.486   1.013
 6908SOL    HW221624   2.709   5.638   1.072
 6909SOL     OW21625   5.931   5.110   2.201
 6909SOL    HW121626   5.945   5.018   2.236
 6909SOL    HW221627   5.915   5.107   2.103
 6910SOL     OW21628   1.821   2.473   2.512
 6910SOL    HW121629   1.847   2.411   2.586
 6910SOL    HW221630   1.827   2.425   2.425
 6911SOL     OW21631   1.938   6.879   5.387
 6911SOL    HW121632   2.030   6.842   5.392
 6911SOL    HW221633   1.902   6.868   5.295
 6912SOL     OW21634   2.329   4.171   6.127
 6912SOL    HW121635   2.388   4.115   6.069
 6912SOL    HW221636   2.270   4.227   6.070
 6913SOL     OW21637   3.997   5.364   6.114
 6913SOL    HW121638   4.043   5.445   6.150
 6913SOL    HW221639   3.905   5.388   6.084
 6914SOL     OW21640   0.971   1.858   2.256
 6914SOL    HW121641   0.966   1.885   2.352
 6914SOL    HW221642   0.969   1.939   2.198
 6915SOL     OW21643   5.804   2.851   4.075
 6915SOL    HW121644   5.774   2.825   3.983
 6915SOL    HW221645   5.881   2.793   4.102
 6916SOL     OW21646   4.399   6.105   5.758
 6916SOL    HW121647   4.419   6.092   5.661
 6916SOL    HW221648   4.319   6.049   5.783
 6917SOL     OW21649   3.343   5.667   2.205
 6917SOL    HW121650   3.405   5.727   2.154
 6917SOL    HW221651   3.380   5.574   2.205
 6918SOL     OW21652   1.396   3.630   6.078
 6918SOL    HW121653   1.420   3.598   5.987
 6918SOL    HW221654   1.478   3.660   6.127
 6919SOL     OW21655   6.344   5.976   3.541
 6919SOL    HW121656   6.422   5.983   3.604
 6919SOL    HW221657   6.259   5.983   3.593
 6920SOL     OW21658   0.173   3.622   5.117
 6920SOL    HW121659   0.195   3.530   5.085
 6920SOL    HW221660   0.258   3.672   5.134
 6921SOL     OW21661   3.581   0.176   5.726
 6921SOL    HW121662   3.512   0.189   5.797
 6921SOL    HW221663   3.630   0.262   5.711
 6922SOL     OW21664   2.743   3.971   6.749
 6922SOL    HW121665   2.829   3.946   6.704
 6922SOL    HW221666   2.760   3.990   6.846
 6923SOL     OW21667   4.987   6.761   2.441
 6923SOL    HW121668   4.917   6.828   2.417
 6923SOL    HW221669   4.978   6.736   2.537
 6924SOL     OW21670   3.113   4.927   1.406
 6924SOL    HW121671   3.069   5.006   1.363
 6924SOL    HW221672   3.211   4.944   1.415
 6925SOL     OW21673   6.069   0.259   4.251
 6925SOL    HW121674   6.076   0.161   4.235
 6925SOL    HW221675   6.003   0.276   4.324
 6926SOL     OW21676   2.343   3.027   0.251
 6926SOL    HW121677   2.397   3.084   0.313
 6926SOL    HW221678   2.398   2.949   0.222
 6927SOL     OW21679   3.687   6.802   5.628
 6927SOL    HW121680   3.677   6.768   5.722
 6927SOL    HW221681   3.640   6.889   5.619
 6928SOL     OW21682   4.098   5.618   0.691
 6928SOL    HW121683   4.072   5.543   0.751
 6928SOL    HW221684   4.086   5.705   0.740
 6929SOL     OW21685   4.550   6.080   3.712
 6929SOL    HW121686   4.634   6.053   3.760
 6929SOL    HW221687   4.574   6.121   3.624
 6930SOL     OW21688   0.645   6.294   2.552
 6930SOL    HW121689   0.665   6.225   2.483
 6930SOL    HW221690   0.717   6.294   2.622
 6931SOL     OW21691   4.196   2.578   0.152
 6931SOL    HW121692   4.217   2.519   0.230
 6931SOL    HW221693   4.242   2.543   0.071
 6932SOL     OW21694   3.934   0.848   6.709
 6932SOL    HW121695   3.855   0.787   6.720
 6932SOL    HW221696   3.906   0.932   6.663
 6933SOL     OW21697   3.677   5.918   6.154
 6933SOL    HW121698   3.747   5.847   6.151
 6933SOL    HW221699   3.674   5.966   6.066
 6934SOL     OW21700   4.384   5.647   6.971
 6934SOL    HW121701   4.399   5.738   7.009
 6934SOL    HW221702   4.327   5.655   6.889
 6935SOL     OW21703   4.115   5.936   2.098
 6935SOL    HW121704   4.026   5.979   2.117
 6935SOL    HW221705   4.137   5.947   2.002
 6936SOL     OW21706   1.443   1.147   0.370
 6936SOL    HW121707   1.441   1.155   0.270
 6936SOL    HW221708   1.373   1.207   0.409
 6937SOL     OW21709   6.597   4.273   0.245
 6937SOL    HW121710   6.540   4.191   0.247
 6937SOL    HW221711   6.683   4.254   0.197
 6938SOL     OW21712   2.631   0.140   5.580
 6938SOL    HW121713   2.627   0.228   5.628
 6938SOL    HW221714   2.725   0.122   5.552
 6939SOL     OW21715   6.419   3.001   3.571
 6939SOL    HW121716   6.405   3.051   3.657
 6939SOL    HW221717   6.330   2.971   3.535
 6940SOL     OW21718   0.509   7.005   0.957
 6940SOL    HW121719   0.418   6.971   0.983
 6940SOL    HW221720   0.520   6.999   0.858
 6941SOL     OW21721   4.058   3.155   2.356
 6941SOL    HW121722   3.985   3.087   2.350
 6941SOL    HW221723   4.143   3.111   2.385
 6942SOL     OW21724   0.477   5.629   2.703
 6942SOL    HW121725   0.452   5.532   2.706
 6942SOL    HW221726   0.524   5.654   2.788
 6943SOL     OW21727   3.371   5.651   5.126
 6943SOL    HW121728   3.275   5.649   5.099
 6943SOL    HW221729   3.382   5.710   5.206
 6944SOL     OW21730   1.017   5.007   6.340
 6944SOL    HW121731   1.071   5.082   6.301
 6944SOL    HW221732   1.077   4.942   6.385
 6945SOL     OW21733   3.726   1.915   1.105
 6945SOL    HW121734   3.794   1.854   1.144
 6945SOL    HW221735   3.674   1.958   1.179
 6946SOL     OW21736   5.837   5.340   3.995
 6946SOL    HW121737   5.904   5.336   3.920
 6946SOL    HW221738   5.749   5.309   3.961
 6947SOL     OW21739   6.447   3.115   5.472
 6947SOL    HW121740   6.423   3.045   5.540
 6947SOL    HW221741   6.547   3.118   5.462
 6948SOL     OW21742   0.524   5.628   0.149
 6948SOL    HW121743   0.444   5.667   0.193
 6948SOL    HW221744   0.567   5.696   0.090
 6949SOL     OW21745   1.872   1.644   3.518
 6949SOL    HW121746   1.837   1.582   3.449
 6949SOL    HW221747   1.795   1.683   3.569
 6950SOL     OW21748   2.131   1.331   4.159
 6950SOL    HW121749   2.067   1.323   4.235
 6950SOL    HW221750   2.202   1.398   4.181
 6951SOL     OW21751   0.959   3.357   0.292
 6951SOL    HW121752   0.866   3.325   0.313
 6951SOL    HW221753   0.955   3.450   0.256
 6952SOL     OW21754   4.846   4.989   4.054
 6952SOL    HW121755   4.815   4.973   4.147
 6952SOL    HW221756   4.868   5.086   4.042
 6953SOL     OW21757   0.604   0.705   1.696
 6953SOL    HW121758   0.625   0.654   1.780
 6953SOL    HW221759   0.624   0.649   1.616
 6954SOL     OW21760   6.806   5.439   6.789
 6954SOL    HW121761   6.905   5.430   6.797
 6954SOL    HW221762   6.770   5.364   6.732
 6955SOL     OW21763   3.833   5.603   3.087
 6955SOL    HW121764   3.857   5.649   3.002
 6955SOL    HW221765   3.738   5.572   3.083
 6956SOL     OW21766   6.253   4.563   3.164
 6956SOL    HW121767   6.186   4.570   3.090
 6956SOL    HW221768   6.343   4.591   3.130
 6957SOL     OW21769   5.335   4.238   5.504
 6957SOL    HW121770   5.411   4.175   5.510
 6957SOL    HW221771   5.363   4.320   5.454
 6958SOL     OW21772   3.455   3.566   1.946
 6958SOL    HW121773   3.435   3.485   1.890
 6958SOL    HW221774   3.426   3.550   2.040
 6959SOL     OW21775   6.968   3.479   3.126
 6959SOL    HW121776   6.954   3.384   3.153
 6959SOL    HW221777   6.987   3.534   3.207
 6960SOL     OW21778   4.918   4.906   0.169
 6960SOL    HW121779   4.986   4.979   0.162
 6960SOL    HW221780   4.961   4.819   0.144
 6961SOL     OW21781   4.709   2.817   4.244
 6961SOL    HW121782   4.763   2.846   4.164
 6961SOL    HW221783   4.733   2.873   4.323
 6962SOL     OW21784   2.616   6.794   0.419
 6962SOL    HW121785   2.552   6.717   0.413
 6962SOL    HW221786   2.663   6.804   0.331
 6963SOL     OW21787   0.426   0.282   6.907
 6963SOL    HW121788   0.507   0.328   6.943
 6963SOL    HW221789   0.448   0.238   6.820
 6964SOL     OW21790   2.818   1.551   5.372
 6964SOL    HW121791   2.836   1.565   5.275
 6964SOL    HW221792   2.809   1.453   5.390
 6965SOL     OW21793   1.882   1.396   0.528
 6965SOL    HW121794   1.842   1.365   0.442
 6965SOL    HW221795   1.981   1.384   0.525
 6966SOL     OW21796   0.959   6.317   0.503
 6966SOL    HW121797   0.891   6.339   0.572
 6966SOL    HW221798   0.913   6.288   0.419
 6967SOL     OW21799   3.889   6.763   0.121
 6967SOL    HW121800   3.878   6.862   0.115
 6967SOL    HW221801   3.945   6.731   0.045
 6968SOL     OW21802   4.602   0.622   1.610
 6968SOL    HW121803   4.655   0.660   1.685
 6968SOL    HW221804   4.665   0.587   1.540
 6969SOL     OW21805   1.496   3.455   2.704
 6969SOL    HW121806   1.429   3.488   2.638
 6969SOL    HW221807   1.581   3.506   2.692
 6970SOL     OW21808   2.905   5.766   5.660
 6970SOL    HW121809   2.945   5.702   5.595
 6970SOL    HW221810   2.955   5.852   5.657
 6971SOL     OW21811   6.966   3.784   0.277
 6971SOL    HW121812   7.015   3.834   0.206
 6971SOL    HW221813   6.875   3.758   0.243
 6972SOL     OW21814   5.817   3.214   1.304
 6972SOL    HW121815   5.858   3.266   1.229
 6972SOL    HW221816   5.762   3.139   1.267
 6973SOL     OW21817   1.086   0.851   2.774
 6973SOL    HW121818   1.052   0.832   2.866
 6973SOL    HW221819   1.111   0.948   2.767
 6974SOL     OW21820   4.034   3.745   2.786
 6974SOL    HW121821   4.066   3.651   2.777
 6974SOL    HW221822   3.941   3.746   2.820
 6975SOL     OW21823   2.980   5.892   5.368
 6975SOL    HW121824   3.009   5.985   5.343
 6975SOL    HW221825   2.888   5.875   5.334
 6976SOL     OW21826   5.056   5.186   5.447
 6976SOL    HW121827   4.977   5.138   5.407
 6976SOL    HW221828   5.052   5.178   5.547
 6977SOL     OW21829   4.339   5.388   2.482
 6977SOL    HW121830   4.254   5.428   2.514
 6977SOL    HW221831   4.321   5.301   2.437
 6978SOL     OW21832   0.385   3.502   0.799
 6978SOL    HW121833   0.285   3.506   0.801
 6978SOL    HW221834   0.415   3.410   0.827
 6979SOL     OW21835   1.172   4.038   2.798
 6979SOL    HW121836   1.193   4.136   2.801
 6979SOL    HW221837   1.119   4.013   2.879
 6980SOL     OW21838   3.203   5.138   3.089
 6980SOL    HW121839   3.103   5.139   3.089
 6980SOL    HW221840   3.236   5.061   3.143
 6981SOL     OW21841   4.155   2.893   6.908
 6981SOL    HW121842   4.208   2.968   6.869
 6981SOL    HW221843   4.178   2.808   6.861
 6982SOL     OW21844   6.891   6.122   2.267
 6982SOL    HW121845   6.921   6.126   2.363
 6982SOL    HW221846   6.955   6.067   2.214
 6983SOL     OW21847   6.633   0.386   4.242
 6983SOL    HW121848   6.680   0.466   4.279
 6983SOL    HW221849   6.697   0.330   4.190
 6984SOL     OW21850   1.636   4.124   3.267
 6984SOL    HW121851   1.565   4.105   3.335
 6984SOL    HW221852   1.598   4.111   3.175
 6985SOL     OW21853   5.037   3.249   0.717
 6985SOL    HW121854   4.961   3.187   0.700
 6985SOL    HW221855   5.123   3.199   0.712
 6986SOL     OW21856   4.589   6.011   4.917
 6986SOL    HW121857   4.575   5.927   4.970
 6986SOL    HW221858   4.651   6.072   4.967
 6987SOL     OW21859   0.431   1.447   6.936
 6987SOL    HW121860   0.341   1.484   6.960
 6987SOL    HW221861   0.491   1.521   6.906
 6988SOL     OW21862   1.117   0.586   6.425
 6988SOL    HW121863   1.099   0.548   6.334
 6988SOL    HW221864   1.207   0.556   6.456
 6989SOL     OW21865   0.486   3.109   2.290
 6989SOL    HW121866   0.437   3.129   2.205
 6989SOL    HW221867   0.471   3.184   2.354
 6990SOL     OW21868   3.005   4.993   6.453
 6990SOL    HW121869   3.097   4.959   6.438
 6990SOL    HW221870   2.970   4.959   6.540
 6991SOL     OW21871   5.551   4.296   4.353
 6991SOL    HW121872   5.487   4.232   4.395
 6991SOL    HW221873   5.501   4.376   4.321
 6992SOL     OW21874   1.871   5.498   5.882
 6992SOL    HW121875   1.834   5.586   5.914
 6992SOL    HW221876   1.817   5.467   5.803
 6993SOL     OW21877   4.503   2.396   1.786
 6993SOL    HW121878   4.489   2.390   1.884
 6993SOL    HW221879   4.526   2.306   1.749
 6994SOL     OW21880   2.308   1.029   2.861
 6994SOL    HW121881   2.253   1.068   2.934
 6994SOL    HW221882   2.397   1.074   2.859
 6995SOL     OW21883   6.683   5.423   0.189
 6995SOL    HW121884   6.608   5.488   0.191
 6995SOL    HW221885   6.767   5.469   0.162
 6996SOL     OW21886   1.401   0.758   0.018
 6996SOL    HW121887   1.412   0.822   6.966
 6996SOL    HW221888   1.363   0.806   0.097
 6997SOL     OW21889   5.888   5.876   6.361
 6997SOL    HW121890   5.912   5.791   6.408
 6997SOL    HW221891   5.969   5.935   6.358
 6998SOL     OW21892   0.284   0.888   5.679
 6998SOL    HW121893   0.367   0.843   5.711
 6998SOL    HW221894   0.265   0.968   5.736
 6999SOL     OW21895   0.995   2.687   6.928
 6999SOL    HW121896   1.023   2.733   6.844
 6999SOL    HW221897   0.896   2.669   6.925
 7000SOL     OW21898   0.815   5.298   2.301
 7000SOL    HW121899   0.793   5.368   2.232
 7000SOL    HW221900   0.863   5.341   2.377
 7001SOL     OW21901   0.925   1.391   3.677
 7001SOL    HW121902   0.904   1.392   3.580
 7001SOL    HW221903   1.023   1.409   3.690
 7002SOL     OW21904   1.405   4.516   3.158
 7002SOL    HW121905   1.468   4.495   3.233
 7002SOL    HW221906   1.456   4.551   3.080
 7003SOL     OW21907   0.116   5.536   6.511
 7003SOL    HW121908   0.085   5.627   6.485
 7003SOL    HW221909   0.204   5.517   6.467
 7004SOL     OW21910   0.930   0.385   0.102
 7004SOL    HW121911   0.931   0.480   0.132
 7004SOL    HW221912   1.015   0.365   0.053
 7005SOL     OW21913   2.156   4.937   0.487
 7005SOL    HW121914   2.117   4.878   0.557
 7005SOL    HW221915   2.232   4.990   0.525
 7006SOL     OW21916   1.206   0.774   3.809
 7006SOL    HW121917   1.157   0.696   3.769
 7006SOL    HW221918   1.285   0.797   3.752
 7007SOL     OW21919   1.972   6.440   6.349
 7007SOL    HW121920   1.920   6.441   6.434
 7007SOL    HW221921   1.949   6.359   6.296
 7008SOL     OW21922   6.149   3.021   3.133
 7008SOL    HW121923   6.215   3.085   3.174
 7008SOL    HW221924   6.083   3.072   3.078
 7009SOL     OW21925   5.244   5.432   2.442
 7009SOL    HW121926   5.282   5.449   2.533
 7009SOL    HW221927   5.229   5.519   2.395
 7010SOL     OW21928   4.826   2.425   3.042
 7010SOL    HW121929   4.741   2.379   3.018
 7010SOL    HW221930   4.902   2.361   3.037
 7011SOL     OW21931   1.911   5.810   6.755
 7011SOL    HW121932   1.838   5.879   6.764
 7011SOL    HW221933   1.995   5.854   6.724
 7012SOL     OW21934   0.583   3.570   0.259
 7012SOL    HW121935   0.607   3.476   0.235
 7012SOL    HW221936   0.608   3.631   0.183
 7013SOL     OW21937   2.538   2.432   6.963
 7013SOL    HW121938   2.619   2.407   7.017
 7013SOL    HW221939   2.540   2.529   6.942
 7014SOL     OW21940   7.020   3.950   1.059
 7014SOL    HW121941   6.942   3.962   1.120
 7014SOL    HW221942   0.019   4.037   1.016
 7015SOL     OW21943   6.329   6.620   0.812
 7015SOL    HW121944   6.290   6.577   0.894
 7015SOL    HW221945   6.356   6.548   0.747
 7016SOL     OW21946   2.604   5.363   1.023
 7016SOL    HW121947   2.548   5.377   1.104
 7016SOL    HW221948   2.642   5.270   1.023
 7017SOL     OW21949   5.915   3.766   6.924
 7017SOL    HW121950   5.902   3.819   6.840
 7017SOL    HW221951   6.012   3.749   6.938
 7018SOL     OW21952   6.762   2.303   4.161
 7018SOL    HW121953   6.663   2.318   4.172
 7018SOL    HW221954   6.803   2.384   4.119
 7019SOL     OW21955   3.041   6.120   2.377
 7019SOL    HW121956   3.138   6.119   2.356
 7019SOL    HW221957   3.026   6.170   2.462
 7020SOL     OW21958   6.611   1.976   0.623
 7020SOL    HW121959   6.660   2.058   0.595
 7020SOL    HW221960   6.651   1.896   0.579
 7021SOL     OW21961   0.807   2.317   4.685
 7021SOL    HW121962   0.752   2.313   4.601
 7021SOL    HW221963   0.758   2.368   4.755
 7022SOL     OW21964   2.006   3.643   1.106
 7022SOL    HW121965   2.008   3.706   1.028
 7022SOL    HW221966   2.064   3.680   1.179
 7023SOL     OW21967   6.610   1.875   1.134
 7023SOL    HW121968   6.671   1.849   1.208
 7023SOL    HW221969   6.517   1.844   1.154
 7024SOL     OW21970   3.629   4.480   5.341
 7024SOL    HW121971   3.539   4.473   5.385
 7024SOL    HW221972   3.642   4.402   5.280
 7025SOL     OW21973   3.795   0.756   1.229
 7025SOL    HW121974   3.860   0.691   1.190
 7025SOL    HW221975   3.792   0.838   1.172
 7026SOL     OW21976   3.101   2.442   1.071
 7026SOL    HW121977   3.198   2.417   1.079
 7026SOL    HW221978   3.056   2.428   1.159
 7027SOL     OW21979   2.684   4.498   0.659
 7027SOL    HW121980   2.707   4.420   0.716
 7027SOL    HW221981   2.710   4.479   0.564
 7028SOL     OW21982   2.841   0.325   2.123
 7028SOL    HW121983   2.776   0.376   2.180
 7028SOL    HW221984   2.831   0.353   2.028
 7029SOL     OW21985   3.404   4.008   2.914
 7029SOL    HW121986   3.334   4.025   2.846
 7029SOL    HW221987   3.455   3.926   2.890
 7030SOL     OW21988   5.571   6.807   4.648
 7030SOL    HW121989   5.619   6.762   4.723
 7030SOL    HW221990   5.624   6.886   4.618
 7031SOL     OW21991   5.261   4.753   1.401
 7031SOL    HW121992   5.346   4.721   1.359
 7031SOL    HW221993   5.275   4.768   1.498
 7032SOL     OW21994   3.661   5.076   3.916
 7032SOL    HW121995   3.674   5.175   3.922
 7032SOL    HW221996   3.571   5.052   3.954
 7033SOL     OW21997   2.758   2.129   5.652
 7033SOL    HW121998   2.750   2.192   5.575
 7033SOL    HW221999   2.830   2.062   5.633
 7034SOL     OW22000   6.661   2.558   3.068
 7034SOL    HW122001   6.639   2.518   3.157
 7034SOL    HW222002   6.579   2.564   3.013
 7035SOL     OW22003   3.373   2.635   0.870
 7035SOL    HW122004   3.346   2.682   0.954
 7035SOL    HW222005   3.305   2.563   0.850
 7036SOL     OW22006   6.773   1.961   2.037
 7036SOL    HW122007   6.759   2.046   1.986
 7036SOL    HW222008   6.687   1.933   2.079
 7037SOL     OW22009   0.506   1.498   5.446
 7037SOL    HW122010   0.484   1.439   5.524
 7037SOL    HW222011   0.476   1.454   5.361
 7038SOL     OW22012   1.572   3.882   6.584
 7038SOL    HW122013   1.549   3.798   6.535
 7038SOL    HW222014   1.553   3.870   6.682
 7039SOL     OW22015   5.979   0.418   1.403
 7039SOL    HW122016   5.948   0.344   1.344
 7039SOL    HW222017   6.079   0.417   1.409
 7040SOL     OW22018   5.241   3.008   4.797
 7040SOL    HW122019   5.253   2.930   4.735
 7040SOL    HW222020   5.204   3.086   4.747
 7041SOL     OW22021   0.933   6.173   2.993
 7041SOL    HW122022   0.998   6.147   2.922
 7041SOL    HW222023   0.980   6.184   3.080
 7042SOL     OW22024   4.564   4.929   5.619
 7042SOL    HW122025   4.534   4.986   5.696
 7042SOL    HW222026   4.485   4.904   5.563
 7043SOL     OW22027   2.434   5.850   0.404
 7043SOL    HW122028   2.445   5.805   0.316
 7043SOL    HW222029   2.450   5.783   0.477
 7044SOL     OW22030   4.965   6.075   5.407
 7044SOL    HW122031   5.000   5.982   5.397
 7044SOL    HW222032   4.895   6.076   5.479
 7045SOL     OW22033   5.235   0.686   1.497
 7045SOL    HW122034   5.165   0.748   1.534
 7045SOL    HW222035   5.238   0.603   1.553
 7046SOL     OW22036   3.083   0.701   2.007
 7046SOL    HW122037   2.991   0.694   2.045
 7046SOL    HW222038   3.149   0.666   2.072
 7047SOL     OW22039   1.004   0.109   1.260
 7047SOL    HW122040   1.035   0.179   1.196
 7047SOL    HW222041   0.909   0.127   1.286
 7048SOL     OW22042   0.587   5.413   4.818
 7048SOL    HW122043   0.653   5.367   4.877
 7048SOL    HW222044   0.508   5.441   4.872
 7049SOL     OW22045   2.716   1.783   4.859
 7049SOL    HW122046   2.759   1.774   4.769
 7049SOL    HW222047   2.644   1.852   4.855
 7050SOL     OW22048   4.133   4.205   0.738
 7050SOL    HW122049   4.064   4.165   0.677
 7050SOL    HW222050   4.224   4.188   0.701
 7051SOL     OW22051   2.055   1.035   2.446
 7051SOL    HW122052   2.000   0.989   2.378
 7051SOL    HW222053   2.014   1.023   2.537
 7052SOL     OW22054   5.662   2.332   3.054
 7052SOL    HW122055   5.703   2.397   2.989
 7052SOL    HW222056   5.629   2.252   3.004
 7053SOL     OW22057   0.485   4.434   3.080
 7053SOL    HW122058   0.535   4.402   3.160
 7053SOL    HW222059   0.458   4.356   3.024
 7054SOL     OW22060   5.209   6.397   0.752
 7054SOL    HW122061   5.259   6.461   0.694
 7054SOL    HW222062   5.255   6.389   0.841
 7055SOL     OW22063   2.018   0.009   6.949
 7055SOL    HW122064   1.944   0.031   6.886
 7055SOL    HW222065   2.083   6.973   6.905
 7056SOL     OW22066   0.864   5.521   1.654
 7056SOL    HW122067   0.846   5.465   1.573
 7056SOL    HW222068   0.900   5.610   1.626
 7057SOL     OW22069   2.924   6.451   4.787
 7057SOL    HW122070   2.887   6.543   4.795
 7057SOL    HW222071   3.019   6.455   4.755
 7058SOL     OW22072   5.767   2.892   5.643
 7058SOL    HW122073   5.701   2.865   5.712
 7058SOL    HW222074   5.800   2.984   5.663
 7059SOL     OW22075   2.111   0.902   3.916
 7059SOL    HW122076   2.156   0.831   3.970
 7059SOL    HW222077   2.160   0.988   3.927
 7060SOL     OW22078   2.505   2.526   0.958
 7060SOL    HW122079   2.603   2.529   0.937
 7060SOL    HW222080   2.478   2.611   1.003
 7061SOL     OW22081   1.163   6.729   0.943
 7061SOL    HW122082   1.130   6.802   0.883
 7061SOL    HW222083   1.141   6.640   0.902
 7062SOL     OW22084   3.496   0.625   5.373
 7062SOL    HW122085   3.590   0.590   5.374
 7062SOL    HW222086   3.435   0.558   5.414
 7063SOL     OW22087   0.259   1.127   1.384
 7063SOL    HW122088   0.250   1.126   1.285
 7063SOL    HW222089   0.260   1.222   1.416
 7064SOL     OW22090   2.611   1.673   5.795
 7064SOL    HW122091   2.642   1.764   5.768
 7064SOL    HW222092   2.514   1.677   5.819
 7065SOL     OW22093   2.929   0.164   2.746
 7065SOL    HW122094   2.875   0.113   2.813
 7065SOL    HW222095   2.915   0.126   2.655
 7066SOL     OW22096   4.318   1.262   1.377
 7066SOL    HW122097   4.387   1.286   1.446
 7066SOL    HW222098   4.285   1.345   1.333
 7067SOL     OW22099   2.962   4.490   5.947
 7067SOL    HW122100   3.043   4.518   5.896
 7067SOL    HW222101   2.982   4.406   5.998
 7068SOL     OW22102   4.735   5.028   3.042
 7068SOL    HW122103   4.732   5.096   2.969
 7068SOL    HW222104   4.653   5.036   3.099
 7069SOL     OW22105   3.647   1.460   6.000
 7069SOL    HW122106   3.706   1.494   5.927
 7069SOL    HW222107   3.557   1.436   5.961
 7070SOL     OW22108   0.594   1.935   5.534
 7070SOL    HW122109   0.521   1.866   5.524
 7070SOL    HW222110   0.677   1.891   5.568
 7071SOL     OW22111   4.258   5.234   6.930
 7071SOL    HW122112   4.215   5.293   6.862
 7071SOL    HW222113   4.187   5.184   6.980
 7072SOL     OW22114   1.552   3.786   5.309
 7072SOL    HW122115   1.589   3.784   5.216
 7072SOL    HW222116   1.513   3.876   5.328
 7073SOL     OW22117   4.208   1.296   4.852
 7073SOL    HW122118   4.182   1.331   4.942
 7073SOL    HW222119   4.307   1.307   4.839
 7074SOL     OW22120   5.823   2.917   2.973
 7074SOL    HW122121   5.756   2.860   3.020
 7074SOL    HW222122   5.914   2.877   2.982
 7075SOL     OW22123   1.830   4.334   2.785
 7075SOL    HW122124   1.768   4.309   2.710
 7075SOL    HW222125   1.920   4.355   2.748
 7076SOL     OW22126   6.535   1.680   1.427
 7076SOL    HW122127   6.632   1.691   1.448
 7076SOL    HW222128   6.482   1.676   1.512
 7077SOL     OW22129   3.642   6.259   2.209
 7077SOL    HW122130   3.583   6.270   2.129
 7077SOL    HW222131   3.668   6.163   2.218
 7078SOL     OW22132   6.763   1.516   0.067
 7078SOL    HW122133   6.670   1.490   0.039
 7078SOL    HW222134   6.808   1.437   0.108
 7079SOL     OW22135   2.771   6.174   5.139
 7079SOL    HW122136   2.828   6.107   5.187
 7079SOL    HW222137   2.795   6.176   5.042
 7080SOL     OW22138   3.580   1.902   6.515
 7080SOL    HW122139   3.672   1.919   6.552
 7080SOL    HW222140   3.533   1.834   6.572
 7081SOL     OW22141   3.154   6.432   6.275
 7081SOL    HW122142   3.134   6.423   6.373
 7081SOL    HW222143   3.216   6.360   6.247
 7082SOL     OW22144   1.621   5.036   2.445
 7082SOL    HW122145   1.612   5.098   2.367
 7082SOL    HW222146   1.616   4.941   2.413
 7083SOL     OW22147   5.753   2.747   3.513
 7083SOL    HW122148   5.659   2.774   3.494
 7083SOL    HW222149   5.792   2.703   3.432
 7084SOL     OW22150   1.309   5.180   0.779
 7084SOL    HW122151   1.234   5.154   0.840
 7084SOL    HW222152   1.275   5.242   0.709
 7085SOL     OW22153   0.437   2.991   1.834
 7085SOL    HW122154   0.489   2.930   1.893
 7085SOL    HW222155   0.383   2.937   1.769
 7086SOL     OW22156   3.717   0.374   3.435
 7086SOL    HW122157   3.737   0.396   3.339
 7086SOL    HW222158   3.719   0.458   3.489
 7087SOL     OW22159   6.049   2.346   4.277
 7087SOL    HW122160   5.995   2.346   4.361
 7087SOL    HW222161   5.994   2.309   4.202
 7088SOL     OW22162   6.210   1.437   5.701
 7088SOL    HW122163   6.189   1.341   5.721
 7088SOL    HW222164   6.293   1.442   5.647
 7089SOL     OW22165   3.479   6.363   2.017
 7089SOL    HW122166   3.434   6.453   2.014
 7089SOL    HW222167   3.515   6.340   1.927
 7090SOL     OW22168   5.683   3.033   1.727
 7090SOL    HW122169   5.724   3.049   1.816
 7090SOL    HW222170   5.650   3.120   1.689
 7091SOL     OW22171   5.563   6.545   6.126
 7091SOL    HW122172   5.492   6.536   6.055
 7091SOL    HW222173   5.587   6.641   6.137
 7092SOL     OW22174   3.835   0.336   6.054
 7092SOL    HW122175   3.876   0.410   6.001
 7092SOL    HW222176   3.908   0.278   6.090
 7093SOL     OW22177   4.294   2.693   0.502
 7093SOL    HW122178   4.256   2.677   0.593
 7093SOL    HW222179   4.294   2.608   0.451
 7094SOL     OW22180   4.292   0.942   5.468
 7094SOL    HW122181   4.323   0.853   5.435
 7094SOL    HW222182   4.323   1.014   5.405
 7095SOL     OW22183   2.645   5.055   3.241
 7095SOL    HW122184   2.683   4.968   3.272
 7095SOL    HW222185   2.716   5.106   3.193
 7096SOL     OW22186   0.037   4.795   0.102
 7096SOL    HW122187   6.965   4.793   0.127
 7096SOL    HW222188   0.064   4.888   0.077
 7097SOL     OW22189   4.803   1.967   3.226
 7097SOL    HW122190   4.745   2.039   3.189
 7097SOL    HW222191   4.878   1.949   3.163
 7098SOL     OW22192   1.342   1.165   2.100
 7098SOL    HW122193   1.399   1.089   2.132
 7098SOL    HW222194   1.365   1.248   2.149
 7099SOL     OW22195   3.262   1.232   5.086
 7099SOL    HW122196   3.303   1.144   5.063
 7099SOL    HW222197   3.252   1.286   5.003
 7100SOL     OW22198   0.708   4.249   1.073
 7100SOL    HW122199   0.760   4.195   1.140
 7100SOL    HW222200   0.621   4.204   1.055
 7101SOL     OW22201   2.813   6.664   4.133
 7101SOL    HW122202   2.911   6.665   4.112
 7101SOL    HW222203   2.760   6.678   4.049
 7102SOL     OW22204   5.336   2.000   2.509
 7102SOL    HW122205   5.344   1.901   2.496
 7102SOL    HW222206   5.248   2.030   2.472
 7103SOL     OW22207   6.463   3.722   4.629
 7103SOL    HW122208   6.507   3.794   4.683
 7103SOL    HW222209   6.464   3.636   4.681
 7104SOL     OW22210   4.491   2.338   4.178
 7104SOL    HW122211   4.479   2.425   4.225
 7104SOL    HW222212   4.406   2.286   4.181
 7105SOL     OW22213   3.117   3.468   1.807
 7105SOL    HW122214   3.184   3.516   1.750
 7105SOL    HW222215   3.133   3.491   1.903
 7106SOL     OW22216   2.445   2.272   2.755
 7106SOL    HW122217   2.411   2.182   2.729
 7106SOL    HW222218   2.456   2.277   2.854
 7107SOL     OW22219   3.763   0.636   0.656
 7107SOL    HW122220   3.709   0.610   0.575
 7107SOL    HW222221   3.757   0.563   0.724
 7108SOL     OW22222   2.208   6.248   1.933
 7108SOL    HW122223   2.205   6.163   1.881
 7108SOL    HW222224   2.290   6.250   1.990
 7109SOL     OW22225   2.209   5.192   5.797
 7109SOL    HW122226   2.220   5.099   5.762
 7109SOL    HW222227   2.136   5.195   5.864
 7110SOL     OW22228   2.393   5.545   5.863
 7110SOL    HW122229   2.403   5.446   5.864
 7110SOL    HW222230   2.483   5.588   5.869
 7111SOL     OW22231   6.069   1.895   3.835
 7111SOL    HW122232   6.082   1.881   3.737
 7111SOL    HW222233   6.117   1.824   3.886
 7112SOL     OW22234   6.506   4.653   4.396
 7112SOL    HW122235   6.428   4.619   4.345
 7112SOL    HW222236   6.590   4.608   4.364
 7113SOL     OW22237   3.614   0.211   5.124
 7113SOL    HW122238   3.622   0.139   5.193
 7113SOL    HW222239   3.519   0.239   5.115
 7114SOL     OW22240   5.804   3.727   0.426
 7114SOL    HW122241   5.714   3.684   0.431
 7114SOL    HW222242   5.874   3.657   0.422
 7115SOL     OW22243   4.923   3.131   5.921
 7115SOL    HW122244   4.842   3.098   5.873
 7115SOL    HW222245   4.898   3.159   6.014
 7116SOL     OW22246   6.914   5.451   4.387
 7116SOL    HW122247   6.892   5.467   4.483
 7116SOL    HW222248   6.842   5.490   4.330
 7117SOL     OW22249   3.008   0.778   2.601
 7117SOL    HW122250   2.944   0.709   2.633
 7117SOL    HW222251   2.962   0.840   2.538
 7118SOL     OW22252   5.298   5.120   5.930
 7118SOL    HW122253   5.386   5.168   5.935
 7118SOL    HW222254   5.266   5.119   5.835
 7119SOL     OW22255   3.257   6.285   3.817
 7119SOL    HW122256   3.301   6.222   3.753
 7119SOL    HW222257   3.276   6.379   3.790
 7120SOL     OW22258   4.557   2.123   2.402
 7120SOL    HW122259   4.561   2.079   2.492
 7120SOL    HW222260   4.632   2.188   2.394
 7121SOL     OW22261   1.221   6.185   1.545
 7121SOL    HW122262   1.243   6.282   1.554
 7121SOL    HW222263   1.305   6.132   1.549
 7122SOL     OW22264   2.517   2.382   6.523
 7122SOL    HW122265   2.610   2.403   6.553
 7122SOL    HW222266   2.508   2.402   6.426
 7123SOL     OW22267   5.404   3.333   6.036
 7123SOL    HW122268   5.326   3.322   5.975
 7123SOL    HW222269   5.441   3.244   6.061
 7124SOL     OW22270   3.653   2.837   5.871
 7124SOL    HW122271   3.624   2.930   5.894
 7124SOL    HW222272   3.732   2.812   5.927
 7125SOL     OW22273   1.494   5.289   1.723
 7125SOL    HW122274   1.544   5.331   1.647
 7125SOL    HW222275   1.512   5.191   1.724
 7126SOL     OW22276   3.912   4.651   0.264
 7126SOL    HW122277   3.977   4.660   0.340
 7126SOL    HW222278   3.833   4.709   0.281
 7127SOL     OW22279   2.233   0.213   4.991
 7127SOL    HW122280   2.165   0.213   4.918
 7127SOL    HW222281   2.276   0.303   4.997
 7128SOL     OW22282   4.604   3.842   0.111
 7128SOL    HW122283   4.697   3.858   0.142
 7128SOL    HW222284   4.572   3.754   0.147
 7129SOL     OW22285   6.757   1.725   0.581
 7129SOL    HW122286   6.853   1.718   0.606
 7129SOL    HW222287   6.714   1.634   0.587
 7130SOL     OW22288   3.249   6.815   3.340
 7130SOL    HW122289   3.286   6.852   3.424
 7130SOL    HW222290   3.243   6.715   3.347
 7131SOL     OW22291   2.416   1.204   2.554
 7131SOL    HW122292   2.502   1.215   2.604
 7131SOL    HW222293   2.342   1.250   2.604
 7132SOL     OW22294   5.508   5.120   2.478
 7132SOL    HW122295   5.509   5.212   2.440
 7132SOL    HW222296   5.541   5.055   2.410
 7133SOL     OW22297   3.571   6.694   2.196
 7133SOL    HW122298   3.590   6.783   2.155
 7133SOL    HW222299   3.566   6.703   2.296
 7134SOL     OW22300   6.227   4.760   6.043
 7134SOL    HW122301   6.212   4.859   6.031
 7134SOL    HW222302   6.276   4.724   5.964
 7135SOL     OW22303   2.632   5.751   6.819
 7135SOL    HW122304   2.671   5.688   6.752
 7135SOL    HW222305   2.661   5.724   6.911
 7136SOL     OW22306   1.062   3.213   2.649
 7136SOL    HW122307   1.093   3.237   2.741
 7136SOL    HW222308   1.103   3.125   2.623
 7137SOL     OW22309   1.355   6.808   2.013
 7137SOL    HW122310   1.315   6.724   2.048
 7137SOL    HW222311   1.318   6.886   2.062
 7138SOL     OW22312   6.593   3.997   0.941
 7138SOL    HW122313   6.553   3.992   0.849
 7138SOL    HW222314   6.632   3.908   0.965
 7139SOL     OW22315   5.929   5.923   0.978
 7139SOL    HW122316   5.850   5.890   1.031
 7139SOL    HW222317   5.917   6.021   0.959
 7140SOL     OW22318   5.824   3.970   0.589
 7140SOL    HW122319   5.828   3.964   0.689
 7140SOL    HW222320   5.810   3.879   0.550
 7141SOL     OW22321   2.058   2.519   0.443
 7141SOL    HW122322   2.052   2.619   0.442
 7141SOL    HW222323   2.137   2.490   0.389
 7142SOL     OW22324   4.075   6.080   6.164
 7142SOL    HW122325   4.041   6.116   6.076
 7142SOL    HW222326   4.172   6.056   6.155
 7143SOL     OW22327   2.798   3.531   5.769
 7143SOL    HW122328   2.891   3.532   5.734
 7143SOL    HW222329   2.751   3.615   5.743
 7144SOL     OW22330   5.967   1.837   5.981
 7144SOL    HW122331   5.872   1.805   5.983
 7144SOL    HW222332   6.029   1.758   5.983
 7145SOL     OW22333   0.254   3.351   6.585
 7145SOL    HW122334   0.327   3.371   6.650
 7145SOL    HW222335   0.283   3.276   6.525
 7146SOL     OW22336   6.997   1.733   4.438
 7146SOL    HW122337   7.013   1.825   4.402
 7146SOL    HW222338   0.029   1.719   4.520
 7147SOL     OW22339   6.971   0.467   6.865
 7147SOL    HW122340   6.895   0.502   6.919
 7147SOL    HW222341   6.986   0.526   6.786
 7148SOL     OW22342   5.755   6.588   0.154
 7148SOL    HW122343   5.683   6.639   0.201
 7148SOL    HW222344   5.842   6.635   0.166
 7149SOL     OW22345   6.728   3.709   0.222
 7149SOL    HW122346   6.673   3.692   0.140
 7149SOL    HW222347   6.677   3.769   0.284
 7150SOL     OW22348   2.488   2.191   0.084
 7150SOL    HW122349   2.444   2.240   0.009
 7150SOL    HW222350   2.503   2.096   0.058
 7151SOL     OW22351   6.039   2.310   6.959
 7151SOL    HW122352   6.122   2.346   6.915
 7151SOL    HW222353   5.965   2.306   6.891
 7152SOL     OW22354   5.928   0.285   4.472
 7152SOL    HW122355   5.942   0.197   4.515
 7152SOL    HW222356   5.830   0.301   4.460
 7153SOL     OW22357   4.839   5.846   6.981
 7153SOL    HW122358   4.887   5.872   6.897
 7153SOL    HW222359   4.753   5.896   6.988
 7154SOL     OW22360   5.062   6.188   2.407
 7154SOL    HW122361   5.016   6.192   2.318
 7154SOL    HW222362   5.063   6.279   2.448
 7155SOL     OW22363   1.342   6.718   1.506
 7155SOL    HW122364   1.314   6.675   1.592
 7155SOL    HW222365   1.363   6.647   1.438
 7156SOL     OW22366   0.096   3.615   5.423
 7156SOL    HW122367   0.038   3.696   5.433
 7156SOL    HW222368   0.116   3.600   5.326
 7157SOL     OW22369   6.876   4.469   5.873
 7157SOL    HW122370   6.936   4.466   5.793
 7157SOL    HW222371   6.785   4.501   5.845
 7158SOL     OW22372   5.053   6.977   3.723
 7158SOL    HW122373   5.133   6.917   3.726
 7158SOL    HW222374   5.055   0.008   3.640
 7159SOL     OW22375   0.842   6.349   3.752
 7159SOL    HW122376   0.920   6.314   3.804
 7159SOL    HW222377   0.840   6.306   3.662
 7160SOL     OW22378   5.823   6.167   2.410
 7160SOL    HW122379   5.849   6.092   2.471
 7160SOL    HW222380   5.787   6.129   2.325
 7161SOL     OW22381   3.830   2.600   1.434
 7161SOL    HW122382   3.920   2.558   1.419
 7161SOL    HW222383   3.814   2.610   1.533
 7162SOL     OW22384   0.471   6.538   0.086
 7162SOL    HW122385   0.499   6.504   0.175
 7162SOL    HW222386   0.442   6.461   0.028
 7163SOL     OW22387   6.866   5.441   0.521
 7163SOL    HW122388   6.944   5.503   0.519
 7163SOL    HW222389   6.892   5.354   0.561
 7164SOL     OW22390   1.177   6.457   6.763
 7164SOL    HW122391   1.090   6.458   6.714
 7164SOL    HW222392   1.170   6.399   6.844
 7165SOL     OW22393   4.527   3.295   6.191
 7165SOL    HW122394   4.462   3.230   6.231
 7165SOL    HW222395   4.519   3.293   6.092
 7166SOL     OW22396   7.001   6.918   5.628
 7166SOL    HW122397   0.017   6.900   5.718
 7166SOL    HW222398   0.025   6.994   5.585
 7167SOL     OW22399   0.878   3.994   5.782
 7167SOL    HW122400   0.906   4.089   5.770
 7167SOL    HW222401   0.950   3.943   5.830
 7168SOL     OW22402   6.586   0.740   2.214
 7168SOL    HW122403   6.490   0.716   2.199
 7168SOL    HW222404   6.638   0.656   2.232
 7169SOL     OW22405   2.080   5.199   5.121
 7169SOL    HW122406   2.066   5.276   5.058
 7169SOL    HW222407   2.066   5.230   5.215
 7170SOL     OW22408   4.263   2.402   1.603
 7170SOL    HW122409   4.196   2.475   1.613
 7170SOL    HW222410   4.344   2.423   1.658
 7171SOL     OW22411   0.187   6.405   1.926
 7171SOL    HW122412   0.192   6.305   1.921
 7171SOL    HW222413   0.236   6.445   1.849
 7172SOL     OW22414   1.298   2.247   3.218
 7172SOL    HW122415   1.376   2.212   3.269
 7172SOL    HW222416   1.267   2.178   3.152
 7173SOL     OW22417   3.629   5.396   4.397
 7173SOL    HW122418   3.697   5.338   4.353
 7173SOL    HW222419   3.538   5.372   4.364
 7174SOL     OW22420   6.485   3.889   2.611
 7174SOL    HW122421   6.568   3.912   2.662
 7174SOL    HW222422   6.510   3.834   2.531
 7175SOL     OW22423   5.885   2.852   6.139
 7175SOL    HW122424   5.851   2.946   6.134
 7175SOL    HW222425   5.889   2.814   6.046
 7176SOL     OW22426   6.007   1.992   6.202
 7176SOL    HW122427   5.973   1.935   6.277
 7176SOL    HW222428   5.999   1.942   6.116
 7177SOL     OW22429   0.910   5.006   3.281
 7177SOL    HW122430   0.918   4.925   3.340
 7177SOL    HW222431   0.998   5.025   3.239
 7178SOL     OW22432   0.331   5.939   5.386
 7178SOL    HW122433   0.341   5.868   5.316
 7178SOL    HW222434   0.336   5.897   5.477
 7179SOL     OW22435   5.253   4.837   5.338
 7179SOL    HW122436   5.244   4.935   5.320
 7179SOL    HW222437   5.336   4.821   5.392
 7180SOL     OW22438   6.430   1.841   2.697
 7180SOL    HW122439   6.467   1.748   2.702
 7180SOL    HW222440   6.505   1.907   2.695
 7181SOL     OW22441   3.749   0.358   0.411
 7181SOL    HW122442   3.784   0.385   0.321
 7181SOL    HW222443   3.680   0.425   0.441
 7182SOL     OW22444   2.086   0.367   2.787
 7182SOL    HW122445   1.997   0.403   2.756
 7182SOL    HW222446   2.158   0.432   2.763
 7183SOL     OW22447   1.848   6.862   0.702
 7183SOL    HW122448   1.802   6.933   0.756
 7183SOL    HW222449   1.797   6.848   0.616
 7184SOL     OW22450   0.043   1.718   3.917
 7184SOL    HW122451   0.016   1.637   3.865
 7184SOL    HW222452   7.013   1.723   4.001
 7185SOL     OW22453   3.512   0.302   3.872
 7185SOL    HW122454   3.472   0.243   3.942
 7185SOL    HW222455   3.527   0.249   3.789
 7186SOL     OW22456   6.512   2.924   0.966
 7186SOL    HW122457   6.591   2.862   0.960
 7186SOL    HW222458   6.430   2.871   0.986
 7187SOL     OW22459   3.113   3.733   3.738
 7187SOL    HW122460   3.113   3.738   3.837
 7187SOL    HW222461   3.175   3.803   3.700
 7188SOL     OW22462   4.746   5.469   6.659
 7188SOL    HW122463   4.819   5.517   6.610
 7188SOL    HW222464   4.763   5.476   6.757
 7189SOL     OW22465   6.724   1.812   6.088
 7189SOL    HW122466   6.717   1.812   5.988
 7189SOL    HW222467   6.637   1.783   6.127
 7190SOL     OW22468   5.339   5.725   0.768
 7190SOL    HW122469   5.242   5.722   0.790
 7190SOL    HW222470   5.355   5.685   0.678
 7191SOL     OW22471   0.318   5.009   2.394
 7191SOL    HW122472   0.367   5.041   2.475
 7191SOL    HW222473   0.232   5.059   2.385
 7192SOL     OW22474   3.209   5.025   5.761
 7192SOL    HW122475   3.116   4.988   5.754
 7192SOL    HW222476   3.205   5.125   5.766
 7193SOL     OW22477   4.162   1.178   4.366
 7193SOL    HW122478   4.087   1.118   4.341
 7193SOL    HW222479   4.184   1.167   4.463
 7194SOL     OW22480   3.731   2.637   5.295
 7194SOL    HW122481   3.643   2.655   5.252
 7194SOL    HW222482   3.719   2.576   5.374
 7195SOL     OW22483   6.650   3.875   5.362
 7195SOL    HW122484   6.653   3.962   5.313
 7195SOL    HW222485   6.618   3.803   5.302
 7196SOL     OW22486   2.996   3.527   1.346
 7196SOL    HW122487   2.911   3.546   1.296
 7196SOL    HW222488   2.973   3.495   1.438
 7197SOL     OW22489   3.244   4.894   6.452
 7197SOL    HW122490   3.335   4.904   6.412
 7197SOL    HW222491   3.253   4.866   6.548
 7198SOL     OW22492   1.687   6.122   1.973
 7198SOL    HW122493   1.779   6.162   1.979
 7198SOL    HW222494   1.652   6.133   1.880
 7199SOL     OW22495   6.099   1.214   3.995
 7199SOL    HW122496   6.096   1.115   4.004
 7199SOL    HW222497   6.032   1.243   3.926
 7200SOL     OW22498   0.492   4.387   6.273
 7200SOL    HW122499   0.462   4.293   6.255
 7200SOL    HW222500   0.584   4.386   6.312
 7201SOL     OW22501   5.718   5.553   5.064
 7201SOL    HW122502   5.816   5.573   5.068
 7201SOL    HW222503   5.678   5.602   4.986
 7202SOL     OW22504   3.926   6.432   5.899
 7202SOL    HW122505   3.989   6.487   5.844
 7202SOL    HW222506   3.883   6.490   5.968
 7203SOL     OW22507   1.016   1.717   1.053
 7203SOL    HW122508   1.103   1.759   1.079
 7203SOL    HW222509   1.020   1.690   0.957
 7204SOL     OW22510   5.094   0.545   2.593
 7204SOL    HW122511   5.093   0.560   2.494
 7204SOL    HW222512   5.180   0.502   2.619
 7205SOL     OW22513   3.682   1.378   3.992
 7205SOL    HW122514   3.749   1.416   4.056
 7205SOL    HW222515   3.608   1.444   3.977
 7206SOL     OW22516   1.791   2.636   6.545
 7206SOL    HW122517   1.871   2.621   6.487
 7206SOL    HW222518   1.801   2.724   6.593
 7207SOL     OW22519   1.703   2.308   3.763
 7207SOL    HW122520   1.795   2.273   3.747
 7207SOL    HW222521   1.636   2.247   3.720
 7208SOL     OW22522   3.361   0.590   3.532
 7208SOL    HW122523   3.355   0.530   3.612
 7208SOL    HW222524   3.356   0.535   3.448
 7209SOL     OW22525   4.456   1.667   3.220
 7209SOL    HW122526   4.476   1.715   3.134
 7209SOL    HW222527   4.368   1.621   3.213
 7210SOL     OW22528   3.371   1.004   4.933
 7210SOL    HW122529   3.394   1.056   4.850
 7210SOL    HW222530   3.450   0.950   4.962
 7211SOL     OW22531   5.257   5.988   6.224
 7211SOL    HW122532   5.345   6.031   6.244
 7211SOL    HW222533   5.185   6.039   6.270
 7212SOL     OW22534   0.133   5.986   4.329
 7212SOL    HW122535   0.156   6.030   4.243
 7212SOL    HW222536   0.060   5.920   4.315
 7213SOL     OW22537   5.879   2.847   0.246
 7213SOL    HW122538   5.791   2.801   0.254
 7213SOL    HW222539   5.951   2.779   0.230
 7214SOL     OW22540   5.930   1.265   5.833
 7214SOL    HW122541   5.937   1.365   5.832
 7214SOL    HW222542   5.879   1.235   5.752
 7215SOL     OW22543   6.435   1.568   2.963
 7215SOL    HW122544   6.461   1.504   3.035
 7215SOL    HW222545   6.336   1.566   2.951
 7216SOL     OW22546   5.695   6.300   4.135
 7216SOL    HW122547   5.658   6.209   4.116
 7216SOL    HW222548   5.737   6.337   4.052
 7217SOL     OW22549   1.324   3.345   2.923
 7217SOL    HW122550   1.364   3.362   3.014
 7217SOL    HW222551   1.380   3.390   2.853
 7218SOL     OW22552   0.112   2.589   6.209
 7218SOL    HW122553   0.074   2.508   6.166
 7218SOL    HW222554   0.098   2.585   6.308
 7219SOL     OW22555   2.843   5.645   1.700
 7219SOL    HW122556   2.906   5.656   1.623
 7219SOL    HW222557   2.849   5.726   1.759
 7220SOL     OW22558   0.426   4.016   4.263
 7220SOL    HW122559   0.481   4.093   4.232
 7220SOL    HW222560   0.432   4.009   4.363
 7221SOL     OW22561   5.283   5.014   3.923
 7221SOL    HW122562   5.317   5.037   3.831
 7221SOL    HW222563   5.216   5.083   3.951
 7222SOL     OW22564   5.875   5.091   3.769
 7222SOL    HW122565   5.918   5.182   3.772
 7222SOL    HW222566   5.835   5.076   3.679
 7223SOL     OW22567   5.951   5.334   1.457
 7223SOL    HW122568   5.918   5.408   1.399
 7223SOL    HW222569   5.891   5.323   1.535
 7224SOL     OW22570   6.218   2.759   3.464
 7224SOL    HW122571   6.133   2.807   3.443
 7224SOL    HW222572   6.258   2.723   3.380
 7225SOL     OW22573   1.537   5.032   0.696
 7225SOL    HW122574   1.515   4.952   0.639
 7225SOL    HW222575   1.454   5.081   0.720
 7226SOL     OW22576   6.954   6.702   0.286
 7226SOL    HW122577   6.954   6.612   0.243
 7226SOL    HW222578   6.913   6.695   0.377
 7227SOL     OW22579   2.015   0.344   1.526
 7227SOL    HW122580   1.967   0.257   1.514
 7227SOL    HW222581   1.953   0.420   1.509
 7228SOL     OW22582   6.296   4.070   3.519
 7228SOL    HW122583   6.299   3.971   3.533
 7228SOL    HW222584   6.239   4.091   3.439
 7229SOL     OW22585   5.628   6.273   5.463
 7229SOL    HW122586   5.723   6.302   5.473
 7229SOL    HW222587   5.596   6.234   5.549
 7230SOL     OW22588   3.113   4.772   6.940
 7230SOL    HW122589   3.194   4.742   6.992
 7230SOL    HW222590   3.050   4.820   7.001
 7231SOL     OW22591   3.955   2.743   0.110
 7231SOL    HW122592   3.948   2.782   0.202
 7231SOL    HW222593   4.037   2.686   0.104
 7232SOL     OW22594   4.287   5.548   3.529
 7232SOL    HW122595   4.236   5.522   3.447
 7232SOL    HW222596   4.384   5.531   3.514
 7233SOL     OW22597   0.655   1.707   6.877
 7233SOL    HW122598   0.706   1.654   6.809
 7233SOL    HW222599   0.637   1.799   6.840
 7234SOL     OW22600   5.488   6.091   4.055
 7234SOL    HW122601   5.461   6.175   4.007
 7234SOL    HW222602   5.453   6.012   4.005
 7235SOL     OW22603   0.089   6.963   1.124
 7235SOL    HW122604   0.162   0.006   1.138
 7235SOL    HW222605   0.054   6.935   1.214
 7236SOL     OW22606   0.733   4.074   2.805
 7236SOL    HW122607   0.712   3.984   2.767
 7236SOL    HW222608   0.693   4.082   2.896
 7237SOL     OW22609   4.574   1.302   6.558
 7237SOL    HW122610   4.545   1.397   6.543
 7237SOL    HW222611   4.671   1.300   6.583
 7238SOL     OW22612   4.808   3.254   0.059
 7238SOL    HW122613   4.867   3.277   0.136
 7238SOL    HW222614   4.859   3.262   6.998
 7239SOL     OW22615   6.435   2.594   2.919
 7239SOL    HW122616   6.438   2.619   2.822
 7239SOL    HW222617   6.418   2.675   2.974
 7240SOL     OW22618   0.347   1.885   0.791
 7240SOL    HW122619   0.377   1.795   0.824
 7240SOL    HW222620   0.261   1.875   0.741
 7241SOL     OW22621   2.511   0.287   3.068
 7241SOL    HW122622   2.419   0.317   3.092
 7241SOL    HW222623   2.505   0.207   3.009
 7242SOL     OW22624   6.654   3.359   5.769
 7242SOL    HW122625   6.737   3.305   5.751
 7242SOL    HW222626   6.647   3.377   5.867
 7243SOL     OW22627   6.858   4.504   6.362
 7243SOL    HW122628   6.939   4.495   6.420
 7243SOL    HW222629   6.860   4.434   6.291
 7244SOL     OW22630   6.969   5.889   0.463
 7244SOL    HW122631   6.895   5.839   0.508
 7244SOL    HW222632   0.027   5.886   0.520
 7245SOL     OW22633   1.961   2.229   6.405
 7245SOL    HW122634   1.965   2.133   6.378
 7245SOL    HW222635   1.958   2.287   6.324
 7246SOL     OW22636   4.898   0.005   4.735
 7246SOL    HW122637   4.837   6.956   4.765
 7246SOL    HW222638   4.990   7.013   4.771
 7247SOL     OW22639   3.418   4.126   5.134
 7247SOL    HW122640   3.360   4.178   5.197
 7247SOL    HW222641   3.490   4.080   5.185
 7248SOL     OW22642   2.504   2.609   5.090
 7248SOL    HW122643   2.550   2.521   5.096
 7248SOL    HW222644   2.537   2.670   5.162
 7249SOL     OW22645   3.810   5.701   3.351
 7249SOL    HW122646   3.811   5.788   3.302
 7249SOL    HW222647   3.718   5.661   3.346
 7250SOL     OW22648   4.800   4.949   5.207
 7250SOL    HW122649   4.883   4.982   5.162
 7250SOL    HW222650   4.822   4.919   5.299
 7251SOL     OW22651   6.900   5.926   3.903
 7251SOL    HW122652   6.998   5.910   3.909
 7251SOL    HW222653   6.881   5.993   3.832
 7252SOL     OW22654   3.857   3.821   1.849
 7252SOL    HW122655   3.802   3.738   1.861
 7252SOL    HW222656   3.805   3.900   1.883
 7253SOL     OW22657   1.178   5.216   6.192
 7253SOL    HW122658   1.229   5.147   6.141
 7253SOL    HW222659   1.164   5.297   6.134
 7254SOL     OW22660   0.365   4.048   3.980
 7254SOL    HW122661   0.376   4.036   4.079
 7254SOL    HW222662   0.310   3.973   3.943
 7255SOL     OW22663   4.783   4.116   0.601
 7255SOL    HW122664   4.747   4.194   0.653
 7255SOL    HW222665   4.837   4.149   0.524
 7256SOL     OW22666   3.200   0.077   3.626
 7256SOL    HW122667   3.160   0.118   3.707
 7256SOL    HW222668   3.228   0.149   3.562
 7257SOL     OW22669   1.119   1.252   4.768
 7257SOL    HW122670   1.101   1.203   4.853
 7257SOL    HW222671   1.128   1.350   4.787
 7258SOL     OW22672   0.404   1.585   3.142
 7258SOL    HW122673   0.318   1.564   3.096
 7258SOL    HW222674   0.434   1.677   3.116
 7259SOL     OW22675   1.218   3.572   2.089
 7259SOL    HW122676   1.195   3.570   1.992
 7259SOL    HW222677   1.181   3.655   2.131
 7260SOL     OW22678   5.852   2.686   0.927
 7260SOL    HW122679   5.760   2.677   0.966
 7260SOL    HW222680   5.845   2.697   0.828
 7261SOL     OW22681   0.343   4.503   6.798
 7261SOL    HW122682   0.270   4.533   6.860
 7261SOL    HW222683   0.374   4.412   6.825
 7262SOL     OW22684   3.114   0.344   5.026
 7262SOL    HW122685   3.077   0.327   5.117
 7262SOL    HW222686   3.055   0.407   4.977
 7263SOL     OW22687   6.737   4.960   5.952
 7263SOL    HW122688   6.778   4.922   5.869
 7263SOL    HW222689   6.746   5.059   5.952
 7264SOL     OW22690   4.704   2.195   1.139
 7264SOL    HW122691   4.786   2.247   1.116
 7264SOL    HW222692   4.643   2.251   1.194
 7265SOL     OW22693   3.315   6.876   5.392
 7265SOL    HW122694   3.396   6.914   5.437
 7265SOL    HW222695   3.313   6.777   5.404
 7266SOL     OW22696   6.774   0.710   2.608
 7266SOL    HW122697   6.763   0.808   2.623
 7266SOL    HW222698   6.727   0.659   2.680
 7267SOL     OW22699   6.747   3.420   5.355
 7267SOL    HW122700   6.649   3.426   5.375
 7267SOL    HW222701   6.762   3.438   5.258
 7268SOL     OW22702   5.316   6.035   4.842
 7268SOL    HW122703   5.303   5.981   4.759
 7268SOL    HW222704   5.392   6.099   4.827
 7269SOL     OW22705   2.567   5.649   4.534
 7269SOL    HW122706   2.531   5.615   4.621
 7269SOL    HW222707   2.601   5.572   4.479
 7270SOL     OW22708   0.084   1.996   4.363
 7270SOL    HW122709   0.003   2.051   4.345
 7270SOL    HW222710   0.137   2.037   4.437
 7271SOL     OW22711   0.640   5.396   3.170
 7271SOL    HW122712   0.720   5.385   3.229
 7271SOL    HW222713   0.666   5.385   3.075
 7272SOL     OW22714   6.665   4.049   2.079
 7272SOL    HW122715   6.710   3.960   2.071
 7272SOL    HW222716   6.603   4.062   2.001
 7273SOL     OW22717   0.404   1.550   4.789
 7273SOL    HW122718   0.362   1.522   4.876
 7273SOL    HW222719   0.475   1.485   4.763
 7274SOL     OW22720   0.081   5.601   0.514
 7274SOL    HW122721   0.142   5.528   0.546
 7274SOL    HW222722   0.040   5.574   0.427
 7275SOL     OW22723   0.222   5.614   3.359
 7275SOL    HW122724   0.280   5.591   3.282
 7275SOL    HW222725   0.267   5.586   3.444
 7276SOL     OW22726   5.100   6.358   3.727
 7276SOL    HW122727   5.072   6.443   3.772
 7276SOL    HW222728   5.182   6.375   3.673
 7277SOL     OW22729   5.284   0.999   6.695
 7277SOL    HW122730   5.256   0.908   6.662
 7277SOL    HW222731   5.248   1.014   6.787
 7278SOL     OW22732   3.895   2.908   1.898
 7278SOL    HW122733   3.967   2.941   1.959
 7278SOL    HW222734   3.931   2.902   1.805
 7279SOL     OW22735   3.670   6.118   5.959
 7279SOL    HW122736   3.615   6.199   5.936
 7279SOL    HW222737   3.766   6.135   5.935
 7280SOL     OW22738   4.173   6.819   5.934
 7280SOL    HW122739   4.193   6.871   5.851
 7280SOL    HW222740   4.136   6.729   5.909
 7281SOL     OW22741   5.604   0.946   6.121
 7281SOL    HW122742   5.520   0.932   6.172
 7281SOL    HW222743   5.663   1.011   6.170
 7282SOL     OW22744   5.817   5.976   3.455
 7282SOL    HW122745   5.768   5.914   3.516
 7282SOL    HW222746   5.758   6.002   3.379
 7283SOL     OW22747   2.373   1.531   2.705
 7283SOL    HW122748   2.466   1.500   2.725
 7283SOL    HW222749   2.311   1.453   2.701
 7284SOL     OW22750   1.247   0.948   4.195
 7284SOL    HW122751   1.250   0.962   4.097
 7284SOL    HW222752   1.157   0.915   4.222
 7285SOL     OW22753   6.331   4.902   1.843
 7285SOL    HW122754   6.289   4.921   1.932
 7285SOL    HW222755   6.365   4.987   1.803
 7286SOL     OW22756   1.462   3.527   0.044
 7286SOL    HW122757   1.561   3.542   0.043
 7286SOL    HW222758   1.442   3.441   0.091
 7287SOL     OW22759   6.206   2.165   6.219
 7287SOL    HW122760   6.148   2.093   6.256
 7287SOL    HW222761   6.243   2.137   6.131
 7288SOL     OW22762   2.576   0.550   6.666
 7288SOL    HW122763   2.560   0.571   6.763
 7288SOL    HW222764   2.671   0.523   6.653
 7289SOL     OW22765   4.467   1.013   3.043
 7289SOL    HW122766   4.418   0.928   3.025
 7289SOL    HW222767   4.558   1.009   3.003
 7290SOL     OW22768   2.378   6.355   4.398
 7290SOL    HW122769   2.377   6.348   4.498
 7290SOL    HW222770   2.433   6.280   4.360
 7291SOL     OW22771   4.085   4.520   1.480
 7291SOL    HW122772   3.986   4.508   1.486
 7291SOL    HW222773   4.116   4.580   1.555
 7292SOL     OW22774   4.265   0.216   5.179
 7292SOL    HW122775   4.180   0.268   5.166
 7292SOL    HW222776   4.292   0.220   5.275
 7293SOL     OW22777   2.686   1.058   5.714
 7293SOL    HW122778   2.626   1.122   5.666
 7293SOL    HW222779   2.680   1.074   5.812
 7294SOL     OW22780   6.203   4.899   6.720
 7294SOL    HW122781   6.244   4.989   6.710
 7294SOL    HW222782   6.104   4.906   6.708
 7295SOL     OW22783   3.909   6.354   1.572
 7295SOL    HW122784   3.865   6.387   1.488
 7295SOL    HW222785   3.895   6.421   1.645
 7296SOL     OW22786   4.371   5.588   0.640
 7296SOL    HW122787   4.436   5.533   0.694
 7296SOL    HW222788   4.280   5.582   0.681
 7297SOL     OW22789   4.512   6.846   2.176
 7297SOL    HW122790   4.472   6.934   2.203
 7297SOL    HW222791   4.612   6.853   2.177
 7298SOL     OW22792   5.445   2.511   4.559
 7298SOL    HW122793   5.382   2.528   4.635
 7298SOL    HW222794   5.395   2.515   4.472
 7299SOL     OW22795   5.364   3.416   0.194
 7299SOL    HW122796   5.316   3.499   0.223
 7299SOL    HW222797   5.349   3.343   0.261
 7300SOL     OW22798   4.075   5.177   0.744
 7300SOL    HW122799   3.995   5.215   0.697
 7300SOL    HW222800   4.115   5.104   0.688
 7301SOL     OW22801   6.237   1.664   6.855
 7301SOL    HW122802   6.171   1.617   6.914
 7301SOL    HW222803   6.198   1.751   6.825
 7302SOL     OW22804   0.385   1.736   6.681
 7302SOL    HW122805   0.349   1.700   6.767
 7302SOL    HW222806   0.321   1.717   6.607
 7303SOL     OW22807   5.181   6.953   1.653
 7303SOL    HW122808   5.202   0.013   1.702
 7303SOL    HW222809   5.093   6.917   1.685
 7304SOL     OW22810   4.138   3.553   4.262
 7304SOL    HW122811   4.086   3.496   4.327
 7304SOL    HW222812   4.153   3.502   4.178
 7305SOL     OW22813   5.776   2.632   6.659
 7305SOL    HW122814   5.850   2.565   6.649
 7305SOL    HW222815   5.815   2.724   6.655
 7306SOL     OW22816   4.479   4.578   1.578
 7306SOL    HW122817   4.577   4.564   1.584
 7306SOL    HW222818   4.434   4.538   1.659
 7307SOL     OW22819   3.587   6.933   1.823
 7307SOL    HW122820   3.546   6.944   1.733
 7307SOL    HW222821   3.687   6.937   1.816
 7308SOL     OW22822   5.284   0.357   3.757
 7308SOL    HW122823   5.329   0.443   3.735
 7308SOL    HW222824   5.188   0.361   3.730
 7309SOL     OW22825   4.633   4.444   6.859
 7309SOL    HW122826   4.731   4.426   6.856
 7309SOL    HW222827   4.596   4.448   6.766
 7310SOL     OW22828   1.914   5.612   1.705
 7310SOL    HW122829   2.011   5.597   1.727
 7310SOL    HW222830   1.906   5.684   1.637
 7311SOL     OW22831   3.217   1.991   2.036
 7311SOL    HW122832   3.164   2.057   2.089
 7311SOL    HW222833   3.314   2.003   2.056
 7312SOL     OW22834   0.446   2.744   6.623
 7312SOL    HW122835   0.430   2.657   6.577
 7312SOL    HW222836   0.385   2.751   6.703
 7313SOL     OW22837   4.411   2.492   5.973
 7313SOL    HW122838   4.396   2.569   6.034
 7313SOL    HW222839   4.323   2.452   5.948
 7314SOL     OW22840   0.697   1.842   4.324
 7314SOL    HW122841   0.684   1.862   4.421
 7314SOL    HW222842   0.782   1.792   4.312
 7315SOL     OW22843   6.688   1.479   6.453
 7315SOL    HW122844   6.755   1.526   6.510
 7315SOL    HW222845   6.733   1.406   6.401
 7316SOL     OW22846   3.853   3.552   3.334
 7316SOL    HW122847   3.874   3.647   3.354
 7316SOL    HW222848   3.782   3.549   3.263
 7317SOL     OW22849   3.505   0.741   4.026
 7317SOL    HW122850   3.572   0.813   4.012
 7317SOL    HW222851   3.552   0.652   4.031
 7318SOL     OW22852   2.254   0.436   1.212
 7318SOL    HW122853   2.188   0.478   1.150
 7318SOL    HW222854   2.341   0.424   1.166
 7319SOL     OW22855   0.070   3.904   6.048
 7319SOL    HW122856   0.064   3.959   6.131
 7319SOL    HW222857   0.082   3.807   6.073
 7320SOL     OW22858   0.274   1.346   2.034
 7320SOL    HW122859   0.229   1.367   1.948
 7320SOL    HW222860   0.337   1.420   2.059
 7321SOL     OW22861   4.225   1.448   3.935
 7321SOL    HW122862   4.179   1.532   3.962
 7321SOL    HW222863   4.237   1.447   3.836
 7322SOL     OW22864   0.839   2.604   1.263
 7322SOL    HW122865   0.834   2.636   1.358
 7322SOL    HW222866   0.897   2.522   1.258
 7323SOL     OW22867   2.515   4.746   3.065
 7323SOL    HW122868   2.564   4.761   3.151
 7323SOL    HW222869   2.420   4.723   3.084
 7324SOL     OW22870   4.870   6.009   2.666
 7324SOL    HW122871   4.859   6.017   2.567
 7324SOL    HW222872   4.962   6.038   2.692
 7325SOL     OW22873   3.090   6.537   0.000
 7325SOL    HW122874   3.073   6.439   0.013
 7325SOL    HW222875   3.017   6.590   0.043
 7326SOL     OW22876   2.783   0.995   3.954
 7326SOL    HW122877   2.732   1.059   3.897
 7326SOL    HW222878   2.746   0.903   3.943
 7327SOL     OW22879   1.992   3.419   5.685
 7327SOL    HW122880   1.921   3.349   5.675
 7327SOL    HW222881   2.028   3.443   5.594
 7328SOL     OW22882   2.098   6.515   6.953
 7328SOL    HW122883   2.061   6.549   0.015
 7328SOL    HW222884   2.124   6.418   6.964
 7329SOL     OW22885   4.854   3.978   1.917
 7329SOL    HW122886   4.766   4.004   1.877
 7329SOL    HW222887   4.887   3.894   1.874
 7330SOL     OW22888   3.769   2.753   0.960
 7330SOL    HW122889   3.749   2.722   1.053
 7330SOL    HW222890   3.686   2.788   0.917
 7331SOL     OW22891   6.302   1.421   1.414
 7331SOL    HW122892   6.335   1.327   1.404
 7331SOL    HW222893   6.270   1.455   1.325
 7332SOL     OW22894   4.374   7.006   0.452
 7332SOL    HW122895   4.291   6.998   0.507
 7332SOL    HW222896   4.442   6.940   0.485
 7333SOL     OW22897   0.228   4.503   2.166
 7333SOL    HW122898   0.234   4.602   2.158
 7333SOL    HW222899   0.180   4.465   2.087
 7334SOL     OW22900   2.811   0.092   3.253
 7334SOL    HW122901   2.900   0.102   3.296
 7334SOL    HW222902   2.822   0.047   3.164
 7335SOL     OW22903   1.829   3.367   3.544
 7335SOL    HW122904   1.757   3.300   3.525
 7335SOL    HW222905   1.906   3.352   3.482
 7336SOL     OW22906   1.206   6.155   4.761
 7336SOL    HW122907   1.201   6.095   4.841
 7336SOL    HW222908   1.171   6.106   4.681
 7337SOL     OW22909   5.026   1.728   1.349
 7337SOL    HW122910   4.934   1.710   1.385
 7337SOL    HW222911   5.019   1.776   1.262
 7338SOL     OW22912   0.276   3.913   0.435
 7338SOL    HW122913   0.248   3.824   0.400
 7338SOL    HW222914   0.202   3.953   0.489
 7339SOL     OW22915   1.804   5.318   5.455
 7339SOL    HW122916   1.850   5.230   5.460
 7339SOL    HW222917   1.868   5.387   5.421
 7340SOL     OW22918   3.473   0.030   6.418
 7340SOL    HW122919   3.497   6.964   6.455
 7340SOL    HW222920   3.440   0.088   6.492
 7341SOL     OW22921   5.899   2.414   0.171
 7341SOL    HW122922   5.955   2.491   0.201
 7341SOL    HW222923   5.936   2.378   0.085
 7342SOL     OW22924   0.297   6.013   1.562
 7342SOL    HW122925   0.331   6.105   1.583
 7342SOL    HW222926   0.337   5.947   1.625
 7343SOL     OW22927   6.519   3.160   0.814
 7343SOL    HW122928   6.505   3.074   0.863
 7343SOL    HW222929   6.594   3.149   0.749
 7344SOL     OW22930   2.382   0.994   5.827
 7344SOL    HW122931   2.413   0.950   5.743
 7344SOL    HW222932   2.427   1.083   5.837
 7345SOL     OW22933   4.024   6.074   6.717
 7345SOL    HW122934   4.028   6.114   6.808
 7345SOL    HW222935   3.938   6.100   6.673
 7346SOL     OW22936   4.425   4.929   2.167
 7346SOL    HW122937   4.498   4.995   2.153
 7346SOL    HW222938   4.402   4.924   2.264
 7347SOL     OW22939   4.500   0.614   5.923
 7347SOL    HW122940   4.529   0.708   5.908
 7347SOL    HW222941   4.573   0.563   5.968
 7348SOL     OW22942   0.524   6.019   0.187
 7348SOL    HW122943   0.460   5.947   0.159
 7348SOL    HW222944   0.571   6.055   0.106
 7349SOL     OW22945   4.652   1.259   1.121
 7349SOL    HW122946   4.583   1.253   1.049
 7349SOL    HW222947   4.685   1.167   1.143
 7350SOL     OW22948   3.815   1.141   5.370
 7350SOL    HW122949   3.827   1.083   5.451
 7350SOL    HW222950   3.737   1.202   5.385
 7351SOL     OW22951   2.339   5.168   4.712
 7351SOL    HW122952   2.337   5.237   4.785
 7351SOL    HW222953   2.327   5.213   4.624
 7352SOL     OW22954   6.286   2.351   4.366
 7352SOL    HW122955   6.198   2.359   4.319
 7352SOL    HW222956   6.273   2.363   4.464
 7353SOL     OW22957   0.287   1.886   6.030
 7353SOL    HW122958   0.362   1.952   6.037
 7353SOL    HW222959   0.308   1.820   5.958
 7354SOL     OW22960   0.866   1.929   2.775
 7354SOL    HW122961   0.779   1.893   2.810
 7354SOL    HW222962   0.870   2.028   2.791
 7355SOL     OW22963   4.190   1.853   0.914
 7355SOL    HW122964   4.222   1.940   0.876
 7355SOL    HW222965   4.132   1.807   0.847
 7356SOL     OW22966   3.656   4.229   5.993
 7356SOL    HW122967   3.732   4.165   5.980
 7356SOL    HW222968   3.669   4.307   5.931
 7357SOL     OW22969   4.374   0.048   1.909
 7357SOL    HW122970   4.297   7.008   1.908
 7357SOL    HW222971   4.344   0.136   1.944
 7358SOL     OW22972   4.279   0.119   2.664
 7358SOL    HW122973   4.375   0.146   2.661
 7358SOL    HW222974   4.272   0.024   2.695
 7359SOL     OW22975   3.171   6.479   2.239
 7359SOL    HW122976   3.189   6.550   2.171
 7359SOL    HW222977   3.200   6.390   2.203
 7360SOL     OW22978   3.015   4.293   6.114
 7360SOL    HW122979   3.100   4.243   6.103
 7360SOL    HW222980   2.947   4.234   6.158
 7361SOL     OW22981   6.477   0.649   3.754
 7361SOL    HW122982   6.431   0.564   3.730
 7361SOL    HW222983   6.541   0.633   3.829
 7362SOL     OW22984   3.438   5.443   0.696
 7362SOL    HW122985   3.382   5.371   0.656
 7362SOL    HW222986   3.379   5.508   0.745
 7363SOL     OW22987   4.349   1.117   1.153
 7363SOL    HW122988   4.340   1.132   1.252
 7363SOL    HW222989   4.339   1.205   1.106
 7364SOL     OW22990   5.613   5.708   1.600
 7364SOL    HW122991   5.618   5.716   1.500
 7364SOL    HW222992   5.681   5.768   1.641
 7365SOL     OW22993   4.980   3.777   2.160
 7365SOL    HW122994   4.945   3.684   2.156
 7365SOL    HW222995   4.908   3.842   2.137
 7366SOL     OW22996   2.446   6.014   3.435
 7366SOL    HW122997   2.523   5.950   3.437
 7366SOL    HW222998   2.367   5.973   3.481
 7367SOL     OW22999   4.652   1.149   0.740
 7367SOL    HW123000   4.642   1.097   0.655
 7367SOL    HW223001   4.740   1.126   0.783
 7368SOL     OW23002   3.072   3.985   2.472
 7368SOL    HW123003   3.100   4.028   2.386
 7368SOL    HW223004   3.052   3.889   2.456
 7369SOL     OW23005   5.207   3.691   6.692
 7369SOL    HW123006   5.242   3.750   6.765
 7369SOL    HW223007   5.178   3.747   6.615
 7370SOL     OW23008   2.674   0.309   4.108
 7370SOL    HW123009   2.717   0.326   4.197
 7370SOL    HW223010   2.588   0.359   4.102
 7371SOL     OW23011   3.755   0.475   3.179
 7371SOL    HW123012   3.663   0.441   3.158
 7371SOL    HW223013   3.764   0.570   3.148
 7372SOL     OW23014   4.363   1.804   5.134
 7372SOL    HW123015   4.445   1.830   5.186
 7372SOL    HW223016   4.314   1.887   5.107
 7373SOL     OW23017   6.723   2.783   4.579
 7373SOL    HW123018   6.633   2.825   4.591
 7373SOL    HW223019   6.752   2.794   4.484
 7374SOL     OW23020   6.847   3.287   6.347
 7374SOL    HW123021   6.919   3.306   6.414
 7374SOL    HW223022   6.889   3.268   6.258
 7375SOL     OW23023   2.800   1.425   1.401
 7375SOL    HW123024   2.853   1.398   1.481
 7375SOL    HW223025   2.772   1.521   1.411
 7376SOL     OW23026   6.510   5.214   0.368
 7376SOL    HW123027   6.459   5.251   0.290
 7376SOL    HW223028   6.538   5.120   0.347
 7377SOL     OW23029   2.815   5.566   0.733
 7377SOL    HW123030   2.781   5.585   0.825
 7377SOL    HW223031   2.861   5.477   0.733
 7378SOL     OW23032   2.310   5.045   5.315
 7378SOL    HW123033   2.362   5.102   5.379
 7378SOL    HW223034   2.369   4.974   5.278
 7379SOL     OW23035   5.064   2.254   3.018
 7379SOL    HW123036   5.076   2.201   3.102
 7379SOL    HW223037   5.099   2.202   2.940
 7380SOL     OW23038   5.276   3.528   1.573
 7380SOL    HW123039   5.245   3.621   1.552
 7380SOL    HW223040   5.273   3.514   1.672
 7381SOL     OW23041   3.913   0.341   1.140
 7381SOL    HW123042   3.904   0.431   1.096
 7381SOL    HW223043   3.885   0.348   1.235
 7382SOL     OW23044   0.641   2.753   0.141
 7382SOL    HW123045   0.680   2.845   0.133
 7382SOL    HW223046   0.683   2.706   0.219
 7383SOL     OW23047   2.450   6.851   0.920
 7383SOL    HW123048   2.443   6.751   0.926
 7383SOL    HW223049   2.359   6.890   0.907
 7384SOL     OW23050   6.963   0.657   6.665
 7384SOL    HW123051   7.021   0.595   6.612
 7384SOL    HW223052   6.945   0.740   6.611
 7385SOL     OW23053   6.525   4.387   2.881
 7385SOL    HW123054   6.454   4.370   2.813
 7385SOL    HW223055   6.614   4.364   2.843
 7386SOL     OW23056   5.856   3.983   0.885
 7386SOL    HW123057   5.893   3.891   0.897
 7386SOL    HW223058   5.912   4.048   0.936
 7387SOL     OW23059   0.340   5.535   3.734
 7387SOL    HW123060   0.326   5.469   3.660
 7387SOL    HW223061   0.435   5.568   3.732
 7388SOL     OW23062   2.234   4.684   3.112
 7388SOL    HW123063   2.166   4.657   3.044
 7388SOL    HW223064   2.195   4.671   3.204
 7389SOL     OW23065   0.453   2.651   0.900
 7389SOL    HW123066   0.360   2.673   0.870
 7389SOL    HW223067   0.451   2.618   0.994
 7390SOL     OW23068   4.281   2.013   4.536
 7390SOL    HW123069   4.346   2.021   4.612
 7390SOL    HW223070   4.222   2.093   4.533
 7391SOL     OW23071   3.131   3.992   1.997
 7391SOL    HW123072   3.213   4.044   1.972
 7391SOL    HW223073   3.111   4.007   2.094
 7392SOL     OW23074   3.723   6.576   0.533
 7392SOL    HW123075   3.794   6.510   0.510
 7392SOL    HW223076   3.658   6.535   0.597
 7393SOL     OW23077   4.134   5.769   3.328
 7393SOL    HW123078   4.232   5.786   3.322
 7393SOL    HW223079   4.089   5.844   3.376
 7394SOL     OW23080   1.434   1.411   6.856
 7394SOL    HW123081   1.442   1.333   6.794
 7394SOL    HW223082   1.378   1.482   6.813
 7395SOL     OW23083   3.274   5.610   0.871
 7395SOL    HW123084   3.198   5.669   0.900
 7395SOL    HW223085   3.304   5.555   0.949
 7396SOL     OW23086   1.256   4.787   2.440
 7396SOL    HW123087   1.283   4.827   2.528
 7396SOL    HW223088   1.176   4.728   2.453
 7397SOL     OW23089   6.150   5.125   5.308
 7397SOL    HW123090   6.091   5.117   5.228
 7397SOL    HW223091   6.238   5.163   5.280
 7398SOL     OW23092   2.814   5.776   1.962
 7398SOL    HW123093   2.876   5.705   1.997
 7398SOL    HW223094   2.771   5.824   2.038
 7399SOL     OW23095   6.766   2.281   5.894
 7399SOL    HW123096   6.765   2.216   5.969
 7399SOL    HW223097   6.858   2.286   5.854
 7400SOL     OW23098   4.083   3.233   5.627
 7400SOL    HW123099   4.013   3.171   5.590
 7400SOL    HW223100   4.075   3.322   5.583
 7401SOL     OW23101   3.100   2.182   4.720
 7401SOL    HW123102   3.056   2.104   4.765
 7401SOL    HW223103   3.143   2.240   4.790
 7402SOL     OW23104   4.095   4.800   4.605
 7402SOL    HW123105   4.125   4.717   4.557
 7402SOL    HW223106   4.112   4.880   4.547
 7403SOL     OW23107   2.270   5.154   3.926
 7403SOL    HW123108   2.301   5.072   3.974
 7403SOL    HW223109   2.297   5.148   3.830
 7404SOL     OW23110   2.016   2.935   1.242
 7404SOL    HW123111   2.086   2.864   1.241
 7404SOL    HW223112   1.934   2.903   1.195
 7405SOL     OW23113   3.009   6.773   5.527
 7405SOL    HW123114   3.083   6.839   5.514
 7405SOL    HW223115   2.986   6.732   5.439
 7406SOL     OW23116   0.839   2.897   4.704
 7406SOL    HW123117   0.900   2.934   4.635
 7406SOL    HW223118   0.775   2.833   4.661
 7407SOL     OW23119   1.130   6.393   4.389
 7407SOL    HW123120   1.220   6.403   4.348
 7407SOL    HW223121   1.090   6.305   4.361
 7408SOL     OW23122   4.088   4.963   5.469
 7408SOL    HW123123   4.062   4.905   5.546
 7408SOL    HW223124   4.177   4.933   5.432
 7409SOL     OW23125   5.625   4.981   1.139
 7409SOL    HW123126   5.641   5.077   1.116
 7409SOL    HW223127   5.668   4.923   1.070
 7410SOL     OW23128   6.225   1.112   0.034
 7410SOL    HW123129   6.169   1.152   0.108
 7410SOL    HW223130   6.169   1.102   6.976
 7411SOL     OW23131   3.616   1.887   5.584
 7411SOL    HW123132   3.571   1.798   5.590
 7411SOL    HW223133   3.667   1.904   5.668
 7412SOL     OW23134   4.697   6.636   6.793
 7412SOL    HW123135   4.674   6.542   6.769
 7412SOL    HW223136   4.644   6.664   6.873
 7413SOL     OW23137   4.732   1.123   3.645
 7413SOL    HW123138   4.654   1.180   3.670
 7413SOL    HW223139   4.748   1.129   3.546
 7414SOL     OW23140   3.138   0.916   4.835
 7414SOL    HW123141   3.161   0.832   4.786
 7414SOL    HW223142   3.215   0.944   4.892
 7415SOL     OW23143   4.091   0.903   5.626
 7415SOL    HW123144   4.170   0.896   5.567
 7415SOL    HW223145   4.035   0.982   5.599
 7416SOL     OW23146   0.061   0.548   1.875
 7416SOL    HW123147   0.016   0.596   1.950
 7416SOL    HW223148   0.157   0.576   1.870
 7417SOL     OW23149   6.955   0.811   1.632
 7417SOL    HW123150   6.921   0.860   1.712
 7417SOL    HW223151   0.027   0.832   1.619
 7418SOL     OW23152   2.494   3.639   6.026
 7418SOL    HW123153   2.533   3.729   6.046
 7418SOL    HW223154   2.403   3.632   6.068
 7419SOL     OW23155   0.058   2.566   4.692
 7419SOL    HW123156   0.027   2.472   4.675
 7419SOL    HW223157   7.003   2.626   4.698
 7420SOL     OW23158   6.391   6.710   0.110
 7420SOL    HW123159   6.469   6.764   0.140
 7420SOL    HW223160   6.312   6.732   0.167
 7421SOL     OW23161   0.132   4.167   0.935
 7421SOL    HW123162   0.072   4.226   0.880
 7421SOL    HW223163   0.182   4.105   0.874
 7422SOL     OW23164   6.925   3.157   1.688
 7422SOL    HW123165   6.997   3.128   1.751
 7422SOL    HW223166   6.849   3.092   1.693
 7423SOL     OW23167   4.143   2.382   5.933
 7423SOL    HW123168   4.056   2.360   5.976
 7423SOL    HW223169   4.190   2.298   5.907
 7424SOL     OW23170   1.028   1.808   4.406
 7424SOL    HW123171   1.000   1.878   4.472
 7424SOL    HW223172   1.116   1.833   4.366
 7425SOL     OW23173   5.737   0.681   0.616
 7425SOL    HW123174   5.721   0.708   0.521
 7425SOL    HW223175   5.835   0.690   0.637
 7426SOL     OW23176   3.739   3.671   5.587
 7426SOL    HW123177   3.813   3.735   5.570
 7426SOL    HW223178   3.719   3.620   5.503
 7427SOL     OW23179   3.035   0.747   1.471
 7427SOL    HW123180   3.069   0.778   1.560
 7427SOL    HW223181   2.936   0.735   1.476
 7428SOL     OW23182   1.126   6.952   5.308
 7428SOL    HW123183   1.073   6.881   5.261
 7428SOL    HW223184   1.222   6.946   5.280
 7429SOL     OW23185   0.457   0.256   2.312
 7429SOL    HW123186   0.479   0.322   2.240
 7429SOL    HW223187   0.462   0.163   2.275
 7430SOL     OW23188   6.595   3.241   2.563
 7430SOL    HW123189   6.526   3.285   2.621
 7430SOL    HW223190   6.661   3.309   2.532
 7431SOL     OW23191   1.114   2.739   4.659
 7431SOL    HW123192   1.037   2.728   4.596
 7431SOL    HW223193   1.089   2.806   4.729
 7432SOL     OW23194   1.163   1.139   2.753
 7432SOL    HW123195   1.230   1.210   2.777
 7432SOL    HW223196   1.187   1.099   2.665
 7433SOL     OW23197   3.971   0.188   6.318
 7433SOL    HW123198   3.947   0.241   6.399
 7433SOL    HW223199   4.043   0.235   6.267
 7434SOL     OW23200   3.646   6.937   3.191
 7434SOL    HW123201   3.613   6.897   3.106
 7434SOL    HW223202   3.636   6.871   3.265
 7435SOL     OW23203   4.589   4.349   3.134
 7435SOL    HW123204   4.515   4.397   3.181
 7435SOL    HW223205   4.666   4.337   3.197
 7436SOL     OW23206   4.747   2.725   6.244
 7436SOL    HW123207   4.768   2.665   6.321
 7436SOL    HW223208   4.791   2.813   6.257
 7437SOL     OW23209   3.891   0.728   1.490
 7437SOL    HW123210   3.843   0.752   1.405
 7437SOL    HW223211   3.831   0.672   1.547
 7438SOL     OW23212   1.479   0.796   6.129
 7438SOL    HW123213   1.570   0.826   6.159
 7438SOL    HW223214   1.485   0.758   6.037
 7439SOL     OW23215   1.356   4.508   5.933
 7439SOL    HW123216   1.304   4.571   5.991
 7439SOL    HW223217   1.425   4.560   5.881
 7440SOL     OW23218   6.347   2.424   4.932
 7440SOL    HW123219   6.341   2.353   4.861
 7440SOL    HW223220   6.275   2.409   5.000
 7441SOL     OW23221   5.184   6.956   0.656
 7441SOL    HW123222   5.164   7.004   0.570
 7441SOL    HW223223   5.098   6.937   0.704
 7442SOL     OW23224   0.044   0.951   6.036
 7442SOL    HW123225   0.089   0.868   6.004
 7442SOL    HW223226   0.098   0.993   6.110
 7443SOL     OW23227   0.231   6.637   0.401
 7443SOL    HW123228   0.183   6.717   0.437
 7443SOL    HW223229   0.330   6.656   0.399
 7444SOL     OW23230   0.885   6.390   6.573
 7444SOL    HW123231   0.960   6.381   6.508
 7444SOL    HW223232   0.806   6.338   6.541
 7445SOL     OW23233   3.892   6.064   2.128
 7445SOL    HW123234   3.882   6.143   2.068
 7445SOL    HW223235   3.875   6.092   2.223
 7446SOL     OW23236   6.188   4.960   0.336
 7446SOL    HW123237   6.272   4.905   0.335
 7446SOL    HW223238   6.128   4.931   0.262
 7447SOL     OW23239   0.139   5.895   0.925
 7447SOL    HW123240   0.189   5.948   0.994
 7447SOL    HW223241   0.129   5.801   0.957
 7448SOL     OW23242   4.701   5.125   6.955
 7448SOL    HW123243   4.681   5.030   6.979
 7448SOL    HW223244   4.777   5.128   6.890
 7449SOL     OW23245   6.297   3.589   6.265
 7449SOL    HW123246   6.364   3.656   6.235
 7449SOL    HW223247   6.215   3.595   6.208
 7450SOL     OW23248   5.240   3.650   0.311
 7450SOL    HW123249   5.144   3.626   0.299
 7450SOL    HW223250   5.264   3.727   0.252
 7451SOL     OW23251   4.511   5.468   2.806
 7451SOL    HW123252   4.500   5.540   2.876
 7451SOL    HW223253   4.546   5.509   2.722
 7452SOL     OW23254   6.732   6.109   0.069
 7452SOL    HW123255   6.771   6.176   0.007
 7452SOL    HW223256   6.691   6.034   0.016
 7453SOL     OW23257   4.451   4.611   6.361
 7453SOL    HW123258   4.384   4.671   6.318
 7453SOL    HW223259   4.535   4.611   6.308
 7454SOL     OW23260   4.027   1.914   1.136
 7454SOL    HW123261   4.052   2.006   1.166
 7454SOL    HW223262   4.087   1.885   1.061
 7455SOL     OW23263   6.539   0.629   2.797
 7455SOL    HW123264   6.555   0.530   2.792
 7455SOL    HW223265   6.558   0.661   2.890
 7456SOL     OW23266   2.722   0.637   4.931
 7456SOL    HW123267   2.741   0.675   5.021
 7456SOL    HW223268   2.679   0.706   4.873
 7457SOL     OW23269   1.308   1.869   2.695
 7457SOL    HW123270   1.313   1.825   2.784
 7457SOL    HW223271   1.387   1.928   2.682
 7458SOL     OW23272   6.840   5.892   4.940
 7458SOL    HW123273   6.916   5.947   4.907
 7458SOL    HW223274   6.767   5.952   4.973
 7459SOL     OW23275   5.145   6.568   2.939
 7459SOL    HW123276   5.243   6.586   2.945
 7459SOL    HW223277   5.130   6.482   2.890
 7460SOL     OW23278   0.553   0.773   1.298
 7460SOL    HW123279   0.532   0.843   1.366
 7460SOL    HW223280   0.550   0.683   1.341
 7461SOL     OW23281   1.582   4.618   5.820
 7461SOL    HW123282   1.644   4.695   5.804
 7461SOL    HW223283   1.630   4.533   5.798
 7462SOL     OW23284   2.092   4.310   6.689
 7462SOL    HW123285   2.012   4.296   6.632
 7462SOL    HW223286   2.087   4.250   6.769
 7463SOL     OW23287   4.731   4.749   0.610
 7463SOL    HW123288   4.794   4.808   0.559
 7463SOL    HW223289   4.637   4.776   0.592
 7464SOL     OW23290   5.506   5.458   5.206
 7464SOL    HW123291   5.508   5.358   5.210
 7464SOL    HW223292   5.592   5.491   5.168
 7465SOL     OW23293   1.144   3.575   6.766
 7465SOL    HW123294   1.118   3.486   6.805
 7465SOL    HW223295   1.244   3.585   6.770
 7466SOL     OW23296   0.632   0.357   5.815
 7466SOL    HW123297   0.590   0.341   5.904
 7466SOL    HW223298   0.565   0.401   5.754
 7467SOL     OW23299   1.435   4.196   3.896
 7467SOL    HW123300   1.362   4.150   3.946
 7467SOL    HW223301   1.482   4.130   3.837
 7468SOL     OW23302   5.916   2.792   4.684
 7468SOL    HW123303   5.920   2.865   4.616
 7468SOL    HW223304   5.841   2.730   4.662
 7469SOL     OW23305   7.000   1.860   6.997
 7469SOL    HW123306   0.055   1.843   0.031
 7469SOL    HW223307   6.960   1.773   6.970
 7470SOL     OW23308   4.939   3.294   3.789
 7470SOL    HW123309   4.935   3.283   3.888
 7470SOL    HW223310   4.944   3.204   3.746
 7471SOL     OW23311   3.069   0.234   6.314
 7471SOL    HW123312   3.001   0.167   6.281
 7471SOL    HW223313   3.044   0.325   6.280
 7472SOL     OW23314   0.245   0.502   5.120
 7472SOL    HW123315   0.317   0.434   5.106
 7472SOL    HW223316   0.268   0.560   5.198
 7473SOL     OW23317   4.862   0.291   3.590
 7473SOL    HW123318   4.813   0.342   3.520
 7473SOL    HW223319   4.921   0.352   3.642
 7474SOL     OW23320   6.193   2.103   2.355
 7474SOL    HW123321   6.099   2.131   2.371
 7474SOL    HW223322   6.251   2.137   2.429
 7475SOL     OW23323   5.207   3.264   1.074
 7475SOL    HW123324   5.118   3.285   1.035
 7475SOL    HW223325   5.197   3.201   1.150
 7476SOL     OW23326   2.663   1.293   2.358
 7476SOL    HW123327   2.695   1.207   2.318
 7476SOL    HW223328   2.626   1.352   2.286
 7477SOL     OW23329   2.313   3.372   5.660
 7477SOL    HW123330   2.215   3.391   5.654
 7477SOL    HW223331   2.358   3.446   5.709
 7478SOL     OW23332   1.077   2.958   0.191
 7478SOL    HW123333   1.054   2.932   0.097
 7478SOL    HW223334   1.029   2.899   0.255
 7479SOL     OW23335   4.973   2.620   2.290
 7479SOL    HW123336   4.981   2.547   2.222
 7479SOL    HW223337   5.059   2.627   2.341
 7480SOL     OW23338   3.926   6.512   2.046
 7480SOL    HW123339   3.845   6.568   2.027
 7480SOL    HW223340   3.911   6.419   2.014
 7481SOL     OW23341   0.740   4.311   6.839
 7481SOL    HW123342   0.732   4.246   6.915
 7481SOL    HW223343   0.787   4.394   6.871
 7482SOL     OW23344   3.943   1.561   4.513
 7482SOL    HW123345   4.032   1.517   4.503
 7482SOL    HW223346   3.940   1.643   4.457
 7483SOL     OW23347   6.122   1.132   5.149
 7483SOL    HW123348   6.079   1.095   5.231
 7483SOL    HW223349   6.171   1.060   5.101
 7484SOL     OW23350   2.378   6.968   5.288
 7484SOL    HW123351   2.363   6.973   5.190
 7484SOL    HW223352   2.395   0.036   5.324
 7485SOL     OW23353   3.835   6.941   6.802
 7485SOL    HW123354   3.830   0.012   6.833
 7485SOL    HW223355   3.905   6.934   6.731
 7486SOL     OW23356   4.095   6.172   1.107
 7486SOL    HW123357   4.180   6.225   1.109
 7486SOL    HW223358   4.112   6.081   1.144
 7487SOL     OW23359   3.445   6.185   4.458
 7487SOL    HW123360   3.496   6.269   4.439
 7487SOL    HW223361   3.438   6.173   4.557
 7488SOL     OW23362   2.135   5.891   3.385
 7488SOL    HW123363   2.178   5.804   3.361
 7488SOL    HW223364   2.038   5.888   3.359
 7489SOL     OW23365   5.334   4.041   5.808
 7489SOL    HW123366   5.301   4.135   5.814
 7489SOL    HW223367   5.260   3.978   5.834
 7490SOL     OW23368   2.073   2.063   1.536
 7490SOL    HW123369   1.976   2.062   1.512
 7490SOL    HW223370   2.099   1.975   1.574
 7491SOL     OW23371   4.186   4.116   6.069
 7491SOL    HW123372   4.091   4.107   6.039
 7491SOL    HW223373   4.225   4.025   6.084
 7492SOL     OW23374   1.727   1.771   3.028
 7492SOL    HW123375   1.809   1.828   3.034
 7492SOL    HW223376   1.730   1.716   2.945
 7493SOL     OW23377   5.706   4.492   4.851
 7493SOL    HW123378   5.621   4.545   4.848
 7493SOL    HW223379   5.688   4.399   4.821
 7494SOL     OW23380   5.799   1.755   2.478
 7494SOL    HW123381   5.717   1.710   2.444
 7494SOL    HW223382   5.873   1.746   2.411
 7495SOL     OW23383   1.576   3.547   4.309
 7495SOL    HW123384   1.538   3.637   4.288
 7495SOL    HW223385   1.646   3.557   4.380
 7496SOL     OW23386   5.985   3.119   3.619
 7496SOL    HW123387   6.061   3.180   3.643
 7496SOL    HW223388   5.900   3.172   3.619
 7497SOL     OW23389   6.131   0.646   1.121
 7497SOL    HW123390   6.109   0.740   1.097
 7497SOL    HW223391   6.194   0.645   1.198
 7498SOL     OW23392   2.347   6.004   2.733
 7498SOL    HW123393   2.412   5.957   2.673
 7498SOL    HW223394   2.273   6.044   2.678
 7499SOL     OW23395   3.196   1.141   2.815
 7499SOL    HW123396   3.145   1.057   2.833
 7499SOL    HW223397   3.255   1.127   2.736
 7500SOL     OW23398   3.647   1.392   5.104
 7500SOL    HW123399   3.627   1.352   5.193
 7500SOL    HW223400   3.566   1.439   5.069
 7501SOL     OW23401   5.626   1.672   4.914
 7501SOL    HW123402   5.611   1.767   4.887
 7501SOL    HW223403   5.722   1.659   4.937
 7502SOL     OW23404   3.638   1.098   4.480
 7502SOL    HW123405   3.595   1.179   4.441
 7502SOL    HW223406   3.591   1.073   4.565
 7503SOL     OW23407   1.164   5.897   1.035
 7503SOL    HW123408   1.246   5.946   1.006
 7503SOL    HW223409   1.183   5.847   1.120
 7504SOL     OW23410   6.054   5.862   4.960
 7504SOL    HW123411   6.143   5.885   4.922
 7504SOL    HW223412   6.017   5.941   5.010
 7505SOL     OW23413   0.555   6.595   6.754
 7505SOL    HW123414   0.574   6.683   6.797
 7505SOL    HW223415   0.459   6.591   6.726
 7506SOL     OW23416   3.478   2.113   4.565
 7506SOL    HW123417   3.573   2.131   4.541
 7506SOL    HW223418   3.441   2.190   4.617
 7507SOL     OW23419   6.804   3.598   6.158
 7507SOL    HW123420   6.882   3.616   6.219
 7507SOL    HW223421   6.805   3.663   6.082
 7508SOL     OW23422   4.103   6.428   0.153
 7508SOL    HW123423   4.024   6.392   0.103
 7508SOL    HW223424   4.136   6.359   0.217
 7509SOL     OW23425   5.550   4.303   3.115
 7509SOL    HW123426   5.586   4.380   3.063
 7509SOL    HW223427   5.570   4.315   3.212
 7510SOL     OW23428   3.778   4.472   1.461
 7510SOL    HW123429   3.792   4.376   1.437
 7510SOL    HW223430   3.742   4.522   1.382
 7511SOL     OW23431   4.440   6.219   4.556
 7511SOL    HW123432   4.437   6.152   4.482
 7511SOL    HW223433   4.465   6.308   4.519
 7512SOL     OW23434   3.598   5.420   0.904
 7512SOL    HW123435   3.546   5.390   0.824
 7512SOL    HW223436   3.543   5.484   0.957
 7513SOL     OW23437   0.014   0.679   2.700
 7513SOL    HW123438   0.077   0.757   2.694
 7513SOL    HW223439   6.948   0.708   2.667
 7514SOL     OW23440   6.989   0.339   0.232
 7514SOL    HW123441   7.009   0.337   0.134
 7514SOL    HW223442   6.898   0.379   0.246
 7515SOL     OW23443   6.852   5.520   4.664
 7515SOL    HW123444   6.820   5.590   4.729
 7515SOL    HW223445   6.904   5.450   4.713
 7516SOL     OW23446   2.283   6.043   4.146
 7516SOL    HW123447   2.241   5.955   4.123
 7516SOL    HW223448   2.325   6.037   4.236
 7517SOL     OW23449   0.477   2.681   0.533
 7517SOL    HW123450   0.411   2.620   0.489
 7517SOL    HW223451   0.437   2.772   0.541
 7518SOL     OW23452   4.051   2.115   4.831
 7518SOL    HW123453   4.063   2.160   4.743
 7518SOL    HW223454   3.974   2.051   4.827
 7519SOL     OW23455   3.219   6.942   4.830
 7519SOL    HW123456   3.183   6.959   4.738
 7519SOL    HW223457   3.234   6.844   4.842
 7520SOL     OW23458   1.688   0.371   0.788
 7520SOL    HW123459   1.746   0.398   0.710
 7520SOL    HW223460   1.600   0.417   0.781
 7521SOL     OW23461   4.775   1.678   5.682
 7521SOL    HW123462   4.736   1.640   5.599
 7521SOL    HW223463   4.868   1.712   5.663
 7522SOL     OW23464   1.370   6.665   3.904
 7522SOL    HW123465   1.327   6.755   3.904
 7522SOL    HW223466   1.391   6.638   3.998
 7523SOL     OW23467   5.365   1.729   6.829
 7523SOL    HW123468   5.403   1.793   6.895
 7523SOL    HW223469   5.312   1.659   6.877
 7524SOL     OW23470   6.947   4.153   4.887
 7524SOL    HW123471   6.916   4.198   4.971
 7524SOL    HW223472   6.993   4.220   4.829
 7525SOL     OW23473   2.373   4.496   5.807
 7525SOL    HW123474   2.321   4.431   5.751
 7525SOL    HW223475   2.468   4.467   5.811
 7526SOL     OW23476   0.862   3.565   1.379
 7526SOL    HW123477   0.937   3.613   1.425
 7526SOL    HW223478   0.896   3.479   1.341
 7527SOL     OW23479   2.800   5.293   2.523
 7527SOL    HW123480   2.807   5.312   2.425
 7527SOL    HW223481   2.760   5.372   2.569
 7528SOL     OW23482   6.622   2.703   0.049
 7528SOL    HW123483   6.685   2.626   0.053
 7528SOL    HW223484   6.669   2.784   0.014
 7529SOL     OW23485   5.825   2.443   5.028
 7529SOL    HW123486   5.897   2.449   4.960
 7529SOL    HW223487   5.821   2.527   5.081
 7530SOL     OW23488   1.942   2.691   3.370
 7530SOL    HW123489   1.938   2.791   3.358
 7530SOL    HW223490   1.861   2.649   3.329
 7531SOL     OW23491   4.605   1.680   4.092
 7531SOL    HW123492   4.550   1.715   4.015
 7531SOL    HW223493   4.550   1.683   4.175
 7532SOL     OW23494   4.345   4.377   6.107
 7532SOL    HW123495   4.311   4.317   6.034
 7532SOL    HW223496   4.312   4.344   6.196
 7533SOL     OW23497   4.250   4.410   0.301
 7533SOL    HW123498   4.162   4.383   0.339
 7533SOL    HW223499   4.323   4.376   0.361
 7534SOL     OW23500   4.226   6.458   5.028
 7534SOL    HW123501   4.258   6.475   4.935
 7534SOL    HW223502   4.126   6.461   5.030
 7535SOL     OW23503   0.104   6.849   4.980
 7535SOL    HW123504   0.029   6.795   5.017
 7535SOL    HW223505   0.181   6.789   4.960
 7536SOL     OW23506   5.633   7.011   3.007
 7536SOL    HW123507   5.639   6.992   2.909
 7536SOL    HW223508   5.649   0.084   3.024
 7537SOL     OW23509   2.562   0.015   1.705
 7537SOL    HW123510   2.471   0.018   1.666
 7537SOL    HW223511   2.630   0.023   1.632
 7538SOL     OW23512   0.983   4.764   0.200
 7538SOL    HW123513   1.027   4.676   0.220
 7538SOL    HW223514   0.886   4.758   0.223
 7539SOL     OW23515   6.362   0.044   5.066
 7539SOL    HW123516   6.421   0.112   5.024
 7539SOL    HW223517   6.368   6.982   5.015
 7540SOL     OW23518   5.050   3.998   3.885
 7540SOL    HW123519   5.056   3.899   3.873
 7540SOL    HW223520   4.955   4.023   3.902
 7541SOL     OW23521   1.868   3.943   0.049
 7541SOL    HW123522   1.799   3.905   0.110
 7541SOL    HW223523   1.831   4.024   0.003
 7542SOL     OW23524   6.422   6.171   4.870
 7542SOL    HW123525   6.386   6.256   4.909
 7542SOL    HW223526   6.403   6.168   4.772
 7543SOL     OW23527   2.010   0.353   6.871
 7543SOL    HW123528   1.992   0.274   6.812
 7543SOL    HW223529   2.087   0.405   6.834
 7544SOL     OW23530   6.656   2.078   5.738
 7544SOL    HW123531   6.650   2.107   5.643
 7544SOL    HW223532   6.669   2.158   5.796
 7545SOL     OW23533   1.304   5.761   4.752
 7545SOL    HW123534   1.228   5.736   4.693
 7545SOL    HW223535   1.270   5.814   4.830
 7546SOL     OW23536   2.272   3.202   1.781
 7546SOL    HW123537   2.281   3.295   1.817
 7546SOL    HW223538   2.363   3.167   1.758
 7547SOL     OW23539   3.973   0.758   2.174
 7547SOL    HW123540   3.899   0.695   2.196
 7547SOL    HW223541   3.988   0.760   2.075
 7548SOL     OW23542   2.741   2.265   6.175
 7548SOL    HW123543   2.667   2.327   6.201
 7548SOL    HW223544   2.729   2.238   6.080
 7549SOL     OW23545   5.299   0.335   5.641
 7549SOL    HW123546   5.365   0.383   5.698
 7549SOL    HW223547   5.236   0.401   5.600
 7550SOL     OW23548   3.176   6.445   4.708
 7550SOL    HW123549   3.212   6.352   4.719
 7550SOL    HW223550   3.213   6.486   4.625
 7551SOL     OW23551   5.876   3.130   6.839
 7551SOL    HW123552   5.825   3.084   6.912
 7551SOL    HW223553   5.968   3.091   6.833
 7552SOL     OW23554   2.869   6.815   4.634
 7552SOL    HW123555   2.822   6.782   4.717
 7552SOL    HW223556   2.863   6.745   4.563
 7553SOL     OW23557   6.367   0.247   5.697
 7553SOL    HW123558   6.393   0.324   5.756
 7553SOL    HW223559   6.425   0.248   5.615
 7554SOL     OW23560   4.703   1.827   2.047
 7554SOL    HW123561   4.753   1.741   2.044
 7554SOL    HW223562   4.630   1.821   2.115
 7555SOL     OW23563   4.552   5.748   4.343
 7555SOL    HW123564   4.632   5.762   4.286
 7555SOL    HW223565   4.470   5.748   4.286
 7556SOL     OW23566   0.726   5.614   0.739
 7556SOL    HW123567   0.635   5.574   0.735
 7556SOL    HW223568   0.720   5.709   0.767
 7557SOL     OW23569   4.368   5.850   0.447
 7557SOL    HW123570   4.307   5.902   0.388
 7557SOL    HW223571   4.322   5.767   0.478
 7558SOL     OW23572   1.803   1.657   4.360
 7558SOL    HW123573   1.902   1.662   4.377
 7558SOL    HW223574   1.773   1.743   4.318
 7559SOL     OW23575   1.294   6.678   4.957
 7559SOL    HW123576   1.350   6.700   5.037
 7559SOL    HW223577   1.349   6.624   4.893
 7560SOL     OW23578   0.431   1.025   5.459
 7560SOL    HW123579   0.382   1.110   5.441
 7560SOL    HW223580   0.374   0.965   5.514
 7561SOL     OW23581   5.441   1.128   5.925
 7561SOL    HW123582   5.483   1.210   5.886
 7561SOL    HW223583   5.374   1.092   5.860
 7562SOL     OW23584   1.594   5.585   3.566
 7562SOL    HW123585   1.605   5.619   3.472
 7562SOL    HW223586   1.527   5.512   3.567
 7563SOL     OW23587   3.327   6.138   3.139
 7563SOL    HW123588   3.231   6.121   3.158
 7563SOL    HW223589   3.338   6.230   3.100
 7564SOL     OW23590   6.025   3.729   6.488
 7564SOL    HW123591   5.997   3.654   6.549
 7564SOL    HW223592   5.955   3.741   6.417
 7565SOL     OW23593   6.483   3.399   5.553
 7565SOL    HW123594   6.524   3.404   5.644
 7565SOL    HW223595   6.475   3.304   5.525
 7566SOL     OW23596   5.140   3.977   1.269
 7566SOL    HW123597   5.080   3.901   1.245
 7566SOL    HW223598   5.085   4.056   1.298
 7567SOL     OW23599   1.590   0.481   3.044
 7567SOL    HW123600   1.644   0.442   3.118
 7567SOL    HW223601   1.502   0.514   3.081
 7568SOL     OW23602   0.130   4.511   1.478
 7568SOL    HW123603   0.224   4.498   1.507
 7568SOL    HW223604   0.071   4.443   1.521
 7569SOL     OW23605   4.579   4.019   1.397
 7569SOL    HW123606   4.534   4.091   1.449
 7569SOL    HW223607   4.556   4.029   1.300
 7570SOL     OW23608   1.175   2.550   2.127
 7570SOL    HW123609   1.102   2.492   2.091
 7570SOL    HW223610   1.139   2.641   2.148
 7571SOL     OW23611   5.255   1.567   3.445
 7571SOL    HW123612   5.328   1.500   3.461
 7571SOL    HW223613   5.178   1.522   3.401
 7572SOL     OW23614   4.422   6.943   2.516
 7572SOL    HW123615   4.357   6.885   2.467
 7572SOL    HW223616   4.428   0.008   2.470
 7573SOL     OW23617   3.352   0.596   6.016
 7573SOL    HW123618   3.399   0.529   6.074
 7573SOL    HW223619   3.370   0.688   6.050
 7574SOL     OW23620   0.776   3.579   2.736
 7574SOL    HW123621   0.805   3.670   2.708
 7574SOL    HW223622   0.789   3.568   2.835
 7575SOL     OW23623   6.759   0.153   0.002
 7575SOL    HW123624   6.726   0.236   6.982
 7575SOL    HW223625   6.760   0.078   6.960
 7576SOL     OW23626   4.841   2.926   6.860
 7576SOL    HW123627   4.938   2.920   6.836
 7576SOL    HW223628   4.812   3.022   6.856
 7577SOL     OW23629   6.893   0.590   5.432
 7577SOL    HW123630   6.937   0.637   5.508
 7577SOL    HW223631   6.838   0.656   5.380
 7578SOL     OW23632   6.277   5.705   2.147
 7578SOL    HW123633   6.190   5.664   2.174
 7578SOL    HW223634   6.345   5.692   2.219
 7579SOL     OW23635   1.204   1.758   6.567
 7579SOL    HW123636   1.281   1.822   6.569
 7579SOL    HW223637   1.191   1.723   6.475
 7580SOL     OW23638   2.092   4.586   2.022
 7580SOL    HW123639   2.149   4.668   2.010
 7580SOL    HW223640   2.023   4.604   2.092
 7581SOL     OW23641   0.628   0.209   1.063
 7581SOL    HW123642   0.669   0.253   0.983
 7581SOL    HW223643   0.589   0.121   1.037
 7582SOL     OW23644   1.248   0.584   5.521
 7582SOL    HW123645   1.267   0.630   5.434
 7582SOL    HW223646   1.318   0.515   5.538
 7583SOL     OW23647   5.538   3.568   2.524
 7583SOL    HW123648   5.448   3.555   2.483
 7583SOL    HW223649   5.554   3.500   2.595
 7584SOL     OW23650   0.248   1.165   3.657
 7584SOL    HW123651   0.279   1.097   3.724
 7584SOL    HW223652   0.321   1.229   3.638
 7585SOL     OW23653   0.637   1.245   6.026
 7585SOL    HW123654   0.706   1.317   6.036
 7585SOL    HW223655   0.682   1.156   6.024
 7586SOL     OW23656   2.412   6.706   4.043
 7586SOL    HW123657   2.377   6.799   4.038
 7586SOL    HW223658   2.387   6.656   3.960
 7587SOL     OW23659   5.734   0.280   2.034
 7587SOL    HW123660   5.785   0.247   2.114
 7587SOL    HW223661   5.704   0.374   2.051
 7588SOL     OW23662   2.116   3.649   4.746
 7588SOL    HW123663   2.121   3.728   4.686
 7588SOL    HW223664   2.106   3.679   4.841
 7589SOL     OW23665   6.671   6.840   2.519
 7589SOL    HW123666   6.731   6.861   2.596
 7589SOL    HW223667   6.578   6.826   2.551
 7590SOL     OW23668   5.664   0.921   6.569
 7590SOL    HW123669   5.582   0.969   6.538
 7590SOL    HW223670   5.683   0.944   6.664
 7591SOL     OW23671   3.810   3.580   5.081
 7591SOL    HW123672   3.842   3.507   5.142
 7591SOL    HW223673   3.781   3.540   4.994
 7592SOL     OW23674   7.014   0.257   3.104
 7592SOL    HW123675   0.073   0.206   3.127
 7592SOL    HW223676   7.008   0.339   3.161
 7593SOL     OW23677   6.723   2.112   6.469
 7593SOL    HW123678   6.628   2.136   6.453
 7593SOL    HW223679   6.745   2.125   6.566
 7594SOL     OW23680   6.793   4.223   5.407
 7594SOL    HW123681   6.873   4.277   5.434
 7594SOL    HW223682   6.756   4.175   5.487
 7595SOL     OW23683   0.154   3.646   0.434
 7595SOL    HW123684   0.205   3.561   0.421
 7595SOL    HW223685   0.094   3.661   0.356
 7596SOL     OW23686   3.334   2.013   7.003
 7596SOL    HW123687   3.322   1.913   7.002
 7596SOL    HW223688   3.280   2.051   0.054
 7597SOL     OW23689   2.236   4.537   6.961
 7597SOL    HW123690   2.285   4.496   6.884
 7597SOL    HW223691   2.301   4.586   7.019
 7598SOL     OW23692   5.026   0.900   2.283
 7598SOL    HW123693   5.013   0.990   2.243
 7598SOL    HW223694   4.955   0.883   2.351
 7599SOL     OW23695   2.808   3.173   0.275
 7599SOL    HW123696   2.871   3.138   0.206
 7599SOL    HW223697   2.859   3.223   0.345
 7600SOL     OW23698   0.091   6.978   4.671
 7600SOL    HW123699   0.117   6.947   4.579
 7600SOL    HW223700   0.024   6.913   4.709
 7601SOL     OW23701   2.943   5.970   0.994
 7601SOL    HW123702   2.955   5.917   0.910
 7601SOL    HW223703   2.850   6.008   0.997
 7602SOL     OW23704   6.883   1.000   1.387
 7602SOL    HW123705   6.927   0.973   1.301
 7602SOL    HW223706   6.913   0.940   1.461
 7603SOL     OW23707   4.248   1.436   6.472
 7603SOL    HW123708   4.249   1.430   6.571
 7603SOL    HW223709   4.320   1.378   6.434
 7604SOL     OW23710   2.604   1.900   5.650
 7604SOL    HW123711   2.630   1.991   5.684
 7604SOL    HW223712   2.631   1.891   5.554
 7605SOL     OW23713   2.820   6.379   6.261
 7605SOL    HW123714   2.878   6.396   6.181
 7605SOL    HW223715   2.875   6.382   6.344
 7606SOL     OW23716   6.344   0.913   3.783
 7606SOL    HW123717   6.383   0.821   3.787
 7606SOL    HW223718   6.255   0.913   3.830
 7607SOL     OW23719   2.135   5.802   5.346
 7607SOL    HW123720   2.106   5.888   5.388
 7607SOL    HW223721   2.233   5.788   5.364
 7608SOL     OW23722   0.903   2.665   6.638
 7608SOL    HW123723   0.815   2.693   6.676
 7608SOL    HW223724   0.888   2.598   6.566
 7609SOL     OW23725   3.332   0.494   4.824
 7609SOL    HW123726   3.261   0.451   4.880
 7609SOL    HW223727   3.297   0.510   4.732
 7610SOL     OW23728   4.347   6.187   4.962
 7610SOL    HW123729   4.348   6.245   5.043
 7610SOL    HW223730   4.300   6.101   4.983
 7611SOL     OW23731   4.154   2.158   0.468
 7611SOL    HW123732   4.109   2.076   0.503
 7611SOL    HW223733   4.254   2.147   0.477
 7612SOL     OW23734   4.861   3.229   2.341
 7612SOL    HW123735   4.837   3.253   2.247
 7612SOL    HW223736   4.907   3.306   2.385
 7613SOL     OW23737   0.127   0.871   6.464
 7613SOL    HW123738   0.174   0.947   6.509
 7613SOL    HW223739   0.194   0.810   6.422
 7614SOL     OW23740   6.018   5.182   6.891
 7614SOL    HW123741   5.978   5.109   6.836
 7614SOL    HW223742   5.950   5.216   6.956
 7615SOL     OW23743   4.916   3.475   6.233
 7615SOL    HW123744   4.869   3.564   6.235
 7615SOL    HW223745   5.007   3.484   6.274
 7616SOL     OW23746   6.364   6.612   2.041
 7616SOL    HW123747   6.451   6.564   2.044
 7616SOL    HW223748   6.379   6.710   2.051
 7617SOL     OW23749   5.113   4.995   3.025
 7617SOL    HW123750   5.157   5.015   3.112
 7617SOL    HW223751   5.099   4.896   3.017
 7618SOL     OW23752   2.745   2.414   0.146
 7618SOL    HW123753   2.829   2.365   0.121
 7618SOL    HW223754   2.710   2.377   0.232
 7619SOL     OW23755   0.611   0.625   4.491
 7619SOL    HW123756   0.622   0.717   4.452
 7619SOL    HW223757   0.514   0.610   4.512
 7620SOL     OW23758   3.231   4.347   0.624
 7620SOL    HW123759   3.270   4.282   0.558
 7620SOL    HW223760   3.187   4.296   0.698
 7621SOL     OW23761   5.807   4.864   0.990
 7621SOL    HW123762   5.878   4.836   1.055
 7621SOL    HW223763   5.850   4.912   0.913
 7622SOL     OW23764   2.148   3.738   0.737
 7622SOL    HW123765   2.247   3.751   0.736
 7622SOL    HW223766   2.114   3.731   0.643
 7623SOL     OW23767   5.232   5.194   3.334
 7623SOL    HW123768   5.136   5.223   3.324
 7623SOL    HW223769   5.289   5.244   3.269
 7624SOL     OW23770   6.548   2.943   3.344
 7624SOL    HW123771   6.539   3.001   3.263
 7624SOL    HW223772   6.520   2.995   3.425
 7625SOL     OW23773   5.086   0.306   2.008
 7625SOL    HW123774   5.090   0.400   1.974
 7625SOL    HW223775   5.149   0.296   2.086
 7626SOL     OW23776   4.729   6.072   0.537
 7626SOL    HW123777   4.687   6.116   0.458
 7626SOL    HW223778   4.738   5.974   0.520
 7627SOL     OW23779   4.551   2.528   5.469
 7627SOL    HW123780   4.453   2.549   5.464
 7627SOL    HW223781   4.581   2.534   5.564
 7628SOL     OW23782   3.813   2.841   0.649
 7628SOL    HW123783   3.790   2.934   0.680
 7628SOL    HW223784   3.748   2.776   0.688
 7629SOL     OW23785   5.689   2.788   3.838
 7629SOL    HW123786   5.639   2.720   3.783
 7629SOL    HW223787   5.779   2.803   3.797
 7630SOL     OW23788   1.799   5.599   3.821
 7630SOL    HW123789   1.864   5.616   3.747
 7630SOL    HW223790   1.706   5.602   3.786
 7631SOL     OW23791   1.392   1.225   6.666
 7631SOL    HW123792   1.312   1.275   6.699
 7631SOL    HW223793   1.372   1.127   6.665
 7632SOL     OW23794   4.062   5.395   0.908
 7632SOL    HW123795   4.081   5.318   0.847
 7632SOL    HW223796   3.967   5.389   0.940
 7633SOL     OW23797   5.404   0.574   1.895
 7633SOL    HW123798   5.449   0.511   1.831
 7633SOL    HW223799   5.375   0.656   1.846
 7634SOL     OW23800   0.816   2.103   6.999
 7634SOL    HW123801   0.814   2.202   6.981
 7634SOL    HW223802   0.788   2.086   0.069
 7635SOL     OW23803   1.665   3.268   6.073
 7635SOL    HW123804   1.665   3.169   6.059
 7635SOL    HW223805   1.759   3.302   6.066
 7636SOL     OW23806   0.047   2.883   3.409
 7636SOL    HW123807   0.130   2.929   3.439
 7636SOL    HW223808   0.037   2.797   3.457
 7637SOL     OW23809   1.819   4.433   4.634
 7637SOL    HW123810   1.835   4.339   4.666
 7637SOL    HW223811   1.731   4.465   4.669
 7638SOL     OW23812   0.236   6.992   0.811
 7638SOL    HW123813   0.155   0.026   0.805
 7638SOL    HW223814   0.219   6.918   0.876
 7639SOL     OW23815   2.081   6.007   0.267
 7639SOL    HW123816   2.169   6.019   0.220
 7639SOL    HW223817   2.096   5.958   0.353
 7640SOL     OW23818   3.334   0.582   0.557
 7640SOL    HW123819   3.292   0.506   0.508
 7640SOL    HW223820   3.271   0.660   0.557
 7641SOL     OW23821   6.342   4.210   5.332
 7641SOL    HW123822   6.255   4.164   5.350
 7641SOL    HW223823   6.371   4.258   5.414
 7642SOL     OW23824   5.273   0.629   3.978
 7642SOL    HW123825   5.175   0.609   3.965
 7642SOL    HW223826   5.282   0.713   4.031
 7643SOL     OW23827   5.243   2.059   4.077
 7643SOL    HW123828   5.234   2.098   3.986
 7643SOL    HW223829   5.298   1.975   4.072
 7644SOL     OW23830   5.652   3.933   0.187
 7644SOL    HW123831   5.656   3.834   0.170
 7644SOL    HW223832   5.610   3.949   0.276
 7645SOL     OW23833   6.020   4.368   6.337
 7645SOL    HW123834   5.929   4.333   6.313
 7645SOL    HW223835   6.013   4.465   6.360
 7646SOL     OW23836   6.008   1.333   3.157
 7646SOL    HW123837   5.943   1.408   3.144
 7646SOL    HW223838   5.988   1.259   3.093
 7647SOL     OW23839   6.677   1.471   4.262
 7647SOL    HW123840   6.616   1.508   4.192
 7647SOL    HW223841   6.695   1.541   4.331
 7648SOL     OW23842   1.869   2.706   0.710
 7648SOL    HW123843   1.946   2.702   0.646
 7648SOL    HW223844   1.793   2.755   0.667
 7649SOL     OW23845   4.301   0.788   0.550
 7649SOL    HW123846   4.373   0.719   0.557
 7649SOL    HW223847   4.214   0.744   0.527
 7650SOL     OW23848   3.688   2.713   0.156
 7650SOL    HW123849   3.640   2.787   0.110
 7650SOL    HW223850   3.786   2.718   0.136
 7651SOL     OW23851   3.549   5.462   5.805
 7651SOL    HW123852   3.571   5.559   5.800
 7651SOL    HW223853   3.489   5.445   5.883
 7652SOL     OW23854   0.795   0.993   4.753
 7652SOL    HW123855   0.730   1.056   4.795
 7652SOL    HW223856   0.746   0.911   4.723
 7653SOL     OW23857   1.854   6.651   6.094
 7653SOL    HW123858   1.813   6.633   6.183
 7653SOL    HW223859   1.952   6.629   6.097
 7654SOL     OW23860   0.160   2.281   6.168
 7654SOL    HW123861   0.086   2.331   6.121
 7654SOL    HW223862   0.122   2.198   6.209
 7655SOL     OW23863   2.676   1.425   5.697
 7655SOL    HW123864   2.641   1.516   5.717
 7655SOL    HW223865   2.734   1.394   5.773
 7656SOL     OW23866   6.105   3.435   6.937
 7656SOL    HW123867   6.110   3.343   6.975
 7656SOL    HW223868   6.010   3.455   6.913
 7657SOL     OW23869   0.544   4.226   5.003
 7657SOL    HW123870   0.575   4.321   5.008
 7657SOL    HW223871   0.608   4.172   4.947
 7658SOL     OW23872   2.568   0.076   0.834
 7658SOL    HW123873   2.538   0.007   0.900
 7658SOL    HW223874   2.548   0.044   0.741
 7659SOL     OW23875   5.418   4.045   5.241
 7659SOL    HW123876   5.480   3.967   5.228
 7659SOL    HW223877   5.436   4.087   5.330
 7660SOL     OW23878   0.279   6.285   5.100
 7660SOL    HW123879   0.205   6.275   5.033
 7660SOL    HW223880   0.351   6.219   5.081
 7661SOL     OW23881   1.823   0.153   4.906
 7661SOL    HW123882   1.775   0.224   4.958
 7661SOL    HW223883   1.758   0.083   4.878
 7662SOL     OW23884   6.647   6.490   2.024
 7662SOL    HW123885   6.683   6.402   1.993
 7662SOL    HW223886   6.702   6.524   2.100
 7663SOL     OW23887   1.673   5.970   3.466
 7663SOL    HW123888   1.768   5.996   3.482
 7663SOL    HW223889   1.634   5.932   3.550
 7664SOL     OW23890   5.301   2.378   3.006
 7664SOL    HW123891   5.207   2.353   2.985
 7664SOL    HW223892   5.314   2.379   3.105
 7665SOL     OW23893   1.956   6.518   5.091
 7665SOL    HW123894   1.943   6.612   5.060
 7665SOL    HW223895   2.049   6.506   5.126
 7666SOL     OW23896   6.472   4.783   3.876
 7666SOL    HW123897   6.447   4.771   3.780
 7666SOL    HW223898   6.497   4.694   3.915
 7667SOL     OW23899   4.770   5.537   1.388
 7667SOL    HW123900   4.698   5.557   1.454
 7667SOL    HW223901   4.749   5.581   1.301
 7668SOL     OW23902   1.979   5.136   0.736
 7668SOL    HW123903   2.047   5.134   0.810
 7668SOL    HW223904   1.888   5.146   0.775
 7669SOL     OW23905   4.419   2.380   6.735
 7669SOL    HW123906   4.356   2.357   6.661
 7669SOL    HW223907   4.473   2.299   6.759
 7670SOL     OW23908   1.256   1.103   1.104
 7670SOL    HW123909   1.193   1.101   1.027
 7670SOL    HW223910   1.254   1.193   1.147
 7671SOL     OW23911   3.777   1.002   2.010
 7671SOL    HW123912   3.767   1.010   2.109
 7671SOL    HW223913   3.862   1.047   1.981
 7672SOL     OW23914   5.869   2.627   3.206
 7672SOL    HW123915   5.925   2.707   3.222
 7672SOL    HW223916   5.882   2.560   3.279
 7673SOL     OW23917   2.186   6.324   5.351
 7673SOL    HW123918   2.210   6.417   5.324
 7673SOL    HW223919   2.192   6.315   5.450
 7674SOL     OW23920   3.975   5.865   3.830
 7674SOL    HW123921   3.924   5.902   3.753
 7674SOL    HW223922   4.036   5.792   3.797
 7675SOL     OW23923   3.757   6.716   2.882
 7675SOL    HW123924   3.737   6.684   2.790
 7675SOL    HW223925   3.756   6.639   2.945
 7676SOL     OW23926   3.313   3.236   4.085
 7676SOL    HW123927   3.222   3.213   4.051
 7676SOL    HW223928   3.329   3.189   4.171
 7677SOL     OW23929   0.208   6.872   0.553
 7677SOL    HW123930   0.222   6.927   0.635
 7677SOL    HW223931   0.229   6.927   0.472
 7678SOL     OW23932   3.495   1.006   5.206
 7678SOL    HW123933   3.563   0.949   5.251
 7678SOL    HW223934   3.523   1.102   5.211
 7679SOL     OW23935   3.284   5.494   4.308
 7679SOL    HW123936   3.366   5.534   4.348
 7679SOL    HW223937   3.215   5.481   4.379
 7680SOL     OW23938   1.456   5.721   3.955
 7680SOL    HW123939   1.420   5.665   3.881
 7680SOL    HW223940   1.380   5.764   4.004
 7681SOL     OW23941   2.125   2.258   5.514
 7681SOL    HW123942   2.176   2.177   5.545
 7681SOL    HW223943   2.029   2.234   5.500
 7682SOL     OW23944   2.816   6.697   1.587
 7682SOL    HW123945   2.837   6.624   1.521
 7682SOL    HW223946   2.899   6.747   1.610
 7683SOL     OW23947   1.367   4.550   4.084
 7683SOL    HW123948   1.439   4.574   4.019
 7683SOL    HW223949   1.397   4.573   4.177
 7684SOL     OW23950   4.924   3.531   1.469
 7684SOL    HW123951   4.988   3.457   1.488
 7684SOL    HW223952   4.909   3.585   1.552
 7685SOL     OW23953   1.909   0.124   6.617
 7685SOL    HW123954   1.999   0.162   6.638
 7685SOL    HW223955   1.919   0.028   6.591
 7686SOL     OW23956   6.402   1.254   5.064
 7686SOL    HW123957   6.396   1.205   5.151
 7686SOL    HW223958   6.443   1.195   4.994
 7687SOL     OW23959   6.348   3.895   5.347
 7687SOL    HW123960   6.397   3.883   5.433
 7687SOL    HW223961   6.271   3.958   5.361
 7688SOL     OW23962   6.617   3.295   1.052
 7688SOL    HW123963   6.565   3.254   0.977
 7688SOL    HW223964   6.554   3.317   1.127
 7689SOL     OW23965   5.366   6.799   3.292
 7689SOL    HW123966   5.356   6.872   3.224
 7689SOL    HW223967   5.450   6.812   3.344
 7690SOL     OW23968   6.451   3.862   2.317
 7690SOL    HW123969   6.399   3.937   2.277
 7690SOL    HW223970   6.390   3.787   2.340
 7691SOL     OW23971   4.744   2.441   3.713
 7691SOL    HW123972   4.781   2.358   3.672
 7691SOL    HW223973   4.799   2.467   3.791
 7692SOL     OW23974   1.716   6.166   2.233
 7692SOL    HW123975   1.688   6.147   2.139
 7692SOL    HW223976   1.712   6.082   2.287
 7693SOL     OW23977   2.445   2.319   0.764
 7693SOL    HW123978   2.447   2.406   0.813
 7693SOL    HW223979   2.471   2.334   0.669
 7694SOL     OW23980   4.743   2.511   1.552
 7694SOL    HW123981   4.765   2.527   1.649
 7694SOL    HW223982   4.717   2.416   1.539
 7695SOL     OW23983   5.289   6.540   4.090
 7695SOL    HW123984   5.387   6.544   4.107
 7695SOL    HW223985   5.259   6.445   4.088
 7696SOL     OW23986   2.177   1.331   5.396
 7696SOL    HW123987   2.164   1.297   5.303
 7696SOL    HW223988   2.143   1.263   5.462
 7697SOL     OW23989   5.670   6.411   3.436
 7697SOL    HW123990   5.751   6.392   3.381
 7697SOL    HW223991   5.602   6.459   3.381
 7698SOL     OW23992   5.918   1.992   1.364
 7698SOL    HW123993   5.977   1.913   1.378
 7698SOL    HW223994   5.831   1.962   1.324
 7699SOL     OW23995   3.816   5.675   6.124
 7699SOL    HW123996   3.797   5.655   6.220
 7699SOL    HW223997   3.795   5.594   6.069
 7700SOL     OW23998   5.600   4.299   1.448
 7700SOL    HW123999   5.671   4.351   1.496
 7700SOL    HW224000   5.572   4.350   1.366
 7701SOL     OW24001   3.427   1.800   6.244
 7701SOL    HW124002   3.423   1.898   6.264
 7701SOL    HW224003   3.337   1.759   6.261
 7702SOL     OW24004   5.937   6.601   5.582
 7702SOL    HW124005   5.923   6.648   5.494
 7702SOL    HW224006   6.006   6.649   5.635
 7703SOL     OW24007   0.296   6.202   0.233
 7703SOL    HW124008   0.216   6.146   0.256
 7703SOL    HW224009   0.376   6.142   0.225
 7704SOL     OW24010   1.951   2.334   4.617
 7704SOL    HW124011   1.924   2.290   4.531
 7704SOL    HW224012   2.020   2.404   4.598
 7705SOL     OW24013   1.075   4.120   0.393
 7705SOL    HW124014   1.118   4.207   0.415
 7705SOL    HW224015   1.002   4.101   0.459
 7706SOL     OW24016   3.516   3.645   2.457
 7706SOL    HW124017   3.576   3.624   2.534
 7706SOL    HW224018   3.522   3.742   2.435
 7707SOL     OW24019   6.443   5.481   5.419
 7707SOL    HW124020   6.535   5.449   5.395
 7707SOL    HW224021   6.445   5.580   5.433
 7708SOL     OW24022   0.755   0.214   3.242
 7708SOL    HW124023   0.726   0.124   3.210
 7708SOL    HW224024   0.840   0.240   3.196
 7709SOL     OW24025   6.603   4.506   1.043
 7709SOL    HW124026   6.522   4.477   1.095
 7709SOL    HW224027   6.607   4.455   0.958
 7710SOL     OW24028   5.959   4.068   3.402
 7710SOL    HW124029   5.966   4.067   3.501
 7710SOL    HW224030   5.886   4.006   3.373
 7711SOL     OW24031   1.060   4.791   3.433
 7711SOL    HW124032   1.063   4.856   3.510
 7711SOL    HW224033   1.004   4.712   3.458
 7712SOL     OW24034   1.087   4.105   4.706
 7712SOL    HW124035   1.135   4.180   4.662
 7712SOL    HW224036   1.074   4.125   4.803
 7713SOL     OW24037   0.558   5.329   0.639
 7713SOL    HW124038   0.522   5.371   0.723
 7713SOL    HW224039   0.639   5.275   0.661
 7714SOL     OW24040   5.704   1.101   4.970
 7714SOL    HW124041   5.616   1.121   5.012
 7714SOL    HW224042   5.691   1.048   4.886
 7715SOL     OW24043   3.998   3.614   6.438
 7715SOL    HW124044   3.993   3.636   6.341
 7715SOL    HW224045   4.093   3.614   6.468
 7716SOL     OW24046   1.909   0.724   6.963
 7716SOL    HW124047   1.824   0.692   7.003
 7716SOL    HW224048   1.962   0.774   0.008
 7717SOL     OW24049   0.981   2.188   6.310
 7717SOL    HW124050   0.980   2.266   6.248
 7717SOL    HW224051   1.056   2.126   6.285
 7718SOL     OW24052   0.673   3.594   3.871
 7718SOL    HW124053   0.577   3.565   3.860
 7718SOL    HW224054   0.680   3.692   3.852
 7719SOL     OW24055   2.197   6.758   5.337
 7719SOL    HW124056   2.256   6.838   5.325
 7719SOL    HW224057   2.224   6.710   5.421
 7720SOL     OW24058   4.221   0.737   6.589
 7720SOL    HW124059   4.138   0.775   6.630
 7720SOL    HW224060   4.250   0.795   6.513
 7721SOL     OW24061   5.283   6.056   2.497
 7721SOL    HW124062   5.361   6.074   2.437
 7721SOL    HW224063   5.199   6.092   2.456
 7722SOL     OW24064   0.310   6.392   4.572
 7722SOL    HW124065   0.388   6.446   4.601
 7722SOL    HW224066   0.341   6.307   4.530
 7723SOL     OW24067   3.387   5.009   6.130
 7723SOL    HW124068   3.400   4.929   6.070
 7723SOL    HW224069   3.296   5.047   6.115
 7724SOL     OW24070   1.338   4.035   6.573
 7724SOL    HW124071   1.419   3.980   6.593
 7724SOL    HW224072   1.356   4.130   6.597
 7725SOL     OW24073   5.498   2.995   5.014
 7725SOL    HW124074   5.482   3.027   4.921
 7725SOL    HW224075   5.511   2.896   5.014
 7726SOL     OW24076   1.652   2.883   0.618
 7726SOL    HW124077   1.557   2.868   0.647
 7726SOL    HW224078   1.657   2.880   0.518
 7727SOL     OW24079   6.166   6.963   3.067
 7727SOL    HW124080   6.145   6.878   3.020
 7727SOL    HW224081   6.249   6.952   3.121
 7728SOL     OW24082   1.811   3.224   5.626
 7728SOL    HW124083   1.803   3.198   5.530
 7728SOL    HW224084   1.720   3.225   5.668
 7729SOL     OW24085   0.390   0.532   2.886
 7729SOL    HW124086   0.406   0.583   2.970
 7729SOL    HW224087   0.292   0.529   2.867
 7730SOL     OW24088   5.557   3.302   6.357
 7730SOL    HW124089   5.525   3.360   6.432
 7730SOL    HW224090   5.622   3.234   6.393
 7731SOL     OW24091   0.271   0.635   5.943
 7731SOL    HW124092   0.339   0.689   5.994
 7731SOL    HW224093   0.310   0.606   5.856
 7732SOL     OW24094   3.698   1.295   0.818
 7732SOL    HW124095   3.746   1.306   0.730
 7732SOL    HW224096   3.656   1.382   0.844
 7733SOL     OW24097   5.795   6.132   1.588
 7733SOL    HW124098   5.739   6.203   1.630
 7733SOL    HW224099   5.892   6.157   1.596
 7734SOL     OW24100   3.461   4.180   3.711
 7734SOL    HW124101   3.514   4.134   3.783
 7734SOL    HW224102   3.363   4.165   3.727
 7735SOL     OW24103   1.148   5.476   1.304
 7735SOL    HW124104   1.104   5.386   1.300
 7735SOL    HW224105   1.217   5.475   1.377
 7736SOL     OW24106   2.260   1.544   1.099
 7736SOL    HW124107   2.263   1.643   1.081
 7736SOL    HW224108   2.261   1.528   1.197
 7737SOL     OW24109   4.601   4.468   6.111
 7737SOL    HW124110   4.513   4.425   6.130
 7737SOL    HW224111   4.657   4.406   6.055
 7738SOL     OW24112   1.914   0.903   5.428
 7738SOL    HW124113   2.007   0.887   5.461
 7738SOL    HW224114   1.850   0.846   5.480
 7739SOL     OW24115   0.843   2.991   6.544
 7739SOL    HW124116   0.799   2.950   6.624
 7739SOL    HW224117   0.816   2.942   6.462
 7740SOL     OW24118   2.117   0.418   3.752
 7740SOL    HW124119   2.119   0.490   3.683
 7740SOL    HW224120   2.061   0.342   3.720
 7741SOL     OW24121   6.047   4.563   6.087
 7741SOL    HW124122   6.111   4.487   6.077
 7741SOL    HW224123   6.095   4.650   6.071
 7742SOL     OW24124   4.524   2.590   3.305
 7742SOL    HW124125   4.535   2.512   3.243
 7742SOL    HW224126   4.479   2.665   3.256
 7743SOL     OW24127   3.230   0.925   6.497
 7743SOL    HW124128   3.135   0.951   6.517
 7743SOL    HW224129   3.236   0.887   6.405
 7744SOL     OW24130   0.131   6.117   4.578
 7744SOL    HW124131   0.115   6.074   4.489
 7744SOL    HW224132   0.218   6.084   4.615
 7745SOL     OW24133   3.262   0.195   0.710
 7745SOL    HW124134   3.241   0.124   0.643
 7745SOL    HW224135   3.247   0.159   0.802
 7746SOL     OW24136   7.018   6.388   1.379
 7746SOL    HW124137   7.022   6.470   1.436
 7746SOL    HW224138   0.055   6.399   1.300
 7747SOL     OW24139   6.565   6.080   0.777
 7747SOL    HW124140   6.631   6.127   0.836
 7747SOL    HW224141   6.534   5.996   0.822
 7748SOL     OW24142   4.213   1.427   5.992
 7748SOL    HW124143   4.261   1.360   6.048
 7748SOL    HW224144   4.121   1.393   5.972
 7749SOL     OW24145   3.075   3.906   2.989
 7749SOL    HW124146   3.023   3.923   2.905
 7749SOL    HW224147   3.172   3.919   2.971
 7750SOL     OW24148   5.806   3.950   5.645
 7750SOL    HW124149   5.824   4.020   5.575
 7750SOL    HW224150   5.889   3.895   5.658
 7751SOL     OW24151   0.366   1.669   3.986
 7751SOL    HW124152   0.347   1.572   4.000
 7751SOL    HW224153   0.301   1.723   4.040
 7752SOL     OW24154   5.190   4.090   6.293
 7752SOL    HW124155   5.268   4.152   6.305
 7752SOL    HW224156   5.222   4.004   6.254
 7753SOL     OW24157   2.181   1.148   4.807
 7753SOL    HW124158   2.256   1.209   4.780
 7753SOL    HW224159   2.134   1.186   4.886
 7754SOL     OW24160   7.004   1.139   0.438
 7754SOL    HW124161   0.055   1.109   0.497
 7754SOL    HW224162   6.980   1.066   0.373
 7755SOL     OW24163   1.171   6.390   5.495
 7755SOL    HW124164   1.149   6.465   5.434
 7755SOL    HW224165   1.232   6.422   5.568
 7756SOL     OW24166   3.340   6.631   2.844
 7756SOL    HW124167   3.261   6.684   2.876
 7756SOL    HW224168   3.328   6.608   2.747
 7757SOL     OW24169   3.873   1.970   5.159
 7757SOL    HW124170   3.883   1.952   5.257
 7757SOL    HW224171   3.905   1.892   5.106
 7758SOL     OW24172   2.579   0.998   6.461
 7758SOL    HW124173   2.506   0.956   6.515
 7758SOL    HW224174   2.571   1.098   6.466
 7759SOL     OW24175   2.213   0.013   4.721
 7759SOL    HW124176   2.159   6.956   4.700
 7759SOL    HW224177   2.151   0.091   4.736
 7760SOL     OW24178   5.357   1.574   2.753
 7760SOL    HW124179   5.453   1.601   2.744
 7760SOL    HW224180   5.348   1.476   2.732
 7761SOL     OW24181   4.557   0.893   6.834
 7761SOL    HW124182   4.524   0.804   6.804
 7761SOL    HW224183   4.487   0.962   6.816
 7762SOL     OW24184   2.030   1.937   0.953
 7762SOL    HW124185   2.014   2.031   0.986
 7762SOL    HW224186   2.007   1.932   0.856
 7763SOL     OW24187   2.063   3.032   0.873
 7763SOL    HW124188   2.053   3.132   0.874
 7763SOL    HW224189   1.984   2.991   0.919
 7764SOL     OW24190   3.784   3.817   2.134
 7764SOL    HW124191   3.884   3.825   2.137
 7764SOL    HW224192   3.758   3.723   2.155
 7765SOL     OW24193   0.412   1.580   2.115
 7765SOL    HW124194   0.394   1.648   2.044
 7765SOL    HW224195   0.455   1.625   2.194
 7766SOL     OW24196   6.405   3.488   0.113
 7766SOL    HW124197   6.426   3.510   0.208
 7766SOL    HW224198   6.364   3.397   0.108
 7767SOL     OW24199   6.008   3.920   5.041
 7767SOL    HW124200   6.057   3.836   5.064
 7767SOL    HW224201   6.046   3.959   4.957
 7768SOL     OW24202   4.406   5.003   1.278
 7768SOL    HW124203   4.427   4.921   1.332
 7768SOL    HW224204   4.450   5.082   1.319
 7769SOL     OW24205   4.763   1.526   3.749
 7769SOL    HW124206   4.734   1.434   3.774
 7769SOL    HW224207   4.816   1.566   3.824
 7770SOL     OW24208   2.611   6.239   0.870
 7770SOL    HW124209   2.586   6.154   0.917
 7770SOL    HW224210   2.540   6.261   0.802
 7771SOL     OW24211   2.765   0.598   4.424
 7771SOL    HW124212   2.838   0.547   4.469
 7771SOL    HW224213   2.676   0.568   4.459
 7772SOL     OW24214   5.607   0.733   6.382
 7772SOL    HW124215   5.534   0.751   6.316
 7772SOL    HW224216   5.610   0.807   6.449
 7773SOL     OW24217   4.175   4.625   5.966
 7773SOL    HW124218   4.195   4.558   5.895
 7773SOL    HW224219   4.120   4.582   6.038
 7774SOL     OW24220   4.248   0.978   0.742
 7774SOL    HW124221   4.249   0.894   0.688
 7774SOL    HW224222   4.280   1.054   0.685
 7775SOL     OW24223   0.703   6.663   1.521
 7775SOL    HW124224   0.703   6.750   1.473
 7775SOL    HW224225   0.676   6.589   1.459
 7776SOL     OW24226   2.960   4.150   1.202
 7776SOL    HW124227   2.984   4.089   1.126
 7776SOL    HW224228   2.870   4.190   1.185
 7777SOL     OW24229   0.174   0.864   6.762
 7777SOL    HW124230   0.150   0.783   6.708
 7777SOL    HW224231   0.106   0.935   6.746
 7778SOL     OW24232   5.463   2.284   2.804
 7778SOL    HW124233   5.402   2.330   2.869
 7778SOL    HW224234   5.483   2.192   2.838
 7779SOL     OW24235   4.523   2.925   0.195
 7779SOL    HW124236   4.567   2.982   0.125
 7779SOL    HW224237   4.430   2.904   0.168
 7780SOL     OW24238   1.815   0.716   4.008
 7780SOL    HW124239   1.911   0.719   4.035
 7780SOL    HW224240   1.757   0.732   4.088
 7781SOL     OW24241   2.522   4.142   5.647
 7781SOL    HW124242   2.558   4.125   5.555
 7781SOL    HW224243   2.587   4.198   5.699
 7782SOL     OW24244   4.660   4.815   6.668
 7782SOL    HW124245   4.637   4.831   6.764
 7782SOL    HW224246   4.670   4.903   6.621
 7783SOL     OW24247   3.404   6.348   6.626
 7783SOL    HW124248   3.477   6.415   6.641
 7783SOL    HW224249   3.346   6.343   6.707
 7784SOL     OW24250   6.563   3.178   0.283
 7784SOL    HW124251   6.625   3.250   0.315
 7784SOL    HW224252   6.470   3.198   0.313
 7785SOL     OW24253   1.627   6.565   6.301
 7785SOL    HW124254   1.617   6.663   6.285
 7785SOL    HW224255   1.538   6.520   6.289
 7786SOL     OW24256   3.946   3.915   5.250
 7786SOL    HW124257   4.027   3.867   5.216
 7786SOL    HW224258   3.877   3.918   5.179
 7787SOL     OW24259   3.194   2.093   5.190
 7787SOL    HW124260   3.186   2.189   5.218
 7787SOL    HW224261   3.282   2.079   5.146
 7788SOL     OW24262   6.826   2.413   1.368
 7788SOL    HW124263   6.886   2.396   1.446
 7788SOL    HW224264   6.786   2.327   1.337
 7789SOL     OW24265   0.665   0.518   1.887
 7789SOL    HW124266   0.760   0.522   1.916
 7789SOL    HW224267   0.652   0.440   1.826
 7790SOL     OW24268   0.223   3.744   3.179
 7790SOL    HW124269   0.273   3.660   3.156
 7790SOL    HW224270   0.264   3.785   3.261
 7791SOL     OW24271   6.985   5.808   6.347
 7791SOL    HW124272   6.916   5.877   6.325
 7791SOL    HW224273   6.974   5.730   6.285
 7792SOL     OW24274   1.682   5.992   6.616
 7792SOL    HW124275   1.621   5.951   6.684
 7792SOL    HW224276   1.627   6.027   6.540
 7793SOL     OW24277   2.313   0.156   6.371
 7793SOL    HW124278   2.247   0.180   6.300
 7793SOL    HW224279   2.401   0.198   6.352
 7794SOL     OW24280   5.366   4.666   2.411
 7794SOL    HW124281   5.335   4.737   2.475
 7794SOL    HW224282   5.347   4.695   2.317
 7795SOL     OW24283   2.569   4.144   6.311
 7795SOL    HW124284   2.492   4.092   6.273
 7795SOL    HW224285   2.552   4.161   6.408
 7796SOL     OW24286   3.878   3.824   3.533
 7796SOL    HW124287   3.892   3.837   3.435
 7796SOL    HW224288   3.844   3.909   3.574
 7797SOL     OW24289   1.712   6.106   3.924
 7797SOL    HW124290   1.617   6.089   3.898
 7797SOL    HW224291   1.751   6.024   3.965
 7798SOL     OW24292   5.104   5.506   5.738
 7798SOL    HW124293   5.189   5.507   5.791
 7798SOL    HW224294   5.031   5.550   5.790
 7799SOL     OW24295   5.781   6.106   1.297
 7799SOL    HW124296   5.789   6.130   1.393
 7799SOL    HW224297   5.770   6.189   1.242
 7800SOL     OW24298   1.056   6.239   2.671
 7800SOL    HW124299   0.962   6.267   2.652
 7800SOL    HW224300   1.119   6.304   2.629
 7801SOL     OW24301   4.249   2.210   5.392
 7801SOL    HW124302   4.316   2.150   5.436
 7801SOL    HW224303   4.218   2.278   5.459
 7802SOL     OW24304   6.114   2.342   6.419
 7802SOL    HW124305   6.164   2.283   6.355
 7802SOL    HW224306   6.151   2.435   6.414
 7803SOL     OW24307   3.275   3.057   6.756
 7803SOL    HW124308   3.341   3.007   6.813
 7803SOL    HW224309   3.322   3.091   6.674
 7804SOL     OW24310   4.875   0.887   5.810
 7804SOL    HW124311   4.812   0.815   5.840
 7804SOL    HW224312   4.828   0.976   5.814
 7805SOL     OW24313   5.410   2.860   1.871
 7805SOL    HW124314   5.388   2.955   1.894
 7805SOL    HW224315   5.506   2.854   1.844
 7806SOL     OW24316   5.269   2.567   0.260
 7806SOL    HW124317   5.201   2.513   0.210
 7806SOL    HW224318   5.347   2.585   0.200
 7807SOL     OW24319   0.951   4.827   6.808
 7807SOL    HW124320   1.022   4.864   6.868
 7807SOL    HW224321   0.993   4.777   6.733
 7808SOL     OW24322   0.146   1.701   5.033
 7808SOL    HW124323   0.061   1.730   5.076
 7808SOL    HW224324   0.222   1.716   5.097
 7809SOL     OW24325   1.199   5.746   5.669
 7809SOL    HW124326   1.256   5.726   5.749
 7809SOL    HW224327   1.140   5.668   5.649
 7810SOL     OW24328   2.982   1.424   0.059
 7810SOL    HW124329   3.067   1.425   0.007
 7810SOL    HW224330   3.002   1.425   0.157
 7811SOL     OW24331   6.268   4.569   4.912
 7811SOL    HW124332   6.318   4.537   4.832
 7811SOL    HW224333   6.269   4.498   4.983
 7812SOL     OW24334   0.948   1.809   3.998
 7812SOL    HW124335   1.032   1.856   4.024
 7812SOL    HW224336   0.870   1.870   4.007
 7813SOL     OW24337   5.703   1.239   1.498
 7813SOL    HW124338   5.631   1.171   1.487
 7813SOL    HW224339   5.665   1.331   1.488
 7814SOL     OW24340   1.737   3.024   3.989
 7814SOL    HW124341   1.811   3.025   3.922
 7814SOL    HW224342   1.649   3.023   3.942
 7815SOL     OW24343   6.919   2.043   5.487
 7815SOL    HW124344   6.868   2.034   5.402
 7815SOL    HW224345   7.017   2.041   5.467
 7816SOL     OW24346   6.618   4.321   4.593
 7816SOL    HW124347   6.564   4.252   4.545
 7816SOL    HW224348   6.649   4.390   4.527
 7817SOL     OW24349   5.811   2.711   5.921
 7817SOL    HW124350   5.718   2.740   5.895
 7817SOL    HW224351   5.811   2.613   5.941
 7818SOL     OW24352   6.375   2.752   3.713
 7818SOL    HW124353   6.324   2.769   3.629
 7818SOL    HW224354   6.326   2.793   3.790
 7819SOL     OW24355   1.799   1.379   0.809
 7819SOL    HW124356   1.884   1.388   0.861
 7819SOL    HW224357   1.819   1.382   0.712
 7820SOL     OW24358   2.562   6.736   5.582
 7820SOL    HW124359   2.585   6.690   5.496
 7820SOL    HW224360   2.643   6.779   5.619
 7821SOL     OW24361   2.755   5.894   1.427
 7821SOL    HW124362   2.721   5.912   1.519
 7821SOL    HW224363   2.766   5.980   1.378
 7822SOL     OW24364   0.678   6.239   4.746
 7822SOL    HW124365   0.634   6.181   4.815
 7822SOL    HW224366   0.762   6.278   4.784
 7823SOL     OW24367   2.456   3.559   5.775
 7823SOL    HW124368   2.481   3.636   5.717
 7823SOL    HW224369   2.480   3.579   5.870
 7824SOL     OW24370   1.190   3.812   5.598
 7824SOL    HW124371   1.194   3.712   5.590
 7824SOL    HW224372   1.160   3.851   5.511
 7825SOL     OW24373   2.089   0.896   0.120
 7825SOL    HW124374   2.157   0.969   0.130
 7825SOL    HW224375   2.037   0.888   0.205
 7826SOL     OW24376   0.607   4.374   5.950
 7826SOL    HW124377   0.669   4.305   5.986
 7826SOL    HW224378   0.568   4.427   6.025
 7827SOL     OW24379   5.903   4.730   3.634
 7827SOL    HW124380   5.939   4.643   3.601
 7827SOL    HW224381   5.970   4.775   3.693
 7828SOL     OW24382   1.150   5.912   5.458
 7828SOL    HW124383   1.102   5.875   5.378
 7828SOL    HW224384   1.161   5.840   5.527
 7829SOL     OW24385   4.324   4.876   1.062
 7829SOL    HW124386   4.387   4.931   1.117
 7829SOL    HW224387   4.273   4.815   1.122
 7830SOL     OW24388   1.416   5.517   3.785
 7830SOL    HW124389   1.351   5.458   3.834
 7830SOL    HW224390   1.509   5.480   3.795
 7831SOL     OW24391   1.433   0.144   6.641
 7831SOL    HW124392   1.480   0.130   6.728
 7831SOL    HW224393   1.472   0.225   6.596
 7832SOL     OW24394   0.295   0.926   4.965
 7832SOL    HW124395   0.247   0.997   4.915
 7832SOL    HW224396   0.290   0.944   5.063
 7833SOL     OW24397   1.117   0.272   2.417
 7833SOL    HW124398   1.071   0.323   2.488
 7833SOL    HW224399   1.189   0.215   2.458
 7834SOL     OW24400   0.847   3.452   4.694
 7834SOL    HW124401   0.809   3.521   4.756
 7834SOL    HW224402   0.934   3.418   4.731
 7835SOL     OW24403   2.747   3.109   5.733
 7835SOL    HW124404   2.725   3.032   5.672
 7835SOL    HW224405   2.777   3.187   5.679
 7836SOL     OW24406   2.996   3.686   4.852
 7836SOL    HW124407   3.058   3.619   4.810
 7836SOL    HW224408   2.977   3.660   4.946
 7837SOL     OW24409   0.556   5.742   0.482
 7837SOL    HW124410   0.546   5.818   0.547
 7837SOL    HW224411   0.650   5.742   0.446
 7838SOL     OW24412   3.851   4.475   0.757
 7838SOL    HW124413   3.872   4.568   0.789
 7838SOL    HW224414   3.837   4.415   0.835
 7839SOL     OW24415   6.114   3.937   4.498
 7839SOL    HW124416   6.109   3.888   4.585
 7839SOL    HW224417   6.034   3.913   4.442
 7840SOL     OW24418   2.484   2.442   3.343
 7840SOL    HW124419   2.443   2.534   3.350
 7840SOL    HW224420   2.572   2.442   3.389
 7841SOL     OW24421   3.766   2.537   6.427
 7841SOL    HW124422   3.835   2.532   6.356
 7841SOL    HW224423   3.685   2.486   6.399
 7842SOL     OW24424   0.951   0.364   1.095
 7842SOL    HW124425   0.909   0.328   1.012
 7842SOL    HW224426   0.893   0.345   1.174
 7843SOL     OW24427   6.728   5.796   2.354
 7843SOL    HW124428   6.765   5.759   2.269
 7843SOL    HW224429   6.801   5.801   2.422
 7844SOL     OW24430   2.727   6.507   2.206
 7844SOL    HW124431   2.711   6.599   2.172
 7844SOL    HW224432   2.790   6.459   2.145
 7845SOL     OW24433   6.971   2.893   2.083
 7845SOL    HW124434   0.028   2.919   2.135
 7845SOL    HW224435   6.971   2.794   2.069
 7846SOL     OW24436   0.323   1.859   0.331
 7846SOL    HW124437   0.343   1.766   0.363
 7846SOL    HW224438   0.378   1.879   0.250
 7847SOL     OW24439   5.806   3.421   5.367
 7847SOL    HW124440   5.874   3.385   5.431
 7847SOL    HW224441   5.823   3.518   5.350
 7848SOL     OW24442   5.105   5.103   0.209
 7848SOL    HW124443   5.053   5.187   0.194
 7848SOL    HW224444   5.170   5.116   0.283
 7849SOL     OW24445   4.966   5.592   6.553
 7849SOL    HW124446   4.990   5.653   6.477
 7849SOL    HW224447   5.036   5.598   6.624
 7850SOL     OW24448   0.051   1.084   3.449
 7850SOL    HW124449   0.128   1.115   3.505
 7850SOL    HW224450   0.048   0.984   3.449
 7851SOL     OW24451   0.716   3.960   0.533
 7851SOL    HW124452   0.769   3.876   0.521
 7851SOL    HW224453   0.776   4.035   0.560
 7852SOL     OW24454   1.318   3.275   5.688
 7852SOL    HW124455   1.339   3.186   5.648
 7852SOL    HW224456   1.229   3.271   5.734
 7853SOL     OW24457   4.390   2.755   1.630
 7853SOL    HW124458   4.300   2.712   1.626
 7853SOL    HW224459   4.444   2.729   1.549
 7854SOL     OW24460   4.065   1.225   1.604
 7854SOL    HW124461   4.042   1.172   1.522
 7854SOL    HW224462   4.144   1.284   1.585
 7855SOL     OW24463   5.312   5.831   3.211
 7855SOL    HW124464   5.340   5.914   3.261
 7855SOL    HW224465   5.373   5.818   3.134
 7856SOL     OW24466   2.126   6.183   6.276
 7856SOL    HW124467   2.064   6.155   6.349
 7856SOL    HW224468   2.200   6.115   6.268
 7857SOL     OW24469   6.969   4.692   0.447
 7857SOL    HW124470   6.871   4.695   0.427
 7857SOL    HW224471   6.999   4.596   0.448
 7858SOL     OW24472   0.459   4.274   6.871
 7858SOL    HW124473   0.463   4.187   6.822
 7858SOL    HW224474   0.552   4.309   6.885
 7859SOL     OW24475   4.684   2.264   1.533
 7859SOL    HW124476   4.759   2.231   1.476
 7859SOL    HW224477   4.646   2.188   1.585
 7860SOL     OW24478   2.627   1.474   2.784
 7860SOL    HW124479   2.683   1.488   2.866
 7860SOL    HW224480   2.655   1.389   2.739
 7861SOL     OW24481   1.820   5.381   0.468
 7861SOL    HW124482   1.830   5.469   0.422
 7861SOL    HW224483   1.800   5.310   0.400
 7862SOL     OW24484   0.697   0.444   6.678
 7862SOL    HW124485   0.784   0.492   6.687
 7862SOL    HW224486   0.626   0.496   6.726
 7863SOL     OW24487   0.806   5.349   3.992
 7863SOL    HW124488   0.815   5.331   4.090
 7863SOL    HW224489   0.717   5.316   3.960
 7864SOL     OW24490   3.050   5.915   5.063
 7864SOL    HW124491   3.115   5.978   5.108
 7864SOL    HW224492   2.961   5.921   5.109
 7865SOL     OW24493   6.098   5.448   4.106
 7865SOL    HW124494   6.150   5.367   4.078
 7865SOL    HW224495   6.092   5.512   4.030
 7866SOL     OW24496   1.057   1.347   5.358
 7866SOL    HW124497   1.134   1.315   5.304
 7866SOL    HW224498   1.089   1.410   5.428
 7867SOL     OW24499   4.651   6.213   1.962
 7867SOL    HW124500   4.657   6.222   2.062
 7867SOL    HW224501   4.590   6.284   1.926
 7868SOL     OW24502   3.711   6.095   1.652
 7868SOL    HW124503   3.731   6.149   1.569
 7868SOL    HW224504   3.793   6.045   1.680
 7869SOL     OW24505   5.571   4.779   0.290
 7869SOL    HW124506   5.606   4.717   0.361
 7869SOL    HW224507   5.631   4.859   0.285
 7870SOL     OW24508   6.903   0.823   3.175
 7870SOL    HW124509   6.916   0.912   3.130
 7870SOL    HW224510   6.817   0.783   3.145
 7871SOL     OW24511   5.006   0.636   0.494
 7871SOL    HW124512   4.988   0.602   0.586
 7871SOL    HW224513   4.929   0.616   0.434
 7872SOL     OW24514   6.292   5.306   3.692
 7872SOL    HW124515   6.353   5.325   3.769
 7872SOL    HW224516   6.319   5.362   3.614
 7873SOL     OW24517   5.303   2.428   6.497
 7873SOL    HW124518   5.296   2.442   6.596
 7873SOL    HW224519   5.342   2.509   6.454
 7874SOL     OW24520   6.471   2.142   1.134
 7874SOL    HW124521   6.516   2.064   1.177
 7874SOL    HW224522   6.467   2.128   1.035
 7875SOL     OW24523   6.672   5.010   0.248
 7875SOL    HW124524   6.763   5.048   0.262
 7875SOL    HW224525   6.680   4.919   0.207
 7876SOL     OW24526   1.255   6.470   3.038
 7876SOL    HW124527   1.228   6.375   3.051
 7876SOL    HW224528   1.306   6.479   2.952
 7877SOL     OW24529   1.248   2.845   1.940
 7877SOL    HW124530   1.258   2.756   1.896
 7877SOL    HW224531   1.159   2.849   1.987
 7878SOL     OW24532   4.003   0.867   2.626
 7878SOL    HW124533   4.077   0.801   2.614
 7878SOL    HW224534   4.024   0.950   2.575
 7879SOL     OW24535   2.385   6.084   1.663
 7879SOL    HW124536   2.294   6.075   1.622
 7879SOL    HW224537   2.445   6.133   1.601
 7880SOL     OW24538   1.610   4.788   2.735
 7880SOL    HW124539   1.564   4.725   2.797
 7880SOL    HW224540   1.686   4.833   2.783
 7881SOL     OW24541   4.611   2.686   2.964
 7881SOL    HW124542   4.561   2.764   2.925
 7881SOL    HW224543   4.569   2.601   2.931
 7882SOL     OW24544   0.387   2.853   0.051
 7882SOL    HW124545   0.312   2.810   0.100
 7882SOL    HW224546   0.473   2.807   0.073
 7883SOL     OW24547   0.410   0.343   4.339
 7883SOL    HW124548   0.335   0.385   4.390
 7883SOL    HW224549   0.399   0.243   4.341
 7884SOL     OW24550   1.275   2.733   4.162
 7884SOL    HW124551   1.231   2.676   4.093
 7884SOL    HW224552   1.279   2.828   4.129
 7885SOL     OW24553   6.488   6.511   0.330
 7885SOL    HW124554   6.551   6.439   0.302
 7885SOL    HW224555   6.416   6.522   0.261
 7886SOL     OW24556   4.921   3.304   0.302
 7886SOL    HW124557   4.852   3.367   0.337
 7886SOL    HW224558   5.002   3.356   0.275
 7887SOL     OW24559   4.243   1.809   6.354
 7887SOL    HW124560   4.169   1.771   6.410
 7887SOL    HW224561   4.237   1.771   6.262
 7888SOL     OW24562   4.669   5.758   3.961
 7888SOL    HW124563   4.684   5.666   3.925
 7888SOL    HW224564   4.571   5.775   3.970
 7889SOL     OW24565   5.992   4.486   3.518
 7889SOL    HW124566   5.955   4.432   3.443
 7889SOL    HW224567   6.092   4.489   3.511
 7890SOL     OW24568   2.169   4.385   3.360
 7890SOL    HW124569   2.134   4.460   3.418
 7890SOL    HW224570   2.269   4.390   3.357
 7891SOL     OW24571   6.997   4.377   2.496
 7891SOL    HW124572   7.009   4.409   2.589
 7891SOL    HW224573   6.972   4.280   2.497
 7892SOL     OW24574   2.483   2.568   4.392
 7892SOL    HW124575   2.465   2.473   4.367
 7892SOL    HW224576   2.497   2.622   4.308
 7893SOL     OW24577   4.976   6.328   1.604
 7893SOL    HW124578   5.012   6.349   1.513
 7893SOL    HW224579   5.006   6.398   1.669
 7894SOL     OW24580   2.854   0.040   0.810
 7894SOL    HW124581   2.765   0.059   0.852
 7894SOL    HW224582   2.927   0.067   0.872
 7895SOL     OW24583   1.157   1.500   4.786
 7895SOL    HW124584   1.136   1.507   4.883
 7895SOL    HW224585   1.162   1.591   4.745
 7896SOL     OW24586   3.780   1.630   0.532
 7896SOL    HW124587   3.733   1.718   0.546
 7896SOL    HW224588   3.784   1.611   0.434
 7897SOL     OW24589   3.136   3.886   0.711
 7897SOL    HW124590   3.152   3.793   0.678
 7897SOL    HW224591   3.199   3.906   0.786
 7898SOL     OW24592   5.448   0.959   4.478
 7898SOL    HW124593   5.504   0.899   4.536
 7898SOL    HW224594   5.355   0.963   4.516
 7899SOL     OW24595   4.645   0.761   1.837
 7899SOL    HW124596   4.695   0.735   1.920
 7899SOL    HW224597   4.662   0.857   1.815
 7900SOL     OW24598   0.806   5.750   1.093
 7900SOL    HW124599   0.888   5.735   1.038
 7900SOL    HW224600   0.809   5.842   1.133
 7901SOL     OW24601   5.492   5.079   1.570
 7901SOL    HW124602   5.553   5.004   1.594
 7901SOL    HW224603   5.505   5.103   1.474
 7902SOL     OW24604   4.590   5.152   6.291
 7902SOL    HW124605   4.630   5.186   6.376
 7902SOL    HW224606   4.516   5.213   6.262
 7903SOL     OW24607   1.595   2.243   2.105
 7903SOL    HW124608   1.501   2.278   2.104
 7903SOL    HW224609   1.609   2.180   2.029
 7904SOL     OW24610   5.502   1.673   3.315
 7904SOL    HW124611   5.442   1.594   3.330
 7904SOL    HW224612   5.547   1.698   3.401
 7905SOL     OW24613   2.894   2.349   1.561
 7905SOL    HW124614   2.829   2.325   1.634
 7905SOL    HW224615   2.984   2.365   1.601
 7906SOL     OW24616   1.839   3.957   6.627
 7906SOL    HW124617   1.739   3.964   6.622
 7906SOL    HW224618   1.864   3.860   6.636
 7907SOL     OW24619   0.458   3.193   3.252
 7907SOL    HW124620   0.521   3.194   3.330
 7907SOL    HW224621   0.509   3.207   3.167
 7908SOL     OW24622   1.124   0.613   3.310
 7908SOL    HW124623   1.082   0.692   3.354
 7908SOL    HW224624   1.058   0.571   3.247
 7909SOL     OW24625   3.644   5.626   5.128
 7909SOL    HW124626   3.663   5.527   5.128
 7909SOL    HW224627   3.548   5.641   5.105
 7910SOL     OW24628   6.401   2.921   5.672
 7910SOL    HW124629   6.430   2.958   5.760
 7910SOL    HW224630   6.304   2.894   5.677
 7911SOL     OW24631   6.954   6.240   6.856
 7911SOL    HW124632   0.013   6.196   6.891
 7911SOL    HW224633   6.939   6.326   6.904
 7912SOL     OW24634   6.693   4.954   5.254
 7912SOL    HW124635   6.749   4.964   5.172
 7912SOL    HW224636   6.708   5.032   5.315
 7913SOL     OW24637   1.881   6.100   6.445
 7913SOL    HW124638   1.848   6.048   6.523
 7913SOL    HW224639   1.915   6.038   6.375
 7914SOL     OW24640   5.845   4.328   1.115
 7914SOL    HW124641   5.846   4.237   1.157
 7914SOL    HW224642   5.752   4.352   1.089
 7915SOL     OW24643   3.191   1.293   3.048
 7915SOL    HW124644   3.174   1.240   2.965
 7915SOL    HW224645   3.108   1.294   3.104
 7916SOL     OW24646   3.361   3.264   5.385
 7916SOL    HW124647   3.314   3.198   5.327
 7916SOL    HW224648   3.460   3.253   5.375
 7917SOL     OW24649   3.781   4.056   3.624
 7917SOL    HW124650   3.714   4.080   3.554
 7917SOL    HW224651   3.745   4.080   3.714
 7918SOL     OW24652   6.175   2.017   1.744
 7918SOL    HW124653   6.131   2.041   1.658
 7918SOL    HW224654   6.111   1.968   1.803
 7919SOL     OW24655   5.642   3.389   2.724
 7919SOL    HW124656   5.687   3.360   2.809
 7919SOL    HW224657   5.711   3.415   2.657
 7920SOL     OW24658   0.230   6.201   0.537
 7920SOL    HW124659   0.319   6.203   0.490
 7920SOL    HW224660   0.203   6.293   0.562
 7921SOL     OW24661   3.601   5.046   1.914
 7921SOL    HW124662   3.616   5.070   2.010
 7921SOL    HW224663   3.571   4.951   1.908
 7922SOL     OW24664   1.629   4.003   4.767
 7922SOL    HW124665   1.613   3.933   4.697
 7922SOL    HW224666   1.726   4.004   4.791
 7923SOL     OW24667   1.750   3.140   2.159
 7923SOL    HW124668   1.832   3.094   2.194
 7923SOL    HW224669   1.774   3.231   2.126
 7924SOL     OW24670   2.752   2.053   3.658
 7924SOL    HW124671   2.705   2.141   3.668
 7924SOL    HW224672   2.687   1.983   3.629
 7925SOL     OW24673   1.447   1.914   0.434
 7925SOL    HW124674   1.367   1.965   0.468
 7925SOL    HW224675   1.521   1.979   0.415
 7926SOL     OW24676   3.543   0.403   1.516
 7926SOL    HW124677   3.621   0.446   1.470
 7926SOL    HW224678   3.576   0.349   1.593
 7927SOL     OW24679   4.477   4.885   4.237
 7927SOL    HW124680   4.399   4.930   4.279
 7927SOL    HW224681   4.446   4.807   4.183
 7928SOL     OW24682   1.027   3.947   1.395
 7928SOL    HW124683   1.112   3.998   1.389
 7928SOL    HW224684   0.956   3.995   1.343
 7929SOL     OW24685   3.581   3.467   4.931
 7929SOL    HW124686   3.493   3.500   4.964
 7929SOL    HW224687   3.600   3.377   4.968
 7930SOL     OW24688   3.332   0.388   1.910
 7930SOL    HW124689   3.431   0.376   1.913
 7930SOL    HW224690   3.306   0.467   1.966
 7931SOL     OW24691   2.372   3.044   5.406
 7931SOL    HW124692   2.439   3.023   5.335
 7931SOL    HW224693   2.384   2.980   5.482
 7932SOL     OW24694   2.879   1.904   0.893
 7932SOL    HW124695   2.887   1.848   0.810
 7932SOL    HW224696   2.906   1.850   0.973
 7933SOL     OW24697   1.580   1.179   5.983
 7933SOL    HW124698   1.481   1.185   5.975
 7933SOL    HW224699   1.610   1.086   5.962
 7934SOL     OW24700   4.274   2.372   5.663
 7934SOL    HW124701   4.278   2.360   5.762
 7934SOL    HW224702   4.285   2.469   5.641
 7935SOL     OW24703   4.703   5.151   2.553
 7935SOL    HW124704   4.621   5.093   2.546
 7935SOL    HW224705   4.769   5.107   2.614
 7936SOL     OW24706   4.315   6.276   2.157
 7936SOL    HW124707   4.326   6.177   2.152
 7936SOL    HW224708   4.221   6.298   2.183
 7937SOL     OW24709   5.699   1.911   6.237
 7937SOL    HW124710   5.691   1.858   6.153
 7937SOL    HW224711   5.693   2.009   6.216
 7938SOL     OW24712   6.354   4.278   4.324
 7938SOL    HW124713   6.286   4.260   4.395
 7938SOL    HW224714   6.355   4.375   4.302
 7939SOL     OW24715   6.055   5.518   4.366
 7939SOL    HW124716   6.083   5.491   4.274
 7939SOL    HW224717   6.088   5.450   4.432
 7940SOL     OW24718   1.958   5.624   0.285
 7940SOL    HW124719   2.010   5.677   0.218
 7940SOL    HW224720   1.862   5.618   0.257
 7941SOL     OW24721   0.905   0.505   1.694
 7941SOL    HW124722   0.933   0.472   1.784
 7941SOL    HW224723   0.944   0.596   1.678
 7942SOL     OW24724   0.738   6.533   1.243
 7942SOL    HW124725   0.667   6.577   1.189
 7942SOL    HW224726   0.818   6.514   1.186
 7943SOL     OW24727   6.331   2.904   6.524
 7943SOL    HW124728   6.248   2.931   6.571
 7943SOL    HW224729   6.391   2.983   6.513
 7944SOL     OW24730   6.303   3.829   1.965
 7944SOL    HW124731   6.260   3.783   1.887
 7944SOL    HW224732   6.231   3.864   2.026
 7945SOL     OW24733   6.176   6.307   6.996
 7945SOL    HW124734   6.266   6.351   6.989
 7945SOL    HW224735   6.128   6.317   6.909
 7946SOL     OW24736   1.752   1.280   5.529
 7946SOL    HW124737   1.745   1.295   5.628
 7946SOL    HW224738   1.739   1.183   5.509
 7947SOL     OW24739   3.248   5.380   6.458
 7947SOL    HW124740   3.210   5.290   6.437
 7947SOL    HW224741   3.346   5.373   6.473
 7948SOL     OW24742   1.471   4.205   4.620
 7948SOL    HW124743   1.529   4.138   4.666
 7948SOL    HW224744   1.496   4.208   4.523
 7949SOL     OW24745   0.161   3.827   4.288
 7949SOL    HW124746   0.156   3.826   4.388
 7949SOL    HW224747   0.193   3.916   4.256
 7950SOL     OW24748   2.994   5.765   2.981
 7950SOL    HW124749   2.918   5.700   2.977
 7950SOL    HW224750   3.059   5.746   2.907
 7951SOL     OW24751   2.276   3.913   0.465
 7951SOL    HW124752   2.243   3.912   0.371
 7951SOL    HW224753   2.344   3.841   0.478
 7952SOL     OW24754   6.003   3.558   0.512
 7952SOL    HW124755   5.952   3.505   0.579
 7952SOL    HW224756   6.101   3.536   0.520
 7953SOL     OW24757   2.014   4.398   1.248
 7953SOL    HW124758   1.949   4.371   1.318
 7953SOL    HW224759   2.095   4.339   1.252
 7954SOL     OW24760   6.036   5.311   3.801
 7954SOL    HW124761   6.022   5.405   3.833
 7954SOL    HW224762   6.120   5.306   3.748
 7955SOL     OW24763   1.501   6.054   6.437
 7955SOL    HW124764   1.570   6.026   6.371
 7955SOL    HW224765   1.474   6.148   6.419
 7956SOL     OW24766   5.224   6.293   3.254
 7956SOL    HW124767   5.181   6.371   3.210
 7956SOL    HW224768   5.223   6.306   3.353
 7957SOL     OW24769   0.623   3.102   1.648
 7957SOL    HW124770   0.541   3.123   1.594
 7957SOL    HW224771   0.704   3.132   1.598
 7958SOL     OW24772   1.916   5.697   3.335
 7958SOL    HW124773   1.907   5.676   3.238
 7958SOL    HW224774   1.825   5.700   3.377
 7959SOL     OW24775   4.607   4.056   0.865
 7959SOL    HW124776   4.672   4.126   0.835
 7959SOL    HW224777   4.598   3.986   0.794
 7960SOL     OW24778   1.728   2.187   1.385
 7960SOL    HW124779   1.634   2.214   1.403
 7960SOL    HW224780   1.758   2.226   1.297
 7961SOL     OW24781   1.644   6.359   7.023
 7961SOL    HW124782   1.668   6.350   0.096
 7961SOL    HW224783   1.608   6.451   7.006
 7962SOL     OW24784   1.440   6.910   2.370
 7962SOL    HW124785   1.381   6.932   2.292
 7962SOL    HW224786   1.433   6.812   2.390
 7963SOL     OW24787   0.269   6.345   6.336
 7963SOL    HW124788   0.230   6.388   6.255
 7963SOL    HW224789   0.340   6.280   6.309
 7964SOL     OW24790   6.235   5.049   3.620
 7964SOL    HW124791   6.160   4.986   3.642
 7964SOL    HW224792   6.248   5.112   3.697
 7965SOL     OW24793   3.553   1.985   1.309
 7965SOL    HW124794   3.521   1.891   1.323
 7965SOL    HW224795   3.474   2.046   1.299
 7966SOL     OW24796   0.212   1.427   3.997
 7966SOL    HW124797   0.153   1.462   4.069
 7966SOL    HW224798   0.157   1.402   3.917
 7967SOL     OW24799   1.881   0.099   4.197
 7967SOL    HW124800   1.834   0.011   4.201
 7967SOL    HW224801   1.813   0.172   4.192
 7968SOL     OW24802   2.415   1.558   6.965
 7968SOL    HW124803   2.339   1.534   6.905
 7968SOL    HW224804   2.388   1.542   0.036
 7969SOL     OW24805   4.163   1.974   3.564
 7969SOL    HW124806   4.183   2.011   3.655
 7969SOL    HW224807   4.069   1.940   3.562
 7970SOL     OW24808   0.513   4.835   2.943
 7970SOL    HW124809   0.535   4.928   2.972
 7970SOL    HW224810   0.591   4.775   2.963
 7971SOL     OW24811   3.753   1.834   3.305
 7971SOL    HW124812   3.686   1.909   3.303
 7971SOL    HW224813   3.705   1.747   3.293
 7972SOL     OW24814   4.848   5.135   1.241
 7972SOL    HW124815   4.855   5.204   1.313
 7972SOL    HW224816   4.799   5.174   1.162
 7973SOL     OW24817   5.862   1.769   3.272
 7973SOL    HW124818   5.878   1.864   3.298
 7973SOL    HW224819   5.851   1.762   3.173
 7974SOL     OW24820   4.497   6.333   4.819
 7974SOL    HW124821   4.446   6.264   4.869
 7974SOL    HW224822   4.527   6.296   4.731
 7975SOL     OW24823   1.937   0.868   2.216
 7975SOL    HW124824   2.033   0.860   2.189
 7975SOL    HW224825   1.914   0.794   2.280
 7976SOL     OW24826   0.019   6.410   6.092
 7976SOL    HW124827   0.019   6.508   6.068
 7976SOL    HW224828   0.035   6.356   6.009
 7977SOL     OW24829   5.481   6.283   1.547
 7977SOL    HW124830   5.516   6.363   1.596
 7977SOL    HW224831   5.515   6.284   1.453
 7978SOL     OW24832   3.416   1.379   5.888
 7978SOL    HW124833   3.371   1.289   5.884
 7978SOL    HW224834   3.350   1.450   5.867
 7979SOL     OW24835   4.582   5.491   4.483
 7979SOL    HW124836   4.568   5.414   4.421
 7979SOL    HW224837   4.589   5.575   4.430
 7980SOL     OW24838   2.597   0.949   1.173
 7980SOL    HW124839   2.572   0.862   1.214
 7980SOL    HW224840   2.532   1.020   1.203
 7981SOL     OW24841   0.632   6.646   2.815
 7981SOL    HW124842   0.731   6.632   2.821
 7981SOL    HW224843   0.584   6.566   2.850
 7982SOL     OW24844   0.135   2.369   1.304
 7982SOL    HW124845   0.085   2.362   1.390
 7982SOL    HW224846   0.223   2.322   1.313
 7983SOL     OW24847   5.239   2.157   1.421
 7983SOL    HW124848   5.292   2.118   1.496
 7983SOL    HW224849   5.151   2.190   1.456
 7984SOL     OW24850   5.719   1.012   6.821
 7984SOL    HW124851   5.731   0.930   6.877
 7984SOL    HW224852   5.626   1.048   6.832
 7985SOL     OW24853   0.417   1.596   0.852
 7985SOL    HW124854   0.504   1.641   0.836
 7985SOL    HW224855   0.415   1.509   0.803
 7986SOL     OW24856   4.943   3.933   0.365
 7986SOL    HW124857   4.954   3.884   0.451
 7986SOL    HW224858   4.942   4.031   0.382
 7987SOL     OW24859   1.146   4.208   5.393
 7987SOL    HW124860   1.221   4.243   5.450
 7987SOL    HW224861   1.180   4.187   5.302
 7988SOL     OW24862   2.364   1.248   5.024
 7988SOL    HW124863   2.434   1.286   5.084
 7988SOL    HW224864   2.395   1.162   4.985
 7989SOL     OW24865   2.580   3.407   0.058
 7989SOL    HW124866   2.494   3.444   0.024
 7989SOL    HW224867   2.577   3.402   0.158
 7990SOL     OW24868   2.265   2.957   4.538
 7990SOL    HW124869   2.319   2.879   4.570
 7990SOL    HW224870   2.320   3.040   4.542
 7991SOL     OW24871   2.255   2.975   5.881
 7991SOL    HW124872   2.325   3.027   5.832
 7991SOL    HW224873   2.233   2.892   5.830
 7992SOL     OW24874   2.727   1.317   6.929
 7992SOL    HW124875   2.730   1.344   6.833
 7992SOL    HW224876   2.792   1.372   6.981
 7993SOL     OW24877   3.404   5.586   6.225
 7993SOL    HW124878   3.444   5.516   6.284
 7993SOL    HW224879   3.403   5.673   6.275
 7994SOL     OW24880   5.667   0.205   4.771
 7994SOL    HW124881   5.685   0.284   4.713
 7994SOL    HW224882   5.639   0.128   4.713
 7995SOL     OW24883   4.176   5.298   2.242
 7995SOL    HW124884   4.109   5.342   2.182
 7995SOL    HW224885   4.155   5.201   2.249
 7996SOL     OW24886   4.624   2.133   5.204
 7996SOL    HW124887   4.571   2.211   5.170
 7996SOL    HW224888   4.717   2.163   5.225
 7997SOL     OW24889   4.995   3.369   0.958
 7997SOL    HW124890   5.028   3.333   0.870
 7997SOL    HW224891   4.899   3.344   0.970
 7998SOL     OW24892   6.899   5.711   0.121
 7998SOL    HW124893   6.819   5.768   0.104
 7998SOL    HW224894   6.973   5.738   0.059
 7999SOL     OW24895   3.062   2.161   5.884
 7999SOL    HW124896   3.160   2.153   5.906
 7999SOL    HW224897   3.030   2.076   5.844
 8000SOL     OW24898   5.330   0.257   5.246
 8000SOL    HW124899   5.282   0.232   5.161
 8000SOL    HW224900   5.301   0.196   5.319
 8001SOL     OW24901   3.053   4.608   1.315
 8001SOL    HW124902   3.010   4.529   1.358
 8001SOL    HW224903   3.150   4.589   1.299
 8002SOL     OW24904   4.497   2.200   5.559
 8002SOL    HW124905   4.556   2.243   5.491
 8002SOL    HW224906   4.433   2.268   5.596
 8003SOL     OW24907   5.083   5.669   3.295
 8003SOL    HW124908   5.141   5.746   3.267
 8003SOL    HW224909   5.039   5.629   3.214
 8004SOL     OW24910   1.723   5.150   3.570
 8004SOL    HW124911   1.755   5.168   3.477
 8004SOL    HW224912   1.797   5.107   3.622
 8005SOL     OW24913   2.616   0.739   2.275
 8005SOL    HW124914   2.639   0.651   2.317
 8005SOL    HW224915   2.521   0.763   2.297
 8006SOL     OW24916   5.019   5.551   3.036
 8006SOL    HW124917   4.998   5.608   2.956
 8006SOL    HW224918   5.026   5.456   3.009
 8007SOL     OW24919   1.052   1.181   3.322
 8007SOL    HW124920   1.011   1.267   3.292
 8007SOL    HW224921   1.101   1.139   3.246
 8008SOL     OW24922   6.665   4.782   0.970
 8008SOL    HW124923   6.647   4.690   1.006
 8008SOL    HW224924   6.594   4.807   0.905
 8009SOL     OW24925   6.433   6.287   3.084
 8009SOL    HW124926   6.336   6.309   3.073
 8009SOL    HW224927   6.466   6.243   3.000
 8010SOL     OW24928   2.080   1.596   5.730
 8010SOL    HW124929   2.170   1.573   5.767
 8010SOL    HW224930   2.088   1.620   5.634
 8011SOL     OW24931   2.022   3.382   0.157
 8011SOL    HW124932   1.935   3.365   0.204
 8011SOL    HW224933   2.077   3.299   0.159
 8012SOL     OW24934   1.814   5.427   3.530
 8012SOL    HW124935   1.739   5.478   3.571
 8012SOL    HW224936   1.834   5.347   3.586
 8013SOL     OW24937   6.337   5.856   3.921
 8013SOL    HW124938   6.275   5.933   3.910
 8013SOL    HW224939   6.414   5.866   3.859
 8014SOL     OW24940   2.436   0.340   6.178
 8014SOL    HW124941   2.420   0.418   6.117
 8014SOL    HW224942   2.438   0.256   6.124
 8015SOL     OW24943   2.161   0.798   0.922
 8015SOL    HW124944   2.185   0.787   0.826
 8015SOL    HW224945   2.224   0.862   0.965
 8016SOL     OW24946   4.635   5.367   1.629
 8016SOL    HW124947   4.676   5.336   1.715
 8016SOL    HW224948   4.621   5.466   1.634
 8017SOL     OW24949   6.321   3.119   4.470
 8017SOL    HW124950   6.236   3.088   4.427
 8017SOL    HW224951   6.317   3.218   4.483
 8018SOL     OW24952   4.876   3.200   3.334
 8018SOL    HW124953   4.892   3.147   3.251
 8018SOL    HW224954   4.920   3.155   3.412
 8019SOL     OW24955   3.679   5.056   1.433
 8019SOL    HW124956   3.687   5.140   1.378
 8019SOL    HW224957   3.621   4.990   1.385
 8020SOL     OW24958   6.124   6.358   6.726
 8020SOL    HW124959   6.143   6.450   6.691
 8020SOL    HW224960   6.044   6.320   6.680
 8021SOL     OW24961   6.441   1.299   2.708
 8021SOL    HW124962   6.355   1.261   2.740
 8021SOL    HW224963   6.517   1.241   2.739
 8022SOL     OW24964   5.968   4.766   4.006
 8022SOL    HW124965   6.043   4.787   4.069
 8022SOL    HW224966   5.934   4.674   4.025
 8023SOL     OW24967   6.907   5.468   3.446
 8023SOL    HW124968   6.962   5.482   3.528
 8023SOL    HW224969   6.859   5.553   3.423
 8024SOL     OW24970   5.053   5.837   3.833
 8024SOL    HW124971   5.074   5.858   3.737
 8024SOL    HW224972   4.975   5.893   3.863
 8025SOL     OW24973   2.324   6.018   0.029
 8025SOL    HW124974   2.292   5.924   0.014
 8025SOL    HW224975   2.372   6.024   0.116
 8026SOL     OW24976   3.123   2.352   0.324
 8026SOL    HW124977   3.048   2.287   0.313
 8026SOL    HW224978   3.139   2.399   0.237
 8027SOL     OW24979   4.326   3.634   5.753
 8027SOL    HW124980   4.407   3.693   5.756
 8027SOL    HW224981   4.351   3.544   5.717
 8028SOL     OW24982   6.050   4.568   1.503
 8028SOL    HW124983   6.123   4.500   1.517
 8028SOL    HW224984   6.026   4.571   1.406
 8029SOL     OW24985   3.061   4.269   5.763
 8029SOL    HW124986   3.098   4.197   5.821
 8029SOL    HW224987   3.135   4.313   5.713
 8030SOL     OW24988   0.536   3.899   2.100
 8030SOL    HW124989   0.635   3.893   2.107
 8030SOL    HW224990   0.494   3.818   2.143
 8031SOL     OW24991   3.933   6.193   0.636
 8031SOL    HW124992   3.939   6.278   0.584
 8031SOL    HW224993   3.941   6.213   0.733
 8032SOL     OW24994   4.295   3.475   5.400
 8032SOL    HW124995   4.319   3.454   5.495
 8032SOL    HW224996   4.362   3.538   5.361
 8033SOL     OW24997   5.439   1.219   2.521
 8033SOL    HW124998   5.400   1.154   2.455
 8033SOL    HW224999   5.469   1.301   2.472
 8034SOL     OW25000   6.800   2.589   5.887
 8034SOL    HW125001   6.734   2.622   5.954
 8034SOL    HW225002   6.755   2.525   5.825
 8035SOL     OW25003   5.875   5.875   6.757
 8035SOL    HW125004   5.848   5.821   6.677
 8035SOL    HW225005   5.836   5.967   6.748
 8036SOL     OW25006   1.003   3.320   1.556
 8036SOL    HW125007   0.964   3.386   1.620
 8036SOL    HW225008   0.930   3.270   1.510
 8037SOL     OW25009   1.693   3.139   1.367
 8037SOL    HW125010   1.613   3.197   1.355
 8037SOL    HW225011   1.776   3.194   1.352
 8038SOL     OW25012   5.617   0.593   3.666
 8038SOL    HW125013   5.621   0.516   3.730
 8038SOL    HW225014   5.523   0.605   3.635
 8039SOL     OW25015   2.498   5.715   3.710
 8039SOL    HW125016   2.570   5.714   3.640
 8039SOL    HW225017   2.482   5.622   3.743
 8040SOL     OW25018   6.344   6.082   6.069
 8040SOL    HW125019   6.375   6.143   6.143
 8040SOL    HW225020   6.252   6.049   6.090
 8041SOL     OW25021   3.224   2.912   0.833
 8041SOL    HW125022   3.160   2.848   0.790
 8041SOL    HW225023   3.264   2.869   0.914
 8042SOL     OW25024   1.713   4.741   7.005
 8042SOL    HW125025   1.710   4.753   0.080
 8042SOL    HW225026   1.807   4.725   6.976
 8043SOL     OW25027   3.189   0.661   1.258
 8043SOL    HW125028   3.243   0.584   1.291
 8043SOL    HW225029   3.132   0.697   1.333
 8044SOL     OW25030   3.030   2.763   1.159
 8044SOL    HW125031   2.985   2.675   1.148
 8044SOL    HW225032   3.083   2.763   1.244
 8045SOL     OW25033   5.444   2.735   4.229
 8045SOL    HW125034   5.511   2.700   4.164
 8045SOL    HW225035   5.425   2.831   4.209
 8046SOL     OW25036   6.417   5.138   5.187
 8046SOL    HW125037   6.458   5.090   5.110
 8046SOL    HW225038   6.486   5.196   5.231
 8047SOL     OW25039   3.079   6.706   4.113
 8047SOL    HW125040   3.107   6.782   4.173
 8047SOL    HW225041   3.098   6.731   4.018
 8048SOL     OW25042   5.326   0.068   5.468
 8048SOL    HW125043   5.411   0.017   5.460
 8048SOL    HW225044   5.340   0.148   5.526
 8049SOL     OW25045   2.558   6.397   6.197
 8049SOL    HW125046   2.652   6.402   6.230
 8049SOL    HW225047   2.502   6.346   6.262
 8050SOL     OW25048   0.576   3.424   1.533
 8050SOL    HW125049   0.584   3.502   1.471
 8050SOL    HW225050   0.612   3.342   1.489
 8051SOL     OW25051   2.064   2.396   3.933
 8051SOL    HW125052   2.039   2.445   4.017
 8051SOL    HW225053   2.011   2.432   3.856
 8052SOL     OW25054   4.258   1.216   2.986
 8052SOL    HW125055   4.203   1.205   3.069
 8052SOL    HW225056   4.339   1.157   2.992
 8053SOL     OW25057   4.663   3.383   1.205
 8053SOL    HW125058   4.692   3.479   1.210
 8053SOL    HW225059   4.652   3.347   1.297
 8054SOL     OW25060   4.810   6.631   4.703
 8054SOL    HW125061   4.801   6.649   4.605
 8054SOL    HW225062   4.902   6.600   4.723
 8055SOL     OW25063   1.308   0.314   4.887
 8055SOL    HW125064   1.320   0.334   4.789
 8055SOL    HW225065   1.253   0.386   4.929
 8056SOL     OW25066   4.849   1.277   2.717
 8056SOL    HW125067   4.927   1.330   2.749
 8056SOL    HW225068   4.830   1.203   2.781
 8057SOL     OW25069   2.970   6.835   3.318
 8057SOL    HW125070   2.964   6.901   3.392
 8057SOL    HW225071   3.066   6.814   3.299
 8058SOL     OW25072   1.958   0.729   3.361
 8058SOL    HW125073   1.910   0.740   3.449
 8058SOL    HW225074   1.892   0.712   3.289
 8059SOL     OW25075   2.200   1.326   3.661
 8059SOL    HW125076   2.128   1.359   3.723
 8059SOL    HW225077   2.160   1.301   3.573
 8060SOL     OW25078   1.543   2.702   5.264
 8060SOL    HW125079   1.494   2.694   5.350
 8060SOL    HW225080   1.509   2.782   5.214
 8061SOL     OW25081   5.108   6.467   2.441
 8061SOL    HW125082   5.102   6.492   2.344
 8061SOL    HW225083   5.151   6.541   2.492
 8062SOL     OW25084   1.625   1.574   1.595
 8062SOL    HW125085   1.563   1.581   1.673
 8062SOL    HW225086   1.574   1.587   1.510
 8063SOL     OW25087   3.167   2.004   5.484
 8063SOL    HW125088   3.173   2.098   5.516
 8063SOL    HW225089   3.153   2.002   5.385
 8064SOL     OW25090   5.361   2.003   6.013
 8064SOL    HW125091   5.365   2.077   6.080
 8064SOL    HW225092   5.441   2.007   5.953
 8065SOL     OW25093   4.393   0.673   6.784
 8065SOL    HW125094   4.349   0.662   6.873
 8065SOL    HW225095   4.324   0.672   6.712
 8066SOL     OW25096   0.319   0.640   1.865
 8066SOL    HW125097   0.318   0.695   1.949
 8066SOL    HW225098   0.341   0.699   1.788
 8067SOL     OW25099   4.538   1.674   2.724
 8067SOL    HW125100   4.503   1.585   2.694
 8067SOL    HW225101   4.613   1.660   2.789
 8068SOL     OW25102   6.102   3.951   3.183
 8068SOL    HW125103   6.177   4.012   3.158
 8068SOL    HW225104   6.042   3.997   3.248
 8069SOL     OW25105   6.665   5.289   2.347
 8069SOL    HW125106   6.665   5.213   2.283
 8069SOL    HW225107   6.739   5.353   2.324
 8070SOL     OW25108   3.932   0.996   3.028
 8070SOL    HW125109   4.029   0.974   3.015
 8070SOL    HW225110   3.884   0.988   2.941
 8071SOL     OW25111   6.229   4.445   6.611
 8071SOL    HW125112   6.151   4.392   6.645
 8071SOL    HW225113   6.211   4.475   6.517
 8072SOL     OW25114   3.029   0.218   3.047
 8072SOL    HW125115   2.962   0.292   3.036
 8072SOL    HW225116   2.984   0.130   3.030
 8073SOL     OW25117   5.426   0.216   6.450
 8073SOL    HW125118   5.519   0.215   6.486
 8073SOL    HW225119   5.412   0.139   6.388
 8074SOL     OW25120   2.950   4.692   0.360
 8074SOL    HW125121   2.920   4.598   0.340
 8074SOL    HW225122   3.017   4.691   0.434
 8075SOL     OW25123   6.401   1.804   4.026
 8075SOL    HW125124   6.447   1.735   4.082
 8075SOL    HW225125   6.469   1.862   3.982
 8076SOL     OW25126   4.730   2.328   6.612
 8076SOL    HW125127   4.676   2.265   6.557
 8076SOL    HW225128   4.685   2.417   6.614
 8077SOL     OW25129   0.545   0.633   6.805
 8077SOL    HW125130   0.515   0.646   6.899
 8077SOL    HW225131   0.466   0.616   6.747
 8078SOL     OW25132   6.569   4.140   1.222
 8078SOL    HW125133   6.497   4.106   1.283
 8078SOL    HW225134   6.552   4.107   1.129
 8079SOL     OW25135   1.440   3.412   0.872
 8079SOL    HW125136   1.415   3.494   0.923
 8079SOL    HW225137   1.537   3.415   0.847
 8080SOL     OW25138   3.498   5.089   6.803
 8080SOL    HW125139   3.473   5.111   6.897
 8080SOL    HW225140   3.581   5.032   6.802
 8081SOL     OW25141   4.990   2.344   4.385
 8081SOL    HW125142   4.922   2.296   4.331
 8081SOL    HW225143   5.080   2.336   4.341
 8082SOL     OW25144   6.739   3.797   5.021
 8082SOL    HW125145   6.815   3.735   5.003
 8082SOL    HW225146   6.674   3.753   5.083
 8083SOL     OW25147   6.704   2.001   5.251
 8083SOL    HW125148   6.654   2.049   5.324
 8083SOL    HW225149   6.641   1.942   5.201
 8084SOL     OW25150   5.862   6.858   6.458
 8084SOL    HW125151   5.960   6.862   6.475
 8084SOL    HW225152   5.828   6.951   6.441
 8085SOL     OW25153   5.010   2.771   1.966
 8085SOL    HW125154   5.097   2.774   2.015
 8085SOL    HW225155   4.937   2.801   2.027
 8086SOL     OW25156   2.656   5.222   7.019
 8086SOL    HW125157   2.646   5.312   6.975
 8086SOL    HW225158   2.658   5.234   0.094
 8087SOL     OW25159   1.805   4.011   1.030
 8087SOL    HW125160   1.818   4.097   0.982
 8087SOL    HW225161   1.866   3.941   0.991
 8088SOL     OW25162   4.292   0.775   3.027
 8088SOL    HW125163   4.194   0.756   3.020
 8088SOL    HW225164   4.334   0.709   3.089
 8089SOL     OW25165   6.893   2.211   0.323
 8089SOL    HW125166   6.850   2.170   0.242
 8089SOL    HW225167   6.988   2.178   0.330
 8090SOL     OW25168   5.437   1.064   4.859
 8090SOL    HW125169   5.404   1.151   4.897
 8090SOL    HW225170   5.513   1.081   4.797
 8091SOL     OW25171   1.785   3.617   4.455
 8091SOL    HW125172   1.840   3.554   4.509
 8091SOL    HW225173   1.817   3.711   4.470
 8092SOL     OW25174   6.221   1.954   4.164
 8092SOL    HW125175   6.279   1.893   4.110
 8092SOL    HW225176   6.128   1.951   4.129
 8093SOL     OW25177   5.972   4.709   0.599
 8093SOL    HW125178   5.903   4.646   0.635
 8093SOL    HW225179   5.960   4.718   0.500
 8094SOL     OW25180   0.917   3.537   4.448
 8094SOL    HW125181   0.847   3.565   4.382
 8094SOL    HW225182   0.873   3.518   4.536
 8095SOL     OW25183   6.560   3.078   4.862
 8095SOL    HW125184   6.517   3.037   4.781
 8095SOL    HW225185   6.517   3.042   4.944
 8096SOL     OW25186   3.895   0.291   0.782
 8096SOL    HW125187   3.903   0.282   0.683
 8096SOL    HW225188   3.811   0.341   0.805
 8097SOL     OW25189   4.905   2.182   3.906
 8097SOL    HW125190   4.914   2.271   3.951
 8097SOL    HW225191   4.808   2.163   3.889
 8098SOL     OW25192   2.204   2.061   3.926
 8098SOL    HW125193   2.302   2.080   3.920
 8098SOL    HW225194   2.154   2.147   3.940
 8099SOL     OW25195   4.340   6.637   3.975
 8099SOL    HW125196   4.357   6.681   3.887
 8099SOL    HW225197   4.242   6.639   3.995
 8100SOL     OW25198   6.292   6.378   1.476
 8100SOL    HW125199   6.231   6.434   1.532
 8100SOL    HW225200   6.303   6.421   1.386
 8101SOL     OW25201   1.333   4.674   2.925
 8101SOL    HW125202   1.281   4.673   2.839
 8101SOL    HW225203   1.342   4.768   2.958
 8102SOL     OW25204   6.524   0.142   5.500
 8102SOL    HW125205   6.537   0.050   5.463
 8102SOL    HW225206   6.498   0.204   5.426
 8103SOL     OW25207   2.758   2.355   2.394
 8103SOL    HW125208   2.839   2.307   2.428
 8103SOL    HW225209   2.759   2.356   2.294
 8104SOL     OW25210   2.503   0.610   5.782
 8104SOL    HW125211   2.511   0.700   5.739
 8104SOL    HW225212   2.554   0.609   5.867
 8105SOL     OW25213   2.368   2.770   2.687
 8105SOL    HW125214   2.292   2.820   2.728
 8105SOL    HW225215   2.415   2.716   2.757
 8106SOL     OW25216   0.580   4.624   6.819
 8106SOL    HW125217   0.666   4.586   6.853
 8106SOL    HW225218   0.511   4.552   6.814
 8107SOL     OW25219   0.449   5.324   6.605
 8107SOL    HW125220   0.455   5.354   6.510
 8107SOL    HW225221   0.540   5.326   6.646
 8108SOL     OW25222   2.038   1.996   6.063
 8108SOL    HW125223   2.070   1.924   6.003
 8108SOL    HW225224   2.051   1.969   6.159
 8109SOL     OW25225   0.039   5.447   5.016
 8109SOL    HW125226   7.017   5.405   4.938
 8109SOL    HW225227   7.011   5.429   5.100
 8110SOL     OW25228   1.082   5.053   0.450
 8110SOL    HW125229   0.991   5.094   0.443
 8110SOL    HW225230   1.152   5.123   0.431
 8111SOL     OW25231   3.423   6.563   4.033
 8111SOL    HW125232   3.334   6.516   4.032
 8111SOL    HW225233   3.496   6.496   4.038
 8112SOL     OW25234   3.778   2.012   4.252
 8112SOL    HW125235   3.727   2.060   4.180
 8112SOL    HW225236   3.800   2.076   4.325
 8113SOL     OW25237   3.034   2.613   6.276
 8113SOL    HW125238   3.113   2.555   6.255
 8113SOL    HW225239   3.033   2.635   6.374
 8114SOL     OW25240   2.448   3.536   1.456
 8114SOL    HW125241   2.526   3.522   1.517
 8114SOL    HW225242   2.470   3.502   1.364
 8115SOL     OW25243   4.099   2.820   1.425
 8115SOL    HW125244   4.137   2.912   1.412
 8115SOL    HW225245   4.039   2.799   1.348
 8116SOL     OW25246   5.805   2.298   5.637
 8116SOL    HW125247   5.847   2.382   5.603
 8116SOL    HW225248   5.710   2.293   5.606
 8117SOL     OW25249   3.156   2.866   5.123
 8117SOL    HW125250   3.090   2.822   5.183
 8117SOL    HW225251   3.174   2.959   5.155
 8118SOL     OW25252   0.856   2.247   4.169
 8118SOL    HW125253   0.775   2.188   4.173
 8118SOL    HW225254   0.920   2.220   4.242
 8119SOL     OW25255   1.232   6.984   2.194
 8119SOL    HW125256   1.158   6.926   2.229
 8119SOL    HW225257   1.194   0.049   2.169
 8120SOL     OW25258   4.773   4.364   2.110
 8120SOL    HW125259   4.705   4.406   2.170
 8120SOL    HW225260   4.733   4.347   2.021
 8121SOL     OW25261   6.860   6.054   3.357
 8121SOL    HW125262   6.958   6.077   3.358
 8121SOL    HW225263   6.813   6.109   3.288
 8122SOL     OW25264   0.265   4.736   1.066
 8122SOL    HW125265   0.177   4.721   1.113
 8122SOL    HW225266   0.323   4.794   1.122
 8123SOL     OW25267   1.325   4.898   5.789
 8123SOL    HW125268   1.301   4.841   5.710
 8123SOL    HW225269   1.400   4.960   5.764
 8124SOL     OW25270   1.244   6.396   2.528
 8124SOL    HW125271   1.309   6.328   2.496
 8124SOL    HW225272   1.165   6.399   2.467
 8125SOL     OW25273   4.546   5.527   3.911
 8125SOL    HW125274   4.536   5.446   3.968
 8125SOL    HW225275   4.457   5.551   3.872
 8126SOL     OW25276   6.942   3.977   1.719
 8126SOL    HW125277   6.926   3.963   1.621
 8126SOL    HW225278   0.016   3.980   1.736
 8127SOL     OW25279   4.426   5.044   6.787
 8127SOL    HW125280   4.363   5.111   6.826
 8127SOL    HW225281   4.519   5.081   6.788
 8128SOL     OW25282   3.797   2.241   5.727
 8128SOL    HW125283   3.721   2.269   5.668
 8128SOL    HW225284   3.884   2.258   5.679
 8129SOL     OW25285   5.276   5.294   6.555
 8129SOL    HW125286   5.178   5.287   6.538
 8129SOL    HW225287   5.300   5.242   6.637
 8130SOL     OW25288   0.601   0.074   6.114
 8130SOL    HW125289   0.563   0.163   6.088
 8130SOL    HW225290   0.531   0.020   6.159
 8131SOL     OW25291   2.565   1.396   1.192
 8131SOL    HW125292   2.617   1.394   1.277
 8131SOL    HW225293   2.572   1.487   1.151
 8132SOL     OW25294   5.303   4.913   3.266
 8132SOL    HW125295   5.297   5.012   3.278
 8132SOL    HW225296   5.399   4.886   3.256
 8133SOL     OW25297   0.539   5.280   2.633
 8133SOL    HW125298   0.580   5.221   2.703
 8133SOL    HW225299   0.542   5.234   2.544
 8134SOL     OW25300   3.441   3.114   1.472
 8134SOL    HW125301   3.390   3.042   1.520
 8134SOL    HW225302   3.377   3.185   1.442
 8135SOL     OW25303   4.232   5.894   2.529
 8135SOL    HW125304   4.320   5.909   2.484
 8135SOL    HW225305   4.194   5.981   2.558
 8136SOL     OW25306   2.642   5.755   1.203
 8136SOL    HW125307   2.688   5.791   1.285
 8136SOL    HW225308   2.549   5.727   1.226
 8137SOL     OW25309   3.496   4.099   5.647
 8137SOL    HW125310   3.573   4.069   5.704
 8137SOL    HW225311   3.504   4.058   5.556
 8138SOL     OW25312   4.300   0.866   4.139
 8138SOL    HW125313   4.245   0.861   4.222
 8138SOL    HW225314   4.262   0.935   4.077
 8139SOL     OW25315   2.093   3.192   6.025
 8139SOL    HW125316   2.048   3.253   5.960
 8139SOL    HW225317   2.160   3.136   5.975
 8140SOL     OW25318   5.224   1.460   1.498
 8140SOL    HW125319   5.208   1.420   1.408
 8140SOL    HW225320   5.235   1.559   1.489
 8141SOL     OW25321   5.590   1.952   4.891
 8141SOL    HW125322   5.513   2.016   4.887
 8141SOL    HW225323   5.646   1.972   4.971
 8142SOL     OW25324   4.082   5.518   0.445
 8142SOL    HW125325   4.179   5.518   0.419
 8142SOL    HW225326   4.073   5.552   0.539
 8143SOL     OW25327   5.286   5.103   0.481
 8143SOL    HW125328   5.290   5.016   0.432
 8143SOL    HW225329   5.335   5.095   0.567
 8144SOL     OW25330   1.605   5.625   6.552
 8144SOL    HW125331   1.637   5.717   6.575
 8144SOL    HW225332   1.670   5.581   6.490
 8145SOL     OW25333   5.315   5.119   5.657
 8145SOL    HW125334   5.329   5.217   5.648
 8145SOL    HW225335   5.317   5.076   5.566
 8146SOL     OW25336   6.957   6.002   5.792
 8146SOL    HW125337   7.001   5.913   5.781
 8146SOL    HW225338   6.905   6.003   5.878
 8147SOL     OW25339   2.767   6.337   4.353
 8147SOL    HW125340   2.850   6.393   4.366
 8147SOL    HW225341   2.737   6.302   4.441
 8148SOL     OW25342   4.628   4.789   0.347
 8148SOL    HW125343   4.549   4.783   0.286
 8148SOL    HW225344   4.711   4.768   0.295
 8149SOL     OW25345   1.469   6.843   4.434
 8149SOL    HW125346   1.423   6.932   4.438
 8149SOL    HW225347   1.487   6.811   4.526
 8150SOL     OW25348   0.481   3.790   0.680
 8150SOL    HW125349   0.451   3.696   0.691
 8150SOL    HW225350   0.451   3.825   0.591
 8151SOL     OW25351   6.063   4.267   2.805
 8151SOL    HW125352   6.011   4.207   2.745
 8151SOL    HW225353   6.134   4.214   2.852
 8152SOL     OW25354   4.938   2.244   4.661
 8152SOL    HW125355   4.961   2.274   4.569
 8152SOL    HW225356   4.859   2.183   4.657
 8153SOL     OW25357   6.954   0.947   1.115
 8153SOL    HW125358   6.854   0.943   1.114
 8153SOL    HW225359   6.988   0.940   1.021
 8154SOL     OW25360   6.937   0.327   4.953
 8154SOL    HW125361   6.969   0.422   4.953
 8154SOL    HW225362   6.967   0.281   4.870
 8155SOL     OW25363   1.403   4.775   4.768
 8155SOL    HW125364   1.377   4.715   4.692
 8155SOL    HW225365   1.476   4.836   4.737
 8156SOL     OW25366   0.686   3.797   0.062
 8156SOL    HW125367   0.629   3.805   7.004
 8156SOL    HW225368   0.782   3.812   0.037
 8157SOL     OW25369   6.098   4.780   5.536
 8157SOL    HW125370   6.080   4.742   5.627
 8157SOL    HW225371   6.163   4.721   5.487
 8158SOL     OW25372   6.984   5.326   5.611
 8158SOL    HW125373   0.047   5.357   5.572
 8158SOL    HW225374   6.960   5.238   5.571
 8159SOL     OW25375   2.305   5.757   4.461
 8159SOL    HW125376   2.375   5.813   4.506
 8159SOL    HW225377   2.339   5.727   4.372
 8160SOL     OW25378   4.901   3.124   3.079
 8160SOL    HW125379   4.856   3.214   3.085
 8160SOL    HW225380   4.946   3.115   2.990
 8161SOL     OW25381   0.189   1.699   1.098
 8161SOL    HW125382   0.112   1.671   1.155
 8161SOL    HW225383   0.271   1.649   1.126
 8162SOL     OW25384   6.413   6.303   6.270
 8162SOL    HW125385   6.512   6.292   6.275
 8162SOL    HW225386   6.372   6.273   6.355
 8163SOL     OW25387   3.251   5.736   5.924
 8163SOL    HW125388   3.231   5.678   5.845
 8163SOL    HW225389   3.347   5.726   5.950
 8164SOL     OW25390   5.607   1.954   0.500
 8164SOL    HW125391   5.653   2.043   0.499
 8164SOL    HW225392   5.544   1.950   0.578
 8165SOL     OW25393   1.580   2.653   5.689
 8165SOL    HW125394   1.518   2.634   5.613
 8165SOL    HW225395   1.604   2.750   5.689
 8166SOL     OW25396   3.307   2.116   3.175
 8166SOL    HW125397   3.246   2.058   3.120
 8166SOL    HW225398   3.376   2.156   3.115
 8167SOL     OW25399   1.851   1.703   2.314
 8167SOL    HW125400   1.944   1.714   2.279
 8167SOL    HW225401   1.828   1.605   2.316
 8168SOL     OW25402   0.788   5.733   2.774
 8168SOL    HW125403   0.766   5.699   2.683
 8168SOL    HW225404   0.708   5.777   2.814
 8169SOL     OW25405   5.095   5.055   6.952
 8169SOL    HW125406   5.088   5.105   0.014
 8169SOL    HW225407   5.008   5.059   6.904
 8170SOL     OW25408   7.002   5.007   3.077
 8170SOL    HW125409   0.025   5.093   3.056
 8170SOL    HW225410   7.000   4.949   2.996
 8171SOL     OW25411   0.896   1.055   2.022
 8171SOL    HW125412   0.837   1.034   2.100
 8171SOL    HW225413   0.872   0.995   1.946
 8172SOL     OW25414   1.320   4.659   0.299
 8172SOL    HW125415   1.289   4.614   0.215
 8172SOL    HW225416   1.244   4.711   0.339
 8173SOL     OW25417   5.448   0.461   1.029
 8173SOL    HW125418   5.498   0.423   0.951
 8173SOL    HW225419   5.352   0.434   1.024
 8174SOL     OW25420   2.941   6.124   3.913
 8174SOL    HW125421   2.956   6.044   3.856
 8174SOL    HW225422   2.844   6.134   3.934
 8175SOL     OW25423   1.500   2.631   6.432
 8175SOL    HW125424   1.587   2.638   6.482
 8175SOL    HW225425   1.469   2.723   6.407
 8176SOL     OW25426   2.282   4.263   0.124
 8176SOL    HW125427   2.291   4.360   0.099
 8176SOL    HW225428   2.279   4.254   0.223
 8177SOL     OW25429   3.595   1.370   2.069
 8177SOL    HW125430   3.668   1.368   2.138
 8177SOL    HW225431   3.624   1.318   1.989
 8178SOL     OW25432   2.725   6.460   0.709
 8178SOL    HW125433   2.725   6.543   0.765
 8178SOL    HW225434   2.700   6.381   0.765
 8179SOL     OW25435   6.656   6.416   4.817
 8179SOL    HW125436   6.633   6.405   4.913
 8179SOL    HW225437   6.663   6.327   4.773
 8180SOL     OW25438   3.116   4.868   0.560
 8180SOL    HW125439   3.182   4.906   0.624
 8180SOL    HW225440   3.058   4.801   0.607
 8181SOL     OW25441   6.043   1.004   6.524
 8181SOL    HW125442   6.076   0.910   6.519
 8181SOL    HW225443   6.091   1.060   6.456
 8182SOL     OW25444   3.204   3.659   2.851
 8182SOL    HW125445   3.146   3.610   2.915
 8182SOL    HW225446   3.148   3.712   2.787
 8183SOL     OW25447   0.452   0.724   4.887
 8183SOL    HW125448   0.541   0.765   4.903
 8183SOL    HW225449   0.380   0.793   4.898
 8184SOL     OW25450   6.590   5.416   4.580
 8184SOL    HW125451   6.524   5.402   4.654
 8184SOL    HW225452   6.683   5.417   4.618
 8185SOL     OW25453   6.756   6.557   4.154
 8185SOL    HW125454   6.832   6.507   4.196
 8185SOL    HW225455   6.682   6.493   4.132
 8186SOL     OW25456   0.530   6.318   6.554
 8186SOL    HW125457   0.535   6.412   6.588
 8186SOL    HW225458   0.495   6.259   6.626
 8187SOL     OW25459   0.793   6.775   4.512
 8187SOL    HW125460   0.824   6.742   4.601
 8187SOL    HW225461   0.841   6.725   4.439
 8188SOL     OW25462   1.617   2.630   2.537
 8188SOL    HW125463   1.708   2.596   2.513
 8188SOL    HW225464   1.610   2.726   2.511
 8189SOL     OW25465   6.692   5.338   3.765
 8189SOL    HW125466   6.677   5.265   3.698
 8189SOL    HW225467   6.631   5.324   3.843
 8190SOL     OW25468   5.285   3.525   2.446
 8190SOL    HW125469   5.263   3.619   2.422
 8190SOL    HW225470   5.201   3.474   2.461
 8191SOL     OW25471   4.453   4.848   0.660
 8191SOL    HW125472   4.397   4.920   0.619
 8191SOL    HW225473   4.393   4.783   0.707
 8192SOL     OW25474   6.765   5.635   2.722
 8192SOL    HW125475   6.739   5.724   2.758
 8192SOL    HW225476   6.691   5.570   2.736
 8193SOL     OW25477   0.976   5.224   4.849
 8193SOL    HW125478   0.938   5.312   4.881
 8193SOL    HW225479   0.993   5.165   4.928
 8194SOL     OW25480   6.130   6.488   1.657
 8194SOL    HW125481   6.178   6.455   1.738
 8194SOL    HW225482   6.133   6.588   1.655
 8195SOL     OW25483   5.902   6.719   3.118
 8195SOL    HW125484   5.929   6.761   3.204
 8195SOL    HW225485   5.805   6.735   3.101
 8196SOL     OW25486   5.512   0.106   2.712
 8196SOL    HW125487   5.556   0.189   2.747
 8196SOL    HW225488   5.442   0.076   2.777
 8197SOL     OW25489   3.758   0.630   3.538
 8197SOL    HW125490   3.756   0.684   3.622
 8197SOL    HW225491   3.838   0.657   3.484
 8198SOL     OW25492   2.104   5.490   0.030
 8198SOL    HW125493   2.015   5.535   0.040
 8198SOL    HW225494   2.093   5.391   0.041
 8199SOL     OW25495   5.924   2.677   6.978
 8199SOL    HW125496   5.836   2.658   6.936
 8199SOL    HW225497   5.956   2.768   6.950
 8200SOL     OW25498   6.022   4.848   0.128
 8200SOL    HW125499   6.049   4.906   0.052
 8200SOL    HW225500   6.049   4.753   0.110
 8201SOL     OW25501   4.843   1.375   5.873
 8201SOL    HW125502   4.776   1.448   5.889
 8201SOL    HW225503   4.893   1.358   5.958
 8202SOL     OW25504   0.248   6.234   2.318
 8202SOL    HW125505   0.164   6.284   2.337
 8202SOL    HW225506   0.277   6.185   2.401
 8203SOL     OW25507   0.687   3.308   0.329
 8203SOL    HW125508   0.670   3.210   0.338
 8203SOL    HW225509   0.638   3.357   0.402
 8204SOL     OW25510   0.981   3.705   0.240
 8204SOL    HW125511   1.055   3.644   0.211
 8204SOL    HW225512   0.962   3.771   0.167
 8205SOL     OW25513   0.170   4.405   6.211
 8205SOL    HW125514   0.269   4.388   6.209
 8205SOL    HW225515   0.154   4.498   6.246
 8206SOL     OW25516   3.270   1.581   0.911
 8206SOL    HW125517   3.252   1.500   0.967
 8206SOL    HW225518   3.292   1.658   0.971
 8207SOL     OW25519   3.632   3.105   3.846
 8207SOL    HW125520   3.660   3.200   3.833
 8207SOL    HW225521   3.532   3.098   3.838
 8208SOL     OW25522   4.148   6.967   5.698
 8208SOL    HW125523   4.092   6.898   5.652
 8208SOL    HW225524   4.133   0.032   5.655
 8209SOL     OW25525   4.993   3.691   3.830
 8209SOL    HW125526   5.079   3.701   3.779
 8209SOL    HW225527   4.916   3.700   3.767
 8210SOL     OW25528   1.395   2.016   5.818
 8210SOL    HW125529   1.381   2.104   5.864
 8210SOL    HW225530   1.493   2.003   5.803
 8211SOL     OW25531   4.136   4.276   1.032
 8211SOL    HW125532   4.087   4.249   0.950
 8211SOL    HW225533   4.166   4.195   1.082
 8212SOL     OW25534   2.103   3.984   2.492
 8212SOL    HW125535   2.166   3.986   2.414
 8212SOL    HW225536   2.010   3.969   2.459
 8213SOL     OW25537   6.708   4.031   0.564
 8213SOL    HW125538   6.783   3.965   0.562
 8213SOL    HW225539   6.639   4.002   0.631
 8214SOL     OW25540   5.290   3.063   3.462
 8214SOL    HW125541   5.346   2.985   3.434
 8214SOL    HW225542   5.193   3.041   3.451
 8215SOL     OW25543   3.027   4.359   1.394
 8215SOL    HW125544   2.989   4.343   1.485
 8215SOL    HW225545   2.993   4.290   1.331
 8216SOL     OW25546   5.435   2.888   5.482
 8216SOL    HW125547   5.389   2.916   5.397
 8216SOL    HW225548   5.388   2.809   5.521
 8217SOL     OW25549   2.193   5.949   6.758
 8217SOL    HW125550   2.191   5.890   6.839
 8217SOL    HW225551   2.285   5.950   6.720
 8218SOL     OW25552   4.334   1.517   0.165
 8218SOL    HW125553   4.405   1.482   0.104
 8218SOL    HW225554   4.262   1.447   0.176
 8219SOL     OW25555   5.588   3.257   6.997
 8219SOL    HW125556   5.524   3.327   6.965
 8219SOL    HW225557   5.579   3.176   6.940
 8220SOL     OW25558   3.882   3.327   1.450
 8220SOL    HW125559   3.964   3.293   1.496
 8220SOL    HW225560   3.802   3.275   1.480
 8221SOL     OW25561   5.498   3.727   4.004
 8221SOL    HW125562   5.500   3.821   4.038
 8221SOL    HW225563   5.477   3.727   3.907
 8222SOL     OW25564   5.861   1.491   2.940
 8222SOL    HW125565   5.851   1.587   2.966
 8222SOL    HW225566   5.861   1.484   2.840
 8223SOL     OW25567   0.941   3.262   6.810
 8223SOL    HW125568   0.994   3.297   6.887
 8223SOL    HW225569   0.844   3.272   6.828
 8224SOL     OW25570   1.084   3.472   2.548
 8224SOL    HW125571   1.056   3.376   2.555
 8224SOL    HW225572   1.181   3.476   2.524
 8225SOL     OW25573   5.153   0.016   1.129
 8225SOL    HW125574   5.122   0.111   1.131
 8225SOL    HW225575   5.238   0.008   1.182
 8226SOL     OW25576   4.227   0.476   6.997
 8226SOL    HW125577   4.209   0.426   0.057
 8226SOL    HW225578   4.251   0.411   6.925
 8227SOL     OW25579   5.784   4.804   3.382
 8227SOL    HW125580   5.819   4.777   3.472
 8227SOL    HW225581   5.859   4.843   3.328
 8228SOL     OW25582   6.890   1.330   3.410
 8228SOL    HW125583   6.899   1.237   3.375
 8228SOL    HW225584   6.796   1.345   3.441
 8229SOL     OW25585   5.899   4.997   6.707
 8229SOL    HW125586   5.905   5.046   6.620
 8229SOL    HW225587   5.814   4.944   6.710
 8230SOL     OW25588   4.880   0.092   3.046
 8230SOL    HW125589   4.934   0.154   3.103
 8230SOL    HW225590   4.904   7.022   3.067
 8231SOL     OW25591   3.409   5.502   1.491
 8231SOL    HW125592   3.310   5.511   1.482
 8231SOL    HW225593   3.430   5.415   1.535
 8232SOL     OW25594   2.875   1.646   0.403
 8232SOL    HW125595   2.853   1.615   0.495
 8232SOL    HW225596   2.790   1.666   0.354
 8233SOL     OW25597   0.920   5.960   6.190
 8233SOL    HW125598   0.962   5.933   6.104
 8233SOL    HW225599   0.902   5.879   6.246
 8234SOL     OW25600   1.527   3.055   6.652
 8234SOL    HW125601   1.472   3.136   6.669
 8234SOL    HW225602   1.542   3.045   6.553
 8235SOL     OW25603   4.592   2.569   6.684
 8235SOL    HW125604   4.531   2.498   6.718
 8235SOL    HW225605   4.657   2.594   6.756
 8236SOL     OW25606   6.387   2.306   1.945
 8236SOL    HW125607   6.356   2.278   1.854
 8236SOL    HW225608   6.460   2.373   1.937
 8237SOL     OW25609   4.093   6.401   5.369
 8237SOL    HW125610   4.170   6.464   5.375
 8237SOL    HW225611   4.076   6.361   5.459
 8238SOL     OW25612   0.638   1.476   5.133
 8238SOL    HW125613   0.672   1.457   5.041
 8238SOL    HW225614   0.553   1.427   5.148
 8239SOL     OW25615   5.052   1.321   6.058
 8239SOL    HW125616   5.146   1.353   6.062
 8239SOL    HW225617   5.020   1.300   6.151
 8240SOL     OW25618   3.068   3.027   2.799
 8240SOL    HW125619   3.115   3.043   2.886
 8240SOL    HW225620   2.983   3.080   2.796
 8241SOL     OW25621   3.675   6.007   1.209
 8241SOL    HW125622   3.754   6.033   1.264
 8241SOL    HW225623   3.594   6.057   1.240
 8242SOL     OW25624   1.898   4.746   4.635
 8242SOL    HW125625   1.992   4.713   4.628
 8242SOL    HW225626   1.898   4.844   4.653
 8243SOL     OW25627   0.069   4.133   4.359
 8243SOL    HW125628   7.001   4.125   4.322
 8243SOL    HW225629   0.064   4.172   4.452
 8244SOL     OW25630   3.384   5.838   5.325
 8244SOL    HW125631   3.395   5.850   5.424
 8244SOL    HW225632   3.355   5.924   5.283
 8245SOL     OW25633   4.538   4.107   1.132
 8245SOL    HW125634   4.559   4.098   1.035
 8245SOL    HW225635   4.575   4.194   1.166
 8246SOL     OW25636   6.216   2.878   5.169
 8246SOL    HW125637   6.208   2.800   5.232
 8246SOL    HW225638   6.153   2.951   5.197
 8247SOL     OW25639   1.063   6.098   0.263
 8247SOL    HW125640   1.058   6.188   0.307
 8247SOL    HW225641   1.150   6.091   0.214
 8248SOL     OW25642   6.574   3.693   3.305
 8248SOL    HW125643   6.658   3.747   3.301
 8248SOL    HW225644   6.594   3.597   3.287
 8249SOL     OW25645   0.925   5.402   3.261
 8249SOL    HW125646   0.912   5.494   3.298
 8249SOL    HW225647   0.942   5.338   3.336
 8250SOL     OW25648   3.054   3.022   2.503
 8250SOL    HW125649   3.086   3.035   2.596
 8250SOL    HW225650   2.963   2.980   2.504
 8251SOL     OW25651   5.695   0.861   4.228
 8251SOL    HW125652   5.774   0.923   4.231
 8251SOL    HW225653   5.633   0.889   4.156
 8252SOL     OW25654   1.248   3.912   4.234
 8252SOL    HW125655   1.192   3.962   4.168
 8252SOL    HW225656   1.229   3.946   4.326
 8253SOL     OW25657   2.726   3.108   6.269
 8253SOL    HW125658   2.733   3.011   6.292
 8253SOL    HW225659   2.687   3.118   6.177
 8254SOL     OW25660   4.724   4.521   2.640
 8254SOL    HW125661   4.757   4.482   2.554
 8254SOL    HW225662   4.625   4.531   2.636
 8255SOL     OW25663   4.752   5.519   3.686
 8255SOL    HW125664   4.826   5.569   3.641
 8255SOL    HW225665   4.766   5.520   3.785
 8256SOL     OW25666   5.578   1.840   3.103
 8256SOL    HW125667   5.676   1.823   3.111
 8256SOL    HW225668   5.529   1.780   3.166
 8257SOL     OW25669   6.290   4.482   4.023
 8257SOL    HW125670   6.386   4.499   4.000
 8257SOL    HW225671   6.234   4.496   3.941
 8258SOL     OW25672   5.435   2.146   0.948
 8258SOL    HW125673   5.474   2.223   0.998
 8258SOL    HW225674   5.353   2.114   0.995
 8259SOL     OW25675   4.742   0.706   1.290
 8259SOL    HW125676   4.760   0.635   1.359
 8259SOL    HW225677   4.738   0.663   1.200
 8260SOL     OW25678   3.777   5.439   5.991
 8260SOL    HW125679   3.745   5.347   6.017
 8260SOL    HW225680   3.747   5.459   5.898
 8261SOL     OW25681   4.717   1.687   1.418
 8261SOL    HW125682   4.694   1.625   1.343
 8261SOL    HW225683   4.711   1.782   1.386
 8262SOL     OW25684   6.139   2.550   2.070
 8262SOL    HW125685   6.132   2.456   2.103
 8262SOL    HW225686   6.047   2.588   2.059
 8263SOL     OW25687   6.290   2.106   0.103
 8263SOL    HW125688   6.357   2.068   0.167
 8263SOL    HW225689   6.198   2.083   0.133
 8264SOL     OW25690   1.067   4.350   2.042
 8264SOL    HW125691   1.115   4.395   2.117
 8264SOL    HW225692   1.134   4.317   1.975
 8265SOL     OW25693   2.109   0.550   2.446
 8265SOL    HW125694   2.173   0.474   2.460
 8265SOL    HW225695   2.067   0.542   2.356
 8266SOL     OW25696   2.676   0.928   2.694
 8266SOL    HW125697   2.718   0.939   2.604
 8266SOL    HW225698   2.583   0.893   2.684
 8267SOL     OW25699   6.933   2.681   1.716
 8267SOL    HW125700   6.907   2.646   1.626
 8267SOL    HW225701   0.006   2.705   1.715
 8268SOL     OW25702   1.836   4.396   0.031
 8268SOL    HW125703   1.930   4.422   0.054
 8268SOL    HW225704   1.777   4.412   0.110
 8269SOL     OW25705   5.773   2.143   6.977
 8269SOL    HW125706   5.731   2.061   6.938
 8269SOL    HW225707   5.774   2.216   6.910
 8270SOL     OW25708   1.829   6.327   4.334
 8270SOL    HW125709   1.761   6.292   4.270
 8270SOL    HW225710   1.897   6.256   4.353
 8271SOL     OW25711   0.594   2.038   3.385
 8271SOL    HW125712   0.497   2.024   3.407
 8271SOL    HW225713   0.634   1.951   3.356
 8272SOL     OW25714   3.715   1.710   4.156
 8272SOL    HW125715   3.666   1.661   4.228
 8272SOL    HW225716   3.761   1.790   4.195
 8273SOL     OW25717   1.909   6.488   0.705
 8273SOL    HW125718   1.966   6.570   0.716
 8273SOL    HW225719   1.827   6.497   0.761
 8274SOL     OW25720   5.307   3.946   3.497
 8274SOL    HW125721   5.222   3.895   3.505
 8274SOL    HW225722   5.299   4.034   3.545
 8275SOL     OW25723   6.347   2.376   0.095
 8275SOL    HW125724   6.301   2.431   0.025
 8275SOL    HW225725   6.328   2.279   0.078
 8276SOL     OW25726   1.576   1.805   3.261
 8276SOL    HW125727   1.610   1.807   3.167
 8276SOL    HW225728   1.476   1.815   3.261
 8277SOL     OW25729   6.947   0.940   0.806
 8277SOL    HW125730   0.003   1.001   0.804
 8277SOL    HW225731   6.973   0.850   0.770
 8278SOL     OW25732   0.824   2.599   0.817
 8278SOL    HW125733   0.746   2.537   0.806
 8278SOL    HW225734   0.791   2.693   0.828
 8279SOL     OW25735   0.352   6.500   3.981
 8279SOL    HW125736   0.342   6.506   3.882
 8279SOL    HW225737   0.262   6.493   4.024
 8280SOL     OW25738   3.447   2.898   6.140
 8280SOL    HW125739   3.350   2.918   6.150
 8280SOL    HW225740   3.499   2.982   6.157
 8281SOL     OW25741   3.883   4.931   1.893
 8281SOL    HW125742   3.802   4.972   1.936
 8281SOL    HW225743   3.874   4.937   1.793
 8282SOL     OW25744   6.993   3.239   6.076
 8282SOL    HW125745   6.954   3.150   6.053
 8282SOL    HW225746   0.050   3.256   6.020
 8283SOL     OW25747   2.194   2.377   5.794
 8283SOL    HW125748   2.167   2.358   5.700
 8283SOL    HW225749   2.220   2.473   5.802
 8284SOL     OW25750   6.548   4.673   1.850
 8284SOL    HW125751   6.502   4.585   1.856
 8284SOL    HW225752   6.481   4.745   1.833
 8285SOL     OW25753   3.532   2.880   4.240
 8285SOL    HW125754   3.586   2.945   4.187
 8285SOL    HW225755   3.592   2.810   4.279
 8286SOL     OW25756   0.668   2.274   0.279
 8286SOL    HW125757   0.648   2.324   0.195
 8286SOL    HW225758   0.767   2.266   0.291
 8287SOL     OW25759   1.328   0.379   4.623
 8287SOL    HW125760   1.273   0.324   4.560
 8287SOL    HW225761   1.332   0.473   4.590
 8288SOL     OW25762   2.723   1.215   3.298
 8288SOL    HW125763   2.624   1.222   3.304
 8288SOL    HW225764   2.748   1.130   3.251
 8289SOL     OW25765   0.830   6.401   0.198
 8289SOL    HW125766   0.778   6.328   0.154
 8289SOL    HW225767   0.835   6.480   0.136
 8290SOL     OW25768   6.333   1.990   1.448
 8290SOL    HW125769   6.421   1.982   1.494
 8290SOL    HW225770   6.294   2.081   1.465
 8291SOL     OW25771   4.107   0.654   1.933
 8291SOL    HW125772   4.204   0.673   1.925
 8291SOL    HW225773   4.057   0.705   1.863
 8292SOL     OW25774   2.744   0.610   6.290
 8292SOL    HW125775   2.762   0.528   6.345
 8292SOL    HW225776   2.646   0.628   6.288
 8293SOL     OW25777   6.252   5.342   5.583
 8293SOL    HW125778   6.217   5.260   5.538
 8293SOL    HW225779   6.326   5.381   5.528
 8294SOL     OW25780   6.314   2.696   0.192
 8294SOL    HW125781   6.348   2.746   0.113
 8294SOL    HW225782   6.343   2.600   0.186
 8295SOL     OW25783   5.334   2.305   6.097
 8295SOL    HW125784   5.425   2.278   6.129
 8295SOL    HW225785   5.273   2.316   6.175
 8296SOL     OW25786   0.783   5.230   5.230
 8296SOL    HW125787   0.685   5.216   5.217
 8296SOL    HW225788   0.834   5.174   5.165
 8297SOL     OW25789   1.277   3.712   3.806
 8297SOL    HW125790   1.339   3.678   3.877
 8297SOL    HW225791   1.321   3.789   3.758
 8298SOL     OW25792   4.244   2.339   2.788
 8298SOL    HW125793   4.243   2.390   2.702
 8298SOL    HW225794   4.151   2.312   2.812
 8299SOL     OW25795   5.964   1.266   1.422
 8299SOL    HW125796   6.007   1.188   1.377
 8299SOL    HW225797   5.868   1.246   1.441
 8300SOL     OW25798   0.929   5.425   2.521
 8300SOL    HW125799   0.932   5.363   2.600
 8300SOL    HW225800   1.017   5.472   2.511
 8301SOL     OW25801   3.712   0.809   5.845
 8301SOL    HW125802   3.651   0.735   5.817
 8301SOL    HW225803   3.776   0.776   5.914
 8302SOL     OW25804   0.042   5.477   6.876
 8302SOL    HW125805   0.078   5.457   6.967
 8302SOL    HW225806   0.095   5.427   6.808
 8303SOL     OW25807   7.010   0.443   0.840
 8303SOL    HW125808   0.063   0.417   0.783
 8303SOL    HW225809   6.930   0.460   0.782
 8304SOL     OW25810   6.930   3.376   0.243
 8304SOL    HW125811   6.851   3.427   0.279
 8304SOL    HW225812   6.993   3.357   0.318
 8305SOL     OW25813   3.107   5.653   2.351
 8305SOL    HW125814   3.127   5.656   2.449
 8305SOL    HW225815   3.192   5.657   2.299
 8306SOL     OW25816   2.249   1.664   3.359
 8306SOL    HW125817   2.248   1.693   3.455
 8306SOL    HW225818   2.288   1.737   3.303
 8307SOL     OW25819   3.620   6.397   1.164
 8307SOL    HW125820   3.680   6.429   1.091
 8307SOL    HW225821   3.530   6.439   1.154
 8308SOL     OW25822   2.775   0.384   1.840
 8308SOL    HW125823   2.696   0.446   1.839
 8308SOL    HW225824   2.796   0.355   1.747
 8309SOL     OW25825   6.053   6.392   2.434
 8309SOL    HW125826   5.997   6.322   2.390
 8309SOL    HW225827   6.089   6.357   2.521
 8310SOL     OW25828   6.494   4.779   6.507
 8310SOL    HW125829   6.474   4.807   6.601
 8310SOL    HW225830   6.440   4.836   6.444
 8311SOL     OW25831   6.649   1.117   6.085
 8311SOL    HW125832   6.691   1.193   6.134
 8311SOL    HW225833   6.703   1.034   6.102
 8312SOL     OW25834   4.761   5.947   1.560
 8312SOL    HW125835   4.782   5.879   1.630
 8312SOL    HW225836   4.687   5.914   1.502
 8313SOL     OW25837   3.677   1.847   2.914
 8313SOL    HW125838   3.633   1.799   2.838
 8313SOL    HW225839   3.715   1.780   2.978
 8314SOL     OW25840   6.808   0.004   4.560
 8314SOL    HW125841   6.838   6.958   4.625
 8314SOL    HW225842   6.725   0.048   4.595
 8315SOL     OW25843   5.742   4.229   0.155
 8315SOL    HW125844   5.648   4.252   0.180
 8315SOL    HW225845   5.771   4.148   0.206
 8316SOL     OW25846   2.821   5.147   6.281
 8316SOL    HW125847   2.883   5.109   6.349
 8316SOL    HW225848   2.802   5.243   6.302
 8317SOL     OW25849   2.453   4.979   1.726
 8317SOL    HW125850   2.484   5.068   1.694
 8317SOL    HW225851   2.526   4.935   1.779
 8318SOL     OW25852   3.362   1.118   5.889
 8318SOL    HW125853   3.283   1.056   5.892
 8318SOL    HW225854   3.435   1.083   5.948
 8319SOL     OW25855   2.294   0.669   5.046
 8319SOL    HW125856   2.196   0.666   5.027
 8319SOL    HW225857   2.328   0.761   5.029
 8320SOL     OW25858   3.328   5.017   0.996
 8320SOL    HW125859   3.404   5.051   1.052
 8320SOL    HW225860   3.285   4.939   1.042
 8321SOL     OW25861   6.541   1.333   1.743
 8321SOL    HW125862   6.519   1.384   1.826
 8321SOL    HW225863   6.607   1.384   1.689
 8322SOL     OW25864   5.574   6.474   0.443
 8322SOL    HW125865   5.604   6.551   0.387
 8322SOL    HW225866   5.554   6.396   0.385
 8323SOL     OW25867   1.271   0.863   1.441
 8323SOL    HW125868   1.284   0.765   1.455
 8323SOL    HW225869   1.257   0.908   1.529
 8324SOL     OW25870   6.662   0.704   3.050
 8324SOL    HW125871   6.712   0.638   2.995
 8324SOL    HW225872   6.591   0.657   3.103
 8325SOL     OW25873   3.357   3.588   5.111
 8325SOL    HW125874   3.345   3.567   5.208
 8325SOL    HW225875   3.272   3.571   5.063
 8326SOL     OW25876   4.580   2.804   5.654
 8326SOL    HW125877   4.583   2.712   5.692
 8326SOL    HW225878   4.519   2.861   5.710
 8327SOL     OW25879   5.145   2.251   5.876
 8327SOL    HW125880   5.051   2.232   5.906
 8327SOL    HW225881   5.206   2.244   5.955
 8328SOL     OW25882   1.946   2.408   3.645
 8328SOL    HW125883   1.912   2.493   3.686
 8328SOL    HW225884   1.998   2.429   3.562
 8329SOL     OW25885   1.049   4.161   4.979
 8329SOL    HW125886   1.116   4.230   5.006
 8329SOL    HW225887   1.075   4.072   5.017
 8330SOL     OW25888   2.815   7.002   6.574
 8330SOL    HW125889   2.885   0.045   6.548
 8330SOL    HW225890   2.727   0.003   6.533
 8331SOL     OW25891   2.051   0.308   0.445
 8331SOL    HW125892   2.124   0.240   0.445
 8331SOL    HW225893   1.964   0.265   0.421
 8332SOL     OW25894   5.038   6.477   3.172
 8332SOL    HW125895   5.092   6.510   3.095
 8332SOL    HW225896   4.943   6.506   3.162
 8333SOL     OW25897   2.509   4.401   5.343
 8333SOL    HW125898   2.503   4.455   5.427
 8333SOL    HW225899   2.524   4.462   5.266
 8334SOL     OW25900   6.536   0.073   3.021
 8334SOL    HW125901   6.491   0.029   2.943
 8334SOL    HW225902   6.634   0.081   3.003
 8335SOL     OW25903   6.542   5.683   5.083
 8335SOL    HW125904   6.449   5.658   5.055
 8335SOL    HW225905   6.537   5.747   5.160
 8336SOL     OW25906   1.638   1.497   2.453
 8336SOL    HW125907   1.622   1.569   2.520
 8336SOL    HW225908   1.560   1.434   2.453
 8337SOL     OW25909   6.345   6.595   2.904
 8337SOL    HW125910   6.369   6.668   2.967
 8337SOL    HW225911   6.360   6.626   2.810
 8338SOL     OW25912   2.853   5.760   0.576
 8338SOL    HW125913   2.800   5.842   0.598
 8338SOL    HW225914   2.812   5.681   0.621
 8339SOL     OW25915   5.214   0.877   3.046
 8339SOL    HW125916   5.238   0.825   2.963
 8339SOL    HW225917   5.115   0.890   3.050
 8340SOL     OW25918   5.126   3.973   2.021
 8340SOL    HW125919   5.073   3.889   2.032
 8340SOL    HW225920   5.064   4.051   2.016
 8341SOL     OW25921   1.673   0.658   0.058
 8341SOL    HW125922   1.579   0.691   0.069
 8341SOL    HW225923   1.673   0.575   0.003
 8342SOL     OW25924   5.575   6.833   0.936
 8342SOL    HW125925   5.657   6.890   0.929
 8342SOL    HW225926   5.496   6.884   0.901
 8343SOL     OW25927   7.003   4.376   4.543
 8343SOL    HW125928   6.940   4.439   4.588
 8343SOL    HW225929   0.016   4.419   4.460
 8344SOL     OW25930   3.912   0.046   4.760
 8344SOL    HW125931   3.886   0.044   4.663
 8344SOL    HW225932   4.003   0.007   4.771
 8345SOL     OW25933   5.667   1.410   3.300
 8345SOL    HW125934   5.609   1.449   3.372
 8345SOL    HW225935   5.645   1.452   3.212
 8346SOL     OW25936   3.851   5.323   1.797
 8346SOL    HW125937   3.787   5.272   1.738
 8346SOL    HW225938   3.838   5.421   1.782
 8347SOL     OW25939   2.975   5.380   4.143
 8347SOL    HW125940   3.050   5.333   4.190
 8347SOL    HW225941   2.932   5.318   4.078
 8348SOL     OW25942   2.249   0.105   0.401
 8348SOL    HW125943   2.259   0.014   0.441
 8348SOL    HW225944   2.185   0.101   0.325
 8349SOL     OW25945   6.105   4.665   2.965
 8349SOL    HW125946   6.123   4.630   2.873
 8349SOL    HW225947   6.006   4.677   2.977
 8350SOL     OW25948   6.633   0.674   4.564
 8350SOL    HW125949   6.556   0.612   4.550
 8350SOL    HW225950   6.695   0.669   4.486
 8351SOL     OW25951   2.151   6.728   2.436
 8351SOL    HW125952   2.116   6.662   2.502
 8351SOL    HW225953   2.076   6.783   2.400
 8352SOL     OW25954   5.569   6.171   2.039
 8352SOL    HW125955   5.536   6.153   1.946
 8352SOL    HW225956   5.578   6.270   2.052
 8353SOL     OW25957   2.372   3.799   1.418
 8353SOL    HW125958   2.410   3.708   1.400
 8353SOL    HW225959   2.427   3.868   1.370
 8354SOL     OW25960   3.247   7.005   0.532
 8354SOL    HW125961   3.163   6.952   0.531
 8354SOL    HW225962   3.312   6.967   0.467
 8355SOL     OW25963   2.239   1.818   0.682
 8355SOL    HW125964   2.205   1.724   0.674
 8355SOL    HW225965   2.319   1.819   0.742
 8356SOL     OW25966   2.610   4.874   0.728
 8356SOL    HW125967   2.678   4.852   0.658
 8356SOL    HW225968   2.638   4.833   0.815
 8357SOL     OW25969   3.330   6.611   2.021
 8357SOL    HW125970   3.368   6.648   1.936
 8357SOL    HW225971   3.381   6.646   2.099
 8358SOL     OW25972   3.248   1.690   5.231
 8358SOL    HW125973   3.193   1.680   5.314
 8358SOL    HW225974   3.332   1.739   5.252
 8359SOL     OW25975   3.960   4.956   4.147
 8359SOL    HW125976   4.013   5.031   4.188
 8359SOL    HW225977   3.932   4.981   4.055
 8360SOL     OW25978   4.405   0.566   3.190
 8360SOL    HW125979   4.336   0.494   3.197
 8360SOL    HW225980   4.416   0.610   3.279
 8361SOL     OW25981   1.329   0.580   3.143
 8361SOL    HW125982   1.316   0.501   3.084
 8361SOL    HW225983   1.253   0.586   3.208
 8362SOL     OW25984   3.535   3.169   0.599
 8362SOL    HW125985   3.486   3.082   0.607
 8362SOL    HW225986   3.621   3.163   0.649
 8363SOL     OW25987   0.198   2.800   1.778
 8363SOL    HW125988   0.237   2.714   1.745
 8363SOL    HW225989   0.163   2.787   1.871
 8364SOL     OW25990   6.852   4.933   5.047
 8364SOL    HW125991   6.938   4.901   5.086
 8364SOL    HW225992   6.807   4.858   4.999
 8365SOL     OW25993   2.058   4.035   5.978
 8365SOL    HW125994   2.077   3.964   5.911
 8365SOL    HW225995   2.143   4.061   6.024
 8366SOL     OW25996   2.033   6.657   1.355
 8366SOL    HW125997   1.969   6.619   1.421
 8366SOL    HW225998   2.015   6.755   1.344
 8367SOL     OW25999   4.982   5.594   3.546
 8367SOL    HW126000   4.987   5.494   3.545
 8367SOL    HW226001   5.028   5.631   3.466
 8368SOL     OW26002   2.863   5.097   6.008
 8368SOL    HW126003   2.821   5.187   5.993
 8368SOL    HW226004   2.851   5.070   6.104
 8369SOL     OW26005   1.371   1.829   1.939
 8369SOL    HW126006   1.316   1.774   2.003
 8369SOL    HW226007   1.388   1.776   1.856
 8370SOL     OW26008   2.378   0.884   0.518
 8370SOL    HW126009   2.457   0.932   0.556
 8370SOL    HW226010   2.296   0.940   0.529
 8371SOL     OW26011   1.572   2.599   6.982
 8371SOL    HW126012   1.474   2.599   7.002
 8371SOL    HW226013   1.598   2.513   6.939
 8372SOL     OW26014   5.881   0.799   6.998
 8372SOL    HW126015   5.970   0.823   0.012
 8372SOL    HW226016   5.892   0.728   6.929
 8373SOL     OW26017   2.071   6.684   3.596
 8373SOL    HW126018   2.024   6.616   3.652
 8373SOL    HW226019   2.123   6.746   3.655
 8374SOL     OW26020   6.697   1.817   5.824
 8374SOL    HW126021   6.666   1.909   5.801
 8374SOL    HW226022   6.625   1.751   5.804
 8375SOL     OW26023   4.156   0.548   6.396
 8375SOL    HW126024   4.218   0.476   6.426
 8375SOL    HW226025   4.150   0.618   6.468
 8376SOL     OW26026   4.820   0.327   3.966
 8376SOL    HW126027   4.749   0.397   3.964
 8376SOL    HW226028   4.780   0.239   3.991
 8377SOL     OW26029   4.061   4.503   0.097
 8377SOL    HW126030   4.019   4.563   0.165
 8377SOL    HW226031   4.149   4.470   0.132
 8378SOL     OW26032   5.194   3.579   3.343
 8378SOL    HW126033   5.223   3.629   3.424
 8378SOL    HW226034   5.249   3.496   3.333
 8379SOL     OW26035   5.210   2.873   2.842
 8379SOL    HW126036   5.226   2.801   2.910
 8379SOL    HW226037   5.275   2.948   2.857
 8380SOL     OW26038   5.605   1.144   4.321
 8380SOL    HW126039   5.604   1.115   4.225
 8380SOL    HW226040   5.585   1.065   4.379
 8381SOL     OW26041   2.106   4.973   4.980
 8381SOL    HW126042   2.197   4.935   4.964
 8381SOL    HW226043   2.110   5.039   5.055
 8382SOL     OW26044   0.559   4.305   1.353
 8382SOL    HW126045   0.553   4.301   1.253
 8382SOL    HW226046   0.621   4.233   1.385
 8383SOL     OW26047   3.549   1.294   5.340
 8383SOL    HW126048   3.570   1.390   5.359
 8383SOL    HW226049   3.450   1.280   5.342
 8384SOL     OW26050   0.425   0.354   1.530
 8384SOL    HW126051   0.338   0.399   1.550
 8384SOL    HW226052   0.413   0.289   1.454
 8385SOL     OW26053   4.311   2.158   1.459
 8385SOL    HW126054   4.253   2.157   1.378
 8385SOL    HW226055   4.298   2.245   1.508
 8386SOL     OW26056   0.322   2.243   1.756
 8386SOL    HW126057   0.230   2.214   1.731
 8386SOL    HW226058   0.386   2.169   1.735
 8387SOL     OW26059   0.590   2.075   2.976
 8387SOL    HW126060   0.668   2.072   3.038
 8387SOL    HW226061   0.602   2.150   2.911
 8388SOL     OW26062   1.320   6.703   2.713
 8388SOL    HW126063   1.379   6.777   2.745
 8388SOL    HW226064   1.330   6.693   2.614
 8389SOL     OW26065   6.870   2.632   3.860
 8389SOL    HW126066   6.891   2.535   3.848
 8389SOL    HW226067   6.771   2.645   3.864
 8390SOL     OW26068   6.517   2.433   6.799
 8390SOL    HW126069   6.536   2.442   6.701
 8390SOL    HW226070   6.604   2.437   6.849
 8391SOL     OW26071   6.021   0.713   0.677
 8391SOL    HW126072   6.113   0.750   0.682
 8391SOL    HW226073   6.021   0.618   0.708
 8392SOL     OW26074   3.555   2.885   4.531
 8392SOL    HW126075   3.652   2.906   4.525
 8392SOL    HW226076   3.515   2.884   4.439
 8393SOL     OW26077   5.687   0.378   0.506
 8393SOL    HW126078   5.678   0.325   0.421
 8393SOL    HW226079   5.761   0.444   0.496
 8394SOL     OW26080   4.963   3.454   3.241
 8394SOL    HW126081   4.954   3.367   3.290
 8394SOL    HW226082   5.047   3.500   3.269
 8395SOL     OW26083   2.020   1.358   6.094
 8395SOL    HW126084   1.937   1.307   6.115
 8395SOL    HW226085   2.037   1.355   5.995
 8396SOL     OW26086   5.177   5.174   4.286
 8396SOL    HW126087   5.183   5.273   4.301
 8396SOL    HW226088   5.267   5.133   4.299
 8397SOL     OW26089   5.728   6.481   2.851
 8397SOL    HW126090   5.812   6.454   2.898
 8397SOL    HW226091   5.650   6.436   2.894
 8398SOL     OW26092   5.676   1.780   5.983
 8398SOL    HW126093   5.633   1.690   5.977
 8398SOL    HW226094   5.656   1.832   5.900
 8399SOL     OW26095   0.427   3.972   2.939
 8399SOL    HW126096   0.372   3.900   2.897
 8399SOL    HW226097   0.468   3.938   3.023
 8400SOL     OW26098   1.419   0.748   4.278
 8400SOL    HW126099   1.357   0.813   4.234
 8400SOL    HW226100   1.374   0.705   4.356
 8401SOL     OW26101   1.471   0.179   6.259
 8401SOL    HW126102   1.533   0.181   6.180
 8401SOL    HW226103   1.492   0.255   6.319
 8402SOL     OW26104   3.079   1.143   5.794
 8402SOL    HW126105   3.147   1.139   5.721
 8402SOL    HW226106   3.078   1.056   5.844
 8403SOL     OW26107   5.663   4.288   6.340
 8403SOL    HW126108   5.615   4.374   6.356
 8403SOL    HW226109   5.710   4.259   6.424
 8404SOL     OW26110   1.724   1.108   0.093
 8404SOL    HW126111   1.629   1.098   0.064
 8404SOL    HW226112   1.784   1.102   0.013
 8405SOL     OW26113   3.540   6.414   5.891
 8405SOL    HW126114   3.596   6.449   5.966
 8405SOL    HW226115   3.461   6.473   5.876
 8406SOL     OW26116   6.390   1.032   6.179
 8406SOL    HW126117   6.368   1.019   6.276
 8406SOL    HW226118   6.478   1.078   6.170
 8407SOL     OW26119   5.021   0.562   5.326
 8407SOL    HW126120   5.013   0.530   5.420
 8407SOL    HW226121   4.946   0.523   5.272
 8408SOL     OW26122   3.309   2.145   1.323
 8408SOL    HW126123   3.339   2.178   1.412
 8408SOL    HW226124   3.276   2.051   1.331
 8409SOL     OW26125   4.847   3.025   1.710
 8409SOL    HW126126   4.818   3.060   1.798
 8409SOL    HW226127   4.806   2.935   1.694
 8410SOL     OW26128   6.644   2.191   1.534
 8410SOL    HW126129   6.662   2.173   1.438
 8410SOL    HW226130   6.728   2.219   1.580
 8411SOL     OW26131   0.488   5.245   1.508
 8411SOL    HW126132   0.512   5.342   1.502
 8411SOL    HW226133   0.476   5.220   1.604
 8412SOL     OW26134   2.261   2.241   6.860
 8412SOL    HW126135   2.329   2.168   6.852
 8412SOL    HW226136   2.297   2.324   6.819
 8413SOL     OW26137   3.984   5.626   5.110
 8413SOL    HW126138   4.042   5.678   5.047
 8413SOL    HW226139   3.992   5.529   5.090
 8414SOL     OW26140   1.529   0.226   0.970
 8414SOL    HW126141   1.540   0.151   1.035
 8414SOL    HW226142   1.614   0.239   0.920
 8415SOL     OW26143   3.692   1.258   6.313
 8415SOL    HW126144   3.714   1.294   6.404
 8415SOL    HW226145   3.719   1.326   6.243
 8416SOL     OW26146   0.127   2.004   5.376
 8416SOL    HW126147   0.097   1.983   5.283
 8416SOL    HW226148   0.226   2.017   5.376
 8417SOL     OW26149   1.573   3.199   5.763
 8417SOL    HW126150   1.506   3.267   5.736
 8417SOL    HW226151   1.597   3.212   5.859
 8418SOL     OW26152   6.714   6.358   2.926
 8418SOL    HW126153   6.754   6.370   2.835
 8418SOL    HW226154   6.615   6.358   2.919
 8419SOL     OW26155   3.974   1.333   3.698
 8419SOL    HW126156   4.072   1.347   3.685
 8419SOL    HW226157   3.923   1.407   3.655
 8420SOL     OW26158   4.054   1.398   2.531
 8420SOL    HW126159   4.081   1.398   2.627
 8420SOL    HW226160   3.954   1.400   2.524
 8421SOL     OW26161   5.101   0.285   6.659
 8421SOL    HW126162   5.009   0.248   6.670
 8421SOL    HW226163   5.168   0.211   6.663
 8422SOL     OW26164   5.135   1.188   4.311
 8422SOL    HW126165   5.108   1.187   4.408
 8422SOL    HW226166   5.060   1.151   4.256
 8423SOL     OW26167   6.518   5.609   0.062
 8423SOL    HW126168   6.556   5.701   0.051
 8423SOL    HW226169   6.427   5.615   0.103
 8424SOL     OW26170   2.449   0.209   5.364
 8424SOL    HW126171   2.419   0.304   5.352
 8424SOL    HW226172   2.484   0.196   5.457
 8425SOL     OW26173   3.127   3.055   2.004
 8425SOL    HW126174   3.085   3.143   2.026
 8425SOL    HW226175   3.058   2.990   1.974
 8426SOL     OW26176   3.411   3.480   2.215
 8426SOL    HW126177   3.440   3.538   2.292
 8426SOL    HW226178   3.482   3.413   2.195
 8427SOL     OW26179   3.920   3.747   2.504
 8427SOL    HW126180   3.979   3.735   2.424
 8427SOL    HW226181   3.972   3.726   2.587
 8428SOL     OW26182   4.755   1.662   1.703
 8428SOL    HW126183   4.740   1.673   1.605
 8428SOL    HW226184   4.801   1.575   1.721
 8429SOL     OW26185   3.611   6.178   5.324
 8429SOL    HW126186   3.655   6.147   5.239
 8429SOL    HW226187   3.600   6.100   5.386
 8430SOL     OW26188   4.951   6.136   6.010
 8430SOL    HW126189   4.856   6.163   6.025
 8430SOL    HW226190   4.979   6.161   5.918
 8431SOL     OW26191   2.752   2.823   6.298
 8431SOL    HW126192   2.804   2.789   6.376
 8431SOL    HW226193   2.685   2.755   6.271
 8432SOL     OW26194   6.553   5.210   5.774
 8432SOL    HW126195   6.618   5.219   5.849
 8432SOL    HW226196   6.461   5.230   5.807
 8433SOL     OW26197   4.537   1.893   0.380
 8433SOL    HW126198   4.459   1.869   0.439
 8433SOL    HW226199   4.568   1.811   0.331
 8434SOL     OW26200   3.084   6.269   4.335
 8434SOL    HW126201   3.140   6.188   4.354
 8434SOL    HW226202   3.040   6.260   4.246
 8435SOL     OW26203   6.426   1.125   3.640
 8435SOL    HW126204   6.396   1.048   3.696
 8435SOL    HW226205   6.507   1.099   3.588
 8436SOL     OW26206   2.053   4.932   2.346
 8436SOL    HW126207   2.061   4.919   2.247
 8436SOL    HW226208   2.122   4.998   2.377
 8437SOL     OW26209   1.774   5.455   0.076
 8437SOL    HW126210   1.758   5.440   0.174
 8437SOL    HW226211   1.843   5.391   0.043
 8438SOL     OW26212   0.779   4.488   2.320
 8438SOL    HW126213   0.750   4.393   2.307
 8438SOL    HW226214   0.707   4.549   2.286
 8439SOL     OW26215   5.452   4.819   2.759
 8439SOL    HW126216   5.552   4.816   2.758
 8439SOL    HW226217   5.416   4.731   2.791
 8440SOL     OW26218   2.266   1.940   2.938
 8440SOL    HW126219   2.278   1.977   3.030
 8440SOL    HW226220   2.316   1.996   2.872
 8441SOL     OW26221   0.531   3.013   6.128
 8441SOL    HW126222   0.600   2.980   6.063
 8441SOL    HW226223   0.449   3.041   6.079
 8442SOL     OW26224   3.481   2.623   6.145
 8442SOL    HW126225   3.509   2.611   6.050
 8442SOL    HW226226   3.476   2.721   6.166
 8443SOL     OW26227   2.236   4.025   3.294
 8443SOL    HW126228   2.234   4.041   3.195
 8443SOL    HW226229   2.146   4.043   3.332
 8444SOL     OW26230   5.355   6.165   5.382
 8444SOL    HW126231   5.442   6.175   5.431
 8444SOL    HW226232   5.373   6.139   5.287
 8445SOL     OW26233   4.957   6.487   6.475
 8445SOL    HW126234   4.967   6.581   6.507
 8445SOL    HW226235   4.959   6.486   6.375
 8446SOL     OW26236   6.329   6.115   4.269
 8446SOL    HW126237   6.396   6.049   4.236
 8446SOL    HW226238   6.290   6.165   4.192
 8447SOL     OW26239   3.728   2.109   3.772
 8447SOL    HW126240   3.789   2.187   3.758
 8447SOL    HW226241   3.765   2.028   3.727
 8448SOL     OW26242   3.045   6.821   2.461
 8448SOL    HW126243   3.096   6.847   2.379
 8448SOL    HW226244   3.025   6.723   2.458
 8449SOL     OW26245   0.196   2.269   3.922
 8449SOL    HW126246   0.187   2.336   3.996
 8449SOL    HW226247   0.280   2.287   3.871
 8450SOL     OW26248   6.702   1.289   0.229
 8450SOL    HW126249   6.694   1.250   0.321
 8450SOL    HW226250   6.768   1.236   0.176
 8451SOL     OW26251   4.556   2.815   0.441
 8451SOL    HW126252   4.542   2.855   0.350
 8451SOL    HW226253   4.477   2.758   0.465
 8452SOL     OW26254   4.825   0.795   6.130
 8452SOL    HW126255   4.923   0.806   6.112
 8452SOL    HW226256   4.801   0.698   6.126
 8453SOL     OW26257   0.034   0.759   0.044
 8453SOL    HW126258   0.059   0.769   6.972
 8453SOL    HW226259   0.118   0.757   0.100
 8454SOL     OW26260   6.583   6.263   0.230
 8454SOL    HW126261   6.659   6.223   0.177
 8454SOL    HW226262   6.541   6.192   0.286
 8455SOL     OW26263   6.610   0.957   2.962
 8455SOL    HW126264   6.635   0.865   2.994
 8455SOL    HW226265   6.510   0.967   2.965
 8456SOL     OW26266   6.233   0.586   1.841
 8456SOL    HW126267   6.231   0.489   1.816
 8456SOL    HW226268   6.327   0.621   1.831
 8457SOL     OW26269   6.299   6.412   4.923
 8457SOL    HW126270   6.220   6.427   4.982
 8457SOL    HW226271   6.380   6.452   4.966
 8458SOL     OW26272   1.640   6.262   0.803
 8458SOL    HW126273   1.618   6.175   0.848
 8458SOL    HW226274   1.557   6.300   0.761
 8459SOL     OW26275   1.349   6.209   4.003
 8459SOL    HW126276   1.408   6.167   3.934
 8459SOL    HW226277   1.356   6.158   4.089
 8460SOL     OW26278   3.946   3.653   3.739
 8460SOL    HW126279   3.950   3.689   3.833
 8460SOL    HW226280   3.959   3.728   3.674
 8461SOL     OW26281   6.523   3.426   3.885
 8461SOL    HW126282   6.593   3.459   3.948
 8461SOL    HW226283   6.458   3.368   3.933
 8462SOL     OW26284   2.659   2.288   2.142
 8462SOL    HW126285   2.737   2.283   2.079
 8462SOL    HW226286   2.610   2.373   2.126
 8463SOL     OW26287   6.280   0.358   1.691
 8463SOL    HW126288   6.227   0.352   1.607
 8463SOL    HW226289   6.374   0.382   1.670
 8464SOL     OW26290   6.814   1.106   4.787
 8464SOL    HW126291   6.843   1.015   4.819
 8464SOL    HW226292   6.894   1.165   4.780
 8465SOL     OW26293   2.246   0.561   0.124
 8465SOL    HW126294   2.233   0.584   0.221
 8465SOL    HW226295   2.239   0.643   0.068
 8466SOL     OW26296   1.100   0.066   3.746
 8466SOL    HW126297   1.055   0.151   3.721
 8466SOL    HW226298   1.104   0.057   3.846
 8467SOL     OW26299   3.490   5.161   1.140
 8467SOL    HW126300   3.558   5.126   1.076
 8467SOL    HW226301   3.534   5.227   1.202
 8468SOL     OW26302   4.915   2.649   0.109
 8468SOL    HW126303   4.988   2.584   0.087
 8468SOL    HW226304   4.859   2.613   0.184
 8469SOL     OW26305   5.184   1.751   5.002
 8469SOL    HW126306   5.177   1.750   4.902
 8469SOL    HW226307   5.145   1.836   5.038
 8470SOL     OW26308   1.711   3.146   7.019
 8470SOL    HW126309   1.755   3.206   6.952
 8470SOL    HW226310   1.655   3.079   6.971
 8471SOL     OW26311   3.785   1.894   5.771
 8471SOL    HW126312   3.797   1.857   5.863
 8471SOL    HW226313   3.865   1.949   5.746
 8472SOL     OW26314   1.359   5.761   2.440
 8472SOL    HW126315   1.436   5.703   2.411
 8472SOL    HW226316   1.354   5.842   2.383
 8473SOL     OW26317   6.590   5.706   6.643
 8473SOL    HW126318   6.613   5.677   6.550
 8473SOL    HW226319   6.674   5.721   6.695
 8474SOL     OW26320   4.003   6.013   0.071
 8474SOL    HW126321   3.954   5.938   0.026
 8474SOL    HW226322   4.006   6.092   0.010
 8475SOL     OW26323   5.100   1.525   2.711
 8475SOL    HW126324   5.016   1.577   2.697
 8475SOL    HW226325   5.175   1.587   2.733
 8476SOL     OW26326   4.930   0.576   2.823
 8476SOL    HW126327   4.987   0.543   2.748
 8476SOL    HW226328   4.900   0.498   2.879
 8477SOL     OW26329   2.633   1.386   3.628
 8477SOL    HW126330   2.545   1.403   3.582
 8477SOL    HW226331   2.708   1.408   3.565
 8478SOL     OW26332   1.205   2.042   6.288
 8478SOL    HW126333   1.235   2.066   6.380
 8478SOL    HW226334   1.281   2.002   6.237
 8479SOL     OW26335   5.478   6.861   1.677
 8479SOL    HW126336   5.394   6.815   1.649
 8479SOL    HW226337   5.474   6.957   1.647
 8480SOL     OW26338   2.498   0.714   2.010
 8480SOL    HW126339   2.428   0.783   1.995
 8480SOL    HW226340   2.537   0.725   2.102
 8481SOL     OW26341   3.861   0.125   5.755
 8481SOL    HW126342   3.777   0.154   5.800
 8481SOL    HW226343   3.854   0.139   5.657
 8482SOL     OW26344   6.184   0.902   1.546
 8482SOL    HW126345   6.145   0.924   1.636
 8482SOL    HW226346   6.167   0.805   1.526
 8483SOL     OW26347   4.647   6.278   1.610
 8483SOL    HW126348   4.642   6.360   1.553
 8483SOL    HW226349   4.554   6.245   1.629
 8484SOL     OW26350   0.056   4.903   6.130
 8484SOL    HW126351   0.021   4.927   6.220
 8484SOL    HW226352   7.020   4.837   6.086
 8485SOL     OW26353   1.955   3.115   6.310
 8485SOL    HW126354   1.895   3.183   6.266
 8485SOL    HW226355   2.004   3.063   6.240
 8486SOL     OW26356   4.383   0.283   1.440
 8486SOL    HW126357   4.297   0.329   1.420
 8486SOL    HW226358   4.455   0.320   1.380
 8487SOL     OW26359   4.728   0.565   1.054
 8487SOL    HW126360   4.702   0.574   0.958
 8487SOL    HW226361   4.774   0.478   1.068
 8488SOL     OW26362   0.310   4.796   6.465
 8488SOL    HW126363   0.382   4.866   6.473
 8488SOL    HW226364   0.349   4.706   6.488
 8489SOL     OW26365   3.292   0.247   3.121
 8489SOL    HW126366   3.288   0.280   3.215
 8489SOL    HW226367   3.200   0.220   3.091
 8490SOL     OW26368   4.054   5.040   2.174
 8490SOL    HW126369   3.971   4.985   2.169
 8490SOL    HW226370   4.105   5.031   2.089
 8491SOL     OW26371   6.707   0.713   0.924
 8491SOL    HW126372   6.618   0.674   0.946
 8491SOL    HW226373   6.769   0.700   1.001
 8492SOL     OW26374   6.113   4.206   4.461
 8492SOL    HW126375   6.110   4.107   4.474
 8492SOL    HW226376   6.022   4.244   4.470
 8493SOL     OW26377   4.453   3.201   0.787
 8493SOL    HW126378   4.539   3.163   0.754
 8493SOL    HW226379   4.417   3.142   0.860
 8494SOL     OW26380   3.180   6.161   6.439
 8494SOL    HW126381   3.125   6.078   6.431
 8494SOL    HW226382   3.258   6.143   6.500
 8495SOL     OW26383   0.409   3.737   5.938
 8495SOL    HW126384   0.500   3.698   5.923
 8495SOL    HW226385   0.369   3.763   5.851
 8496SOL     OW26386   1.287   1.596   4.364
 8496SOL    HW126387   1.295   1.585   4.265
 8496SOL    HW226388   1.240   1.516   4.403
 8497SOL     OW26389   5.501   3.189   4.761
 8497SOL    HW126390   5.547   3.246   4.829
 8497SOL    HW226391   5.446   3.247   4.701
 8498SOL     OW26392   6.229   1.138   2.531
 8498SOL    HW126393   6.212   1.059   2.590
 8498SOL    HW226394   6.190   1.121   2.440
 8499SOL     OW26395   0.097   4.014   0.603
 8499SOL    HW126396   0.068   4.109   0.605
 8499SOL    HW226397   0.168   3.999   0.672
 8500SOL     OW26398   1.555   1.047   5.165
 8500SOL    HW126399   1.618   1.119   5.134
 8500SOL    HW226400   1.474   1.045   5.107
 8501SOL     OW26401   3.337   3.127   6.336
 8501SOL    HW126402   3.285   3.202   6.294
 8501SOL    HW226403   3.423   3.115   6.287
 8502SOL     OW26404   0.389   6.472   1.126
 8502SOL    HW126405   0.311   6.411   1.133
 8502SOL    HW226406   0.435   6.458   1.038
 8503SOL     OW26407   4.137   6.005   3.513
 8503SOL    HW126408   4.038   6.013   3.506
 8503SOL    HW226409   4.174   6.082   3.564
 8504SOL     OW26410   1.738   5.005   2.901
 8504SOL    HW126411   1.684   5.042   2.825
 8504SOL    HW226412   1.834   4.999   2.873
 8505SOL     OW26413   4.322   2.070   2.705
 8505SOL    HW126414   4.297   2.061   2.608
 8505SOL    HW226415   4.316   2.166   2.732
 8506SOL     OW26416   0.770   5.165   0.690
 8506SOL    HW126417   0.824   5.145   0.608
 8506SOL    HW226418   0.829   5.206   0.760
 8507SOL     OW26419   2.563   6.998   4.376
 8507SOL    HW126420   2.615   0.050   4.415
 8507SOL    HW226421   2.566   6.920   4.438
 8508SOL     OW26422   0.977   3.610   6.356
 8508SOL    HW126423   1.026   3.525   6.337
 8508SOL    HW226424   0.995   3.676   6.283
 8509SOL     OW26425   6.786   3.038   4.321
 8509SOL    HW126426   6.754   2.951   4.282
 8509SOL    HW226427   6.853   3.080   4.259
 8510SOL     OW26428   5.489   6.538   3.299
 8510SOL    HW126429   5.490   6.463   3.233
 8510SOL    HW226430   5.450   6.619   3.256
 8511SOL     OW26431   6.480   4.838   0.770
 8511SOL    HW126432   6.384   4.825   0.744
 8511SOL    HW226433   6.527   4.890   0.699
 8512SOL     OW26434   4.003   2.821   0.825
 8512SOL    HW126435   3.948   2.801   0.906
 8512SOL    HW226436   3.944   2.833   0.746
 8513SOL     OW26437   0.442   3.696   1.051
 8513SOL    HW126438   0.385   3.776   1.070
 8513SOL    HW226439   0.399   3.642   0.978
 8514SOL     OW26440   2.283   2.787   5.057
 8514SOL    HW126441   2.322   2.878   5.067
 8514SOL    HW226442   2.356   2.720   5.048
 8515SOL     OW26443   3.094   1.488   0.311
 8515SOL    HW126444   3.013   1.536   0.342
 8515SOL    HW226445   3.151   1.465   0.391
 8516SOL     OW26446   0.044   4.048   5.706
 8516SOL    HW126447   0.131   4.038   5.659
 8516SOL    HW226448   6.997   4.001   5.653
 8517SOL     OW26449   1.379   2.567   5.976
 8517SOL    HW126450   1.407   2.479   5.938
 8517SOL    HW226451   1.328   2.552   6.061
 8518SOL     OW26452   5.811   4.945   0.295
 8518SOL    HW126453   5.842   5.036   0.323
 8518SOL    HW226454   5.877   4.906   0.231
 8519SOL     OW26455   1.473   3.953   1.518
 8519SOL    HW126456   1.539   3.933   1.591
 8519SOL    HW226457   1.468   3.874   1.456
 8520SOL     OW26458   2.964   3.879   6.606
 8520SOL    HW126459   2.931   3.813   6.538
 8520SOL    HW226460   3.036   3.836   6.661
 8521SOL     OW26461   2.051   0.230   4.802
 8521SOL    HW126462   1.970   0.200   4.853
 8521SOL    HW226463   2.025   0.251   4.707
 8522SOL     OW26464   0.122   0.589   0.306
 8522SOL    HW126465   0.072   0.601   0.392
 8522SOL    HW226466   0.094   0.504   0.262
 8523SOL     OW26467   4.114   2.208   1.790
 8523SOL    HW126468   4.034   2.268   1.794
 8523SOL    HW226469   4.163   2.225   1.704
 8524SOL     OW26470   2.416   6.243   4.696
 8524SOL    HW126471   2.361   6.163   4.672
 8524SOL    HW226472   2.468   6.224   4.779
 8525SOL     OW26473   6.467   2.500   3.594
 8525SOL    HW126474   6.368   2.488   3.592
 8525SOL    HW226475   6.493   2.547   3.679
 8526SOL     OW26476   0.538   5.015   6.440
 8526SOL    HW126477   0.509   5.077   6.367
 8526SOL    HW226478   0.633   5.033   6.464
 8527SOL     OW26479   1.303   0.925   6.589
 8527SOL    HW126480   1.344   0.944   6.678
 8527SOL    HW226481   1.370   0.941   6.517
 8528SOL     OW26482   5.856   6.706   0.451
 8528SOL    HW126483   5.902   6.692   0.364
 8528SOL    HW226484   5.795   6.785   0.445
 8529SOL     OW26485   0.877   6.637   6.992
 8529SOL    HW126486   0.928   6.697   6.931
 8529SOL    HW226487   0.837   6.562   6.938
 8530SOL     OW26488   3.466   3.717   2.902
 8530SOL    HW126489   3.459   3.690   2.998
 8530SOL    HW226490   3.381   3.696   2.855
 8531SOL     OW26491   6.407   5.741   3.411
 8531SOL    HW126492   6.343   5.799   3.461
 8531SOL    HW226493   6.459   5.797   3.347
 8532SOL     OW26494   3.524   5.352   0.249
 8532SOL    HW126495   3.533   5.418   0.324
 8532SOL    HW226496   3.596   5.284   0.256
 8533SOL     OW26497   2.345   6.023   5.344
 8533SOL    HW126498   2.329   6.033   5.442
 8533SOL    HW226499   2.271   6.065   5.293
 8534SOL     OW26500   2.123   3.230   2.014
 8534SOL    HW126501   2.162   3.316   2.044
 8534SOL    HW226502   2.164   3.202   1.927
 8535SOL     OW26503   6.247   6.392   1.896
 8535SOL    HW126504   6.277   6.467   1.955
 8535SOL    HW226505   6.326   6.336   1.870
 8536SOL     OW26506   2.733   0.647   4.133
 8536SOL    HW126507   2.653   0.702   4.110
 8536SOL    HW226508   2.731   0.625   4.230
 8537SOL     OW26509   5.723   1.103   3.304
 8537SOL    HW126510   5.701   1.142   3.215
 8537SOL    HW226511   5.800   1.153   3.344
 8538SOL     OW26512   0.720   2.679   6.914
 8538SOL    HW126513   0.696   2.692   7.010
 8538SOL    HW226514   0.700   2.762   6.863
 8539SOL     OW26515   5.648   3.685   2.092
 8539SOL    HW126516   5.575   3.708   2.157
 8539SOL    HW226517   5.611   3.687   1.999
 8540SOL     OW26518   4.336   0.143   1.095
 8540SOL    HW126519   4.356   0.234   1.132
 8540SOL    HW226520   4.332   0.148   0.996
 8541SOL     OW26521   1.116   3.112   3.224
 8541SOL    HW126522   1.200   3.152   3.259
 8541SOL    HW226523   1.106   3.133   3.127
 8542SOL     OW26524   2.507   4.907   6.289
 8542SOL    HW126525   2.599   4.867   6.293
 8542SOL    HW226526   2.443   4.847   6.337
 8543SOL     OW26527   3.834   1.984   6.586
 8543SOL    HW126528   3.884   2.064   6.555
 8543SOL    HW226529   3.871   1.954   6.674
 8544SOL     OW26530   6.113   2.564   4.558
 8544SOL    HW126531   6.061   2.649   4.555
 8544SOL    HW226532   6.059   2.489   4.521
 8545SOL     OW26533   4.406   6.962   5.642
 8545SOL    HW126534   4.309   6.961   5.667
 8545SOL    HW226535   4.447   6.874   5.668
 8546SOL     OW26536   4.816   1.886   5.886
 8546SOL    HW126537   4.836   1.819   5.814
 8546SOL    HW226538   4.892   1.889   5.950
 8547SOL     OW26539   1.462   4.355   2.026
 8547SOL    HW126540   1.459   4.273   1.969
 8547SOL    HW226541   1.532   4.418   1.992
 8548SOL     OW26542   6.187   2.301   5.651
 8548SOL    HW126543   6.128   2.251   5.586
 8548SOL    HW226544   6.179   2.399   5.635
 8549SOL     OW26545   4.848   2.573   4.517
 8549SOL    HW126546   4.749   2.570   4.507
 8549SOL    HW226547   4.889   2.492   4.475
 8550SOL     OW26548   2.104   5.244   5.405
 8550SOL    HW126549   2.108   5.306   5.484
 8550SOL    HW226550   2.181   5.180   5.409
 8551SOL     OW26551   2.938   5.316   0.752
 8551SOL    HW126552   3.012   5.297   0.817
 8551SOL    HW226553   2.852   5.280   0.788
 8552SOL     OW26554   3.042   6.630   3.576
 8552SOL    HW126555   3.019   6.724   3.552
 8552SOL    HW226556   3.077   6.583   3.495
 8553SOL     OW26557   6.274   5.635   0.180
 8553SOL    HW126558   6.251   5.661   0.273
 8553SOL    HW226559   6.192   5.601   0.133
 8554SOL     OW26560   5.533   4.076   7.019
 8554SOL    HW126561   5.585   4.038   0.071
 8554SOL    HW226562   5.557   4.028   6.934
 8555SOL     OW26563   1.799   6.436   4.058
 8555SOL    HW126564   1.806   6.453   4.156
 8555SOL    HW226565   1.830   6.517   4.008
 8556SOL     OW26566   5.562   0.188   5.717
 8556SOL    HW126567   5.559   0.285   5.693
 8556SOL    HW226568   5.549   0.133   5.634
 8557SOL     OW26569   6.787   1.875   1.353
 8557SOL    HW126570   6.750   1.890   1.445
 8557SOL    HW226571   6.885   1.892   1.353
 8558SOL     OW26572   1.614   4.368   2.420
 8558SOL    HW126573   1.711   4.376   2.398
 8558SOL    HW226574   1.583   4.452   2.466
 8559SOL     OW26575   1.408   1.403   4.631
 8559SOL    HW126576   1.463   1.480   4.598
 8559SOL    HW226577   1.324   1.437   4.673
 8560SOL     OW26578   6.382   2.876   0.443
 8560SOL    HW126579   6.330   2.792   0.462
 8560SOL    HW226580   6.452   2.856   0.375
 8561SOL     OW26581   5.272   5.814   5.979
 8561SOL    HW126582   5.249   5.871   6.058
 8561SOL    HW226583   5.192   5.807   5.918
 8562SOL     OW26584   4.175   1.105   4.639
 8562SOL    HW126585   4.080   1.076   4.645
 8562SOL    HW226586   4.193   1.176   4.706
 8563SOL     OW26587   2.111   2.604   6.015
 8563SOL    HW126588   2.030   2.575   5.964
 8563SOL    HW226589   2.132   2.537   6.086
 8564SOL     OW26590   0.697   5.357   4.564
 8564SOL    HW126591   0.613   5.382   4.613
 8564SOL    HW226592   0.723   5.264   4.589
 8565SOL     OW26593   3.982   1.098   1.379
 8565SOL    HW126594   3.999   1.082   1.282
 8565SOL    HW226595   3.895   1.146   1.390
 8566SOL     OW26596   1.419   4.622   4.341
 8566SOL    HW126597   1.499   4.638   4.399
 8566SOL    HW226598   1.337   4.656   4.388
 8567SOL     OW26599   5.376   6.457   6.542
 8567SOL    HW126600   5.400   6.511   6.622
 8567SOL    HW226601   5.295   6.402   6.562
 8568SOL     OW26602   5.126   6.338   0.403
 8568SOL    HW126603   5.034   6.323   0.438
 8568SOL    HW226604   5.175   6.400   0.464
 8569SOL     OW26605   2.404   0.936   5.197
 8569SOL    HW126606   2.451   1.004   5.252
 8569SOL    HW226607   2.427   0.950   5.100
 8570SOL     OW26608   6.759   4.074   5.862
 8570SOL    HW126609   6.688   4.134   5.899
 8570SOL    HW226610   6.843   4.126   5.846
 8571SOL     OW26611   0.881   4.560   6.874
 8571SOL    HW126612   0.937   4.511   6.806
 8571SOL    HW226613   0.910   4.655   6.879
 8572SOL     OW26614   2.870   4.524   6.748
 8572SOL    HW126615   2.883   4.453   6.679
 8572SOL    HW226616   2.861   4.612   6.703
 8573SOL     OW26617   2.655   5.515   4.234
 8573SOL    HW126618   2.679   5.440   4.297
 8573SOL    HW226619   2.738   5.562   4.205
 8574SOL     OW26620   1.025   4.335   4.419
 8574SOL    HW126621   1.114   4.298   4.444
 8574SOL    HW226622   0.975   4.360   4.502
 8575SOL     OW26623   2.683   3.091   5.989
 8575SOL    HW126624   2.712   3.106   5.894
 8575SOL    HW226625   2.600   3.143   6.008
 8576SOL     OW26626   1.805   0.572   0.287
 8576SOL    HW126627   1.856   0.500   0.240
 8576SOL    HW226628   1.761   0.632   0.220
 8577SOL     OW26629   6.380   5.496   4.426
 8577SOL    HW126630   6.468   5.475   4.467
 8577SOL    HW226631   6.347   5.585   4.458
 8578SOL     OW26632   4.622   0.616   4.364
 8578SOL    HW126633   4.632   0.557   4.444
 8578SOL    HW226634   4.713   0.642   4.330
 8579SOL     OW26635   0.004   4.450   2.779
 8579SOL    HW126636   0.101   4.434   2.795
 8579SOL    HW226637   7.001   4.536   2.822
 8580SOL     OW26638   1.456   5.981   5.915
 8580SOL    HW126639   1.408   5.897   5.941
 8580SOL    HW226640   1.465   6.041   5.994
 8581SOL     OW26641   3.324   3.490   7.022
 8581SOL    HW126642   3.355   3.572   6.974
 8581SOL    HW226643   3.258   3.516   0.068
 8582SOL     OW26644   2.740   6.153   0.195
 8582SOL    HW126645   2.772   6.069   0.150
 8582SOL    HW226646   2.723   6.134   0.291
 8583SOL     OW26647   5.974   6.860   4.017
 8583SOL    HW126648   6.038   6.786   3.998
 8583SOL    HW226649   5.908   6.830   4.086
 8584SOL     OW26650   0.765   5.518   6.165
 8584SOL    HW126651   0.752   5.527   6.066
 8584SOL    HW226652   0.805   5.429   6.185
 8585SOL     OW26653   1.245   1.041   0.735
 8585SOL    HW126654   1.308   0.979   0.782
 8585SOL    HW226655   1.206   0.995   0.655
 8586SOL     OW26656   3.976   5.248   2.819
 8586SOL    HW126657   3.992   5.291   2.731
 8586SOL    HW226658   4.020   5.159   2.822
 8587SOL     OW26659   0.177   1.060   0.875
 8587SOL    HW126660   0.234   0.987   0.839
 8587SOL    HW226661   0.218   1.097   0.958
 8588SOL     OW26662   4.146   3.459   6.892
 8588SOL    HW126663   4.137   3.548   6.846
 8588SOL    HW226664   4.089   3.458   6.974
 8589SOL     OW26665   3.840   1.188   3.879
 8589SOL    HW126666   3.909   1.231   3.821
 8589SOL    HW226667   3.791   1.259   3.930
 8590SOL     OW26668   5.139   3.876   5.903
 8590SOL    HW126669   5.141   3.824   5.989
 8590SOL    HW226670   5.138   3.812   5.826
 8591SOL     OW26671   0.151   2.879   0.612
 8591SOL    HW126672   0.223   2.943   0.584
 8591SOL    HW226673   0.193   2.797   0.653
 8592SOL     OW26674   6.724   5.800   0.548
 8592SOL    HW126675   6.742   5.727   0.614
 8592SOL    HW226676   6.625   5.811   0.537
 8593SOL     OW26677   1.120   5.056   4.164
 8593SOL    HW126678   1.184   5.131   4.143
 8593SOL    HW226679   1.170   4.970   4.169
 8594SOL     OW26680   3.735   3.631   2.685
 8594SOL    HW126681   3.719   3.695   2.760
 8594SOL    HW226682   3.783   3.678   2.612
 8595SOL     OW26683   1.211   2.375   2.600
 8595SOL    HW126684   1.206   2.474   2.615
 8595SOL    HW226685   1.282   2.356   2.532
 8596SOL     OW26686   6.723   3.962   2.761
 8596SOL    HW126687   6.716   3.995   2.855
 8596SOL    HW226688   6.809   3.911   2.751
 8597SOL     OW26689   2.264   1.808   1.034
 8597SOL    HW126690   2.288   1.854   1.119
 8597SOL    HW226691   2.182   1.851   0.995
 8598SOL     OW26692   6.153   3.053   1.946
 8598SOL    HW126693   6.053   3.050   1.946
 8598SOL    HW226694   6.188   2.981   2.007
 8599SOL     OW26695   0.488   2.265   0.887
 8599SOL    HW126696   0.514   2.309   0.972
 8599SOL    HW226697   0.502   2.329   0.811
 8600SOL     OW26698   0.288   3.069   6.048
 8600SOL    HW126699   0.285   3.041   5.952
 8600SOL    HW226700   0.230   3.009   6.103
 8601SOL     OW26701   0.782   0.038   4.457
 8601SOL    HW126702   0.830   0.102   4.516
 8601SOL    HW226703   0.770   6.975   4.504
 8602SOL     OW26704   0.933   6.583   1.935
 8602SOL    HW126705   0.947   6.638   1.853
 8602SOL    HW226706   0.881   6.636   2.002
 8603SOL     OW26707   5.061   4.062   2.384
 8603SOL    HW126708   5.101   4.147   2.418
 8603SOL    HW226709   5.041   4.072   2.286
 8604SOL     OW26710   6.474   2.399   3.900
 8604SOL    HW126711   6.385   2.386   3.856
 8604SOL    HW226712   6.533   2.322   3.878
 8605SOL     OW26713   1.966   5.130   1.181
 8605SOL    HW126714   1.882   5.076   1.171
 8605SOL    HW226715   2.016   5.098   1.262
 8606SOL     OW26716   4.027   5.361   5.008
 8606SOL    HW126717   3.951   5.296   5.004
 8606SOL    HW226718   4.011   5.434   4.941
 8607SOL     OW26719   3.003   6.919   0.622
 8607SOL    HW126720   2.962   6.837   0.582
 8607SOL    HW226721   2.939   6.960   0.686
 8608SOL     OW26722   5.830   6.430   3.891
 8608SOL    HW126723   5.779   6.462   3.811
 8608SOL    HW226724   5.848   6.332   3.883
 8609SOL     OW26725   5.343   6.666   5.332
 8609SOL    HW126726   5.377   6.572   5.329
 8609SOL    HW226727   5.279   6.676   5.408
 8610SOL     OW26728   0.220   0.278   4.749
 8610SOL    HW126729   0.246   0.189   4.786
 8610SOL    HW226730   0.279   0.349   4.788
 8611SOL     OW26731   1.740   1.706   2.767
 8611SOL    HW126732   1.650   1.675   2.737
 8611SOL    HW226733   1.754   1.801   2.738
 8612SOL     OW26734   5.184   3.203   4.580
 8612SOL    HW126735   5.188   3.159   4.490
 8612SOL    HW226736   5.247   3.281   4.582
 8613SOL     OW26737   1.523   1.054   1.159
 8613SOL    HW126738   1.425   1.058   1.138
 8613SOL    HW226739   1.537   0.992   1.236
 8614SOL     OW26740   1.381   2.826   3.661
 8614SOL    HW126741   1.294   2.779   3.676
 8614SOL    HW226742   1.450   2.759   3.633
 8615SOL     OW26743   4.136   2.077   6.364
 8615SOL    HW126744   4.042   2.105   6.346
 8615SOL    HW226745   4.143   1.977   6.359
 8616SOL     OW26746   0.543   3.280   0.907
 8616SOL    HW126747   0.609   3.216   0.866
 8616SOL    HW226748   0.592   3.351   0.958
 8617SOL     OW26749   6.300   3.522   0.588
 8617SOL    HW126750   6.319   3.424   0.593
 8617SOL    HW226751   6.340   3.567   0.668
 8618SOL     OW26752   2.741   0.978   3.160
 8618SOL    HW126753   2.743   1.026   3.072
 8618SOL    HW226754   2.742   0.880   3.145
 8619SOL     OW26755   3.816   5.577   0.758
 8619SOL    HW126756   3.875   5.648   0.796
 8619SOL    HW226757   3.747   5.552   0.825
 8620SOL     OW26758   5.538   5.457   4.337
 8620SOL    HW126759   5.575   5.488   4.425
 8620SOL    HW226760   5.614   5.443   4.273
 8621SOL     OW26761   5.093   1.368   3.805
 8621SOL    HW126762   5.089   1.269   3.795
 8621SOL    HW226763   5.081   1.393   3.901
 8622SOL     OW26764   4.979   5.242   5.745
 8622SOL    HW126765   4.879   5.238   5.755
 8622SOL    HW226766   5.007   5.338   5.737
 8623SOL     OW26767   5.807   1.443   3.989
 8623SOL    HW126768   5.825   1.367   3.927
 8623SOL    HW226769   5.864   1.435   4.070
 8624SOL     OW26770   6.981   2.862   3.145
 8624SOL    HW126771   6.984   2.903   3.236
 8624SOL    HW226772   6.924   2.919   3.085
 8625SOL     OW26773   3.244   1.581   6.609
 8625SOL    HW126774   3.277   1.661   6.558
 8625SOL    HW226775   3.312   1.508   6.605
 8626SOL     OW26776   3.306   3.622   1.690
 8626SOL    HW126777   3.329   3.655   1.599
 8626SOL    HW226778   3.270   3.697   1.746
 8627SOL     OW26779   3.017   0.488   6.211
 8627SOL    HW126780   3.065   0.570   6.239
 8627SOL    HW226781   2.921   0.494   6.240
 8628SOL     OW26782   6.134   0.647   1.533
 8628SOL    HW126783   6.043   0.609   1.512
 8628SOL    HW226784   6.159   0.623   1.627
 8629SOL     OW26785   1.353   6.308   3.665
 8629SOL    HW126786   1.392   6.333   3.576
 8629SOL    HW226787   1.271   6.253   3.650
 8630SOL     OW26788   5.446   5.094   4.306
 8630SOL    HW126789   5.509   5.087   4.383
 8630SOL    HW226790   5.491   5.059   4.223
 8631SOL     OW26791   3.874   0.046   3.114
 8631SOL    HW126792   3.883   0.134   3.161
 8631SOL    HW226793   3.785   0.006   3.135
 8632SOL     OW26794   2.372   0.752   2.864
 8632SOL    HW126795   2.426   0.709   2.936
 8632SOL    HW226796   2.350   0.846   2.890
 8633SOL     OW26797   6.197   6.365   2.922
 8633SOL    HW126798   6.275   6.426   2.909
 8633SOL    HW226799   6.129   6.409   2.980
 8634SOL     OW26800   4.731   6.760   0.984
 8634SOL    HW126801   4.657   6.820   1.013
 8634SOL    HW226802   4.710   6.721   0.894
 8635SOL     OW26803   5.945   3.672   5.343
 8635SOL    HW126804   6.036   3.651   5.309
 8635SOL    HW226805   5.915   3.760   5.307
 8636SOL     OW26806   5.602   4.833   1.576
 8636SOL    HW126807   5.692   4.817   1.616
 8636SOL    HW226808   5.538   4.764   1.610
 8637SOL     OW26809   0.322   1.060   1.912
 8637SOL    HW126810   0.370   1.137   1.953
 8637SOL    HW226811   0.308   0.989   1.982
 8638SOL     OW26812   6.060   4.398   0.648
 8638SOL    HW126813   6.098   4.489   0.664
 8638SOL    HW226814   6.131   4.329   0.660
 8639SOL     OW26815   5.600   2.598   4.024
 8639SOL    HW126816   5.574   2.514   3.977
 8639SOL    HW226817   5.598   2.674   3.959
 8640SOL     OW26818   5.226   5.720   1.085
 8640SOL    HW126819   5.163   5.690   1.014
 8640SOL    HW226820   5.320   5.715   1.052
 8641SOL     OW26821   5.068   5.201   4.031
 8641SOL    HW126822   5.086   5.207   4.129
 8641SOL    HW226823   5.074   5.292   3.990
 8642SOL     OW26824   4.593   0.872   0.879
 8642SOL    HW126825   4.595   0.957   0.826
 8642SOL    HW226826   4.608   0.893   0.976
 8643SOL     OW26827   4.917   0.298   0.518
 8643SOL    HW126828   4.913   0.355   0.600
 8643SOL    HW226829   4.826   0.258   0.502
 8644SOL     OW26830   6.237   2.746   5.415
 8644SOL    HW126831   6.335   2.745   5.433
 8644SOL    HW226832   6.191   2.803   5.483
 8645SOL     OW26833   6.271   3.638   2.388
 8645SOL    HW126834   6.315   3.610   2.474
 8645SOL    HW226835   6.171   3.629   2.398
 8646SOL     OW26836   4.379   6.079   0.163
 8646SOL    HW126837   4.374   6.100   0.065
 8646SOL    HW226838   4.309   6.012   0.186
 8647SOL     OW26839   5.034   4.797   2.161
 8647SOL    HW126840   5.007   4.864   2.230
 8647SOL    HW226841   4.971   4.803   2.083
 8648SOL     OW26842   6.397   0.839   4.487
 8648SOL    HW126843   6.468   0.868   4.551
 8648SOL    HW226844   6.421   0.750   4.448
 8649SOL     OW26845   6.718   3.149   5.484
 8649SOL    HW126846   6.741   3.212   5.409
 8649SOL    HW226847   6.777   3.168   5.562
 8650SOL     OW26848   0.318   5.339   1.806
 8650SOL    HW126849   0.377   5.413   1.773
 8650SOL    HW226850   0.241   5.378   1.857
 8651SOL     OW26851   4.809   3.058   0.984
 8651SOL    HW126852   4.779   3.148   0.952
 8651SOL    HW226853   4.841   3.004   0.906
 8652SOL     OW26854   1.119   3.046   4.758
 8652SOL    HW126855   1.201   2.999   4.790
 8652SOL    HW226856   1.117   3.046   4.658
 8653SOL     OW26857   5.245   3.808   6.152
 8653SOL    HW126858   5.332   3.840   6.114
 8653SOL    HW226859   5.262   3.737   6.220
 8654SOL     OW26860   1.985   4.483   1.796
 8654SOL    HW126861   2.027   4.478   1.887
 8654SOL    HW226862   2.018   4.408   1.739
 8655SOL     OW26863   5.044   6.744   2.737
 8655SOL    HW126864   4.996   6.821   2.779
 8655SOL    HW226865   5.064   6.676   2.807
 8656SOL     OW26866   6.969   2.233   2.097
 8656SOL    HW126867   6.948   2.258   2.192
 8656SOL    HW226868   0.003   2.153   2.095
 8657SOL     OW26869   2.456   5.477   0.840
 8657SOL    HW126870   2.359   5.468   0.861
 8657SOL    HW226871   2.510   5.431   0.910
 8658SOL     OW26872   0.857   6.517   5.500
 8658SOL    HW126873   0.824   6.612   5.500
 8658SOL    HW226874   0.779   6.455   5.490
 8659SOL     OW26875   3.727   0.001   3.756
 8659SOL    HW126876   3.680   7.010   3.843
 8659SOL    HW226877   3.662   0.037   3.689
 8660SOL     OW26878   5.058   4.360   0.080
 8660SOL    HW126879   4.974   4.317   0.111
 8660SOL    HW226880   5.136   4.305   0.110
 8661SOL     OW26881   6.310   2.491   2.526
 8661SOL    HW126882   6.317   2.546   2.443
 8661SOL    HW226883   6.214   2.483   2.553
 8662SOL     OW26884   0.254   1.072   0.264
 8662SOL    HW126885   0.327   1.046   0.202
 8662SOL    HW226886   0.280   1.155   0.314
 8663SOL     OW26887   2.722   5.591   6.610
 8663SOL    HW126888   2.684   5.648   6.537
 8663SOL    HW226889   2.817   5.570   6.590
 8664SOL     OW26890   4.775   4.266   1.508
 8664SOL    HW126891   4.795   4.364   1.509
 8664SOL    HW226892   4.732   4.241   1.595
 8665SOL     OW26893   5.423   5.453   3.538
 8665SOL    HW126894   5.476   5.475   3.620
 8665SOL    HW226895   5.480   5.403   3.473
 8666SOL     OW26896   0.003   5.113   4.625
 8666SOL    HW126897   0.064   5.171   4.570
 8666SOL    HW226898   6.998   5.035   4.570
 8667SOL     OW26899   5.239   2.701   3.217
 8667SOL    HW126900   5.227   2.797   3.242
 8667SOL    HW226901   5.150   2.662   3.190
 8668SOL     OW26902   3.169   0.578   4.621
 8668SOL    HW126903   3.230   0.657   4.618
 8668SOL    HW226904   3.119   0.571   4.535
 8669SOL     OW26905   3.340   6.633   7.016
 8669SOL    HW126906   3.257   6.578   0.002
 8669SOL    HW226907   3.419   6.583   0.027
 8670SOL     OW26908   3.959   5.318   2.555
 8670SOL    HW126909   4.004   5.395   2.509
 8670SOL    HW226910   3.946   5.243   2.490
 8671SOL     OW26911   5.985   4.786   1.181
 8671SOL    HW126912   6.082   4.767   1.194
 8671SOL    HW226913   5.957   4.859   1.244
 8672SOL     OW26914   3.967   5.568   4.821
 8672SOL    HW126915   4.001   5.601   4.733
 8672SOL    HW226916   3.881   5.614   4.843
 8673SOL     OW26917   5.037   2.212   0.004
 8673SOL    HW126918   5.090   2.129   0.019
 8673SOL    HW226919   5.030   2.230   6.930
 8674SOL     OW26920   6.717   6.933   2.268
 8674SOL    HW126921   6.698   6.907   2.363
 8674SOL    HW226922   6.813   6.918   2.249
 8675SOL     OW26923   2.744   2.271   1.767
 8675SOL    HW126924   2.786   2.277   1.858
 8675SOL    HW226925   2.681   2.194   1.765
 8676SOL     OW26926   5.385   1.452   3.774
 8676SOL    HW126927   5.421   1.465   3.867
 8676SOL    HW226928   5.299   1.401   3.779
 8677SOL     OW26929   2.186   4.017   5.278
 8677SOL    HW126930   2.153   3.927   5.248
 8677SOL    HW226931   2.264   4.044   5.222
 8678SOL     OW26932   1.445   1.778   6.104
 8678SOL    HW126933   1.481   1.859   6.056
 8678SOL    HW226934   1.475   1.696   6.056
 8679SOL     OW26935   6.167   2.350   5.108
 8679SOL    HW126936   6.075   2.315   5.127
 8679SOL    HW226937   6.235   2.291   5.151
 8680SOL     OW26938   0.702   2.936   5.932
 8680SOL    HW126939   0.744   2.846   5.930
 8680SOL    HW226940   0.631   2.941   5.861
 8681SOL     OW26941   3.919   3.880   1.523
 8681SOL    HW126942   3.902   3.784   1.498
 8681SOL    HW226943   3.893   3.895   1.618
 8682SOL     OW26944   1.689   5.728   2.554
 8682SOL    HW126945   1.601   5.705   2.595
 8682SOL    HW226946   1.709   5.662   2.481
 8683SOL     OW26947   4.274   3.640   6.522
 8683SOL    HW126948   4.316   3.727   6.493
 8683SOL    HW226949   4.337   3.591   6.582
 8684SOL     OW26950   6.282   2.091   3.722
 8684SOL    HW126951   6.324   2.046   3.644
 8684SOL    HW226952   6.257   2.023   3.790
 8685SOL     OW26953   0.529   2.500   5.452
 8685SOL    HW126954   0.570   2.506   5.544
 8685SOL    HW226955   0.456   2.432   5.453
 8686SOL     OW26956   5.920   0.793   4.637
 8686SOL    HW126957   5.938   0.695   4.624
 8686SOL    HW226958   5.845   0.804   4.702
 8687SOL     OW26959   3.543   1.412   2.669
 8687SOL    HW126960   3.479   1.434   2.742
 8687SOL    HW226961   3.523   1.469   2.589
 8688SOL     OW26962   6.959   6.514   1.935
 8688SOL    HW126963   6.914   6.482   1.852
 8688SOL    HW226964   0.029   6.481   1.937
 8689SOL     OW26965   4.831   4.658   1.923
 8689SOL    HW126966   4.756   4.611   1.876
 8689SOL    HW226967   4.915   4.604   1.913
 8690SOL     OW26968   1.484   0.479   1.927
 8690SOL    HW126969   1.564   0.527   1.891
 8690SOL    HW226970   1.454   0.521   2.012
 8691SOL     OW26971   5.429   1.058   6.474
 8691SOL    HW126972   5.482   1.143   6.475
 8691SOL    HW226973   5.377   1.050   6.559
 8692SOL     OW26974   1.597   1.727   3.534
 8692SOL    HW126975   1.584   1.729   3.435
 8692SOL    HW226976   1.516   1.690   3.579
 8693SOL     OW26977   5.097   2.725   6.470
 8693SOL    HW126978   5.003   2.693   6.462
 8693SOL    HW226979   5.155   2.677   6.404
 8694SOL     OW26980   3.181   0.913   5.901
 8694SOL    HW126981   3.178   0.902   6.000
 8694SOL    HW226982   3.170   0.824   5.857
 8695SOL     OW26983   4.207   3.593   4.909
 8695SOL    HW126984   4.155   3.601   4.824
 8695SOL    HW226985   4.294   3.642   4.900
 8696SOL     OW26986   2.266   5.247   6.697
 8696SOL    HW126987   2.322   5.213   6.622
 8696SOL    HW226988   2.237   5.341   6.676
 8697SOL     OW26989   5.398   5.387   6.967
 8697SOL    HW126990   5.358   5.301   6.935
 8697SOL    HW226991   5.341   5.464   6.935
 8698SOL     OW26992   6.169   5.952   5.559
 8698SOL    HW126993   6.220   5.965   5.474
 8698SOL    HW226994   6.130   5.860   5.562
 8699SOL     OW26995   2.489   1.263   4.223
 8699SOL    HW126996   2.437   1.312   4.293
 8699SOL    HW226997   2.562   1.322   4.188
 8700SOL     OW26998   2.721   0.309   6.030
 8700SOL    HW126999   2.699   0.247   5.955
 8700SOL    HW227000   2.756   0.256   6.107
 8701SOL     OW27001   1.013   0.286   3.151
 8701SOL    HW127002   1.012   0.278   3.051
 8701SOL    HW227003   0.992   0.380   3.177
 8702SOL     OW27004   4.170   0.272   6.174
 8702SOL    HW127005   4.186   0.368   6.152
 8702SOL    HW227006   4.230   0.215   6.119
 8703SOL     OW27007   1.273   4.050   1.244
 8703SOL    HW127008   1.372   4.043   1.236
 8703SOL    HW227009   1.230   4.006   1.165
 8704SOL     OW27010   1.003   4.633   2.410
 8704SOL    HW127011   1.056   4.623   2.326
 8704SOL    HW227012   0.914   4.588   2.399
 8705SOL     OW27013   4.171   6.520   4.498
 8705SOL    HW127014   4.134   6.430   4.477
 8705SOL    HW227015   4.269   6.521   4.481
 8706SOL     OW27016   5.279   0.100   6.672
 8706SOL    HW127017   5.326   0.135   6.590
 8706SOL    HW227018   5.274   0.001   6.667
 8707SOL     OW27019   3.820   1.552   5.389
 8707SOL    HW127020   3.884   1.605   5.332
 8707SOL    HW227021   3.728   1.559   5.350
 8708SOL     OW27022   3.392   1.768   1.352
 8708SOL    HW127023   3.306   1.816   1.337
 8708SOL    HW227024   3.392   1.725   1.442
 8709SOL     OW27025   5.363   3.190   6.585
 8709SOL    HW127026   5.337   3.270   6.639
 8709SOL    HW227027   5.327   3.200   6.492
 8710SOL     OW27028   6.280   3.867   4.141
 8710SOL    HW127029   6.314   3.847   4.233
 8710SOL    HW227030   6.285   3.966   4.124
 8711SOL     OW27031   2.252   1.562   3.948
 8711SOL    HW127032   2.261   1.527   4.041
 8711SOL    HW227033   2.270   1.661   3.948
 8712SOL     OW27034   3.026   0.231   6.823
 8712SOL    HW127035   3.019   0.143   6.870
 8712SOL    HW227036   3.046   0.215   6.726
 8713SOL     OW27037   5.881   5.176   3.301
 8713SOL    HW127038   5.832   5.128   3.374
 8713SOL    HW227039   5.963   5.220   3.339
 8714SOL     OW27040   2.109   0.929   3.657
 8714SOL    HW127041   2.111   0.885   3.746
 8714SOL    HW227042   2.160   0.874   3.591
 8715SOL     OW27043   5.273   0.114   2.848
 8715SOL    HW127044   5.215   0.081   2.774
 8715SOL    HW227045   5.235   0.200   2.884
 8716SOL     OW27046   1.303   0.801   2.362
 8716SOL    HW127047   1.205   0.782   2.351
 8716SOL    HW227048   1.344   0.814   2.271
 8717SOL     OW27049   4.653   3.889   0.655
 8717SOL    HW127050   4.721   3.957   0.626
 8717SOL    HW227051   4.575   3.891   0.592
 8718SOL     OW27052   6.910   2.840   6.296
 8718SOL    HW127053   6.824   2.866   6.253
 8718SOL    HW227054   6.956   2.770   6.241
 8719SOL     OW27055   7.000   0.912   5.134
 8719SOL    HW127056   6.949   0.993   5.164
 8719SOL    HW227057   0.069   0.916   5.169
 8720SOL     OW27058   5.150   3.229   5.501
 8720SOL    HW127059   5.124   3.153   5.441
 8720SOL    HW227060   5.213   3.290   5.453
 8721SOL     OW27061   0.022   0.592   4.944
 8721SOL    HW127062   0.093   0.573   5.012
 8721SOL    HW227063   0.064   0.633   4.863
 8722SOL     OW27064   3.890   2.551   0.428
 8722SOL    HW127065   3.791   2.555   0.432
 8722SOL    HW227066   3.927   2.644   0.428
 8723SOL     OW27067   0.156   5.831   0.632
 8723SOL    HW127068   0.136   5.822   0.730
 8723SOL    HW227069   0.134   5.745   0.586
 8724SOL     OW27070   4.300   5.921   6.396
 8724SOL    HW127071   4.283   6.007   6.443
 8724SOL    HW227072   4.223   5.859   6.410
 8725SOL     OW27073   2.329   6.692   7.014
 8725SOL    HW127074   2.330   6.744   0.075
 8725SOL    HW227075   2.242   6.643   7.005
 8726SOL     OW27076   0.560   6.383   0.277
 8726SOL    HW127077   0.544   6.367   0.374
 8726SOL    HW227078   0.658   6.390   0.259
 8727SOL     OW27079   5.316   6.557   1.747
 8727SOL    HW127080   5.230   6.591   1.708
 8727SOL    HW227081   5.297   6.499   1.825
 8728SOL     OW27082   2.551   5.863   5.348
 8728SOL    HW127083   2.473   5.923   5.326
 8728SOL    HW227084   2.517   5.773   5.374
 8729SOL     OW27085   4.802   5.718   4.831
 8729SOL    HW127086   4.803   5.769   4.917
 8729SOL    HW227087   4.733   5.756   4.770
 8730SOL     OW27088   5.848   6.508   1.313
 8730SOL    HW127089   5.858   6.503   1.412
 8730SOL    HW227090   5.891   6.428   1.271
 8731SOL     OW27091   1.001   1.940   3.417
 8731SOL    HW127092   0.916   1.936   3.470
 8731SOL    HW227093   1.048   2.026   3.435
 8732SOL     OW27094   6.688   6.454   2.647
 8732SOL    HW127095   6.650   6.546   2.663
 8732SOL    HW227096   6.714   6.445   2.551
 8733SOL     OW27097   6.557   0.023   0.379
 8733SOL    HW127098   6.580   0.028   0.476
 8733SOL    HW227099   6.602   0.097   0.330
 8734SOL     OW27100   6.152   6.937   0.885
 8734SOL    HW127101   6.127   6.869   0.953
 8734SOL    HW227102   6.248   6.962   0.896
 8735SOL     OW27103   0.307   3.233   5.633
 8735SOL    HW127104   0.393   3.185   5.650
 8735SOL    HW227105   0.318   3.295   5.555
 8736SOL     OW27106   0.547   5.294   5.759
 8736SOL    HW127107   0.571   5.240   5.678
 8736SOL    HW227108   0.631   5.328   5.802
 8737SOL     OW27109   4.027   5.808   6.867
 8737SOL    HW127110   4.032   5.866   6.786
 8737SOL    HW227111   4.120   5.786   6.897
 8738SOL     OW27112   0.835   3.846   4.987
 8738SOL    HW127113   0.808   3.788   5.064
 8738SOL    HW227114   0.931   3.872   4.996
 8739SOL     OW27115   1.432   2.942   5.136
 8739SOL    HW127116   1.493   3.004   5.087
 8739SOL    HW227117   1.361   2.909   5.074
 8740SOL     OW27118   0.872   5.993   0.540
 8740SOL    HW127119   0.786   6.039   0.517
 8740SOL    HW227120   0.931   5.992   0.459
 8741SOL     OW27121   1.497   3.231   1.905
 8741SOL    HW127122   1.466   3.136   1.899
 8741SOL    HW227123   1.487   3.275   1.815
 8742SOL     OW27124   4.497   4.970   1.618
 8742SOL    HW127125   4.525   5.063   1.599
 8742SOL    HW227126   4.559   4.906   1.572
 8743SOL     OW27127   3.483   5.694   2.664
 8743SOL    HW127128   3.437   5.775   2.627
 8743SOL    HW227129   3.500   5.630   2.589
 8744SOL     OW27130   2.644   3.645   5.374
 8744SOL    HW127131   2.660   3.551   5.345
 8744SOL    HW227132   2.729   3.684   5.411
 8745SOL     OW27133   5.210   1.729   5.300
 8745SOL    HW127134   5.181   1.740   5.205
 8745SOL    HW227135   5.195   1.634   5.328
 8746SOL     OW27136   5.133   3.568   4.786
 8746SOL    HW127137   5.034   3.582   4.798
 8746SOL    HW227138   5.157   3.591   4.691
 8747SOL     OW27139   1.384   1.592   4.105
 8747SOL    HW127140   1.466   1.645   4.127
 8747SOL    HW227141   1.402   1.533   4.027
 8748SOL     OW27142   2.946   1.494   6.544
 8748SOL    HW127143   3.040   1.483   6.578
 8748SOL    HW227144   2.949   1.530   6.450
 8749SOL     OW27145   4.159   1.008   3.942
 8749SOL    HW127146   4.119   0.946   3.874
 8749SOL    HW227147   4.202   1.085   3.895
 8750SOL     OW27148   2.249   6.597   4.925
 8750SOL    HW127149   2.253   6.544   5.010
 8750SOL    HW227150   2.236   6.694   4.946
 8751SOL     OW27151   1.521   5.952   2.638
 8751SOL    HW127152   1.579   5.921   2.714
 8751SOL    HW227153   1.575   5.953   2.554
 8752SOL     OW27154   2.137   0.874   6.719
 8752SOL    HW127155   2.179   0.943   6.779
 8752SOL    HW227156   2.179   0.785   6.737
 8753SOL     OW27157   5.047   2.401   4.957
 8753SOL    HW127158   5.048   2.468   4.882
 8753SOL    HW227159   4.975   2.426   5.022
 8754SOL     OW27160   1.659   1.004   5.440
 8754SOL    HW127161   1.607   0.995   5.355
 8754SOL    HW227162   1.757   0.994   5.421
 8755SOL     OW27163   1.954   2.775   0.990
 8755SOL    HW127164   2.007   2.747   0.910
 8755SOL    HW227165   1.873   2.825   0.961
 8756SOL     OW27166   3.327   5.046   4.929
 8756SOL    HW127167   3.418   5.019   4.960
 8756SOL    HW227168   3.266   5.052   5.008
 8757SOL     OW27169   3.201   5.399   3.236
 8757SOL    HW127170   3.274   5.332   3.246
 8757SOL    HW227171   3.239   5.486   3.203
 8758SOL     OW27172   4.800   6.856   2.139
 8758SOL    HW127173   4.820   6.946   2.100
 8758SOL    HW227174   4.859   6.788   2.097
 8759SOL     OW27175   5.289   0.232   5.998
 8759SOL    HW127176   5.370   0.224   5.940
 8759SOL    HW227177   5.273   0.329   6.021
 8760SOL     OW27178   1.631   2.668   3.524
 8760SOL    HW127179   1.670   2.602   3.460
 8760SOL    HW227180   1.611   2.623   3.611
 8761SOL     OW27181   5.069   5.920   1.545
 8761SOL    HW127182   5.069   5.839   1.603
 8761SOL    HW227183   5.134   5.908   1.470
 8762SOL     OW27184   2.206   5.042   1.338
 8762SOL    HW127185   2.303   5.066   1.335
 8762SOL    HW227186   2.196   4.952   1.380
 8763SOL     OW27187   6.818   5.727   6.777
 8763SOL    HW127188   6.799   5.637   6.816
 8763SOL    HW227189   6.905   5.725   6.729
 8764SOL     OW27190   2.455   2.037   6.664
 8764SOL    HW127191   2.503   2.121   6.689
 8764SOL    HW227192   2.507   1.989   6.593
 8765SOL     OW27193   6.029   0.272   4.832
 8765SOL    HW127194   6.048   0.283   4.930
 8765SOL    HW227195   6.048   0.357   4.784
 8766SOL     OW27196   2.432   4.419   2.780
 8766SOL    HW127197   2.457   4.374   2.694
 8766SOL    HW227198   2.507   4.478   2.809
 8767SOL     OW27199   3.945   0.732   5.375
 8767SOL    HW127200   4.013   0.718   5.303
 8767SOL    HW227201   3.990   0.769   5.457
 8768SOL     OW27202   0.993   4.108   1.065
 8768SOL    HW127203   1.032   4.019   1.043
 8768SOL    HW227204   0.926   4.098   1.139
 8769SOL     OW27205   1.702   0.233   6.738
 8769SOL    HW127206   1.706   0.330   6.713
 8769SOL    HW227207   1.779   0.185   6.697
 8770SOL     OW27208   6.239   2.220   3.379
 8770SOL    HW127209   6.296   2.153   3.330
 8770SOL    HW227210   6.243   2.308   3.331
 8771SOL     OW27211   3.039   3.353   4.630
 8771SOL    HW127212   3.114   3.412   4.601
 8771SOL    HW227213   2.959   3.370   4.572
 8772SOL     OW27214   0.201   0.335   6.707
 8772SOL    HW127215   0.173   0.308   6.799
 8772SOL    HW227216   0.286   0.288   6.682
 8773SOL     OW27217   3.061   1.588   3.301
 8773SOL    HW127218   3.013   1.512   3.346
 8773SOL    HW227219   3.119   1.635   3.367
 8774SOL     OW27220   1.581   1.613   0.763
 8774SOL    HW127221   1.655   1.549   0.784
 8774SOL    HW227222   1.572   1.624   0.664
 8775SOL     OW27223   6.194   6.237   3.969
 8775SOL    HW127224   6.290   6.211   3.960
 8775SOL    HW227225   6.136   6.165   3.932
 8776SOL     OW27226   3.263   3.083   5.806
 8776SOL    HW127227   3.182   3.120   5.852
 8776SOL    HW227228   3.326   3.046   5.874
 8777SOL     OW27229   6.002   5.299   3.038
 8777SOL    HW127230   6.052   5.375   3.080
 8777SOL    HW227231   5.971   5.325   2.947
 8778SOL     OW27232   1.157   3.149   2.956
 8778SOL    HW127233   1.230   3.215   2.937
 8778SOL    HW227234   1.187   3.058   2.930
 8779SOL     OW27235   1.882   4.689   0.840
 8779SOL    HW127236   1.952   4.738   0.788
 8779SOL    HW227237   1.793   4.732   0.827
 8780SOL     OW27238   2.202   5.965   4.964
 8780SOL    HW127239   2.291   5.961   4.918
 8780SOL    HW227240   2.187   6.057   5.000
 8781SOL     OW27241   0.652   2.766   2.563
 8781SOL    HW127242   0.583   2.795   2.497
 8781SOL    HW227243   0.625   2.796   2.655
 8782SOL     OW27244   5.299   0.852   4.178
 8782SOL    HW127245   5.208   0.886   4.202
 8782SOL    HW227246   5.368   0.896   4.235
 8783SOL     OW27247   6.230   2.605   6.447
 8783SOL    HW127248   6.166   2.625   6.372
 8783SOL    HW227249   6.276   2.690   6.474
 8784SOL     OW27250   4.954   3.975   6.255
 8784SOL    HW127251   4.869   4.021   6.281
 8784SOL    HW227252   5.029   4.041   6.252
 8785SOL     OW27253   5.547   4.020   6.372
 8785SOL    HW127254   5.587   4.111   6.360
 8785SOL    HW227255   5.554   3.969   6.287
 8786SOL     OW27256   1.910   5.272   6.483
 8786SOL    HW127257   1.913   5.369   6.458
 8786SOL    HW227258   1.913   5.264   6.583
 8787SOL     OW27259   1.358   2.417   6.833
 8787SOL    HW127260   1.324   2.483   6.767
 8787SOL    HW227261   1.449   2.385   6.806
 8788SOL     OW27262   1.527   1.780   5.192
 8788SOL    HW127263   1.551   1.852   5.257
 8788SOL    HW227264   1.556   1.691   5.227
 8789SOL     OW27265   6.933   1.645   0.297
 8789SOL    HW127266   6.834   1.658   0.286
 8789SOL    HW227267   6.950   1.553   0.333
 8790SOL     OW27268   4.437   0.933   0.379
 8790SOL    HW127269   4.491   0.877   0.316
 8790SOL    HW227270   4.362   0.879   0.416
 8791SOL     OW27271   6.334   6.041   5.783
 8791SOL    HW127272   6.257   6.014   5.725
 8791SOL    HW227273   6.300   6.069   5.872
 8792SOL     OW27274   5.983   6.668   2.510
 8792SOL    HW127275   6.063   6.609   2.499
 8792SOL    HW227276   5.975   6.729   2.431
 8793SOL     OW27277   1.034   5.281   2.737
 8793SOL    HW127278   1.058   5.192   2.776
 8793SOL    HW227279   0.995   5.338   2.809
 8794SOL     OW27280   2.227   6.522   1.725
 8794SOL    HW127281   2.326   6.535   1.732
 8794SOL    HW227282   2.181   6.610   1.736
 8795SOL     OW27283   4.030   6.936   4.522
 8795SOL    HW127284   3.931   6.947   4.510
 8795SOL    HW227285   4.078   7.011   4.477
 8796SOL     OW27286   3.886   1.819   4.411
 8796SOL    HW127287   3.982   1.846   4.409
 8796SOL    HW227288   3.829   1.895   4.380
 8797SOL     OW27289   6.567   5.489   0.498
 8797SOL    HW127290   6.534   5.401   0.464
 8797SOL    HW227291   6.663   5.501   0.472
 8798SOL     OW27292   3.187   3.279   5.597
 8798SOL    HW127293   3.254   3.296   5.525
 8798SOL    HW227294   3.233   3.246   5.679
 8799SOL     OW27295   4.195   0.995   2.310
 8799SOL    HW127296   4.169   1.039   2.225
 8799SOL    HW227297   4.230   0.903   2.291
 8800SOL     OW27298   4.200   3.774   0.795
 8800SOL    HW127299   4.246   3.847   0.845
 8800SOL    HW227300   4.155   3.713   0.860
 8801SOL     OW27301   3.151   0.262   5.628
 8801SOL    HW127302   3.173   0.267   5.726
 8801SOL    HW227303   3.099   0.343   5.602
 8802SOL     OW27304   1.450   6.720   0.944
 8802SOL    HW127305   1.360   6.733   0.904
 8802SOL    HW227306   1.467   6.791   1.013
 8803SOL     OW27307   3.447   6.281   2.459
 8803SOL    HW127308   3.395   6.366   2.470
 8803SOL    HW227309   3.530   6.300   2.408
 8804SOL     OW27310   3.598   0.697   1.390
 8804SOL    HW127311   3.661   0.745   1.329
 8804SOL    HW227312   3.507   0.739   1.385
 8805SOL     OW27313   6.777   0.596   3.894
 8805SOL    HW127314   6.782   0.662   3.969
 8805SOL    HW227315   6.780   0.504   3.932
 8806SOL     OW27316   1.589   5.264   6.518
 8806SOL    HW127317   1.560   5.360   6.530
 8806SOL    HW227318   1.633   5.253   6.429
 8807SOL     OW27319   1.306   5.349   6.416
 8807SOL    HW127320   1.308   5.297   6.502
 8807SOL    HW227321   1.292   5.286   6.339
 8808SOL     OW27322   5.610   2.699   1.110
 8808SOL    HW127323   5.634   2.653   1.195
 8808SOL    HW227324   5.511   2.714   1.108
 8809SOL     OW27325   5.837   4.470   0.046
 8809SOL    HW127326   5.750   4.518   0.038
 8809SOL    HW227327   5.825   4.388   0.102
 8810SOL     OW27328   5.550   1.478   4.299
 8810SOL    HW127329   5.474   1.542   4.287
 8810SOL    HW227330   5.612   1.512   4.370
 8811SOL     OW27331   0.650   0.579   3.302
 8811SOL    HW127332   0.598   0.494   3.307
 8811SOL    HW227333   0.656   0.620   3.393
 8812SOL     OW27334   2.570   0.393   0.215
 8812SOL    HW127335   2.616   0.482   0.209
 8812SOL    HW227336   2.479   0.405   0.254
 8813SOL     OW27337   0.751   5.440   1.436
 8813SOL    HW127338   0.812   5.514   1.408
 8813SOL    HW227339   0.657   5.464   1.411
 8814SOL     OW27340   6.157   6.853   6.413
 8814SOL    HW127341   6.223   6.818   6.479
 8814SOL    HW227342   6.179   6.948   6.391
 8815SOL     OW27343   6.039   4.803   3.244
 8815SOL    HW127344   6.117   4.742   3.262
 8815SOL    HW227345   6.072   4.892   3.214
 8816SOL     OW27346   0.501   5.275   2.185
 8816SOL    HW127347   0.456   5.304   2.269
 8816SOL    HW227348   0.436   5.276   2.110
 8817SOL     OW27349   1.900   3.922   4.852
 8817SOL    HW127350   1.993   3.903   4.882
 8817SOL    HW227351   1.852   3.835   4.839
 8818SOL     OW27352   6.905   5.079   5.548
 8818SOL    HW127353   6.869   5.018   5.619
 8818SOL    HW227354   6.973   5.030   5.494
 8819SOL     OW27355   0.194   1.638   4.585
 8819SOL    HW127356   0.221   1.597   4.498
 8819SOL    HW227357   0.272   1.638   4.648
 8820SOL     OW27358   1.689   2.449   3.385
 8820SOL    HW127359   1.636   2.370   3.358
 8820SOL    HW227360   1.787   2.426   3.383
 8821SOL     OW27361   1.434   6.194   6.954
 8821SOL    HW127362   1.509   6.245   6.995
 8821SOL    HW227363   1.452   6.181   6.856
 8822SOL     OW27364   1.329   1.980   3.529
 8822SOL    HW127365   1.343   1.956   3.432
 8822SOL    HW227366   1.278   2.066   3.535
 8823SOL     OW27367   2.759   5.758   0.181
 8823SOL    HW127368   2.811   5.709   0.252
 8823SOL    HW227369   2.808   5.841   0.155
 8824SOL     OW27370   5.026   4.184   1.418
 8824SOL    HW127371   5.051   4.136   1.502
 8824SOL    HW227372   4.933   4.219   1.426
 8825SOL     OW27373   2.183   1.998   6.432
 8825SOL    HW127374   2.095   1.960   6.406
 8825SOL    HW227375   2.201   1.981   6.529
 8826SOL     OW27376   5.672   6.836   1.284
 8826SOL    HW127377   5.696   6.801   1.194
 8826SOL    HW227378   5.717   6.924   1.299
 8827SOL     OW27379   0.296   1.210   4.252
 8827SOL    HW127380   0.202   1.189   4.225
 8827SOL    HW227381   0.313   1.308   4.236
 8828SOL     OW27382   1.499   5.346   2.649
 8828SOL    HW127383   1.583   5.399   2.640
 8828SOL    HW227384   1.435   5.395   2.709
 8829SOL     OW27385   0.073   0.468   1.319
 8829SOL    HW127386   0.120   0.554   1.339
 8829SOL    HW227387   0.096   0.439   1.226
 8830SOL     OW27388   1.052   1.607   1.594
 8830SOL    HW127389   0.977   1.609   1.528
 8830SOL    HW227390   1.020   1.567   1.680
 8831SOL     OW27391   0.290   0.167   1.110
 8831SOL    HW127392   0.232   0.248   1.100
 8831SOL    HW227393   0.336   0.148   1.023
 8832SOL     OW27394   6.365   0.718   1.348
 8832SOL    HW127395   6.432   0.654   1.385
 8832SOL    HW227396   6.287   0.723   1.409
 8833SOL     OW27397   6.987   5.683   0.966
 8833SOL    HW127398   6.903   5.663   0.915
 8833SOL    HW227399   6.971   5.665   1.064
 8834SOL     OW27400   6.729   4.322   5.035
 8834SOL    HW127401   6.676   4.243   5.066
 8834SOL    HW227402   6.718   4.397   5.100
 8835SOL     OW27403   1.221   2.062   0.535
 8835SOL    HW127404   1.255   2.145   0.579
 8835SOL    HW227405   1.121   2.064   0.531
 8836SOL     OW27406   4.927   2.168   1.368
 8836SOL    HW127407   4.872   2.128   1.294
 8836SOL    HW227408   4.985   2.240   1.331
 8837SOL     OW27409   0.840   3.084   2.290
 8837SOL    HW127410   0.742   3.101   2.287
 8837SOL    HW227411   0.881   3.106   2.201
 8838SOL     OW27412   1.773   6.519   3.080
 8838SOL    HW127413   1.763   6.482   3.172
 8838SOL    HW227414   1.753   6.617   3.081
 8839SOL     OW27415   5.762   5.219   5.101
 8839SOL    HW127416   5.669   5.183   5.093
 8839SOL    HW227417   5.767   5.281   5.179
 8840SOL     OW27418   4.414   0.536   2.136
 8840SOL    HW127419   4.464   0.449   2.132
 8840SOL    HW227420   4.396   0.568   2.043
 8841SOL     OW27421   4.137   0.278   2.971
 8841SOL    HW127422   4.083   0.260   3.053
 8841SOL    HW227423   4.113   0.211   2.900
 8842SOL     OW27424   1.564   1.792   2.252
 8842SOL    HW127425   1.564   1.878   2.201
 8842SOL    HW227426   1.648   1.786   2.306
 8843SOL     OW27427   0.143   2.645   3.757
 8843SOL    HW127428   0.061   2.625   3.704
 8843SOL    HW227429   0.224   2.615   3.707
 8844SOL     OW27430   6.030   1.906   6.781
 8844SOL    HW127431   5.955   1.841   6.768
 8844SOL    HW227432   6.029   1.973   6.707
 8845SOL     OW27433   5.507   2.928   6.927
 8845SOL    HW127434   5.514   2.975   6.838
 8845SOL    HW227435   5.429   2.964   6.978
 8846SOL     OW27436   3.193   4.962   4.268
 8846SOL    HW127437   3.290   4.953   4.293
 8846SOL    HW227438   3.136   4.923   4.341
 8847SOL     OW27439   1.994   1.956   3.722
 8847SOL    HW127440   2.027   1.862   3.707
 8847SOL    HW227441   2.062   2.006   3.775
 8848SOL     OW27442   0.480   1.305   3.998
 8848SOL    HW127443   0.506   1.369   4.071
 8848SOL    HW227444   0.382   1.313   3.979
 8849SOL     OW27445   2.469   6.603   1.769
 8849SOL    HW127446   2.508   6.694   1.756
 8849SOL    HW227447   2.535   6.545   1.816
 8850SOL     OW27448   3.673   1.830   0.333
 8850SOL    HW127449   3.722   1.911   0.299
 8850SOL    HW227450   3.583   1.825   0.290
 8851SOL     OW27451   2.217   4.180   1.241
 8851SOL    HW127452   2.140   4.118   1.257
 8851SOL    HW227453   2.257   4.160   1.152
 8852SOL     OW27454   0.982   2.755   4.910
 8852SOL    HW127455   0.909   2.803   4.862
 8852SOL    HW227456   0.957   2.744   5.007
 8853SOL     OW27457   5.225   0.426   1.624
 8853SOL    HW127458   5.225   0.355   1.695
 8853SOL    HW227459   5.317   0.436   1.587
 8854SOL     OW27460   0.124   2.982   4.790
 8854SOL    HW127461   0.163   2.997   4.699
 8854SOL    HW227462   0.065   3.059   4.814
 8855SOL     OW27463   5.126   5.086   1.286
 8855SOL    HW127464   5.031   5.075   1.256
 8855SOL    HW227465   5.166   5.166   1.241
 8856SOL     OW27466   6.155   0.868   5.005
 8856SOL    HW127467   6.062   0.877   4.969
 8856SOL    HW227468   6.212   0.822   4.937
 8857SOL     OW27469   6.804   2.496   0.131
 8857SOL    HW127470   6.733   2.473   0.198
 8857SOL    HW227471   6.883   2.534   0.178
 8858SOL     OW27472   0.573   5.077   5.011
 8858SOL    HW127473   0.473   5.069   5.014
 8858SOL    HW227474   0.614   5.005   5.067
 8859SOL     OW27475   0.519   6.152   3.730
 8859SOL    HW127476   0.488   6.221   3.664
 8859SOL    HW227477   0.578   6.196   3.798
 8860SOL     OW27478   0.058   2.246   3.517
 8860SOL    HW127479   0.098   2.194   3.592
 8860SOL    HW227480   0.067   2.194   3.432
 8861SOL     OW27481   3.648   2.992   1.290
 8861SOL    HW127482   3.610   3.082   1.266
 8861SOL    HW227483   3.678   2.994   1.385
 8862SOL     OW27484   4.528   4.905   4.632
 8862SOL    HW127485   4.526   4.894   4.731
 8862SOL    HW227486   4.468   4.980   4.605
 8863SOL     OW27487   1.856   3.639   2.151
 8863SOL    HW127488   1.896   3.605   2.066
 8863SOL    HW227489   1.766   3.598   2.164
 8864SOL     OW27490   6.777   2.204   4.805
 8864SOL    HW127491   6.726   2.190   4.890
 8864SOL    HW227492   6.713   2.225   4.731
 8865SOL     OW27493   2.872   1.293   0.776
 8865SOL    HW127494   2.852   1.300   0.874
 8865SOL    HW227495   2.947   1.228   0.762
 8866SOL     OW27496   6.131   1.101   2.235
 8866SOL    HW127497   6.096   1.020   2.283
 8866SOL    HW227498   6.077   1.117   2.153
 8867SOL     OW27499   5.836   1.841   4.428
 8867SOL    HW127500   5.764   1.907   4.406
 8867SOL    HW227501   5.822   1.758   4.374
 8868SOL     OW27502   0.447   2.945   3.982
 8868SOL    HW127503   0.457   2.852   3.947
 8868SOL    HW227504   0.354   2.958   4.016
 8869SOL     OW27505   3.521   0.408   3.063
 8869SOL    HW127506   3.515   0.441   2.969
 8869SOL    HW227507   3.450   0.340   3.079
 8870SOL     OW27508   0.831   0.995   1.293
 8870SOL    HW127509   0.790   1.085   1.279
 8870SOL    HW227510   0.764   0.934   1.336
 8871SOL     OW27511   6.906   6.419   0.208
 8871SOL    HW127512   6.892   6.402   0.305
 8871SOL    HW227513   7.004   6.425   0.189
 8872SOL     OW27514   6.341   5.462   3.497
 8872SOL    HW127515   6.338   5.562   3.502
 8872SOL    HW227516   6.434   5.433   3.474
 8873SOL     OW27517   1.977   1.939   3.064
 8873SOL    HW127518   2.074   1.937   3.087
 8873SOL    HW227519   1.923   1.937   3.148
 8874SOL     OW27520   2.422   6.329   0.684
 8874SOL    HW127521   2.323   6.325   0.671
 8874SOL    HW227522   2.467   6.335   0.595
 8875SOL     OW27523   6.706   2.771   4.269
 8875SOL    HW127524   6.640   2.706   4.306
 8875SOL    HW227525   6.783   2.721   4.229
 8876SOL     OW27526   5.149   0.328   0.372
 8876SOL    HW127527   5.216   0.400   0.387
 8876SOL    HW227528   5.070   0.342   0.432
 8877SOL     OW27529   0.886   4.427   1.844
 8877SOL    HW127530   0.926   4.388   1.927
 8877SOL    HW227531   0.958   4.472   1.791
 8878SOL     OW27532   4.849   3.968   2.524
 8878SOL    HW127533   4.770   3.957   2.464
 8878SOL    HW227534   4.926   4.005   2.471
 8879SOL     OW27535   6.275   4.453   3.543
 8879SOL    HW127536   6.268   4.396   3.461
 8879SOL    HW227537   6.371   4.461   3.570
 8880SOL     OW27538   3.998   1.819   2.726
 8880SOL    HW127539   4.059   1.782   2.657
 8880SOL    HW227540   4.010   1.768   2.811
 8881SOL     OW27541   3.997   6.130   2.810
 8881SOL    HW127542   4.041   6.099   2.894
 8881SOL    HW227543   3.917   6.072   2.792
 8882SOL     OW27544   3.853   1.191   6.915
 8882SOL    HW127545   3.917   1.267   6.907
 8882SOL    HW227546   3.820   1.165   6.824
 8883SOL     OW27547   0.517   6.806   3.109
 8883SOL    HW127548   0.418   6.799   3.119
 8883SOL    HW227549   0.540   6.817   3.012
 8884SOL     OW27550   4.440   1.855   5.970
 8884SOL    HW127551   4.482   1.764   5.966
 8884SOL    HW227552   4.455   1.903   5.884
 8885SOL     OW27553   4.838   5.574   0.877
 8885SOL    HW127554   4.823   5.479   0.850
 8885SOL    HW227555   4.815   5.586   0.973
 8886SOL     OW27556   4.482   6.547   1.075
 8886SOL    HW127557   4.454   6.623   1.017
 8886SOL    HW227558   4.582   6.546   1.082
 8887SOL     OW27559   4.209   0.689   2.541
 8887SOL    HW127560   4.232   0.704   2.445
 8887SOL    HW227561   4.282   0.725   2.599
 8888SOL     OW27562   3.797   1.973   2.370
 8888SOL    HW127563   3.756   1.882   2.367
 8888SOL    HW227564   3.827   2.000   2.279
 8889SOL     OW27565   1.817   4.250   6.618
 8889SOL    HW127566   1.841   4.153   6.614
 8889SOL    HW227567   1.790   4.282   6.527
 8890SOL     OW27568   2.250   5.773   7.006
 8890SOL    HW127569   2.174   5.709   6.998
 8890SOL    HW227570   2.311   5.744   0.056
 8891SOL     OW27571   5.375   3.648   4.833
 8891SOL    HW127572   5.455   3.602   4.873
 8891SOL    HW227573   5.298   3.585   4.832
 8892SOL     OW27574   2.519   4.962   5.867
 8892SOL    HW127575   2.599   5.014   5.895
 8892SOL    HW227576   2.467   4.936   5.949
 8893SOL     OW27577   0.480   4.719   5.147
 8893SOL    HW127578   0.426   4.686   5.224
 8893SOL    HW227579   0.444   4.679   5.062
 8894SOL     OW27580   5.867   2.279   2.115
 8894SOL    HW127581   5.818   2.313   2.035
 8894SOL    HW227582   5.965   2.274   2.093
 8895SOL     OW27583   0.669   3.239   1.880
 8895SOL    HW127584   0.639   3.166   1.818
 8895SOL    HW227585   0.591   3.296   1.906
 8896SOL     OW27586   0.823   0.841   3.753
 8896SOL    HW127587   0.806   0.921   3.811
 8896SOL    HW227588   0.810   0.867   3.657
 8897SOL     OW27589   1.007   4.526   4.010
 8897SOL    HW127590   0.987   4.519   4.108
 8897SOL    HW227591   1.094   4.481   3.990
 8898SOL     OW27592   6.196   4.963   2.081
 8898SOL    HW127593   6.189   5.045   2.138
 8898SOL    HW227594   6.182   4.882   2.137
 8899SOL     OW27595   1.560   4.622   2.526
 8899SOL    HW127596   1.579   4.670   2.441
 8899SOL    HW227597   1.595   4.675   2.603
 8900SOL     OW27598   4.687   1.825   4.978
 8900SOL    HW127599   4.711   1.919   5.002
 8900SOL    HW227600   4.691   1.767   5.059
 8901SOL     OW27601   0.848   5.290   5.750
 8901SOL    HW127602   0.865   5.264   5.655
 8901SOL    HW227603   0.935   5.309   5.796
 8902SOL     OW27604   1.556   3.663   6.448
 8902SOL    HW127605   1.616   3.604   6.501
 8902SOL    HW227606   1.469   3.617   6.433
 8903SOL     OW27607   0.577   1.104   3.599
 8903SOL    HW127608   0.583   1.095   3.698
 8903SOL    HW227609   0.515   1.179   3.575
 8904SOL     OW27610   5.688   0.749   2.189
 8904SOL    HW127611   5.654   0.842   2.174
 8904SOL    HW227612   5.646   0.711   2.271
 8905SOL     OW27613   1.790   4.975   1.504
 8905SOL    HW127614   1.778   4.877   1.517
 8905SOL    HW227615   1.813   4.994   1.408
 8906SOL     OW27616   6.920   1.584   6.643
 8906SOL    HW127617   6.962   1.504   6.600
 8906SOL    HW227618   6.991   1.652   6.662
 8907SOL     OW27619   2.820   2.971   5.352
 8907SOL    HW127620   2.763   2.979   5.270
 8907SOL    HW227621   2.855   3.061   5.377
 8908SOL     OW27622   1.954   6.331   5.657
 8908SOL    HW127623   1.865   6.312   5.616
 8908SOL    HW227624   1.943   6.342   5.756
 8909SOL     OW27625   2.040   6.328   1.738
 8909SOL    HW127626   2.073   6.302   1.829
 8909SOL    HW227627   2.111   6.381   1.691
 8910SOL     OW27628   1.386   1.095   3.749
 8910SOL    HW127629   1.401   1.001   3.717
 8910SOL    HW227630   1.314   1.096   3.818
 8911SOL     OW27631   5.089   2.692   4.448
 8911SOL    HW127632   5.001   2.652   4.473
 8911SOL    HW227633   5.150   2.620   4.417
 8912SOL     OW27634   3.662   3.735   3.668
 8912SOL    HW127635   3.745   3.681   3.654
 8912SOL    HW227636   3.638   3.782   3.583
 8913SOL     OW27637   4.809   5.647   0.387
 8913SOL    HW127638   4.738   5.706   0.425
 8913SOL    HW227639   4.801   5.646   0.287
 8914SOL     OW27640   5.242   4.847   4.989
 8914SOL    HW127641   5.221   4.758   5.029
 8914SOL    HW227642   5.265   4.836   4.893
 8915SOL     OW27643   2.672   1.602   3.316
 8915SOL    HW127644   2.650   1.613   3.219
 8915SOL    HW227645   2.703   1.689   3.353
 8916SOL     OW27646   6.514   6.553   2.361
 8916SOL    HW127647   6.576   6.632   2.369
 8916SOL    HW227648   6.475   6.551   2.269
 8917SOL     OW27649   5.638   2.668   6.888
 8917SOL    HW127650   5.581   2.748   6.907
 8917SOL    HW227651   5.678   2.677   6.797
 8918SOL     OW27652   1.854   3.304   2.979
 8918SOL    HW127653   1.853   3.343   2.887
 8918SOL    HW227654   1.848   3.377   3.046
 8919SOL     OW27655   0.163   2.242   3.236
 8919SOL    HW127656   0.239   2.222   3.173
 8919SOL    HW227657   0.119   2.327   3.209
 8920SOL     OW27658   1.847   2.003   0.189
 8920SOL    HW127659   1.766   2.020   0.246
 8920SOL    HW227660   1.912   2.078   0.202
 8921SOL     OW27661   2.119   1.663   2.253
 8921SOL    HW127662   2.135   1.661   2.351
 8921SOL    HW227663   2.180   1.597   2.208
 8922SOL     OW27664   3.670   5.616   3.710
 8922SOL    HW127665   3.766   5.613   3.683
 8922SOL    HW227666   3.619   5.546   3.660
 8923SOL     OW27667   2.625   2.284   3.792
 8923SOL    HW127668   2.653   2.329   3.877
 8923SOL    HW227669   2.535   2.317   3.765
 8924SOL     OW27670   6.190   4.886   4.671
 8924SOL    HW127671   6.163   4.938   4.590
 8924SOL    HW227672   6.243   4.806   4.643
 8925SOL     OW27673   1.078   5.973   3.913
 8925SOL    HW127674   1.078   6.073   3.904
 8925SOL    HW227675   1.134   5.947   3.992
 8926SOL     OW27676   5.994   2.417   6.651
 8926SOL    HW127677   5.996   2.369   6.563
 8926SOL    HW227678   6.055   2.371   6.715
 8927SOL     OW27679   1.456   1.461   6.232
 8927SOL    HW127680   1.485   1.441   6.139
 8927SOL    HW227681   1.512   1.535   6.270
 8928SOL     OW27682   6.480   6.141   5.271
 8928SOL    HW127683   6.555   6.103   5.325
 8928SOL    HW227684   6.396   6.092   5.291
 8929SOL     OW27685   0.838   1.045   3.230
 8929SOL    HW127686   0.790   0.995   3.303
 8929SOL    HW227687   0.930   1.068   3.262
 8930SOL     OW27688   2.456   5.259   2.263
 8930SOL    HW127689   2.522   5.208   2.319
 8930SOL    HW227690   2.505   5.326   2.207
 8931SOL     OW27691   4.826   3.645   6.994
 8931SOL    HW127692   4.854   3.722   6.936
 8931SOL    HW227693   4.816   3.677   0.064
 8932SOL     OW27694   0.953   3.196   2.073
 8932SOL    HW127695   0.938   3.292   2.097
 8932SOL    HW227696   0.984   3.189   1.978
 8933SOL     OW27697   5.071   2.692   5.356
 8933SOL    HW127698   4.973   2.673   5.361
 8933SOL    HW227699   5.097   2.750   5.433
 8934SOL     OW27700   2.731   5.957   2.148
 8934SOL    HW127701   2.657   5.898   2.181
 8934SOL    HW227702   2.742   6.035   2.209
 8935SOL     OW27703   0.395   5.712   6.751
 8935SOL    HW127704   0.467   5.671   6.695
 8935SOL    HW227705   0.393   5.668   6.840
 8936SOL     OW27706   4.406   3.424   7.016
 8936SOL    HW127707   4.466   3.468   6.949
 8936SOL    HW227708   4.311   3.446   6.995
 8937SOL     OW27709   0.642   2.074   6.527
 8937SOL    HW127710   0.644   2.034   6.619
 8937SOL    HW227711   0.554   2.119   6.513
 8938SOL     OW27712   5.230   5.405   1.941
 8938SOL    HW127713   5.303   5.348   1.979
 8938SOL    HW227714   5.144   5.355   1.945
 8939SOL     OW27715   6.308   1.623   4.710
 8939SOL    HW127716   6.393   1.570   4.699
 8939SOL    HW227717   6.294   1.680   4.629
 8940SOL     OW27718   5.165   6.852   1.400
 8940SOL    HW127719   5.260   6.833   1.376
 8940SOL    HW227720   5.159   6.875   1.497
 8941SOL     OW27721   4.347   1.667   0.406
 8941SOL    HW127722   4.273   1.734   0.396
 8941SOL    HW227723   4.355   1.614   0.321
 8942SOL     OW27724   0.984   2.168   5.620
 8942SOL    HW127725   1.068   2.200   5.664
 8942SOL    HW227726   0.999   2.075   5.585
 8943SOL     OW27727   5.095   3.079   0.297
 8943SOL    HW127728   5.042   3.142   0.354
 8943SOL    HW227729   5.039   3.049   0.220
 8944SOL     OW27730   4.553   5.433   0.781
 8944SOL    HW127731   4.643   5.401   0.753
 8944SOL    HW227732   4.532   5.399   0.873
 8945SOL     OW27733   2.390   0.463   3.612
 8945SOL    HW127734   2.316   0.487   3.675
 8945SOL    HW227735   2.407   0.365   3.617
 8946SOL     OW27736   3.794   0.206   5.468
 8946SOL    HW127737   3.754   0.128   5.419
 8946SOL    HW227738   3.723   0.275   5.485
 8947SOL     OW27739   2.891   3.362   5.971
 8947SOL    HW127740   2.951   3.284   5.952
 8947SOL    HW227741   2.872   3.411   5.886
 8948SOL     OW27742   5.208   5.541   3.682
 8948SOL    HW127743   5.117   5.547   3.641
 8948SOL    HW227744   5.269   5.488   3.623
 8949SOL     OW27745   1.521   5.463   6.159
 8949SOL    HW127746   1.573   5.396   6.212
 8949SOL    HW227747   1.483   5.531   6.221
 8950SOL     OW27748   5.247   2.722   5.158
 8950SOL    HW127749   5.172   2.720   5.225
 8950SOL    HW227750   5.314   2.791   5.186
 8951SOL     OW27751   2.370   1.160   5.490
 8951SOL    HW127752   2.459   1.167   5.444
 8951SOL    HW227753   2.308   1.229   5.453
 8952SOL     OW27754   5.211   6.712   3.504
 8952SOL    HW127755   5.262   6.732   3.588
 8952SOL    HW227756   5.272   6.723   3.425
 8953SOL     OW27757   1.134   5.698   6.466
 8953SOL    HW127758   1.154   5.793   6.490
 8953SOL    HW227759   1.210   5.661   6.412
 8954SOL     OW27760   2.598   6.627   5.960
 8954SOL    HW127761   2.645   6.623   5.872
 8954SOL    HW227762   2.524   6.559   5.961
 8955SOL     OW27763   0.197   3.175   3.885
 8955SOL    HW127764   0.167   3.085   3.855
 8955SOL    HW227765   0.148   3.201   3.968
 8956SOL     OW27766   1.663   0.375   3.783
 8956SOL    HW127767   1.600   0.410   3.714
 8956SOL    HW227768   1.756   0.372   3.745
 8957SOL     OW27769   3.231   5.735   1.863
 8957SOL    HW127770   3.225   5.811   1.928
 8957SOL    HW227771   3.172   5.754   1.784
 8958SOL     OW27772   2.870   0.247   4.739
 8958SOL    HW127773   2.961   0.210   4.724
 8958SOL    HW227774   2.802   0.178   4.714
 8959SOL     OW27775   3.080   5.732   6.540
 8959SOL    HW127776   3.035   5.647   6.511
 8959SOL    HW227777   3.092   5.792   6.461
 8960SOL     OW27778   4.168   5.536   1.111
 8960SOL    HW127779   4.099   5.608   1.110
 8960SOL    HW227780   4.145   5.467   1.041
 8961SOL     OW27781   0.518   2.928   4.657
 8961SOL    HW127782   0.522   2.836   4.696
 8961SOL    HW227783   0.596   2.942   4.596
 8962SOL     OW27784   4.507   0.580   3.757
 8962SOL    HW127785   4.509   0.480   3.754
 8962SOL    HW227786   4.454   0.615   3.680
 8963SOL     OW27787   1.448   0.853   4.630
 8963SOL    HW127788   1.544   0.840   4.607
 8963SOL    HW227789   1.395   0.777   4.592
 8964SOL     OW27790   1.133   2.309   3.693
 8964SOL    HW127791   1.202   2.379   3.708
 8964SOL    HW227792   1.114   2.262   3.779
 8965SOL     OW27793   1.358   4.416   1.188
 8965SOL    HW127794   1.397   4.463   1.267
 8965SOL    HW227795   1.270   4.375   1.213
 8966SOL     OW27796   3.250   1.956   4.618
 8966SOL    HW127797   3.202   1.967   4.705
 8966SOL    HW227798   3.339   2.001   4.624
 8967SOL     OW27799   5.350   6.552   0.557
 8967SOL    HW127800   5.351   6.652   0.550
 8967SOL    HW227801   5.435   6.516   0.519
 8968SOL     OW27802   6.211   4.606   3.764
 8968SOL    HW127803   6.254   4.555   3.689
 8968SOL    HW227804   6.227   4.703   3.751
 8969SOL     OW27805   6.631   0.089   4.089
 8969SOL    HW127806   6.533   0.090   4.068
 8969SOL    HW227807   6.672   0.005   4.054
 8970SOL     OW27808   3.353   3.103   1.855
 8970SOL    HW127809   3.433   3.061   1.898
 8970SOL    HW227810   3.279   3.110   1.922
 8971SOL     OW27811   2.820   6.766   2.869
 8971SOL    HW127812   2.846   6.815   2.786
 8971SOL    HW227813   2.801   6.671   2.847
 8972SOL     OW27814   5.392   6.897   5.919
 8972SOL    HW127815   5.476   6.952   5.919
 8972SOL    HW227816   5.386   6.846   5.833
 8973SOL     OW27817   1.560   4.410   6.399
 8973SOL    HW127818   1.630   4.368   6.342
 8973SOL    HW227819   1.492   4.455   6.340
 8974SOL     OW27820   1.017   2.768   4.372
 8974SOL    HW127821   0.934   2.772   4.316
 8974SOL    HW227822   1.091   2.728   4.319
 8975SOL     OW27823   3.492   0.901   6.664
 8975SOL    HW127824   3.418   0.833   6.662
 8975SOL    HW227825   3.488   0.956   6.581
 8976SOL     OW27826   1.111   6.574   4.111
 8976SOL    HW127827   1.125   6.475   4.105
 8976SOL    HW227828   1.199   6.620   4.118
 8977SOL     OW27829   6.235   2.028   0.670
 8977SOL    HW127830   6.177   2.098   0.629
 8977SOL    HW227831   6.177   1.952   0.702
 8978SOL     OW27832   5.741   4.091   2.853
 8978SOL    HW127833   5.734   3.995   2.880
 8978SOL    HW227834   5.810   4.101   2.782
 8979SOL     OW27835   0.614   4.937   4.764
 8979SOL    HW127836   0.612   5.007   4.836
 8979SOL    HW227837   0.636   4.848   4.804
 8980SOL     OW27838   3.059   3.061   3.802
 8980SOL    HW127839   3.111   3.066   3.717
 8980SOL    HW227840   2.969   3.021   3.783
 8981SOL     OW27841   3.207   2.598   5.345
 8981SOL    HW127842   3.133   2.665   5.338
 8981SOL    HW227843   3.195   2.527   5.275
 8982SOL     OW27844   2.666   4.565   0.141
 8982SOL    HW127845   2.753   4.528   0.174
 8982SOL    HW227846   2.681   4.617   0.057
 8983SOL     OW27847   4.761   4.316   0.793
 8983SOL    HW127848   4.697   4.371   0.845
 8983SOL    HW227849   4.852   4.322   0.834
 8984SOL     OW27850   1.479   6.220   2.466
 8984SOL    HW127851   1.517   6.306   2.432
 8984SOL    HW227852   1.550   6.150   2.464
 8985SOL     OW27853   2.921   3.171   6.681
 8985SOL    HW127854   2.833   3.147   6.638
 8985SOL    HW227855   2.987   3.098   6.663
 8986SOL     OW27856   2.187   5.967   2.288
 8986SOL    HW127857   2.109   5.917   2.248
 8986SOL    HW227858   2.272   5.935   2.246
 8987SOL     OW27859   5.383   6.384   2.432
 8987SOL    HW127860   5.291   6.385   2.471
 8987SOL    HW227861   5.423   6.476   2.441
 8988SOL     OW27862   0.343   4.109   5.147
 8988SOL    HW127863   0.398   4.134   5.067
 8988SOL    HW227864   0.369   4.168   5.224
 8989SOL     OW27865   2.079   2.486   0.058
 8989SOL    HW127866   2.076   2.446   6.991
 8989SOL    HW227867   2.023   2.569   0.060
 8990SOL     OW27868   0.373   4.375   4.366
 8990SOL    HW127869   0.327   4.352   4.281
 8990SOL    HW227870   0.328   4.455   4.408
 8991SOL     OW27871   1.157   2.116   4.733
 8991SOL    HW127872   1.167   2.022   4.764
 8991SOL    HW227873   1.210   2.177   4.793
 8992SOL     OW27874   6.147   1.465   1.906
 8992SOL    HW127875   6.223   1.496   1.963
 8992SOL    HW227876   6.101   1.544   1.866
 8993SOL     OW27877   4.671   2.633   1.066
 8993SOL    HW127878   4.578   2.597   1.051
 8993SOL    HW227879   4.666   2.720   1.114
 8994SOL     OW27880   2.044   5.748   2.193
 8994SOL    HW127881   2.108   5.732   2.118
 8994SOL    HW227882   2.007   5.661   2.224
 8995SOL     OW27883   0.903   0.609   0.925
 8995SOL    HW127884   0.913   0.537   0.994
 8995SOL    HW227885   0.944   0.694   0.959
 8996SOL     OW27886   4.279   5.900   5.958
 8996SOL    HW127887   4.371   5.938   5.968
 8996SOL    HW227888   4.259   5.839   6.035
 8997SOL     OW27889   5.513   6.489   4.926
 8997SOL    HW127890   5.421   6.527   4.911
 8997SOL    HW227891   5.580   6.545   4.878
 8998SOL     OW27892   0.178   4.009   5.342
 8998SOL    HW127893   0.239   3.989   5.419
 8998SOL    HW227894   0.232   4.026   5.260
 8999SOL     OW27895   4.234   6.165   6.478
 8999SOL    HW127896   4.189   6.126   6.559
 8999SOL    HW227897   4.173   6.231   6.435
 9000SOL     OW27898   1.258   3.565   1.135
 9000SOL    HW127899   1.256   3.568   1.235
 9000SOL    HW227900   1.165   3.570   1.099
 9001SOL     OW27901   2.132   5.192   0.972
 9001SOL    HW127902   2.048   5.182   1.026
 9001SOL    HW227903   2.195   5.118   0.995
 9002SOL     OW27904   6.549   6.652   6.505
 9002SOL    HW127905   6.600   6.727   6.462
 9002SOL    HW227906   6.519   6.680   6.597
 9003SOL     OW27907   4.694   6.494   0.733
 9003SOL    HW127908   4.668   6.399   0.744
 9003SOL    HW227909   4.789   6.507   0.762
 9004SOL     OW27910   6.142   4.305   2.083
 9004SOL    HW127911   6.175   4.390   2.043
 9004SOL    HW227912   6.188   4.289   2.171
 9005SOL     OW27913   4.882   1.119   5.066
 9005SOL    HW127914   4.869   1.021   5.079
 9005SOL    HW227915   4.975   1.145   5.093
 9006SOL     OW27916   3.617   6.535   6.715
 9006SOL    HW127917   3.631   6.618   6.768
 9006SOL    HW227918   3.679   6.534   6.637
 9007SOL     OW27919   0.100   0.443   3.479
 9007SOL    HW127920   0.021   0.452   3.418
 9007SOL    HW227921   0.180   0.485   3.435
 9008SOL     OW27922   6.908   5.048   1.765
 9008SOL    HW127923   6.908   5.140   1.727
 9008SOL    HW227924   7.000   5.024   1.796
 9009SOL     OW27925   2.902   6.369   2.037
 9009SOL    HW127926   2.930   6.284   1.993
 9009SOL    HW227927   2.971   6.439   2.020
 9010SOL     OW27928   2.310   4.678   4.842
 9010SOL    HW127929   2.322   4.775   4.861
 9010SOL    HW227930   2.249   4.638   4.910
 9011SOL     OW27931   2.358   1.501   2.162
 9011SOL    HW127932   2.418   1.493   2.082
 9011SOL    HW227933   2.343   1.411   2.201
 9012SOL     OW27934   2.373   6.132   0.275
 9012SOL    HW127935   2.426   6.096   0.352
 9012SOL    HW227936   2.425   6.207   0.233
 9013SOL     OW27937   2.303   0.498   4.690
 9013SOL    HW127938   2.240   0.431   4.652
 9013SOL    HW227939   2.342   0.462   4.775
 9014SOL     OW27940   5.616   3.122   3.107
 9014SOL    HW127941   5.554   3.054   3.146
 9014SOL    HW227942   5.638   3.097   3.013
 9015SOL     OW27943   3.930   6.367   6.583
 9015SOL    HW127944   3.854   6.429   6.563
 9015SOL    HW227945   3.980   6.347   6.498
 9016SOL     OW27946   4.985   4.929   6.029
 9016SOL    HW127947   5.018   5.015   5.991
 9016SOL    HW227948   4.907   4.947   6.089
 9017SOL     OW27949   3.176   0.677   5.697
 9017SOL    HW127950   3.122   0.627   5.764
 9017SOL    HW227951   3.116   0.711   5.625
 9018SOL     OW27952   2.587   5.352   0.401
 9018SOL    HW127953   2.510   5.384   0.347
 9018SOL    HW227954   2.647   5.295   0.344
 9019SOL     OW27955   0.150   4.265   4.997
 9019SOL    HW127956   0.239   4.248   5.040
 9019SOL    HW227957   0.078   4.220   5.050
 9020SOL     OW27958   5.348   5.765   3.567
 9020SOL    HW127959   5.319   5.688   3.624
 9020SOL    HW227960   5.280   5.838   3.572
 9021SOL     OW27961   6.727   1.695   4.376
 9021SOL    HW127962   6.824   1.692   4.397
 9021SOL    HW227963   6.704   1.785   4.339
 9022SOL     OW27964   4.775   2.960   6.500
 9022SOL    HW127965   4.683   2.923   6.492
 9022SOL    HW227966   4.781   3.018   6.581
 9023SOL     OW27967   0.217   4.500   0.930
 9023SOL    HW127968   0.247   4.591   0.959
 9023SOL    HW227969   0.229   4.490   0.831
 9024SOL     OW27970   1.777   4.253   6.306
 9024SOL    HW127971   1.837   4.304   6.243
 9024SOL    HW227972   1.824   4.171   6.337
 9025SOL     OW27973   0.690   6.344   1.921
 9025SOL    HW127974   0.646   6.409   1.859
 9025SOL    HW227975   0.753   6.287   1.869
 9026SOL     OW27976   5.919   1.799   6.382
 9026SOL    HW127977   5.845   1.866   6.372
 9026SOL    HW227978   5.880   1.708   6.394
 9027SOL     OW27979   0.073   4.142   2.900
 9027SOL    HW127980   0.147   4.139   2.967
 9027SOL    HW227981   0.064   4.235   2.864
 9028SOL     OW27982   2.751   4.823   6.984
 9028SOL    HW127983   2.828   4.839   0.022
 9028SOL    HW227984   2.679   4.890   7.002
 9029SOL     OW27985   3.969   6.330   4.946
 9029SOL    HW127986   3.885   6.315   4.998
 9029SOL    HW227987   3.976   6.262   4.873
 9030SOL     OW27988   3.036   2.140   2.172
 9030SOL    HW127989   3.030   2.167   2.268
 9030SOL    HW227990   2.987   2.207   2.116
 9031SOL     OW27991   5.090   6.385   4.804
 9031SOL    HW127992   5.146   6.314   4.847
 9031SOL    HW227993   5.117   6.475   4.838
 9032SOL     OW27994   5.002   2.776   1.159
 9032SOL    HW127995   4.942   2.733   1.227
 9032SOL    HW227996   4.953   2.787   1.073
 9033SOL     OW27997   0.497   6.028   2.801
 9033SOL    HW127998   0.436   5.954   2.772
 9033SOL    HW227999   0.484   6.107   2.741
 9034SOL     OW28000   4.366   6.743   5.105
 9034SOL    HW128001   4.331   6.837   5.104
 9034SOL    HW228002   4.381   6.712   5.012
 9035SOL     OW28003   2.293   6.075   5.622
 9035SOL    HW128004   2.331   6.034   5.705
 9035SOL    HW228005   2.196   6.054   5.615
 9036SOL     OW28006   0.129   4.928   4.820
 9036SOL    HW128007   0.095   5.004   4.765
 9036SOL    HW228008   0.053   4.868   4.844
 9037SOL     OW28009   6.739   0.986   2.554
 9037SOL    HW128010   6.648   1.023   2.535
 9037SOL    HW228011   6.791   0.979   2.469
 9038SOL     OW28012   3.078   3.936   5.623
 9038SOL    HW128013   3.101   3.930   5.525
 9038SOL    HW228014   3.004   4.003   5.635
 9039SOL     OW28015   4.640   6.592   6.191
 9039SOL    HW128016   4.614   6.676   6.144
 9039SOL    HW228017   4.722   6.608   6.246
 9040SOL     OW28018   2.702   2.268   1.133
 9040SOL    HW128019   2.729   2.352   1.180
 9040SOL    HW228020   2.612   2.240   1.165
 9041SOL     OW28021   6.845   2.349   3.795
 9041SOL    HW128022   6.914   2.277   3.784
 9041SOL    HW228023   6.761   2.324   3.747
 9042SOL     OW28024   6.910   5.215   6.556
 9042SOL    HW128025   6.940   5.226   6.462
 9042SOL    HW228026   6.976   5.159   6.606
 9043SOL     OW28027   2.869   2.908   1.649
 9043SOL    HW128028   2.869   2.996   1.698
 9043SOL    HW228029   2.955   2.860   1.667
 9044SOL     OW28030   2.320   1.520   0.202
 9044SOL    HW128031   2.279   1.601   0.244
 9044SOL    HW228032   2.371   1.469   0.271
 9045SOL     OW28033   3.494   0.568   4.527
 9045SOL    HW128034   3.514   0.560   4.625
 9045SOL    HW228035   3.519   0.659   4.496
 9046SOL     OW28036   4.049   3.486   1.683
 9046SOL    HW128037   3.951   3.468   1.691
 9046SOL    HW228038   4.089   3.493   1.775
 9047SOL     OW28039   0.515   4.180   5.750
 9047SOL    HW128040   0.527   4.275   5.778
 9047SOL    HW228041   0.563   4.120   5.814
 9048SOL     OW28042   1.009   3.049   5.453
 9048SOL    HW128043   1.077   3.055   5.379
 9048SOL    HW228044   0.922   3.017   5.416
 9049SOL     OW28045   0.360   6.501   4.917
 9049SOL    HW128046   0.301   6.549   4.853
 9049SOL    HW228047   0.317   6.416   4.946
 9050SOL     OW28048   0.989   3.853   0.018
 9050SOL    HW128049   1.005   3.871   6.945
 9050SOL    HW228050   1.063   3.894   0.072
 9051SOL     OW28051   1.706   0.689   1.954
 9051SOL    HW128052   1.801   0.658   1.960
 9051SOL    HW228053   1.686   0.749   2.032
 9052SOL     OW28054   1.981   2.481   6.716
 9052SOL    HW128055   1.941   2.571   6.695
 9052SOL    HW228056   2.061   2.466   6.658
 9053SOL     OW28057   0.362   1.285   0.398
 9053SOL    HW128058   0.417   1.348   0.454
 9053SOL    HW228059   0.389   1.293   0.302
 9054SOL     OW28060   1.272   5.009   3.377
 9054SOL    HW128061   1.320   4.936   3.329
 9054SOL    HW228062   1.333   5.049   3.446
 9055SOL     OW28063   0.939   3.017   6.936
 9055SOL    HW128064   0.856   3.021   6.991
 9055SOL    HW228065   0.933   3.084   6.862
 9056SOL     OW28066   5.007   0.896   4.209
 9056SOL    HW128067   5.000   0.993   4.183
 9056SOL    HW228068   4.927   0.847   4.175
 9057SOL     OW28069   4.953   1.130   3.786
 9057SOL    HW128070   4.932   1.153   3.881
 9057SOL    HW228071   4.871   1.139   3.730
 9058SOL     OW28072   1.393   6.732   5.925
 9058SOL    HW128073   1.390   6.694   6.017
 9058SOL    HW228074   1.306   6.716   5.880
 9059SOL     OW28075   2.271   2.282   3.332
 9059SOL    HW128076   2.349   2.345   3.330
 9059SOL    HW228077   2.197   2.323   3.386
 9060SOL     OW28078   5.907   1.998   5.574
 9060SOL    HW128079   5.874   2.076   5.627
 9060SOL    HW228080   5.844   1.981   5.498
 9061SOL     OW28081   2.660   4.628   4.197
 9061SOL    HW128082   2.576   4.597   4.153
 9061SOL    HW228083   2.639   4.656   4.291
 9062SOL     OW28084   1.287   6.395   1.335
 9062SOL    HW128085   1.253   6.459   1.267
 9062SOL    HW228086   1.386   6.390   1.330
 9063SOL     OW28087   2.641   1.452   2.142
 9063SOL    HW128088   2.709   1.518   2.173
 9063SOL    HW228089   2.642   1.447   2.042
 9064SOL     OW28090   4.070   3.802   0.563
 9064SOL    HW128091   4.111   3.783   0.652
 9064SOL    HW228092   4.043   3.898   0.558
 9065SOL     OW28093   3.060   1.244   0.456
 9065SOL    HW128094   3.054   1.172   0.525
 9065SOL    HW228095   3.043   1.333   0.498
 9066SOL     OW28096   5.401   6.810   0.611
 9066SOL    HW128097   5.326   6.863   0.649
 9066SOL    HW228098   5.459   6.868   0.554
 9067SOL     OW28099   0.002   0.782   2.126
 9067SOL    HW128100   0.042   0.811   2.212
 9067SOL    HW228101   0.003   0.858   2.061
 9068SOL     OW28102   0.203   6.575   5.727
 9068SOL    HW128103   0.126   6.622   5.769
 9068SOL    HW228104   0.274   6.558   5.795
 9069SOL     OW28105   1.322   2.933   5.633
 9069SOL    HW128106   1.373   2.882   5.703
 9069SOL    HW228107   1.224   2.919   5.646
 9070SOL     OW28108   1.548   4.420   4.771
 9070SOL    HW128109   1.512   4.356   4.704
 9070SOL    HW228110   1.560   4.373   4.859
 9071SOL     OW28111   4.999   5.351   0.124
 9071SOL    HW128112   5.021   5.378   0.218
 9071SOL    HW228113   4.912   5.392   0.097
 9072SOL     OW28114   5.464   4.436   1.257
 9072SOL    HW128115   5.484   4.534   1.255
 9072SOL    HW228116   5.383   4.419   1.312
 9073SOL     OW28117   1.653   6.879   1.295
 9073SOL    HW128118   1.727   6.888   1.228
 9073SOL    HW228119   1.687   6.828   1.375
 9074SOL     OW28120   0.847   1.003   0.757
 9074SOL    HW128121   0.852   1.038   0.664
 9074SOL    HW228122   0.812   0.910   0.756
 9075SOL     OW28123   6.373   0.245   0.951
 9075SOL    HW128124   6.435   0.224   0.876
 9075SOL    HW228125   6.351   0.161   1.001
 9076SOL     OW28126   1.792   2.245   5.894
 9076SOL    HW128127   1.700   2.271   5.864
 9076SOL    HW228128   1.785   2.181   5.971
 9077SOL     OW28129   5.389   5.809   2.143
 9077SOL    HW128130   5.475   5.797   2.193
 9077SOL    HW228131   5.409   5.825   2.047
 9078SOL     OW28132   4.965   2.859   4.867
 9078SOL    HW128133   4.933   2.932   4.805
 9078SOL    HW228134   5.056   2.883   4.901
 9079SOL     OW28135   1.218   0.705   5.817
 9079SOL    HW128136   1.264   0.703   5.728
 9079SOL    HW228137   1.120   0.719   5.803
 9080SOL     OW28138   4.444   1.328   0.677
 9080SOL    HW128139   4.389   1.282   0.606
 9080SOL    HW228140   4.540   1.302   0.666
 9081SOL     OW28141   5.874   5.839   3.957
 9081SOL    HW128142   5.795   5.779   3.945
 9081SOL    HW228143   5.875   5.873   4.052
 9082SOL     OW28144   1.734   0.332   2.101
 9082SOL    HW128145   1.672   0.409   2.112
 9082SOL    HW228146   1.684   0.247   2.119
 9083SOL     OW28147   4.059   4.784   2.978
 9083SOL    HW128148   4.089   4.877   2.957
 9083SOL    HW228149   4.000   4.750   2.905
 9084SOL     OW28150   3.504   3.907   2.344
 9084SOL    HW128151   3.571   3.919   2.271
 9084SOL    HW228152   3.512   3.981   2.411
 9085SOL     OW28153   1.969   1.915   0.644
 9085SOL    HW128154   1.911   1.861   0.583
 9085SOL    HW228155   2.054   1.865   0.660
 9086SOL     OW28156   6.624   3.740   1.114
 9086SOL    HW128157   6.707   3.694   1.082
 9086SOL    HW228158   6.552   3.672   1.128
 9087SOL     OW28159   5.026   4.459   2.164
 9087SOL    HW128160   5.061   4.510   2.086
 9087SOL    HW228161   4.930   4.437   2.149
 9088SOL     OW28162   6.173   4.674   2.176
 9088SOL    HW128163   6.199   4.608   2.105
 9088SOL    HW228164   6.133   4.625   2.253
 9089SOL     OW28165   5.361   0.605   5.744
 9089SOL    HW128166   5.382   0.669   5.670
 9089SOL    HW228167   5.443   0.587   5.797
 9090SOL     OW28168   6.941   2.597   4.236
 9090SOL    HW128169   6.985   2.664   4.295
 9090SOL    HW228170   6.999   2.516   4.229
 9091SOL     OW28171   4.184   2.864   6.399
 9091SOL    HW128172   4.152   2.771   6.419
 9091SOL    HW228173   4.282   2.860   6.376
 9092SOL     OW28174   0.008   3.742   5.804
 9092SOL    HW128175   6.951   3.731   5.747
 9092SOL    HW228176   7.015   3.813   5.873
 9093SOL     OW28177   2.828   6.106   4.221
 9093SOL    HW128178   2.750   6.109   4.158
 9093SOL    HW228179   2.823   6.185   4.282
 9094SOL     OW28180   1.386   4.257   0.368
 9094SOL    HW128181   1.320   4.329   0.345
 9094SOL    HW228182   1.337   4.174   0.395
 9095SOL     OW28183   0.581   0.577   6.197
 9095SOL    HW128184   0.561   0.669   6.231
 9095SOL    HW228185   0.668   0.579   6.148
 9096SOL     OW28186   6.671   4.911   4.290
 9096SOL    HW128187   6.662   4.955   4.200
 9096SOL    HW228188   6.589   4.858   4.310
 9097SOL     OW28189   0.506   4.034   1.263
 9097SOL    HW128190   0.482   3.960   1.325
 9097SOL    HW228191   0.450   4.115   1.284
 9098SOL     OW28192   1.864   5.546   4.284
 9098SOL    HW128193   1.865   5.447   4.295
 9098SOL    HW228194   1.946   5.575   4.234
 9099SOL     OW28195   1.498   0.656   6.371
 9099SOL    HW128196   1.580   0.675   6.425
 9099SOL    HW228197   1.486   0.728   6.303
 9100SOL     OW28198   1.564   5.313   4.490
 9100SOL    HW128199   1.601   5.394   4.536
 9100SOL    HW228200   1.631   5.280   4.423
 9101SOL     OW28201   5.955   2.446   1.261
 9101SOL    HW128202   5.930   2.374   1.196
 9101SOL    HW228203   5.990   2.525   1.210
 9102SOL     OW28204   3.695   1.309   3.322
 9102SOL    HW128205   3.604   1.272   3.342
 9102SOL    HW228206   3.756   1.291   3.399
 9103SOL     OW28207   5.521   1.039   1.470
 9103SOL    HW128208   5.580   0.965   1.437
 9103SOL    HW228209   5.518   1.038   1.570
 9104SOL     OW28210   5.110   3.003   5.759
 9104SOL    HW128211   5.030   3.063   5.766
 9104SOL    HW228212   5.099   2.942   5.680
 9105SOL     OW28213   2.705   0.601   0.329
 9105SOL    HW128214   2.799   0.618   0.301
 9105SOL    HW228215   2.702   0.519   0.387
 9106SOL     OW28216   2.583   2.665   6.143
 9106SOL    HW128217   2.663   2.670   6.083
 9106SOL    HW228218   2.509   2.719   6.105
 9107SOL     OW28219   3.956   0.615   1.049
 9107SOL    HW128220   4.045   0.629   1.091
 9107SOL    HW228221   3.947   0.675   0.969
 9108SOL     OW28222   6.068   7.021   5.024
 9108SOL    HW128223   6.051   0.032   5.117
 9108SOL    HW228224   6.166   0.000   5.006
 9109SOL     OW28225   5.384   3.434   2.925
 9109SOL    HW128226   5.318   3.473   2.989
 9109SOL    HW228227   5.347   3.437   2.832
 9110SOL     OW28228   0.772   6.006   2.014
 9110SOL    HW128229   0.869   6.022   2.035
 9110SOL    HW228230   0.742   5.922   2.059
 9111SOL     OW28231   4.955   3.589   5.510
 9111SOL    HW128232   4.943   3.492   5.533
 9111SOL    HW228233   5.048   3.602   5.475
 9112SOL     OW28234   0.464   4.748   1.518
 9112SOL    HW128235   0.378   4.698   1.523
 9112SOL    HW228236   0.473   4.789   1.427
 9113SOL     OW28237   5.207   6.615   4.935
 9113SOL    HW128238   5.182   6.681   4.865
 9113SOL    HW228239   5.205   6.660   5.025
 9114SOL     OW28240   0.030   1.355   6.192
 9114SOL    HW128241   0.060   1.312   6.107
 9114SOL    HW228242   7.022   1.448   6.173
 9115SOL     OW28243   4.901   3.652   4.484
 9115SOL    HW128244   4.883   3.595   4.564
 9115SOL    HW228245   4.991   3.632   4.448
 9116SOL     OW28246   0.383   5.262   3.155
 9116SOL    HW128247   0.312   5.326   3.183
 9116SOL    HW228248   0.470   5.310   3.147
 9117SOL     OW28249   1.619   6.915   0.087
 9117SOL    HW128250   1.569   6.828   0.093
 9117SOL    HW228251   1.645   6.931   7.016
 9118SOL     OW28252   0.596   4.913   1.031
 9118SOL    HW128253   0.628   4.845   0.965
 9118SOL    HW228254   0.608   5.005   0.993
 9119SOL     OW28255   3.612   2.404   0.868
 9119SOL    HW128256   3.562   2.486   0.842
 9119SOL    HW228257   3.557   2.349   0.931
 9120SOL     OW28258   6.794   4.832   4.691
 9120SOL    HW128259   6.771   4.803   4.784
 9120SOL    HW228260   6.714   4.820   4.632
 9121SOL     OW28261   4.388   1.552   5.458
 9121SOL    HW128262   4.305   1.567   5.406
 9121SOL    HW228263   4.454   1.501   5.402
 9122SOL     OW28264   0.489   1.656   2.355
 9122SOL    HW128265   0.395   1.623   2.364
 9122SOL    HW228266   0.506   1.727   2.424
 9123SOL     OW28267   1.183   6.614   4.552
 9123SOL    HW128268   1.155   6.533   4.499
 9123SOL    HW228269   1.272   6.598   4.593
 9124SOL     OW28270   2.401   5.309   6.926
 9124SOL    HW128271   2.465   5.375   6.888
 9124SOL    HW228272   2.354   5.262   6.851
 9125SOL     OW28273   4.563   6.969   1.753
 9125SOL    HW128274   4.494   7.005   1.816
 9125SOL    HW228275   4.610   6.892   1.796
 9126SOL     OW28276   3.408   6.000   6.581
 9126SOL    HW128277   3.375   5.966   6.669
 9126SOL    HW228278   3.441   6.094   6.593
 9127SOL     OW28279   6.300   3.842   6.554
 9127SOL    HW128280   6.370   3.844   6.482
 9127SOL    HW228281   6.212   3.818   6.514
 9128SOL     OW28282   5.086   2.955   6.753
 9128SOL    HW128283   5.168   2.909   6.719
 9128SOL    HW228284   5.068   3.036   6.696
 9129SOL     OW28285   0.786   2.129   1.587
 9129SOL    HW128286   0.834   2.214   1.609
 9129SOL    HW228287   0.853   2.056   1.574
 9130SOL     OW28288   3.485   3.973   6.623
 9130SOL    HW128289   3.556   3.957   6.691
 9130SOL    HW228290   3.495   4.065   6.584
 9131SOL     OW28291   6.376   3.096   1.178
 9131SOL    HW128292   6.330   3.010   1.200
 9131SOL    HW228293   6.334   3.137   1.097
 9132SOL     OW28294   0.759   4.893   3.928
 9132SOL    HW128295   0.767   4.905   4.027
 9132SOL    HW228296   0.796   4.973   3.881
 9133SOL     OW28297   5.538   6.706   0.238
 9133SOL    HW128298   5.444   6.674   0.228
 9133SOL    HW228299   5.553   6.785   0.177
 9134SOL     OW28300   4.683   4.082   6.393
 9134SOL    HW128301   4.660   3.985   6.390
 9134SOL    HW228302   4.708   4.107   6.486
 9135SOL     OW28303   6.965   5.154   2.133
 9135SOL    HW128304   6.867   5.140   2.119
 9135SOL    HW228305   7.017   5.087   2.079
 9136SOL     OW28306   6.875   5.234   0.293
 9136SOL    HW128307   6.790   5.286   0.302
 9136SOL    HW228308   6.953   5.297   0.289
 9137SOL     OW28309   5.873   5.419   6.767
 9137SOL    HW128310   5.821   5.340   6.734
 9137SOL    HW228311   5.875   5.418   6.867
 9138SOL     OW28312   1.922   3.953   5.374
 9138SOL    HW128313   1.889   4.045   5.353
 9138SOL    HW228314   2.022   3.953   5.377
 9139SOL     OW28315   0.742   6.919   1.358
 9139SOL    HW128316   0.648   6.916   1.324
 9139SOL    HW228317   0.796   6.850   1.310
 9140SOL     OW28318   0.348   4.271   2.626
 9140SOL    HW128319   0.330   4.175   2.648
 9140SOL    HW228320   0.297   4.296   2.544
 9141SOL     OW28321   6.836   5.657   3.993
 9141SOL    HW128322   6.878   5.579   3.947
 9141SOL    HW228323   6.876   5.742   3.957
 9142SOL     OW28324   2.066   5.678   3.085
 9142SOL    HW128325   2.124   5.655   3.164
 9142SOL    HW228326   2.048   5.777   3.085
 9143SOL     OW28327   5.203   3.196   2.501
 9143SOL    HW128328   5.131   3.242   2.553
 9143SOL    HW228329   5.292   3.222   2.536
 9144SOL     OW28330   2.548   4.696   5.454
 9144SOL    HW128331   2.589   4.744   5.532
 9144SOL    HW228332   2.614   4.630   5.418
 9145SOL     OW28333   2.631   5.658   5.909
 9145SOL    HW128334   2.719   5.642   5.952
 9145SOL    HW228335   2.641   5.728   5.838
 9146SOL     OW28336   5.207   1.059   4.564
 9146SOL    HW128337   5.253   1.148   4.559
 9146SOL    HW228338   5.108   1.072   4.569
 9147SOL     OW28339   4.059   6.939   6.617
 9147SOL    HW128340   4.147   6.930   6.571
 9147SOL    HW228341   3.985   6.933   6.550
 9148SOL     OW28342   2.977   6.316   1.711
 9148SOL    HW128343   3.027   6.234   1.683
 9148SOL    HW228344   3.039   6.379   1.759
 9149SOL     OW28345   1.119   3.863   2.032
 9149SOL    HW128346   1.086   3.957   2.038
 9149SOL    HW228347   1.141   3.829   2.124
 9150SOL     OW28348   4.016   3.111   0.484
 9150SOL    HW128349   4.092   3.063   0.439
 9150SOL    HW228350   4.046   3.202   0.512
 9151SOL     OW28351   2.380   4.768   3.650
 9151SOL    HW128352   2.441   4.823   3.707
 9151SOL    HW228353   2.335   4.826   3.583
 9152SOL     OW28354   1.593   5.093   2.697
 9152SOL    HW128355   1.560   5.187   2.706
 9152SOL    HW228356   1.599   5.068   2.601
 9153SOL     OW28357   0.616   2.985   1.099
 9153SOL    HW128358   0.524   3.023   1.086
 9153SOL    HW228359   0.676   3.057   1.133
 9154SOL     OW28360   4.373   5.496   2.152
 9154SOL    HW128361   4.324   5.422   2.200
 9154SOL    HW228362   4.329   5.583   2.173
 9155SOL     OW28363   0.184   0.128   2.051
 9155SOL    HW128364   0.284   0.126   2.053
 9155SOL    HW228365   0.153   0.151   1.959
 9156SOL     OW28366   6.927   4.527   5.234
 9156SOL    HW128367   7.016   4.521   5.278
 9156SOL    HW228368   6.938   4.551   5.138
 9157SOL     OW28369   2.376   4.943   4.878
 9157SOL    HW128370   2.464   4.909   4.844
 9157SOL    HW228371   2.357   5.032   4.836
 9158SOL     OW28372   7.000   2.509   3.576
 9158SOL    HW128373   6.934   2.478   3.644
 9158SOL    HW228374   0.020   2.429   3.534
 9159SOL     OW28375   1.750   0.420   3.291
 9159SOL    HW128376   1.847   0.396   3.293
 9159SOL    HW228377   1.699   0.353   3.345
 9160SOL     OW28378   6.872   3.263   0.013
 9160SOL    HW128379   6.886   3.295   0.107
 9160SOL    HW228380   6.775   3.245   7.022
 9161SOL     OW28381   6.179   3.321   3.602
 9161SOL    HW128382   6.256   3.324   3.666
 9161SOL    HW228383   6.174   3.408   3.553
 9162SOL     OW28384   5.748   2.453   2.307
 9162SOL    HW128385   5.815   2.489   2.372
 9162SOL    HW228386   5.786   2.373   2.260
 9163SOL     OW28387   0.339   3.537   2.823
 9163SOL    HW128388   0.266   3.584   2.873
 9163SOL    HW228389   0.342   3.572   2.729
 9164SOL     OW28390   4.214   0.947   0.996
 9164SOL    HW128391   4.285   0.994   1.049
 9164SOL    HW228392   4.228   0.963   0.899
 9165SOL     OW28393   6.615   6.828   0.238
 9165SOL    HW128394   6.686   6.847   0.170
 9165SOL    HW228395   6.592   6.913   0.286
 9166SOL     OW28396   4.037   5.469   1.468
 9166SOL    HW128397   4.120   5.448   1.416
 9166SOL    HW228398   4.040   5.422   1.556
 9167SOL     OW28399   0.592   3.451   5.358
 9167SOL    HW128400   0.533   3.420   5.284
 9167SOL    HW228401   0.663   3.382   5.376
 9168SOL     OW28402   6.277   6.822   4.877
 9168SOL    HW128403   6.371   6.829   4.844
 9168SOL    HW228404   6.275   6.767   4.961
 9169SOL     OW28405   5.850   5.221   0.316
 9169SOL    HW128406   5.793   5.269   0.382
 9169SOL    HW228407   5.946   5.237   0.335
 9170SOL     OW28408   0.914   6.588   4.366
 9170SOL    HW128409   0.860   6.572   4.283
 9170SOL    HW228410   0.998   6.533   4.362
 9171SOL     OW28411   4.328   5.386   6.533
 9171SOL    HW128412   4.250   5.325   6.544
 9171SOL    HW228413   4.329   5.453   6.607
 9172SOL     OW28414   5.350   6.739   6.200
 9172SOL    HW128415   5.289   6.662   6.217
 9172SOL    HW228416   5.356   6.756   6.101
 9173SOL     OW28417   5.692   4.281   6.876
 9173SOL    HW128418   5.747   4.350   6.922
 9173SOL    HW228419   5.663   4.211   6.942
 9174SOL     OW28420   5.427   5.289   0.340
 9174SOL    HW128421   5.381   5.365   0.295
 9174SOL    HW228422   5.361   5.236   0.394
 9175SOL     OW28423   2.397   0.664   1.643
 9175SOL    HW128424   2.331   0.698   1.711
 9175SOL    HW228425   2.352   0.596   1.585
 9176SOL     OW28426   1.263   6.609   2.182
 9176SOL    HW128427   1.178   6.662   2.190
 9176SOL    HW228428   1.309   6.607   2.270
 9177SOL     OW28429   0.213   5.951   3.317
 9177SOL    HW128430   0.127   5.901   3.319
 9177SOL    HW228431   0.287   5.891   3.348
 9178SOL     OW28432   0.849   2.832   1.109
 9178SOL    HW128433   0.871   2.744   1.151
 9178SOL    HW228434   0.760   2.864   1.141
 9179SOL     OW28435   3.663   6.313   2.677
 9179SOL    HW128436   3.612   6.250   2.618
 9179SOL    HW228437   3.711   6.380   2.621
 9180SOL     OW28438   0.699   1.448   3.853
 9180SOL    HW128439   0.774   1.402   3.806
 9180SOL    HW228440   0.641   1.380   3.898
 9181SOL     OW28441   3.353   1.838   2.311
 9181SOL    HW128442   3.381   1.906   2.243
 9181SOL    HW228443   3.416   1.841   2.389
 9182SOL     OW28444   6.174   0.407   2.517
 9182SOL    HW128445   6.146   0.349   2.441
 9182SOL    HW228446   6.254   0.462   2.490
 9183SOL     OW28447   2.580   1.499   6.059
 9183SOL    HW128448   2.524   1.423   6.025
 9183SOL    HW228449   2.572   1.576   5.997
 9184SOL     OW28450   2.995   6.228   0.067
 9184SOL    HW128451   2.912   6.211   0.013
 9184SOL    HW228452   2.970   6.261   0.158
 9185SOL     OW28453   0.581   1.339   4.777
 9185SOL    HW128454   0.546   1.248   4.801
 9185SOL    HW228455   0.679   1.343   4.794
 9186SOL     OW28456   5.151   6.331   6.078
 9186SOL    HW128457   5.220   6.284   6.132
 9186SOL    HW228458   5.076   6.268   6.057
 9187SOL     OW28459   4.249   3.062   1.311
 9187SOL    HW128460   4.241   3.061   1.211
 9187SOL    HW228461   4.343   3.043   1.337
 9188SOL     OW28462   1.523   0.782   2.733
 9188SOL    HW128463   1.576   0.714   2.785
 9188SOL    HW228464   1.479   0.737   2.655
 9189SOL     OW28465   3.083   0.403   0.234
 9189SOL    HW128466   3.013   0.334   0.219
 9189SOL    HW228467   3.142   0.374   0.310
 9190SOL     OW28468   3.169   0.835   6.180
 9190SOL    HW128469   3.198   0.767   6.247
 9190SOL    HW228470   3.069   0.836   6.173
 9191SOL     OW28471   5.589   0.376   1.680
 9191SOL    HW128472   5.546   0.407   1.595
 9191SOL    HW228473   5.686   0.359   1.663
 9192SOL     OW28474   4.404   4.546   3.178
 9192SOL    HW128475   4.362   4.573   3.091
 9192SOL    HW228476   4.341   4.568   3.253
 9193SOL     OW28477   3.666   3.599   1.783
 9193SOL    HW128478   3.586   3.613   1.841
 9193SOL    HW228479   3.639   3.604   1.687
 9194SOL     OW28480   2.837   5.215   2.789
 9194SOL    HW128481   2.927   5.186   2.821
 9194SOL    HW228482   2.844   5.248   2.695
 9195SOL     OW28483   0.331   3.830   3.411
 9195SOL    HW128484   0.411   3.788   3.453
 9195SOL    HW228485   0.286   3.890   3.477
 9196SOL     OW28486   5.865   5.682   3.120
 9196SOL    HW128487   5.852   5.638   3.031
 9196SOL    HW228488   5.963   5.701   3.134
 9197SOL     OW28489   4.910   2.203   6.305
 9197SOL    HW128490   4.937   2.138   6.375
 9197SOL    HW228491   4.819   2.240   6.327
 9198SOL     OW28492   6.553   3.899   4.879
 9198SOL    HW128493   6.629   3.853   4.924
 9198SOL    HW228494   6.468   3.880   4.928
 9199SOL     OW28495   0.367   3.399   6.844
 9199SOL    HW128496   0.294   3.335   6.866
 9199SOL    HW228497   0.331   3.493   6.843
 9200SOL     OW28498   4.358   6.007   2.179
 9200SOL    HW128499   4.395   5.938   2.240
 9200SOL    HW228500   4.266   5.980   2.150
 9201SOL     OW28501   0.439   2.868   2.379
 9201SOL    HW128502   0.437   2.964   2.350
 9201SOL    HW228503   0.419   2.809   2.300
 9202SOL     OW28504   1.949   6.184   3.037
 9202SOL    HW128505   1.946   6.228   2.947
 9202SOL    HW228506   1.981   6.090   3.027
 9203SOL     OW28507   5.639   2.472   0.284
 9203SOL    HW128508   5.601   2.395   0.335
 9203SOL    HW228509   5.731   2.449   0.252
 9204SOL     OW28510   5.078   4.102   1.690
 9204SOL    HW128511   5.073   4.002   1.689
 9204SOL    HW228512   5.165   4.130   1.730
 9205SOL     OW28513   4.794   2.683   0.575
 9205SOL    HW128514   4.867   2.730   0.525
 9205SOL    HW228515   4.706   2.726   0.553
 9206SOL     OW28516   0.346   0.669   4.627
 9206SOL    HW128517   0.375   0.646   4.720
 9206SOL    HW228518   0.277   0.741   4.631
 9207SOL     OW28519   5.872   6.321   0.094
 9207SOL    HW128520   5.887   6.258   0.170
 9207SOL    HW228521   5.826   6.403   0.126
 9208SOL     OW28522   5.945   3.730   1.640
 9208SOL    HW128523   5.860   3.780   1.625
 9208SOL    HW228524   5.924   3.635   1.664
 9209SOL     OW28525   4.925   0.358   4.377
 9209SOL    HW128526   4.988   0.428   4.343
 9209SOL    HW228527   4.922   0.282   4.313
 9210SOL     OW28528   1.565   6.594   0.460
 9210SOL    HW128529   1.534   6.557   0.548
 9210SOL    HW228530   1.662   6.618   0.467
 9211SOL     OW28531   4.424   1.138   6.392
 9211SOL    HW128532   4.473   1.194   6.458
 9211SOL    HW228533   4.488   1.082   6.340
 9212SOL     OW28534   5.893   3.376   6.090
 9212SOL    HW128535   5.983   3.417   6.103
 9212SOL    HW228536   5.824   3.432   6.135
 9213SOL     OW28537   0.220   0.125   3.173
 9213SOL    HW128538   0.226   0.029   3.146
 9213SOL    HW228539   0.269   0.181   3.108
 9214SOL     OW28540   1.768   1.227   5.002
 9214SOL    HW128541   1.730   1.200   4.913
 9214SOL    HW228542   1.833   1.302   4.989
 9215SOL     OW28543   6.667   4.335   3.845
 9215SOL    HW128544   6.614   4.259   3.808
 9215SOL    HW228545   6.764   4.319   3.826
 9216SOL     OW28546   1.793   6.800   3.154
 9216SOL    HW128547   1.716   6.864   3.158
 9216SOL    HW228548   1.873   6.847   3.116
 9217SOL     OW28549   4.029   1.936   0.521
 9217SOL    HW128550   3.992   1.918   0.430
 9217SOL    HW228551   4.034   1.850   0.572
 9218SOL     OW28552   5.454   5.657   6.195
 9218SOL    HW128553   5.411   5.621   6.277
 9218SOL    HW228554   5.391   5.721   6.150
 9219SOL     OW28555   3.828   2.908   5.349
 9219SOL    HW128556   3.919   2.932   5.315
 9219SOL    HW228557   3.791   2.833   5.294
 9220SOL     OW28558   0.067   6.613   3.340
 9220SOL    HW128559   0.156   6.571   3.326
 9220SOL    HW228560   7.019   6.545   3.326
 9221SOL     OW28561   2.754   1.059   2.208
 9221SOL    HW128562   2.806   1.031   2.128
 9221SOL    HW228563   2.657   1.069   2.184
 9222SOL     OW28564   2.321   6.187   2.940
 9222SOL    HW128565   2.230   6.216   2.913
 9222SOL    HW228566   2.356   6.121   2.873
 9223SOL     OW28567   5.771   3.136   5.092
 9223SOL    HW128568   5.724   3.052   5.063
 9223SOL    HW228569   5.724   3.174   5.172
 9224SOL     OW28570   2.218   5.630   2.432
 9224SOL    HW128571   2.151   5.560   2.406
 9224SOL    HW228572   2.174   5.697   2.492
 9225SOL     OW28573   0.083   6.091   5.336
 9225SOL    HW128574   0.148   6.022   5.369
 9225SOL    HW228575   0.083   6.169   5.398
 9226SOL     OW28576   6.989   6.094   4.821
 9226SOL    HW128577   7.006   6.073   4.725
 9226SOL    HW228578   0.039   6.151   4.856
 9227SOL     OW28579   4.848   2.719   0.841
 9227SOL    HW128580   4.774   2.676   0.893
 9227SOL    HW228581   4.823   2.721   0.744
 9228SOL     OW28582   3.407   3.738   4.046
 9228SOL    HW128583   3.377   3.826   4.008
 9228SOL    HW228584   3.506   3.730   4.036
 9229SOL     OW28585   0.043   5.919   1.695
 9229SOL    HW128586   6.988   5.888   1.642
 9229SOL    HW228587   0.106   5.969   1.635
 9230SOL     OW28588   2.766   6.466   5.122
 9230SOL    HW128589   2.761   6.488   5.024
 9230SOL    HW228590   2.792   6.370   5.132
 9231SOL     OW28591   4.732   5.278   1.859
 9231SOL    HW128592   4.830   5.294   1.843
 9231SOL    HW228593   4.700   5.338   1.932
 9232SOL     OW28594   1.296   4.789   1.457
 9232SOL    HW128595   1.224   4.736   1.412
 9232SOL    HW228596   1.313   4.751   1.548
 9233SOL     OW28597   1.070   0.848   6.505
 9233SOL    HW128598   1.092   0.764   6.455
 9233SOL    HW228599   1.154   0.899   6.524
 9234SOL     OW28600   2.671   3.831   0.879
 9234SOL    HW128601   2.734   3.765   0.922
 9234SOL    HW228602   2.629   3.887   0.949
 9235SOL     OW28603   0.825   2.047   3.134
 9235SOL    HW128604   0.850   2.065   3.229
 9235SOL    HW228605   0.837   1.949   3.115
 9236SOL     OW28606   2.683   3.118   6.568
 9236SOL    HW128607   2.681   3.110   6.469
 9236SOL    HW228608   2.604   3.172   6.598
 9237SOL     OW28609   6.540   5.887   3.730
 9237SOL    HW128610   6.545   5.796   3.769
 9237SOL    HW228611   6.614   5.900   3.664
 9238SOL     OW28612   2.198   2.008   5.659
 9238SOL    HW128613   2.259   2.036   5.734
 9238SOL    HW228614   2.238   1.930   5.612
 9239SOL     OW28615   1.940   6.255   6.657
 9239SOL    HW128616   1.920   6.220   6.565
 9239SOL    HW228617   1.965   6.352   6.651
 9240SOL     OW28618   3.544   1.594   5.336
 9240SOL    HW128619   3.539   1.626   5.431
 9240SOL    HW228620   3.510   1.666   5.275
 9241SOL     OW28621   5.570   5.634   6.864
 9241SOL    HW128622   5.471   5.641   6.872
 9241SOL    HW228623   5.593   5.589   6.777
 9242SOL     OW28624   1.737   3.359   0.200
 9242SOL    HW128625   1.739   3.311   0.288
 9242SOL    HW228626   1.708   3.295   0.129
 9243SOL     OW28627   1.740   6.986   6.875
 9243SOL    HW128628   1.768   6.936   6.793
 9243SOL    HW228629   1.677   0.036   6.848
 9244SOL     OW28630   3.674   5.992   6.422
 9244SOL    HW128631   3.671   5.972   6.324
 9244SOL    HW228632   3.587   5.966   6.464
 9245SOL     OW28633   0.569   4.320   3.313
 9245SOL    HW128634   0.525   4.308   3.403
 9245SOL    HW228635   0.668   4.313   3.323
 9246SOL     OW28636   4.456   2.092   0.135
 9246SOL    HW128637   4.528   2.036   0.176
 9246SOL    HW228638   4.476   2.108   0.039
 9247SOL     OW28639   3.229   6.254   2.112
 9247SOL    HW128640   3.311   6.279   2.060
 9247SOL    HW228641   3.150   6.253   2.052
 9248SOL     OW28642   2.696   0.185   6.723
 9248SOL    HW128643   2.768   0.115   6.717
 9248SOL    HW228644   2.688   0.217   6.818
 9249SOL     OW28645   2.863   1.666   6.917
 9249SOL    HW128646   2.925   1.588   6.927
 9249SOL    HW228647   2.787   1.657   6.981
 9250SOL     OW28648   0.506   3.748   1.712
 9250SOL    HW128649   0.440   3.819   1.690
 9250SOL    HW228650   0.458   3.665   1.740
 9251SOL     OW28651   3.609   1.854   0.861
 9251SOL    HW128652   3.512   1.834   0.845
 9251SOL    HW228653   3.632   1.830   0.955
 9252SOL     OW28654   6.005   1.147   4.903
 9252SOL    HW128655   5.910   1.136   4.934
 9252SOL    HW228656   6.065   1.153   4.982
 9253SOL     OW28657   2.967   5.299   3.762
 9253SOL    HW128658   2.947   5.233   3.835
 9253SOL    HW228659   3.040   5.264   3.704
 9254SOL     OW28660   6.624   5.969   2.097
 9254SOL    HW128661   6.677   5.924   2.169
 9254SOL    HW228662   6.670   5.956   2.009
 9255SOL     OW28663   0.405   2.465   1.535
 9255SOL    HW128664   0.436   2.427   1.448
 9255SOL    HW228665   0.429   2.401   1.609
 9256SOL     OW28666   1.159   6.466   0.588
 9256SOL    HW128667   1.087   6.406   0.555
 9256SOL    HW228668   1.148   6.558   0.549
 9257SOL     OW28669   6.235   6.479   5.374
 9257SOL    HW128670   6.267   6.572   5.388
 9257SOL    HW228671   6.212   6.438   5.462
 9258SOL     OW28672   4.865   3.668   3.573
 9258SOL    HW128673   4.891   3.571   3.566
 9258SOL    HW228674   4.792   3.687   3.508
 9259SOL     OW28675   1.490   3.079   6.386
 9259SOL    HW128676   1.514   2.997   6.334
 9259SOL    HW228677   1.412   3.124   6.344
 9260SOL     OW28678   5.773   4.519   5.124
 9260SOL    HW128679   5.749   4.506   5.028
 9260SOL    HW228680   5.817   4.436   5.159
 9261SOL     OW28681   0.810   3.229   0.793
 9261SOL    HW128682   0.799   3.316   0.745
 9261SOL    HW228683   0.871   3.241   0.871
 9262SOL     OW28684   6.774   6.697   5.728
 9262SOL    HW128685   6.679   6.667   5.738
 9262SOL    HW228686   6.777   6.779   5.671
 9263SOL     OW28687   1.860   4.451   3.026
 9263SOL    HW128688   1.833   4.547   3.025
 9263SOL    HW228689   1.860   4.415   2.933
 9264SOL     OW28690   6.138   4.052   5.383
 9264SOL    HW128691   6.142   4.047   5.483
 9264SOL    HW228692   6.053   4.011   5.351
 9265SOL     OW28693   3.828   0.361   2.198
 9265SOL    HW128694   3.811   0.453   2.233
 9265SOL    HW228695   3.852   0.300   2.274
 9266SOL     OW28696   0.357   4.904   0.833
 9266SOL    HW128697   0.385   4.866   0.921
 9266SOL    HW228698   0.257   4.899   0.824
 9267SOL     OW28699   6.803   0.942   3.811
 9267SOL    HW128700   6.804   0.894   3.899
 9267SOL    HW228701   6.740   0.896   3.748
 9268SOL     OW28702   6.650   0.209   0.241
 9268SOL    HW128703   6.690   0.290   0.282
 9268SOL    HW228704   6.710   0.176   0.168
 9269SOL     OW28705   3.702   0.050   1.441
 9269SOL    HW128706   3.732   7.017   1.364
 9269SOL    HW228707   3.646   7.019   1.503
 9270SOL     OW28708   2.030   0.730   4.954
 9270SOL    HW128709   1.986   0.650   4.912
 9270SOL    HW228710   1.965   0.776   5.015
 9271SOL     OW28711   1.104   5.335   5.790
 9271SOL    HW128712   1.123   5.340   5.888
 9271SOL    HW228713   1.190   5.323   5.740
 9272SOL     OW28714   6.646   0.172   6.084
 9272SOL    HW128715   6.561   0.138   6.123
 9272SOL    HW228716   6.697   0.097   6.042
 9273SOL     OW28717   5.461   4.137   3.714
 9273SOL    HW128718   5.511   4.059   3.676
 9273SOL    HW228719   5.439   4.201   3.640
 9274SOL     OW28720   6.653   2.818   1.978
 9274SOL    HW128721   6.683   2.723   1.983
 9274SOL    HW228722   6.561   2.821   1.938
 9275SOL     OW28723   4.576   1.558   0.828
 9275SOL    HW128724   4.655   1.507   0.792
 9275SOL    HW228725   4.493   1.525   0.784
 9276SOL     OW28726   1.557   3.732   1.327
 9276SOL    HW128727   1.473   3.682   1.346
 9276SOL    HW228728   1.629   3.667   1.301
 9277SOL     OW28729   3.436   5.977   2.939
 9277SOL    HW128730   3.489   6.045   2.888
 9277SOL    HW228731   3.422   6.009   3.032
 9278SOL     OW28732   1.090   6.883   4.799
 9278SOL    HW128733   1.111   6.921   4.709
 9278SOL    HW228734   1.175   6.851   4.841
 9279SOL     OW28735   4.237   5.651   2.656
 9279SOL    HW128736   4.246   5.744   2.622
 9279SOL    HW228737   4.150   5.612   2.624
 9280SOL     OW28738   1.178   4.354   2.491
 9280SOL    HW128739   1.081   4.331   2.505
 9280SOL    HW228740   1.198   4.352   2.393
 9281SOL     OW28741   1.505   5.553   0.534
 9281SOL    HW128742   1.474   5.642   0.567
 9281SOL    HW228743   1.528   5.495   0.612
 9282SOL     OW28744   1.911   0.281   3.603
 9282SOL    HW128745   1.953   0.323   3.522
 9282SOL    HW228746   1.854   0.203   3.574
 9283SOL     OW28747   5.465   4.881   6.391
 9283SOL    HW128748   5.365   4.887   6.387
 9283SOL    HW228749   5.497   4.812   6.326
 9284SOL     OW28750   3.661   6.083   0.950
 9284SOL    HW128751   3.639   6.063   1.045
 9284SOL    HW228752   3.647   6.001   0.894
 9285SOL     OW28753   6.746   6.198   3.165
 9285SOL    HW128754   6.659   6.218   3.211
 9285SOL    HW228755   6.746   6.241   3.075
 9286SOL     OW28756   5.179   5.607   2.116
 9286SOL    HW128757   5.236   5.688   2.130
 9286SOL    HW228758   5.228   5.542   2.058
 9287SOL     OW28759   4.416   4.652   6.902
 9287SOL    HW128760   4.478   4.575   6.912
 9287SOL    HW228761   4.408   4.676   6.805
 9288SOL     OW28762   3.346   1.000   4.388
 9288SOL    HW128763   3.437   1.039   4.375
 9288SOL    HW228764   3.280   1.048   4.329
 9289SOL     OW28765   4.590   6.164   2.251
 9289SOL    HW128766   4.500   6.122   2.237
 9289SOL    HW228767   4.589   6.218   2.335
 9290SOL     OW28768   5.359   0.824   3.446
 9290SOL    HW128769   5.429   0.806   3.377
 9290SOL    HW228770   5.402   0.857   3.530
 9291SOL     OW28771   0.262   5.242   5.443
 9291SOL    HW128772   0.193   5.188   5.395
 9291SOL    HW228773   0.234   5.338   5.444
 9292SOL     OW28774   2.612   1.306   0.689
 9292SOL    HW128775   2.549   1.342   0.758
 9292SOL    HW228776   2.703   1.295   0.730
 9293SOL     OW28777   3.493   1.094   6.351
 9293SOL    HW128778   3.397   1.118   6.368
 9293SOL    HW228779   3.543   1.176   6.324
 9294SOL     OW28780   5.348   6.267   6.296
 9294SOL    HW128781   5.434   6.240   6.253
 9294SOL    HW228782   5.356   6.360   6.331
 9295SOL     OW28783   6.310   0.930   2.956
 9295SOL    HW128784   6.247   1.007   2.955
 9295SOL    HW228785   6.260   0.845   2.970
 9296SOL     OW28786   1.848   2.550   5.565
 9296SOL    HW128787   1.756   2.586   5.552
 9296SOL    HW228788   1.885   2.520   5.477
 9297SOL     OW28789   0.344   5.053   1.860
 9297SOL    HW128790   0.349   5.152   1.846
 9297SOL    HW228791   0.430   5.011   1.832
 9298SOL     OW28792   6.215   3.793   0.557
 9298SOL    HW128793   6.216   3.695   0.536
 9298SOL    HW228794   6.126   3.831   0.532
 9299SOL     OW28795   4.006   2.204   3.665
 9299SOL    HW128796   4.009   2.144   3.586
 9299SOL    HW228797   4.096   2.207   3.708
 9300SOL     OW28798   2.746   6.309   5.438
 9300SOL    HW128799   2.721   6.214   5.417
 9300SOL    HW228800   2.669   6.353   5.485
 9301SOL     OW28801   0.754   3.409   4.098
 9301SOL    HW128802   0.754   3.474   4.174
 9301SOL    HW228803   0.701   3.447   4.022
 9302SOL     OW28804   3.573   6.275   3.537
 9302SOL    HW128805   3.535   6.240   3.623
 9302SOL    HW228806   3.544   6.217   3.461
 9303SOL     OW28807   2.975   3.985   0.535
 9303SOL    HW128808   3.053   3.949   0.586
 9303SOL    HW228809   2.900   4.004   0.598
 9304SOL     OW28810   6.065   5.688   6.855
 9304SOL    HW128811   5.984   5.739   6.825
 9304SOL    HW228812   6.056   5.666   6.952
 9305SOL     OW28813   2.567   1.833   1.601
 9305SOL    HW128814   2.506   1.757   1.579
 9305SOL    HW228815   2.514   1.919   1.602
 9306SOL     OW28816   6.465   6.653   3.160
 9306SOL    HW128817   6.421   6.566   3.136
 9306SOL    HW228818   6.516   6.643   3.245
 9307SOL     OW28819   2.175   3.472   0.760
 9307SOL    HW128820   2.170   3.571   0.769
 9307SOL    HW228821   2.087   3.431   0.787
 9308SOL     OW28822   2.615   3.175   0.786
 9308SOL    HW128823   2.566   3.256   0.754
 9308SOL    HW228824   2.569   3.138   0.866
 9309SOL     OW28825   3.664   5.171   6.050
 9309SOL    HW128826   3.698   5.091   6.000
 9309SOL    HW228827   3.574   5.150   6.089
 9310SOL     OW28828   6.077   0.106   5.893
 9310SOL    HW128829   6.078   0.189   5.948
 9310SOL    HW228830   6.171   0.071   5.883
 9311SOL     OW28831   5.196   4.361   0.368
 9311SOL    HW128832   5.216   4.280   0.314
 9311SOL    HW228833   5.261   4.434   0.345
 9312SOL     OW28834   6.323   2.735   4.215
 9312SOL    HW128835   6.375   2.669   4.269
 9312SOL    HW228836   6.347   2.828   4.243
 9313SOL     OW28837   0.104   0.178   1.802
 9313SOL    HW128838   0.029   0.113   1.794
 9313SOL    HW228839   0.068   0.271   1.789
 9314SOL     OW28840   5.600   4.123   2.109
 9314SOL    HW128841   5.696   4.140   2.086
 9314SOL    HW228842   5.542   4.148   2.031
 9315SOL     OW28843   5.190   5.281   5.138
 9315SOL    HW128844   5.141   5.346   5.197
 9315SOL    HW228845   5.251   5.330   5.077
 9316SOL     OW28846   5.313   5.998   6.940
 9316SOL    HW128847   5.304   6.097   6.943
 9316SOL    HW228848   5.410   5.973   6.946
 9317SOL     OW28849   2.997   6.139   3.206
 9317SOL    HW128850   3.025   6.168   3.298
 9317SOL    HW228851   2.914   6.188   3.180
 9318SOL     OW28852   3.386   0.100   4.013
 9318SOL    HW128853   3.309   0.078   3.952
 9318SOL    HW228854   3.350   0.129   4.101
 9319SOL     OW28855   3.582   2.686   0.696
 9319SOL    HW128856   3.556   2.637   0.614
 9319SOL    HW228857   3.510   2.676   0.765
 9320SOL     OW28858   6.591   0.923   6.377
 9320SOL    HW128859   6.582   0.887   6.284
 9320SOL    HW228860   6.501   0.949   6.411
 9321SOL     OW28861   1.408   2.331   4.104
 9321SOL    HW128862   1.491   2.386   4.093
 9321SOL    HW228863   1.330   2.392   4.119
 9322SOL     OW28864   5.175   3.466   0.506
 9322SOL    HW128865   5.117   3.486   0.585
 9322SOL    HW228866   5.136   3.389   0.455
 9323SOL     OW28867   0.225   3.084   5.058
 9323SOL    HW128868   0.219   3.004   5.119
 9323SOL    HW228869   0.317   3.087   5.018
 9324SOL     OW28870   0.433   3.800   1.375
 9324SOL    HW128871   0.486   3.719   1.399
 9324SOL    HW228872   0.357   3.774   1.314
 9325SOL     OW28873   0.040   3.203   2.910
 9325SOL    HW128874   6.999   3.278   2.917
 9325SOL    HW228875   0.132   3.238   2.928
 9326SOL     OW28876   3.986   4.746   1.157
 9326SOL    HW128877   3.969   4.835   1.116
 9326SOL    HW228878   4.080   4.742   1.191
 9327SOL     OW28879   1.995   2.297   3.072
 9327SOL    HW128880   1.954   2.374   3.023
 9327SOL    HW228881   2.024   2.227   3.006
 9328SOL     OW28882   0.932   0.285   3.723
 9328SOL    HW128883   0.862   0.229   3.679
 9328SOL    HW228884   0.907   0.382   3.716
 9329SOL     OW28885   1.399   5.628   6.356
 9329SOL    HW128886   1.454   5.656   6.434
 9329SOL    HW228887   1.363   5.536   6.371
 9330SOL     OW28888   0.777   6.380   0.682
 9330SOL    HW128889   0.808   6.473   0.701
 9330SOL    HW228890   0.720   6.348   0.758
 9331SOL     OW28891   2.817   5.725   4.890
 9331SOL    HW128892   2.795   5.787   4.965
 9331SOL    HW228893   2.885   5.768   4.830
 9332SOL     OW28894   6.415   6.451   0.599
 9332SOL    HW128895   6.344   6.400   0.550
 9332SOL    HW228896   6.479   6.490   0.533
 9333SOL     OW28897   0.635   5.882   1.573
 9333SOL    HW128898   0.590   5.917   1.492
 9333SOL    HW228899   0.726   5.849   1.549
 9334SOL     OW28900   0.565   5.826   7.008
 9334SOL    HW128901   0.467   5.833   0.001
 9334SOL    HW228902   0.587   5.861   6.917
 9335SOL     OW28903   6.899   3.711   1.028
 9335SOL    HW128904   6.940   3.627   1.064
 9335SOL    HW228905   6.966   3.785   1.033
 9336SOL     OW28906   4.554   5.623   5.490
 9336SOL    HW128907   4.619   5.548   5.500
 9336SOL    HW228908   4.485   5.599   5.422
 9337SOL     OW28909   3.020   1.872   4.819
 9337SOL    HW128910   3.069   1.787   4.841
 9337SOL    HW228911   2.957   1.893   4.893
 9338SOL     OW28912   4.306   0.293   1.961
 9338SOL    HW128913   4.212   0.315   1.986
 9338SOL    HW228914   4.314   0.287   1.861
 9339SOL     OW28915   0.372   3.336   4.228
 9339SOL    HW128916   0.439   3.361   4.158
 9339SOL    HW228917   0.373   3.405   4.301
 9340SOL     OW28918   3.059   4.872   1.991
 9340SOL    HW128919   2.994   4.825   2.051
 9340SOL    HW228920   3.125   4.807   1.955
 9341SOL     OW28921   5.009   5.399   1.784
 9341SOL    HW128922   5.101   5.403   1.824
 9341SOL    HW228923   5.003   5.462   1.707
 9342SOL     OW28924   2.889   0.950   4.707
 9342SOL    HW128925   2.965   0.927   4.767
 9342SOL    HW228926   2.895   0.896   4.623
 9343SOL     OW28927   5.654   3.804   1.178
 9343SOL    HW128928   5.649   3.900   1.208
 9343SOL    HW228929   5.749   3.775   1.174
 9344SOL     OW28930   5.419   6.038   5.135
 9344SOL    HW128931   5.342   5.983   5.103
 9344SOL    HW228932   5.504   5.995   5.107
 9345SOL     OW28933   0.171   4.896   6.793
 9345SOL    HW128934   0.194   4.815   6.847
 9345SOL    HW228935   0.239   4.968   6.809
 9346SOL     OW28936   5.518   0.548   2.412
 9346SOL    HW128937   5.589   0.500   2.464
 9346SOL    HW228938   5.435   0.556   2.468
 9347SOL     OW28939   5.232   0.188   1.816
 9347SOL    HW128940   5.318   0.174   1.865
 9347SOL    HW228941   5.166   0.233   1.877
 9348SOL     OW28942   2.394   4.863   2.426
 9348SOL    HW128943   2.442   4.791   2.376
 9348SOL    HW228944   2.417   4.952   2.386
 9349SOL     OW28945   1.261   4.365   1.580
 9349SOL    HW128946   1.202   4.326   1.510
 9349SOL    HW228947   1.356   4.336   1.563
 9350SOL     OW28948   6.840   0.618   0.056
 9350SOL    HW128949   6.920   0.677   0.062
 9350SOL    HW228950   6.769   0.651   0.118
 9351SOL     OW28951   3.790   4.589   6.441
 9351SOL    HW128952   3.764   4.527   6.367
 9351SOL    HW228953   3.783   4.542   6.529
 9352SOL     OW28954   2.521   1.727   6.773
 9352SOL    HW128955   2.507   1.679   6.860
 9352SOL    HW228956   2.611   1.770   6.772
 9353SOL     OW28957   1.386   3.196   2.324
 9353SOL    HW128958   1.414   3.265   2.257
 9353SOL    HW228959   1.438   3.209   2.409
 9354SOL     OW28960   5.491   2.559   2.503
 9354SOL    HW128961   5.501   2.638   2.564
 9354SOL    HW228962   5.460   2.480   2.555
 9355SOL     OW28963   0.852   2.591   2.219
 9355SOL    HW128964   0.752   2.588   2.215
 9355SOL    HW228965   0.884   2.528   2.290
 9356SOL     OW28966   4.683   2.363   2.075
 9356SOL    HW128967   4.648   2.270   2.077
 9356SOL    HW228968   4.757   2.370   2.008
 9357SOL     OW28969   1.746   4.169   6.936
 9357SOL    HW128970   1.665   4.178   6.878
 9357SOL    HW228971   1.771   4.259   6.973
 9358SOL     OW28972   4.987   4.895   3.645
 9358SOL    HW128973   5.054   4.966   3.625
 9358SOL    HW228974   4.993   4.869   3.741
 9359SOL     OW28975   4.093   5.793   5.774
 9359SOL    HW128976   4.137   5.763   5.689
 9359SOL    HW228977   4.162   5.812   5.843
 9360SOL     OW28978   0.635   0.404   5.210
 9360SOL    HW128979   0.721   0.413   5.260
 9360SOL    HW228980   0.567   0.360   5.269
 9361SOL     OW28981   1.661   1.271   2.730
 9361SOL    HW128982   1.688   1.367   2.729
 9361SOL    HW228983   1.580   1.258   2.671
 9362SOL     OW28984   1.793   2.096   2.639
 9362SOL    HW128985   1.893   2.100   2.648
 9362SOL    HW228986   1.752   2.176   2.683
 9363SOL     OW28987   0.550   6.516   2.446
 9363SOL    HW128988   0.587   6.430   2.479
 9363SOL    HW228989   0.514   6.504   2.354
 9364SOL     OW28990   5.638   4.157   0.880
 9364SOL    HW128991   5.634   4.219   0.958
 9364SOL    HW228992   5.722   4.103   0.884
 9365SOL     OW28993   3.125   1.167   4.332
 9365SOL    HW128994   3.081   1.173   4.422
 9365SOL    HW228995   3.056   1.148   4.263
 9366SOL     OW28996   2.605   1.658   1.147
 9366SOL    HW128997   2.604   1.732   1.080
 9366SOL    HW228998   2.614   1.697   1.239
 9367SOL     OW28999   4.806   6.492   4.158
 9367SOL    HW129000   4.712   6.523   4.139
 9367SOL    HW229001   4.828   6.416   4.097
 9368SOL     OW29002   6.084   2.982   0.982
 9368SOL    HW129003   6.108   2.940   1.069
 9368SOL    HW229004   6.151   3.054   0.960
 9369SOL     OW29005   0.667   2.734   6.137
 9369SOL    HW129006   0.731   2.694   6.071
 9369SOL    HW229007   0.574   2.707   6.112
 9370SOL     OW29008   5.881   5.491   2.516
 9370SOL    HW129009   5.940   5.444   2.582
 9370SOL    HW229010   5.895   5.450   2.425
 9371SOL     OW29011   1.437   0.191   0.554
 9371SOL    HW129012   1.365   0.166   0.489
 9371SOL    HW229013   1.526   0.168   0.516
 9372SOL     OW29014   5.058   5.325   0.892
 9372SOL    HW129015   4.963   5.295   0.891
 9372SOL    HW229016   5.086   5.352   0.800
 9373SOL     OW29017   4.876   3.081   4.732
 9373SOL    HW129018   4.807   3.107   4.800
 9373SOL    HW229019   4.877   3.149   4.659
 9374SOL     OW29020   4.747   4.598   6.570
 9374SOL    HW129021   4.719   4.679   6.623
 9374SOL    HW229022   4.676   4.528   6.576
 9375SOL     OW29023   6.447   6.226   3.729
 9375SOL    HW129024   6.504   6.285   3.673
 9375SOL    HW229025   6.504   6.158   3.776
 9376SOL     OW29026   2.559   3.345   1.744
 9376SOL    HW129027   2.631   3.376   1.806
 9376SOL    HW229028   2.469   3.368   1.783
 9377SOL     OW29029   6.723   4.372   3.425
 9377SOL    HW129030   6.661   4.295   3.409
 9377SOL    HW229031   6.707   4.442   3.356
 9378SOL     OW29032   3.802   5.588   1.747
 9378SOL    HW129033   3.728   5.646   1.780
 9378SOL    HW229034   3.890   5.628   1.771
 9379SOL     OW29035   4.406   4.610   5.314
 9379SOL    HW129036   4.403   4.597   5.215
 9379SOL    HW229037   4.412   4.521   5.359
 9380SOL     OW29038   0.082   5.475   5.982
 9380SOL    HW129039   0.045   5.386   5.955
 9380SOL    HW229040   0.133   5.465   6.067
 9381SOL     OW29041   0.525   1.003   0.209
 9381SOL    HW129042   0.550   1.059   0.130
 9381SOL    HW229043   0.597   1.009   0.278
 9382SOL     OW29044   6.341   2.633   2.269
 9382SOL    HW129045   6.340   2.730   2.247
 9382SOL    HW229046   6.322   2.580   2.187
 9383SOL     OW29047   0.557   5.156   0.875
 9383SOL    HW129048   0.570   5.114   0.785
 9383SOL    HW229049   0.464   5.138   0.907
 9384SOL     OW29050   2.883   6.868   2.089
 9384SOL    HW129051   2.796   6.857   2.042
 9384SOL    HW229052   2.877   6.945   2.153
 9385SOL     OW29053   4.409   0.011   3.581
 9385SOL    HW129054   4.482   0.045   3.522
 9385SOL    HW229055   4.332   7.006   3.525
 9386SOL     OW29056   3.756   6.959   4.520
 9386SOL    HW129057   3.678   6.958   4.583
 9386SOL    HW229058   3.736   7.021   4.444
 9387SOL     OW29059   4.318   5.976   0.891
 9387SOL    HW129060   4.373   6.005   0.970
 9387SOL    HW229061   4.362   6.005   0.807
 9388SOL     OW29062   6.712   0.057   1.116
 9388SOL    HW129063   6.679   0.130   1.175
 9388SOL    HW229064   6.678   6.993   1.150
 9389SOL     OW29065   3.168   1.144   0.998
 9389SOL    HW129066   3.083   1.119   1.044
 9389SOL    HW229067   3.246   1.108   1.049
 9390SOL     OW29068   4.124   6.574   0.931
 9390SOL    HW129069   4.054   6.626   0.882
 9390SOL    HW229070   4.081   6.520   1.004
 9391SOL     OW29071   5.549   0.130   3.646
 9391SOL    HW129072   5.547   0.170   3.738
 9391SOL    HW229073   5.616   0.178   3.590
 9392SOL     OW29074   0.850   0.217   4.671
 9392SOL    HW129075   0.854   0.216   4.770
 9392SOL    HW229076   0.755   0.220   4.641
 9393SOL     OW29077   5.054   1.967   5.082
 9393SOL    HW129078   5.029   2.054   5.123
 9393SOL    HW229079   5.011   1.958   4.992
 9394SOL     OW29080   6.453   1.319   2.404
 9394SOL    HW129081   6.460   1.419   2.400
 9394SOL    HW229082   6.459   1.289   2.499
 9395SOL     OW29083   1.600   2.897   0.340
 9395SOL    HW129084   1.501   2.878   0.343
 9395SOL    HW229085   1.636   2.872   0.250
 9396SOL     OW29086   0.818   1.406   4.907
 9396SOL    HW129087   0.839   1.503   4.922
 9396SOL    HW229088   0.903   1.355   4.895
 9397SOL     OW29089   1.884   1.832   1.178
 9397SOL    HW129090   1.928   1.863   1.093
 9397SOL    HW229091   1.895   1.733   1.187
 9398SOL     OW29092   2.648   2.197   1.482
 9398SOL    HW129093   2.682   2.283   1.521
 9398SOL    HW229094   2.562   2.172   1.525
 9399SOL     OW29095   0.613   0.693   5.649
 9399SOL    HW129096   0.544   0.622   5.633
 9399SOL    HW229097   0.683   0.658   5.711
 9400SOL     OW29098   4.462   1.299   4.564
 9400SOL    HW129099   4.473   1.203   4.539
 9400SOL    HW229100   4.389   1.339   4.509
 9401SOL     OW29101   4.594   0.083   4.321
 9401SOL    HW129102   4.673   0.081   4.382
 9401SOL    HW229103   4.545   0.169   4.333
 9402SOL     OW29104   2.558   4.501   6.240
 9402SOL    HW129105   2.476   4.535   6.286
 9402SOL    HW229106   2.595   4.572   6.180
 9403SOL     OW29107   6.484   0.117   3.605
 9403SOL    HW129108   6.561   0.180   3.613
 9403SOL    HW229109   6.510   0.041   3.545
 9404SOL     OW29110   2.259   4.358   4.672
 9404SOL    HW129111   2.250   4.259   4.663
 9404SOL    HW229112   2.292   4.379   4.764
 9405SOL     OW29113   0.412   0.369   0.817
 9405SOL    HW129114   0.336   0.420   0.777
 9405SOL    HW229115   0.439   0.412   0.903
 9406SOL     OW29116   6.468   1.881   5.570
 9406SOL    HW129117   6.545   1.926   5.615
 9406SOL    HW229118   6.499   1.799   5.522
 9407SOL     OW29119   3.462   5.381   3.710
 9407SOL    HW129120   3.467   5.406   3.807
 9407SOL    HW229121   3.372   5.405   3.674
 9408SOL     OW29122   3.742   1.360   0.287
 9408SOL    HW129123   3.795   1.438   0.256
 9408SOL    HW229124   3.730   1.295   0.211
 9409SOL     OW29125   6.177   3.974   3.753
 9409SOL    HW129126   6.134   4.030   3.825
 9409SOL    HW229127   6.206   4.033   3.678
 9410SOL     OW29128   4.362   6.848   1.397
 9410SOL    HW129129   4.439   6.898   1.436
 9410SOL    HW229130   4.381   6.750   1.400
 9411SOL     OW29131   5.303   4.336   2.491
 9411SOL    HW129132   5.284   4.434   2.486
 9411SOL    HW229133   5.381   4.313   2.433
 9412SOL     OW29134   6.771   1.541   3.081
 9412SOL    HW129135   6.783   1.637   3.056
 9412SOL    HW229136   6.766   1.486   2.998
 9413SOL     OW29137   4.272   5.550   3.838
 9413SOL    HW129138   4.227   5.476   3.890
 9413SOL    HW229139   4.266   5.530   3.741
 9414SOL     OW29140   2.466   0.267   1.521
 9414SOL    HW129141   2.414   0.184   1.542
 9414SOL    HW229142   2.403   0.341   1.499
 9415SOL     OW29143   0.916   6.432   1.674
 9415SOL    HW129144   0.924   6.418   1.575
 9415SOL    HW229145   0.919   6.530   1.695
 9416SOL     OW29146   1.315   1.892   2.283
 9416SOL    HW129147   1.407   1.853   2.272
 9416SOL    HW229148   1.266   1.842   2.355
 9417SOL     OW29149   0.897   0.634   4.028
 9417SOL    HW129150   0.810   0.631   4.077
 9417SOL    HW229151   0.881   0.657   3.933
 9418SOL     OW29152   3.960   4.352   0.400
 9418SOL    HW129153   3.901   4.377   0.324
 9418SOL    HW229154   3.929   4.399   0.483
 9419SOL     OW29155   3.137   5.924   3.176
 9419SOL    HW129156   3.084   6.009   3.172
 9419SOL    HW229157   3.088   5.851   3.127
 9420SOL     OW29158   1.353   0.614   2.549
 9420SOL    HW129159   1.347   0.685   2.479
 9420SOL    HW229160   1.377   0.527   2.506
 9421SOL     OW29161   1.794   4.344   4.927
 9421SOL    HW129162   1.848   4.428   4.934
 9421SOL    HW229163   1.841   4.280   4.866
 9422SOL     OW29164   3.359   1.123   2.594
 9422SOL    HW129165   3.408   1.210   2.588
 9422SOL    HW229166   3.336   1.091   2.503
 9423SOL     OW29167   4.817   6.970   5.871
 9423SOL    HW129168   4.912   6.943   5.891
 9423SOL    HW229169   4.783   6.915   5.794
 9424SOL     OW29170   3.671   5.892   3.635
 9424SOL    HW129171   3.701   5.798   3.650
 9424SOL    HW229172   3.579   5.892   3.596
 9425SOL     OW29173   0.216   5.559   2.331
 9425SOL    HW129174   0.194   5.637   2.390
 9425SOL    HW229175   0.243   5.591   2.241
 9426SOL     OW29176   3.428   6.203   0.704
 9426SOL    HW129177   3.332   6.209   0.679
 9426SOL    HW229178   3.439   6.140   0.781
 9427SOL     OW29179   3.823   4.955   4.582
 9427SOL    HW129180   3.872   4.873   4.610
 9427SOL    HW229181   3.746   4.971   4.644
 9428SOL     OW29182   4.168   6.879   1.911
 9428SOL    HW129183   4.113   6.849   1.989
 9428SOL    HW229184   4.144   6.826   1.830
 9429SOL     OW29185   0.571   3.183   2.998
 9429SOL    HW129186   0.610   3.246   2.930
 9429SOL    HW229187   0.631   3.104   3.008
 9430SOL     OW29188   6.306   6.935   1.790
 9430SOL    HW129189   6.395   6.962   1.752
 9430SOL    HW229190   6.298   6.972   1.883
 9431SOL     OW29191   5.799   4.489   0.757
 9431SOL    HW129192   5.865   4.415   0.748
 9431SOL    HW229193   5.785   4.509   0.854
 9432SOL     OW29194   5.893   6.152   2.825
 9432SOL    HW129195   5.894   6.073   2.763
 9432SOL    HW229196   5.930   6.232   2.777
 9433SOL     OW29197   2.256   5.259   4.458
 9433SOL    HW129198   2.307   5.283   4.376
 9433SOL    HW229199   2.167   5.306   4.456
 9434SOL     OW29200   5.558   4.675   3.752
 9434SOL    HW129201   5.635   4.651   3.811
 9434SOL    HW229202   5.472   4.656   3.799
 9435SOL     OW29203   3.049   2.603   5.847
 9435SOL    HW129204   3.144   2.575   5.832
 9435SOL    HW229205   3.037   2.697   5.815
 9436SOL     OW29206   3.607   2.485   5.493
 9436SOL    HW129207   3.646   2.475   5.584
 9436SOL    HW229208   3.516   2.527   5.500
 9437SOL     OW29209   0.611   6.075   4.499
 9437SOL    HW129210   0.599   6.084   4.597
 9437SOL    HW229211   0.533   6.116   4.451
 9438SOL     OW29212   0.371   6.604   1.437
 9438SOL    HW129213   0.379   6.521   1.382
 9438SOL    HW229214   0.282   6.647   1.419
 9439SOL     OW29215   1.569   2.608   1.843
 9439SOL    HW129216   1.641   2.666   1.881
 9439SOL    HW229217   1.602   2.514   1.836
 9440SOL     OW29218   3.564   6.114   3.282
 9440SOL    HW129219   3.478   6.130   3.234
 9440SOL    HW229220   3.559   6.027   3.331
 9441SOL     OW29221   1.087   5.432   6.068
 9441SOL    HW129222   1.010   5.408   6.127
 9441SOL    HW229223   1.111   5.528   6.081
 9442SOL     OW29224   1.591   1.975   2.030
 9442SOL    HW129225   1.643   1.988   1.945
 9442SOL    HW229226   1.525   1.901   2.018
 9443SOL     OW29227   0.763   1.786   1.160
 9443SOL    HW129228   0.720   1.863   1.114
 9443SOL    HW229229   0.858   1.778   1.131
 9444SOL     OW29230   1.522   4.354   5.046
 9444SOL    HW129231   1.536   4.445   5.086
 9444SOL    HW229232   1.600   4.295   5.069
 9445SOL     OW29233   5.602   1.971   2.662
 9445SOL    HW129234   5.512   1.996   2.626
 9445SOL    HW229235   5.673   2.017   2.608
 9446SOL     OW29236   4.839   5.185   0.506
 9446SOL    HW129237   4.779   5.136   0.443
 9446SOL    HW229238   4.884   5.120   0.567
 9447SOL     OW29239   5.739   1.230   1.811
 9447SOL    HW129240   5.649   1.248   1.850
 9447SOL    HW229241   5.730   1.170   1.731
 9448SOL     OW29242   6.894   6.755   0.547
 9448SOL    HW129243   6.923   6.851   0.543
 9448SOL    HW229244   6.922   6.716   0.635
 9449SOL     OW29245   6.133   5.222   5.001
 9449SOL    HW129246   6.115   5.138   5.051
 9449SOL    HW229247   6.145   5.297   5.065
 9450SOL     OW29248   1.399   6.666   4.199
 9450SOL    HW129249   1.393   6.573   4.235
 9450SOL    HW229250   1.412   6.730   4.274
 9451SOL     OW29251   4.071   3.291   4.694
 9451SOL    HW129252   3.991   3.338   4.658
 9451SOL    HW229253   4.109   3.345   4.770
 9452SOL     OW29254   3.409   4.553   0.796
 9452SOL    HW129255   3.332   4.494   0.771
 9452SOL    HW229256   3.437   4.606   0.716
 9453SOL     OW29257   2.792   6.370   1.049
 9453SOL    HW129258   2.731   6.330   0.980
 9453SOL    HW229259   2.779   6.470   1.050
 9454SOL     OW29260   2.441   1.879   6.416
 9454SOL    HW129261   2.360   1.936   6.428
 9454SOL    HW229262   2.424   1.811   6.345
 9455SOL     OW29263   1.417   1.908   1.304
 9455SOL    HW129264   1.406   1.965   1.385
 9455SOL    HW229265   1.492   1.944   1.248
 9456SOL     OW29266   1.297   2.939   0.363
 9456SOL    HW129267   1.245   2.957   0.279
 9456SOL    HW229268   1.265   2.854   0.404
 9457SOL     OW29269   6.254   3.743   0.241
 9457SOL    HW129270   6.199   3.798   0.303
 9457SOL    HW229271   6.333   3.706   0.290
 9458SOL     OW29272   1.721   5.841   3.978
 9458SOL    HW129273   1.636   5.805   4.015
 9458SOL    HW229274   1.778   5.766   3.946
 9459SOL     OW29275   3.629   5.857   0.759
 9459SOL    HW129276   3.530   5.862   0.747
 9459SOL    HW229277   3.675   5.906   0.685
 9460SOL     OW29278   1.214   3.361   5.277
 9460SOL    HW129279   1.304   3.319   5.287
 9460SOL    HW229280   1.223   3.461   5.280
 9461SOL     OW29281   1.147   0.227   2.146
 9461SOL    HW129282   1.076   0.274   2.094
 9461SOL    HW229283   1.127   0.233   2.244
 9462SOL     OW29284   0.224   3.259   3.641
 9462SOL    HW129285   0.227   3.228   3.736
 9462SOL    HW229286   0.315   3.289   3.613
 9463SOL     OW29287   5.455   2.026   5.635
 9463SOL    HW129288   5.366   2.071   5.643
 9463SOL    HW229289   5.502   2.059   5.553
 9464SOL     OW29290   3.578   6.734   6.174
 9464SOL    HW129291   3.556   6.794   6.097
 9464SOL    HW229292   3.541   6.773   6.258
 9465SOL     OW29293   4.687   0.122   4.060
 9465SOL    HW129294   4.645   0.032   4.049
 9465SOL    HW229295   4.649   0.167   4.141
 9466SOL     OW29296   3.576   2.147   0.245
 9466SOL    HW129297   3.509   2.212   0.281
 9466SOL    HW229298   3.529   2.067   0.208
 9467SOL     OW29299   0.823   3.234   2.519
 9467SOL    HW129300   0.897   3.225   2.586
 9467SOL    HW229301   0.842   3.176   2.440
 9468SOL     OW29302   0.854   2.883   6.290
 9468SOL    HW129303   0.772   2.848   6.245
 9468SOL    HW229304   0.871   2.977   6.259
 9469SOL     OW29305   0.801   4.085   2.398
 9469SOL    HW129306   0.703   4.088   2.415
 9469SOL    HW229307   0.819   4.051   2.306
 9470SOL     OW29308   5.890   3.502   1.759
 9470SOL    HW129309   5.865   3.514   1.856
 9470SOL    HW229310   5.964   3.435   1.753
 9471SOL     OW29311   0.391   2.221   5.836
 9471SOL    HW129312   0.374   2.160   5.913
 9471SOL    HW229313   0.314   2.284   5.825
 9472SOL     OW29314   5.979   2.118   5.192
 9472SOL    HW129315   5.992   2.022   5.164
 9472SOL    HW229316   6.026   2.134   5.278
 9473SOL     OW29317   2.769   4.549   5.404
 9473SOL    HW129318   2.805   4.500   5.325
 9473SOL    HW229319   2.758   4.486   5.481
 9474SOL     OW29320   3.534   5.668   4.368
 9474SOL    HW129321   3.586   5.585   4.391
 9474SOL    HW229322   3.575   5.747   4.413
 9475SOL     OW29323   2.719   3.254   1.493
 9475SOL    HW129324   2.646   3.242   1.560
 9475SOL    HW229325   2.794   3.306   1.534
 9476SOL     OW29326   2.892   3.259   5.553
 9476SOL    HW129327   2.970   3.293   5.606
 9476SOL    HW229328   2.911   3.269   5.455
 9477SOL     OW29329   0.995   2.320   0.901
 9477SOL    HW129330   1.083   2.367   0.899
 9477SOL    HW229331   0.922   2.386   0.881
 9478SOL     OW29332   5.540   3.808   6.567
 9478SOL    HW129333   5.540   3.868   6.487
 9478SOL    HW229334   5.607   3.734   6.553
 9479SOL     OW29335   5.789   4.802   5.139
 9479SOL    HW129336   5.691   4.812   5.123
 9479SOL    HW229337   5.817   4.708   5.120
 9480SOL     OW29338   0.241   3.604   6.111
 9480SOL    HW129339   0.281   3.533   6.170
 9480SOL    HW229340   0.305   3.626   6.038
 9481SOL     OW29341   1.148   2.655   3.658
 9481SOL    HW129342   1.213   2.617   3.591
 9481SOL    HW229343   1.068   2.690   3.609
 9482SOL     OW29344   4.325   1.686   1.989
 9482SOL    HW129345   4.395   1.695   1.918
 9482SOL    HW229346   4.302   1.777   2.024
 9483SOL     OW29347   1.590   1.177   0.877
 9483SOL    HW129348   1.545   1.171   0.966
 9483SOL    HW229349   1.643   1.262   0.872
 9484SOL     OW29350   6.724   0.343   3.628
 9484SOL    HW129351   6.701   0.345   3.725
 9484SOL    HW229352   6.823   0.353   3.617
 9485SOL     OW29353   6.563   0.358   2.743
 9485SOL    HW129354   6.506   0.277   2.727
 9485SOL    HW229355   6.627   0.369   2.666
 9486SOL     OW29356   2.535   6.717   1.323
 9486SOL    HW129357   2.599   6.758   1.258
 9486SOL    HW229358   2.583   6.647   1.377
 9487SOL     OW29359   3.639   2.972   3.399
 9487SOL    HW129360   3.703   2.952   3.325
 9487SOL    HW229361   3.688   2.973   3.486
 9488SOL     OW29362   1.881   0.098   1.467
 9488SOL    HW129363   1.958   0.048   1.427
 9488SOL    HW229364   1.845   0.047   1.545
 9489SOL     OW29365   2.574   5.054   1.118
 9489SOL    HW129366   2.620   4.967   1.104
 9489SOL    HW229367   2.566   5.073   1.216
 9490SOL     OW29368   4.661   1.868   0.678
 9490SOL    HW129369   4.688   1.911   0.593
 9490SOL    HW229370   4.718   1.787   0.694
 9491SOL     OW29371   5.669   5.686   6.546
 9491SOL    HW129372   5.609   5.608   6.563
 9491SOL    HW229373   5.764   5.654   6.539
 9492SOL     OW29374   2.983   5.731   1.390
 9492SOL    HW129375   2.902   5.781   1.419
 9492SOL    HW229376   2.971   5.699   1.296
 9493SOL     OW29377   4.582   5.928   2.669
 9493SOL    HW129378   4.676   5.962   2.666
 9493SOL    HW229379   4.580   5.833   2.636
 9494SOL     OW29380   3.696   2.882   6.880
 9494SOL    HW129381   3.783   2.918   6.915
 9494SOL    HW229382   3.661   2.943   6.809
 9495SOL     OW29383   5.282   2.529   4.328
 9495SOL    HW129384   5.286   2.445   4.275
 9495SOL    HW229385   5.330   2.602   4.279
 9496SOL     OW29386   0.339   4.531   6.531
 9496SOL    HW129387   0.321   4.521   6.629
 9496SOL    HW229388   0.323   4.444   6.485
 9497SOL     OW29389   0.833   6.357   6.207
 9497SOL    HW129390   0.884   6.426   6.155
 9497SOL    HW229391   0.737   6.358   6.177
 9498SOL     OW29392   4.306   6.689   6.717
 9498SOL    HW129393   4.374   6.759   6.740
 9498SOL    HW229394   4.342   6.628   6.647
 9499SOL     OW29395   4.894   3.845   5.246
 9499SOL    HW129396   4.835   3.773   5.209
 9499SOL    HW229397   4.931   3.816   5.334
 9500SOL     OW29398   3.776   5.769   0.964
 9500SOL    HW129399   3.739   5.792   0.874
 9500SOL    HW229400   3.703   5.773   1.032
 9501SOL     OW29401   3.462   1.850   4.952
 9501SOL    HW129402   3.458   1.950   4.957
 9501SOL    HW229403   3.534   1.823   4.888
 9502SOL     OW29404   4.264   3.104   6.234
 9502SOL    HW129405   4.335   3.035   6.217
 9502SOL    HW229406   4.184   3.060   6.274
 9503SOL     OW29407   0.947   6.501   1.084
 9503SOL    HW129408   1.039   6.498   1.123
 9503SOL    HW229409   0.953   6.508   0.985
 9504SOL     OW29410   0.013   3.006   0.797
 9504SOL    HW129411   0.056   3.001   0.887
 9504SOL    HW229412   0.076   2.970   0.728
 9505SOL     OW29413   5.099   2.953   3.192
 9505SOL    HW129414   5.005   2.977   3.168
 9505SOL    HW229415   5.162   3.016   3.146
 9506SOL     OW29416   6.715   1.994   0.903
 9506SOL    HW129417   6.683   1.929   0.972
 9506SOL    HW229418   6.690   1.960   0.812
 9507SOL     OW29419   1.487   3.269   5.312
 9507SOL    HW129420   1.483   3.173   5.338
 9507SOL    HW229421   1.533   3.278   5.223
 9508SOL     OW29422   3.860   1.387   5.599
 9508SOL    HW129423   3.767   1.350   5.604
 9508SOL    HW229424   3.876   1.426   5.509
 9509SOL     OW29425   3.276   6.547   5.901
 9509SOL    HW129426   3.190   6.565   5.853
 9509SOL    HW229427   3.266   6.569   5.997
 9510SOL     OW29428   6.850   4.065   2.514
 9510SOL    HW129429   6.804   3.982   2.544
 9510SOL    HW229430   6.948   4.048   2.507
 9511SOL     OW29431   2.361   1.698   1.476
 9511SOL    HW129432   2.289   1.743   1.528
 9511SOL    HW229433   2.360   1.732   1.382
 9512SOL     OW29434   1.575   3.685   5.574
 9512SOL    HW129435   1.488   3.646   5.606
 9512SOL    HW229436   1.566   3.710   5.478
 9513SOL     OW29437   3.249   4.892   3.637
 9513SOL    HW129438   3.204   4.827   3.576
 9513SOL    HW229439   3.348   4.892   3.619
 9514SOL     OW29440   3.235   3.477   5.985
 9514SOL    HW129441   3.187   3.511   6.066
 9514SOL    HW229442   3.178   3.493   5.904
 9515SOL     OW29443   1.524   5.939   5.619
 9515SOL    HW129444   1.620   5.938   5.648
 9515SOL    HW229445   1.465   5.944   5.699
 9516SOL     OW29446   6.472   4.400   4.819
 9516SOL    HW129447   6.513   4.392   4.728
 9516SOL    HW229448   6.538   4.442   4.881
 9517SOL     OW29449   0.356   5.333   2.406
 9517SOL    HW129450   0.293   5.255   2.410
 9517SOL    HW229451   0.306   5.415   2.377
 9518SOL     OW29452   0.769   3.261   5.423
 9518SOL    HW129453   0.854   3.312   5.431
 9518SOL    HW229454   0.782   3.183   5.361
 9519SOL     OW29455   3.212   3.013   3.571
 9519SOL    HW129456   3.227   3.004   3.472
 9519SOL    HW229457   3.274   2.952   3.620
 9520SOL     OW29458   4.582   1.174   6.093
 9520SOL    HW129459   4.585   1.271   6.119
 9520SOL    HW229460   4.592   1.166   5.993
 9521SOL     OW29461   3.746   1.237   1.371
 9521SOL    HW129462   3.703   1.219   1.282
 9521SOL    HW229463   3.740   1.335   1.391
 9522SOL     OW29464   3.990   6.411   1.135
 9522SOL    HW129465   3.895   6.409   1.103
 9522SOL    HW229466   4.029   6.319   1.128
 9523SOL     OW29467   2.522   4.542   4.701
 9523SOL    HW129468   2.581   4.498   4.768
 9523SOL    HW229469   2.450   4.593   4.747
 9524SOL     OW29470   1.634   3.458   1.241
 9524SOL    HW129471   1.701   3.422   1.175
 9524SOL    HW229472   1.543   3.423   1.219
 9525SOL     OW29473   2.510   2.430   6.252
 9525SOL    HW129474   2.543   2.508   6.199
 9525SOL    HW229475   2.433   2.388   6.206
 9526SOL     OW29476   5.369   4.311   6.403
 9526SOL    HW129477   5.408   4.256   6.478
 9526SOL    HW229478   5.409   4.402   6.405
 9527SOL     OW29479   4.410   5.755   4.856
 9527SOL    HW129480   4.432   5.678   4.796
 9527SOL    HW229481   4.364   5.826   4.804
 9528SOL     OW29482   5.136   2.395   0.968
 9528SOL    HW129483   5.044   2.431   0.982
 9528SOL    HW229484   5.194   2.419   1.046
 9529SOL     OW29485   5.823   0.273   1.584
 9529SOL    HW129486   5.876   0.332   1.523
 9529SOL    HW229487   5.881   0.239   1.657
 9530SOL     OW29488   0.971   5.962   3.521
 9530SOL    HW129489   0.959   5.916   3.609
 9530SOL    HW229490   0.948   5.899   3.447
 9531SOL     OW29491   3.480   5.888   2.080
 9531SOL    HW129492   3.533   5.927   2.154
 9531SOL    HW229493   3.530   5.897   1.994
 9532SOL     OW29494   6.850   5.259   4.113
 9532SOL    HW129495   6.933   5.227   4.159
 9532SOL    HW229496   6.785   5.293   4.180
 9533SOL     OW29497   1.022   4.585   4.290
 9533SOL    HW129498   1.046   4.496   4.329
 9533SOL    HW229499   0.944   4.623   4.339
 9534SOL     OW29500   4.445   6.016   4.385
 9534SOL    HW129501   4.449   5.917   4.393
 9534SOL    HW229502   4.503   6.045   4.308
 9535SOL     OW29503   0.087   1.510   4.217
 9535SOL    HW129504   0.018   1.563   4.266
 9535SOL    HW229505   0.167   1.497   4.277
 9536SOL     OW29506   3.502   3.490   6.023
 9536SOL    HW129507   3.517   3.516   6.118
 9536SOL    HW229508   3.403   3.488   6.004
 9537SOL     OW29509   0.085   0.906   4.691
 9537SOL    HW129510   0.023   0.934   4.617
 9537SOL    HW229511   0.163   0.969   4.695
 9538SOL     OW29512   5.788   0.357   5.422
 9538SOL    HW129513   5.711   0.369   5.359
 9538SOL    HW229514   5.769   0.406   5.507
 9539SOL     OW29515   3.736   4.105   1.900
 9539SOL    HW129516   3.715   4.180   1.837
 9539SOL    HW229517   3.715   4.133   1.994
 9540SOL     OW29518   4.176   5.006   2.854
 9540SOL    HW129519   4.167   4.975   2.760
 9540SOL    HW229520   4.273   5.005   2.881
 9541SOL     OW29521   2.111   5.638   5.938
 9541SOL    HW129522   2.030   5.582   5.920
 9541SOL    HW229523   2.193   5.582   5.926
 9542SOL     OW29524   6.145   3.606   3.495
 9542SOL    HW129525   6.226   3.657   3.466
 9542SOL    HW229526   6.123   3.629   3.590
 9543SOL     OW29527   2.009   0.761   5.862
 9543SOL    HW129528   2.014   0.782   5.764
 9543SOL    HW229529   2.101   0.739   5.895
 9544SOL     OW29530   6.148   2.895   4.852
 9544SOL    HW129531   6.094   2.871   4.771
 9544SOL    HW229532   6.108   2.977   4.895
 9545SOL     OW29533   6.277   4.025   1.650
 9545SOL    HW129534   6.196   4.009   1.706
 9545SOL    HW229535   6.334   3.943   1.650
 9546SOL     OW29536   3.272   2.837   0.219
 9546SOL    HW129537   3.223   2.908   0.269
 9546SOL    HW229538   3.265   2.854   0.121
 9547SOL     OW29539   4.047   0.649   3.306
 9547SOL    HW129540   4.114   0.574   3.309
 9547SOL    HW229541   4.003   0.651   3.216
 9548SOL     OW29542   0.885   5.199   5.498
 9548SOL    HW129543   0.933   5.111   5.492
 9548SOL    HW229544   0.826   5.210   5.418
 9549SOL     OW29545   4.763   1.190   1.630
 9549SOL    HW129546   4.772   1.278   1.678
 9549SOL    HW229547   4.833   1.184   1.559
 9550SOL     OW29548   0.305   1.932   2.005
 9550SOL    HW129549   0.399   1.930   2.037
 9550SOL    HW229550   0.296   2.001   1.933
 9551SOL     OW29551   6.617   3.452   6.797
 9551SOL    HW129552   6.658   3.528   6.848
 9551SOL    HW229553   6.550   3.488   6.732
 9552SOL     OW29554   3.424   1.817   0.554
 9552SOL    HW129555   3.344   1.857   0.599
 9552SOL    HW229556   3.413   1.823   0.455
 9553SOL     OW29557   5.259   1.556   7.014
 9553SOL    HW129558   5.161   1.535   7.015
 9553SOL    HW229559   5.287   1.586   0.081
 9554SOL     OW29560   2.654   0.927   4.411
 9554SOL    HW129561   2.584   0.939   4.481
 9554SOL    HW229562   2.736   0.887   4.453
 9555SOL     OW29563   0.400   6.624   2.645
 9555SOL    HW129564   0.453   6.586   2.569
 9555SOL    HW229565   0.458   6.631   2.725
 9556SOL     OW29566   2.316   4.737   6.373
 9556SOL    HW129567   2.284   4.739   6.468
 9556SOL    HW229568   2.281   4.654   6.329
 9557SOL     OW29569   5.326   1.179   0.205
 9557SOL    HW129570   5.231   1.165   0.176
 9557SOL    HW229571   5.330   1.194   0.304
 9558SOL     OW29572   5.823   5.630   5.330
 9558SOL    HW129573   5.781   5.573   5.260
 9558SOL    HW229574   5.837   5.577   5.413
 9559SOL     OW29575   2.474   4.080   0.085
 9559SOL    HW129576   2.401   4.148   0.092
 9559SOL    HW229577   2.508   4.078   7.016
 9560SOL     OW29578   2.067   6.958   1.352
 9560SOL    HW129579   2.162   6.935   1.330
 9560SOL    HW229580   2.019   6.987   1.269
 9561SOL     OW29581   6.823   1.065   6.446
 9561SOL    HW129582   6.748   1.002   6.424
 9561SOL    HW229583   6.872   1.031   6.526
 9562SOL     OW29584   1.714   5.940   2.852
 9562SOL    HW129585   1.774   5.861   2.840
 9562SOL    HW229586   1.754   6.020   2.807
 9563SOL     OW29587   0.252   5.401   0.588
 9563SOL    HW129588   0.222   5.353   0.671
 9563SOL    HW229589   0.345   5.436   0.602
 9564SOL     OW29590   0.678   1.546   0.089
 9564SOL    HW129591   0.671   1.601   0.006
 9564SOL    HW229592   0.770   1.508   0.097
 9565SOL     OW29593   2.689   2.175   4.858
 9565SOL    HW129594   2.686   2.173   4.758
 9565SOL    HW229595   2.781   2.153   4.889
 9566SOL     OW29596   3.602   0.384   6.669
 9566SOL    HW129597   3.688   0.361   6.624
 9566SOL    HW229598   3.544   0.303   6.674
 9567SOL     OW29599   6.723   4.369   0.730
 9567SOL    HW129600   6.720   4.343   0.634
 9567SOL    HW229601   6.800   4.431   0.746
 9568SOL     OW29602   4.806   2.541   5.368
 9568SOL    HW129603   4.824   2.462   5.427
 9568SOL    HW229604   4.708   2.559   5.365
 9569SOL     OW29605   5.857   0.158   2.253
 9569SOL    HW129606   5.842   0.155   2.352
 9569SOL    HW229607   5.924   0.229   2.232
 9570SOL     OW29608   0.810   3.947   2.179
 9570SOL    HW129609   0.817   3.851   2.151
 9570SOL    HW229610   0.850   4.005   2.108
 9571SOL     OW29611   1.450   0.941   6.825
 9571SOL    HW129612   1.440   1.024   6.880
 9571SOL    HW229613   1.546   0.928   6.801
 9572SOL     OW29614   2.943   4.800   4.866
 9572SOL    HW129615   2.928   4.740   4.944
 9572SOL    HW229616   2.913   4.753   4.782
 9573SOL     OW29617   5.722   6.684   4.444
 9573SOL    HW129618   5.807   6.665   4.494
 9573SOL    HW229619   5.649   6.704   4.509
 9574SOL     OW29620   4.852   2.420   1.061
 9574SOL    HW129621   4.765   2.465   1.041
 9574SOL    HW229622   4.907   2.477   1.122
 9575SOL     OW29623   5.230   1.108   1.611
 9575SOL    HW129624   5.316   1.107   1.660
 9575SOL    HW229625   5.246   1.136   1.516
 9576SOL     OW29626   1.483   1.577   5.951
 9576SOL    HW129627   1.419   1.575   5.874
 9576SOL    HW229628   1.565   1.525   5.928
 9577SOL     OW29629   0.122   5.334   2.795
 9577SOL    HW129630   0.214   5.368   2.814
 9577SOL    HW229631   0.127   5.245   2.749
 9578SOL     OW29632   1.964   3.383   2.722
 9578SOL    HW129633   1.994   3.437   2.801
 9578SOL    HW229634   2.040   3.371   2.658
 9579SOL     OW29635   5.320   5.477   2.687
 9579SOL    HW129636   5.404   5.442   2.728
 9579SOL    HW229637   5.244   5.465   2.751
 9580SOL     OW29638   4.779   4.058   3.960
 9580SOL    HW129639   4.775   4.033   4.056
 9580SOL    HW229640   4.765   4.157   3.950
 9581SOL     OW29641   4.991   1.880   6.253
 9581SOL    HW129642   5.036   1.792   6.271
 9581SOL    HW229643   5.008   1.906   6.158
 9582SOL     OW29644   4.733   6.393   5.546
 9582SOL    HW129645   4.712   6.338   5.627
 9582SOL    HW229646   4.700   6.346   5.464
 9583SOL     OW29647   2.647   4.651   1.453
 9583SOL    HW129648   2.560   4.691   1.479
 9583SOL    HW229649   2.678   4.588   1.525
 9584SOL     OW29650   2.165   5.499   4.285
 9584SOL    HW129651   2.204   5.579   4.331
 9584SOL    HW229652   2.240   5.441   4.251
 9585SOL     OW29653   4.580   6.712   0.381
 9585SOL    HW129654   4.497   6.659   0.399
 9585SOL    HW229655   4.592   6.723   0.283
 9586SOL     OW29656   3.823   5.073   3.471
 9586SOL    HW129657   3.845   5.170   3.481
 9586SOL    HW229658   3.871   5.020   3.541
 9587SOL     OW29659   3.811   6.359   0.083
 9587SOL    HW129660   3.729   6.315   0.046
 9587SOL    HW229661   3.785   6.420   0.159
 9588SOL     OW29662   6.582   6.003   1.317
 9588SOL    HW129663   6.542   5.930   1.373
 9588SOL    HW229664   6.663   6.039   1.363
 9589SOL     OW29665   1.139   1.536   5.541
 9589SOL    HW129666   1.207   1.592   5.493
 9589SOL    HW229667   1.059   1.593   5.562
 9590SOL     OW29668   5.381   0.615   0.226
 9590SOL    HW129669   5.364   0.610   0.324
 9590SOL    HW229670   5.477   0.592   0.208
 9591SOL     OW29671   4.923   1.014   6.387
 9591SOL    HW129672   4.891   1.030   6.481
 9591SOL    HW229673   4.885   1.084   6.327
 9592SOL     OW29674   1.725   5.972   5.388
 9592SOL    HW129675   1.715   6.067   5.360
 9592SOL    HW229676   1.725   5.967   5.488
 9593SOL     OW29677   2.756   2.216   4.588
 9593SOL    HW129678   2.707   2.183   4.507
 9593SOL    HW229679   2.852   2.189   4.582
 9594SOL     OW29680   0.492   6.360   3.555
 9594SOL    HW129681   0.559   6.433   3.567
 9594SOL    HW229682   0.503   6.319   3.464
 9595SOL     OW29683   0.540   4.736   3.878
 9595SOL    HW129684   0.618   4.795   3.897
 9595SOL    HW229685   0.565   4.672   3.805
 9596SOL     OW29686   1.444   6.439   1.044
 9596SOL    HW129687   1.359   6.387   1.036
 9596SOL    HW229688   1.435   6.527   0.997
 9597SOL     OW29689   0.708   3.409   2.126
 9597SOL    HW129690   0.701   3.329   2.065
 9597SOL    HW229691   0.804   3.429   2.143
 9598SOL     OW29692   2.731   4.783   3.337
 9598SOL    HW129693   2.648   4.742   3.375
 9598SOL    HW229694   2.783   4.827   3.410
 9599SOL     OW29695   4.838   0.205   5.766
 9599SOL    HW129696   4.822   0.110   5.793
 9599SOL    HW229697   4.772   0.231   5.696
 9600SOL     OW29698   3.799   1.380   0.569
 9600SOL    HW129699   3.772   1.360   0.474
 9600SOL    HW229700   3.795   1.479   0.584
 9601SOL     OW29701   0.953   3.804   0.757
 9601SOL    HW129702   0.955   3.903   0.741
 9601SOL    HW229703   0.980   3.756   0.674
 9602SOL     OW29704   3.716   4.386   5.739
 9602SOL    HW129705   3.789   4.440   5.780
 9602SOL    HW229706   3.724   4.389   5.639
 9603SOL     OW29707   5.800   6.501   5.779
 9603SOL    HW129708   5.845   6.545   5.702
 9603SOL    HW229709   5.814   6.555   5.862
 9604SOL     OW29710   4.391   6.503   1.638
 9604SOL    HW129711   4.309   6.547   1.675
 9604SOL    HW229712   4.410   6.539   1.546
 9605SOL     OW29713   5.011   5.116   1.814
 9605SOL    HW129714   5.030   5.043   1.748
 9605SOL    HW229715   5.024   5.205   1.770
 9606SOL     OW29716   1.958   1.599   6.859
 9606SOL    HW129717   1.946   1.662   6.935
 9606SOL    HW229718   1.869   1.578   6.818
 9607SOL     OW29719   1.623   2.312   6.804
 9607SOL    HW129720   1.637   2.314   6.705
 9607SOL    HW229721   1.682   2.243   6.845
 9608SOL     OW29722   6.569   2.343   4.591
 9608SOL    HW129723   6.530   2.432   4.614
 9608SOL    HW229724   6.496   2.279   4.569
 9609SOL     OW29725   4.919   3.536   0.707
 9609SOL    HW129726   4.928   3.459   0.769
 9609SOL    HW229727   4.828   3.577   0.717
 9610SOL     OW29728   1.145   5.014   2.792
 9610SOL    HW129729   1.103   4.970   2.871
 9610SOL    HW229730   1.210   4.951   2.749
 9611SOL     OW29731   2.413   0.249   6.780
 9611SOL    HW129732   2.510   0.240   6.760
 9611SOL    HW229733   2.397   0.332   6.832
 9612SOL     OW29734   0.250   1.770   3.716
 9612SOL    HW129735   0.203   1.777   3.804
 9612SOL    HW229736   0.184   1.776   3.641
 9613SOL     OW29737   5.988   4.594   4.337
 9613SOL    HW129738   5.896   4.635   4.339
 9613SOL    HW229739   6.031   4.605   4.426
 9614SOL     OW29740   4.115   1.500   3.330
 9614SOL    HW129741   4.049   1.453   3.270
 9614SOL    HW229742   4.179   1.433   3.366
 9615SOL     OW29743   1.819   3.499   1.492
 9615SOL    HW129744   1.810   3.501   1.392
 9615SOL    HW229745   1.915   3.493   1.517
 9616SOL     OW29746   3.553   3.682   5.821
 9616SOL    HW129747   3.549   3.603   5.882
 9616SOL    HW229748   3.616   3.664   5.746
 9617SOL     OW29749   0.897   3.258   2.929
 9617SOL    HW129750   0.840   3.176   2.919
 9617SOL    HW229751   0.992   3.231   2.947
 9618SOL     OW29752   2.200   2.566   0.719
 9618SOL    HW129753   2.211   2.659   0.753
 9618SOL    HW229754   2.136   2.565   0.642
 9619SOL     OW29755   2.157   6.918   6.762
 9619SOL    HW129756   2.117   6.850   6.700
 9619SOL    HW229757   2.227   6.970   6.714
 9620SOL     OW29758   5.433   0.794   4.822
 9620SOL    HW129759   5.409   0.750   4.909
 9620SOL    HW229760   5.412   0.891   4.827
 9621SOL     OW29761   1.600   3.931   3.774
 9621SOL    HW129762   1.675   3.981   3.731
 9621SOL    HW229763   1.635   3.849   3.819
 9622SOL     OW29764   4.420   6.980   0.173
 9622SOL    HW129765   4.379   6.987   0.264
 9622SOL    HW229766   4.362   6.923   0.115
 9623SOL     OW29767   0.744   3.348   6.333
 9623SOL    HW129768   0.784   3.363   6.424
 9623SOL    HW229769   0.783   3.413   6.268
 9624SOL     OW29770   6.341   3.302   4.030
 9624SOL    HW129771   6.352   3.285   4.128
 9624SOL    HW229772   6.271   3.242   3.992
 9625SOL     OW29773   5.411   6.128   1.775
 9625SOL    HW129774   5.313   6.108   1.780
 9625SOL    HW229775   5.429   6.183   1.693
 9626SOL     OW29776   3.677   0.533   0.152
 9626SOL    HW129777   3.578   0.527   0.134
 9626SOL    HW229778   3.709   0.625   0.130
 9627SOL     OW29779   0.775   0.292   0.619
 9627SOL    HW129780   0.717   0.212   0.609
 9627SOL    HW229781   0.739   0.367   0.563
 9628SOL     OW29782   3.215   6.943   1.937
 9628SOL    HW129783   3.181   7.021   1.886
 9628SOL    HW229784   3.222   6.967   2.034
 9629SOL     OW29785   2.372   0.364   0.389
 9629SOL    HW129786   2.305   0.438   0.398
 9629SOL    HW229787   2.323   0.277   0.375
 9630SOL     OW29788   0.929   2.376   6.739
 9630SOL    HW129789   0.914   2.463   6.693
 9630SOL    HW229790   0.945   2.304   6.670
 9631SOL     OW29791   6.554   5.679   0.807
 9631SOL    HW129792   6.608   5.738   0.867
 9631SOL    HW229793   6.478   5.731   0.768
 9632SOL     OW29794   1.882   5.707   2.777
 9632SOL    HW129795   1.831   5.648   2.715
 9632SOL    HW229796   1.939   5.652   2.838
 9633SOL     OW29797   0.713   4.869   0.525
 9633SOL    HW129798   0.755   4.860   0.615
 9633SOL    HW229799   0.616   4.892   0.535
 9634SOL     OW29800   6.783   5.995   6.006
 9634SOL    HW129801   6.704   5.943   5.975
 9634SOL    HW229802   6.796   5.980   6.104
 9635SOL     OW29803   6.199   5.761   6.329
 9635SOL    HW129804   6.282   5.767   6.274
 9635SOL    HW229805   6.194   5.671   6.372
 9636SOL     OW29806   3.528   1.517   0.363
 9636SOL    HW129807   3.589   1.442   0.337
 9636SOL    HW229808   3.515   1.516   0.462
 9637SOL     OW29809   2.640   1.689   0.048
 9637SOL    HW129810   2.623   1.677   0.146
 9637SOL    HW229811   2.592   1.618   7.021
 9638SOL     OW29812   6.855   2.687   6.530
 9638SOL    HW129813   6.800   2.603   6.526
 9638SOL    HW229814   6.854   2.731   6.440
 9639SOL     OW29815   3.304   0.118   2.444
 9639SOL    HW129816   3.246   0.077   2.514
 9639SOL    HW229817   3.400   0.109   2.470
 9640SOL     OW29818   2.526   1.761   2.764
 9640SOL    HW129819   2.614   1.776   2.717
 9640SOL    HW229820   2.484   1.678   2.729
 9641SOL     OW29821   4.961   5.622   6.853
 9641SOL    HW129822   5.060   5.612   6.841
 9641SOL    HW229823   4.938   5.613   6.949
 9642SOL     OW29824   3.099   6.759   2.806
 9642SOL    HW129825   3.105   6.661   2.790
 9642SOL    HW229826   3.011   6.781   2.848
 9643SOL     OW29827   3.907   4.787   2.265
 9643SOL    HW129828   3.907   4.823   2.358
 9643SOL    HW229829   3.813   4.765   2.237
 9644SOL     OW29830   2.484   0.825   0.277
 9644SOL    HW129831   2.436   0.837   0.364
 9644SOL    HW229832   2.542   0.744   0.282
 9645SOL     OW29833   2.764   5.166   5.535
 9645SOL    HW129834   2.667   5.154   5.517
 9645SOL    HW229835   2.781   5.261   5.561
 9646SOL     OW29836   3.455   4.965   4.342
 9646SOL    HW129837   3.553   4.947   4.335
 9646SOL    HW229838   3.428   4.963   4.438
 9647SOL     OW29839   5.895   3.154   5.742
 9647SOL    HW129840   5.959   3.128   5.814
 9647SOL    HW229841   5.909   3.250   5.717
 9648SOL     OW29842   4.241   4.049   1.180
 9648SOL    HW129843   4.216   4.007   1.267
 9648SOL    HW229844   4.338   4.072   1.181
 9649SOL     OW29845   1.680   4.463   0.576
 9649SOL    HW129846   1.752   4.481   0.508
 9649SOL    HW229847   1.721   4.434   0.662
 9650SOL     OW29848   1.801   0.626   1.243
 9650SOL    HW129849   1.804   0.549   1.180
 9650SOL    HW229850   1.868   0.695   1.216
 9651SOL     OW29851   0.944   2.248   0.244
 9651SOL    HW129852   0.941   2.343   0.214
 9651SOL    HW229853   1.028   2.204   0.211
 9652SOL     OW29854   1.635   4.560   1.153
 9652SOL    HW129855   1.554   4.619   1.158
 9652SOL    HW229856   1.607   4.468   1.125
 9653SOL     OW29857   6.555   6.740   4.298
 9653SOL    HW129858   6.508   6.681   4.364
 9653SOL    HW229859   6.604   6.685   4.231
 9654SOL     OW29860   2.065   2.647   2.301
 9654SOL    HW129861   2.054   2.684   2.393
 9654SOL    HW229862   2.109   2.558   2.305
 9655SOL     OW29863   6.202   3.020   0.597
 9655SOL    HW129864   6.268   2.994   0.526
 9655SOL    HW229865   6.163   2.938   0.638
 9656SOL     OW29866   2.635   1.910   2.366
 9656SOL    HW129867   2.575   1.989   2.378
 9656SOL    HW229868   2.582   1.833   2.330
 9657SOL     OW29869   0.729   0.429   4.309
 9657SOL    HW129870   0.670   0.486   4.366
 9657SOL    HW229871   0.824   0.437   4.340
 9658SOL     OW29872   6.014   0.506   3.216
 9658SOL    HW129873   6.047   0.594   3.250
 9658SOL    HW229874   6.081   0.466   3.155
 9659SOL     OW29875   1.883   5.499   6.697
 9659SOL    HW129876   1.873   5.596   6.719
 9659SOL    HW229877   1.799   5.451   6.719
 9660SOL     OW29878   1.209   3.939   0.218
 9660SOL    HW129879   1.143   3.996   0.267
 9660SOL    HW229880   1.263   3.887   0.283
 9661SOL     OW29881   3.992   1.007   1.127
 9661SOL    HW129882   4.082   0.979   1.095
 9661SOL    HW229883   3.964   1.090   1.080
 9662SOL     OW29884   4.781   2.265   4.213
 9662SOL    HW129885   4.784   2.165   4.215
 9662SOL    HW229886   4.686   2.295   4.206
 9663SOL     OW29887   3.334   5.709   2.905
 9663SOL    HW129888   3.367   5.804   2.910
 9663SOL    HW229889   3.372   5.665   2.824
 9664SOL     OW29890   2.328   5.766   1.259
 9664SOL    HW129891   2.375   5.784   1.345
 9664SOL    HW229892   2.238   5.809   1.260
 9665SOL     OW29893   5.573   4.877   3.562
 9665SOL    HW129894   5.574   4.853   3.465
 9665SOL    HW229895   5.591   4.794   3.617
 9666SOL     OW29896   5.354   5.156   4.759
 9666SOL    HW129897   5.314   5.067   4.736
 9666SOL    HW229898   5.353   5.215   4.678
 9667SOL     OW29899   3.022   3.480   2.934
 9667SOL    HW129900   2.972   3.432   3.007
 9667SOL    HW229901   3.095   3.422   2.900
 9668SOL     OW29902   7.023   1.690   4.779
 9668SOL    HW129903   0.065   1.635   4.728
 9668SOL    HW229904   0.035   1.709   4.870
 9669SOL     OW29905   0.686   6.711   0.144
 9669SOL    HW129906   0.753   6.704   0.070
 9669SOL    HW229907   0.611   6.646   0.127
 9670SOL     OW29908   6.338   3.789   6.807
 9670SOL    HW129909   6.303   3.807   6.715
 9670SOL    HW229910   6.266   3.805   6.874
 9671SOL     OW29911   6.626   1.421   6.738
 9671SOL    HW129912   6.706   1.382   6.783
 9671SOL    HW229913   6.639   1.421   6.639
 9672SOL     OW29914   0.503   0.073   5.237
 9672SOL    HW129915   0.579   0.009   5.247
 9672SOL    HW229916   0.417   0.024   5.240
 9673SOL     OW29917   2.043   2.250   6.029
 9673SOL    HW129918   2.029   2.152   6.046
 9673SOL    HW229919   2.075   2.264   5.936
 9674SOL     OW29920   2.538   6.172   2.397
 9674SOL    HW129921   2.626   6.183   2.350
 9674SOL    HW229922   2.535   6.234   2.475
 9675SOL     OW29923   0.027   2.257   2.408
 9675SOL    HW129924   0.105   2.214   2.364
 9675SOL    HW229925   0.013   2.349   2.370
 9676SOL     OW29926   6.523   2.605   4.375
 9676SOL    HW129927   6.548   2.512   4.345
 9676SOL    HW229928   6.476   2.600   4.463
 9677SOL     OW29929   1.876   3.891   6.174
 9677SOL    HW129930   1.913   3.911   6.083
 9677SOL    HW229931   1.934   3.932   6.244
 9678SOL     OW29932   3.369   3.358   3.555
 9678SOL    HW129933   3.429   3.299   3.501
 9678SOL    HW229934   3.273   3.341   3.529
 9679SOL     OW29935   0.487   3.460   1.807
 9679SOL    HW129936   0.403   3.407   1.802
 9679SOL    HW229937   0.535   3.455   1.720
 9680SOL     OW29938   4.723   5.622   2.622
 9680SOL    HW129939   4.694   5.579   2.537
 9680SOL    HW229940   4.817   5.597   2.643
 9681SOL     OW29941   1.188   1.014   3.933
 9681SOL    HW129942   1.095   1.050   3.936
 9681SOL    HW229943   1.187   0.923   3.893
 9682SOL     OW29944   0.443   4.318   2.087
 9682SOL    HW129945   0.381   4.388   2.123
 9682SOL    HW229946   0.479   4.347   1.998
 9683SOL     OW29947   4.732   6.821   4.844
 9683SOL    HW129948   4.758   6.740   4.791
 9683SOL    HW229949   4.747   6.803   4.942
 9684SOL     OW29950   1.938   4.081   3.109
 9684SOL    HW129951   1.995   4.161   3.123
 9684SOL    HW229952   1.845   4.100   3.139
 9685SOL     OW29953   1.681   1.310   6.716
 9685SOL    HW129954   1.661   1.346   6.807
 9685SOL    HW229955   1.626   1.227   6.701
 9686SOL     OW29956   6.384   2.684   3.242
 9686SOL    HW129957   6.471   2.641   3.266
 9686SOL    HW229958   6.401   2.770   3.194
 9687SOL     OW29959   2.934   1.233   5.172
 9687SOL    HW129960   2.935   1.143   5.215
 9687SOL    HW229961   2.998   1.293   5.220
 9688SOL     OW29962   5.802   2.211   4.742
 9688SOL    HW129963   5.772   2.167   4.827
 9688SOL    HW229964   5.897   2.189   4.725
 9689SOL     OW29965   3.017   5.552   5.442
 9689SOL    HW129966   3.013   5.453   5.429
 9689SOL    HW229967   3.097   5.588   5.393
 9690SOL     OW29968   5.813   3.428   6.853
 9690SOL    HW129969   5.723   3.470   6.838
 9690SOL    HW229970   5.802   3.334   6.884
 9691SOL     OW29971   1.126   4.237   0.843
 9691SOL    HW129972   1.220   4.206   0.859
 9691SOL    HW229973   1.069   4.208   0.920
 9692SOL     OW29974   2.791   5.241   0.251
 9692SOL    HW129975   2.819   5.190   0.332
 9692SOL    HW229976   2.872   5.267   0.198
 9693SOL     OW29977   5.958   5.764   1.521
 9693SOL    HW129978   6.022   5.828   1.479
 9693SOL    HW229979   6.004   5.714   1.594
 9694SOL     OW29980   0.898   0.660   0.108
 9694SOL    HW129981   0.900   0.684   0.011
 9694SOL    HW229982   0.804   0.641   0.136
 9695SOL     OW29983   5.547   4.439   0.372
 9695SOL    HW129984   5.546   4.476   0.465
 9695SOL    HW229985   5.641   4.421   0.345
 9696SOL     OW29986   4.211   4.129   6.861
 9696SOL    HW129987   4.302   4.102   6.894
 9696SOL    HW229988   4.146   4.129   6.937
 9697SOL     OW29989   0.112   5.725   6.804
 9697SOL    HW129990   0.085   5.641   6.851
 9697SOL    HW229991   0.204   5.714   6.767
 9698SOL     OW29992   4.834   1.458   5.477
 9698SOL    HW129993   4.903   1.485   5.409
 9698SOL    HW229994   4.879   1.442   5.564
 9699SOL     OW29995   1.578   2.137   6.441
 9699SOL    HW129996   1.629   2.223   6.451
 9699SOL    HW229997   1.607   2.073   6.513
 9700SOL     OW29998   4.102   3.204   3.315
 9700SOL    HW129999   4.109   3.110   3.279
 9700SOL    HW230000   4.109   3.202   3.415
 9701SOL     OW30001   4.067   5.202   4.248
 9701SOL    HW130002   4.089   5.287   4.296
 9701SOL    HW230003   4.120   5.197   4.163
 9702SOL     OW30004   5.302   0.492   6.663
 9702SOL    HW130005   5.222   0.432   6.664
 9702SOL    HW230006   5.321   0.526   6.755
 9703SOL     OW30007   2.010   6.133   4.387
 9703SOL    HW130008   2.099   6.110   4.348
 9703SOL    HW230009   1.981   6.060   4.448
 9704SOL     OW30010   3.238   1.418   4.465
 9704SOL    HW130011   3.164   1.461   4.414
 9704SOL    HW230012   3.203   1.338   4.514
 9705SOL     OW30013   2.492   3.959   1.034
 9705SOL    HW130014   2.436   3.898   0.978
 9705SOL    HW230015   2.505   4.046   0.987
 9706SOL     OW30016   6.925   2.037   3.701
 9706SOL    HW130017   6.984   2.054   3.622
 9706SOL    HW230018   6.981   2.013   3.780
 9707SOL     OW30019   2.452   5.811   1.491
 9707SOL    HW130020   2.480   5.889   1.547
 9707SOL    HW230021   2.421   5.736   1.550
 9708SOL     OW30022   1.305   2.079   1.840
 9708SOL    HW130023   1.371   2.009   1.868
 9708SOL    HW230024   1.333   2.117   1.752
 9709SOL     OW30025   1.726   6.295   3.717
 9709SOL    HW130026   1.701   6.386   3.751
 9709SOL    HW230027   1.743   6.234   3.794
 9710SOL     OW30028   1.810   6.670   3.892
 9710SOL    HW130029   1.767   6.739   3.951
 9710SOL    HW230030   1.909   6.680   3.895
 9711SOL     OW30031   2.017   2.900   6.515
 9711SOL    HW130032   1.985   2.984   6.471
 9711SOL    HW230033   2.021   2.826   6.448
 9712SOL     OW30034   5.271   4.064   4.415
 9712SOL    HW130035   5.216   4.026   4.490
 9712SOL    HW230036   5.211   4.104   4.346
 9713SOL     OW30037   0.914   5.622   3.615
 9713SOL    HW130038   0.885   5.693   3.680
 9713SOL    HW230039   0.903   5.656   3.522
 9714SOL     OW30040   2.413   1.823   2.006
 9714SOL    HW130041   2.425   1.761   2.084
 9714SOL    HW230042   2.329   1.800   1.958
 9715SOL     OW30043   5.909   5.377   5.841
 9715SOL    HW130044   5.891   5.309   5.770
 9715SOL    HW230045   5.916   5.332   5.930
 9716SOL     OW30046   3.506   0.646   5.791
 9716SOL    HW130047   3.443   0.673   5.719
 9716SOL    HW230048   3.455   0.623   5.874
 9717SOL     OW30049   6.081   5.308   3.453
 9717SOL    HW130050   6.149   5.374   3.422
 9717SOL    HW230051   6.124   5.241   3.514
 9718SOL     OW30052   5.971   2.776   2.394
 9718SOL    HW130053   5.915   2.856   2.415
 9718SOL    HW230054   6.067   2.803   2.393
 9719SOL     OW30055   0.354   1.130   7.019
 9719SOL    HW130056   0.358   1.166   6.926
 9719SOL    HW230057   0.333   1.204   0.059
 9720SOL     OW30058   0.345   1.349   0.739
 9720SOL    HW130059   0.267   1.316   0.793
 9720SOL    HW230060   0.413   1.276   0.732
 9721SOL     OW30061   0.885   2.425   3.664
 9721SOL    HW130062   0.838   2.348   3.620
 9721SOL    HW230063   0.983   2.406   3.669
 9722SOL     OW30064   6.972   0.158   4.766
 9722SOL    HW130065   6.929   0.197   4.684
 9722SOL    HW230066   0.012   0.087   4.738
 9723SOL     OW30067   6.222   0.584   4.745
 9723SOL    HW130068   6.241   0.534   4.830
 9723SOL    HW230069   6.125   0.576   4.722
 9724SOL     OW30070   4.048   2.463   1.343
 9724SOL    HW130071   4.042   2.481   1.245
 9724SOL    HW230072   4.005   2.375   1.363
 9725SOL     OW30073   4.378   2.936   5.835
 9725SOL    HW130074   4.410   2.984   5.917
 9725SOL    HW230075   4.279   2.947   5.826
 9726SOL     OW30076   5.302   5.955   5.553
 9726SOL    HW130077   5.248   5.985   5.632
 9726SOL    HW230078   5.283   6.015   5.475
 9727SOL     OW30079   0.437   0.886   6.592
 9727SOL    HW130080   0.425   0.791   6.619
 9727SOL    HW230081   0.392   0.946   6.658
 9728SOL     OW30082   2.555   5.586   6.169
 9728SOL    HW130083   2.584   5.578   6.074
 9728SOL    HW230084   2.492   5.511   6.191
 9729SOL     OW30085   3.419   5.842   2.417
 9729SOL    HW130086   3.405   5.914   2.349
 9729SOL    HW230087   3.430   5.754   2.370
 9730SOL     OW30088   5.048   3.742   2.580
 9730SOL    HW130089   5.028   3.672   2.649
 9730SOL    HW230090   4.984   3.818   2.590
 9731SOL     OW30091   5.433   4.298   0.747
 9731SOL    HW130092   5.339   4.272   0.767
 9731SOL    HW230093   5.494   4.254   0.814
 9732SOL     OW30094   5.345   6.208   4.377
 9732SOL    HW130095   5.291   6.145   4.434
 9732SOL    HW230096   5.369   6.289   4.430
 9733SOL     OW30097   4.629   4.290   4.076
 9733SOL    HW130098   4.602   4.203   4.115
 9733SOL    HW230099   4.594   4.365   4.133
 9734SOL     OW30100   6.362   2.479   6.077
 9734SOL    HW130101   6.354   2.381   6.098
 9734SOL    HW230102   6.278   2.511   6.034
 9735SOL     OW30103   3.563   4.831   1.319
 9735SOL    HW130104   3.486   4.789   1.368
 9735SOL    HW230105   3.606   4.762   1.260
 9736SOL     OW30106   3.888   2.063   2.135
 9736SOL    HW130107   3.817   2.123   2.100
 9736SOL    HW230108   3.964   2.118   2.170
 9737SOL     OW30109   5.003   1.479   4.579
 9737SOL    HW130110   4.996   1.566   4.628
 9737SOL    HW230111   5.012   1.497   4.481
 9738SOL     OW30112   2.571   0.111   2.204
 9738SOL    HW130113   2.516   0.194   2.205
 9738SOL    HW230114   2.591   0.085   2.110
 9739SOL     OW30115   5.099   4.536   2.636
 9739SOL    HW130116   5.101   4.636   2.639
 9739SOL    HW230117   5.056   4.500   2.718
 9740SOL     OW30118   6.507   3.327   3.500
 9740SOL    HW130119   6.465   3.249   3.454
 9740SOL    HW230120   6.606   3.314   3.505
 9741SOL     OW30121   3.715   1.594   3.021
 9741SOL    HW130122   3.713   1.617   3.118
 9741SOL    HW230123   3.625   1.562   2.992
 9742SOL     OW30124   3.778   1.309   2.504
 9742SOL    HW130125   3.697   1.310   2.563
 9742SOL    HW230126   3.816   1.216   2.502
 9743SOL     OW30127   1.790   1.205   6.151
 9743SOL    HW130128   1.756   1.226   6.242
 9743SOL    HW230129   1.713   1.193   6.088
 9744SOL     OW30130   2.326   0.239   0.885
 9744SOL    HW130131   2.245   0.239   0.825
 9744SOL    HW230132   2.379   0.155   0.868
 9745SOL     OW30133   0.579   1.073   3.919
 9745SOL    HW130134   0.559   1.164   3.955
 9745SOL    HW230135   0.651   1.031   3.973
 9746SOL     OW30136   5.945   6.616   4.607
 9746SOL    HW130137   6.024   6.640   4.551
 9746SOL    HW230138   5.952   6.520   4.635
 9747SOL     OW30139   0.164   0.381   5.378
 9747SOL    HW130140   0.174   0.464   5.433
 9747SOL    HW230141   0.098   0.397   5.305
 9748SOL     OW30142   1.231   4.717   4.533
 9748SOL    HW130143   1.239   4.815   4.547
 9748SOL    HW230144   1.165   4.699   4.460
 9749SOL     OW30145   0.804   5.409   4.968
 9749SOL    HW130146   0.799   5.486   4.904
 9749SOL    HW230147   0.792   5.442   5.061
 9750SOL     OW30148   2.812   5.662   2.358
 9750SOL    HW130149   2.911   5.671   2.350
 9750SOL    HW230150   2.787   5.650   2.453
 9751SOL     OW30151   1.267   1.741   0.777
 9751SOL    HW130152   1.339   1.678   0.806
 9751SOL    HW230153   1.308   1.826   0.745
 9752SOL     OW30154   2.946   6.824   6.008
 9752SOL    HW130155   3.007   6.762   6.058
 9752SOL    HW230156   2.907   6.776   5.929
 9753SOL     OW30157   0.318   0.610   6.660
 9753SOL    HW130158   0.270   0.529   6.695
 9753SOL    HW230159   0.343   0.594   6.565
 9754SOL     OW30160   0.139   2.944   6.240
 9754SOL    HW130161   0.205   2.884   6.285
 9754SOL    HW230162   0.050   2.933   6.282
 9755SOL     OW30163   4.310   5.981   4.692
 9755SOL    HW130164   4.367   6.025   4.623
 9755SOL    HW230165   4.309   6.037   4.775
 9756SOL     OW30166   4.405   2.767   6.717
 9756SOL    HW130167   4.329   2.709   6.744
 9756SOL    HW230168   4.487   2.710   6.703
 9757SOL     OW30169   5.398   0.459   4.157
 9757SOL    HW130170   5.388   0.478   4.254
 9757SOL    HW230171   5.333   0.514   4.105
 9758SOL     OW30172   3.487   0.247   0.252
 9758SOL    HW130173   3.456   0.168   0.199
 9758SOL    HW230174   3.526   0.215   0.339
 9759SOL     OW30175   2.566   6.471   1.482
 9759SOL    HW130176   2.507   6.393   1.462
 9759SOL    HW230177   2.529   6.523   1.559
 9760SOL     OW30178   4.806   3.725   6.207
 9760SOL    HW130179   4.861   3.802   6.238
 9760SOL    HW230180   4.783   3.737   6.111
 9761SOL     OW30181   5.300   5.543   3.053
 9761SOL    HW130182   5.344   5.540   3.143
 9761SOL    HW230183   5.202   5.563   3.065
 9762SOL     OW30184   3.303   0.940   2.062
 9762SOL    HW130185   3.297   0.892   2.150
 9762SOL    HW230186   3.353   1.026   2.074
 9763SOL     OW30187   2.328   2.156   1.824
 9763SOL    HW130188   2.410   2.142   1.879
 9763SOL    HW230189   2.252   2.105   1.864
 9764SOL     OW30190   1.345   3.073   4.377
 9764SOL    HW130191   1.374   3.168   4.369
 9764SOL    HW230192   1.384   3.034   4.460
 9765SOL     OW30193   0.116   1.863   5.634
 9765SOL    HW130194   0.024   1.829   5.651
 9765SOL    HW230195   0.122   1.898   5.540
 9766SOL     OW30196   2.907   0.076   1.806
 9766SOL    HW130197   2.866   0.157   1.765
 9766SOL    HW230198   3.004   0.093   1.825
 9767SOL     OW30199   4.478   0.658   4.931
 9767SOL    HW130200   4.463   0.754   4.905
 9767SOL    HW230201   4.501   0.653   5.028
 9768SOL     OW30202   4.394   1.844   2.994
 9768SOL    HW130203   4.428   1.812   2.905
 9768SOL    HW230204   4.317   1.906   2.979
 9769SOL     OW30205   0.141   2.743   0.156
 9769SOL    HW130206   0.059   2.802   0.160
 9769SOL    HW230207   0.122   2.656   0.202
 9770SOL     OW30208   0.469   3.110   4.903
 9770SOL    HW130209   0.505   3.203   4.893
 9770SOL    HW230210   0.472   3.063   4.815
 9771SOL     OW30211   1.909   6.715   4.244
 9771SOL    HW130212   1.844   6.788   4.222
 9771SOL    HW230213   1.970   6.745   4.317
 9772SOL     OW30214   5.715   6.311   1.068
 9772SOL    HW130215   5.779   6.376   1.108
 9772SOL    HW230216   5.653   6.359   1.006
 9773SOL     OW30217   4.762   5.053   3.373
 9773SOL    HW130218   4.788   4.956   3.376
 9773SOL    HW230219   4.828   5.104   3.318
 9774SOL     OW30220   6.075   5.992   3.842
 9774SOL    HW130221   6.013   5.928   3.887
 9774SOL    HW230222   6.041   6.013   3.751
 9775SOL     OW30223   2.990   1.401   3.992
 9775SOL    HW130224   3.068   1.444   4.039
 9775SOL    HW230225   2.993   1.302   4.007
 9776SOL     OW30226   0.583   4.456   4.532
 9776SOL    HW130227   0.510   4.388   4.520
 9776SOL    HW230228   0.592   4.509   4.448
 9777SOL     OW30229   5.256   5.504   6.378
 9777SOL    HW130230   5.202   5.486   6.295
 9777SOL    HW230231   5.265   5.419   6.430
 9778SOL     OW30232   3.745   0.088   4.305
 9778SOL    HW130233   3.736   0.058   4.210
 9778SOL    HW230234   3.727   0.186   4.310
 9779SOL     OW30235   3.006   2.273   6.969
 9779SOL    HW130236   3.095   2.247   7.006
 9779SOL    HW230237   2.940   2.200   6.989
 9780SOL     OW30238   1.425   3.002   1.238
 9780SOL    HW130239   1.504   2.942   1.243
 9780SOL    HW230240   1.367   2.987   1.318
 9781SOL     OW30241   6.886   0.231   4.433
 9781SOL    HW130242   6.899   0.138   4.469
 9781SOL    HW230243   6.888   0.227   4.333
 9782SOL     OW30244   5.511   0.112   0.201
 9782SOL    HW130245   5.474   0.197   0.164
 9782SOL    HW230246   5.445   0.070   0.263
 9783SOL     OW30247   6.133   6.996   4.222
 9783SOL    HW130248   6.094   6.928   4.160
 9783SOL    HW230249   6.196   6.952   4.285
 9784SOL     OW30250   4.843   0.845   5.013
 9784SOL    HW130251   4.844   0.787   4.931
 9784SOL    HW230252   4.908   0.808   5.079
 9785SOL     OW30253   1.251   2.513   0.973
 9785SOL    HW130254   1.288   2.420   0.969
 9785SOL    HW230255   1.288   2.559   1.054
 9786SOL     OW30256   1.030   6.935   3.344
 9786SOL    HW130257   0.985   6.933   3.433
 9786SOL    HW230258   1.089   7.015   3.338
 9787SOL     OW30259   5.814   4.047   1.184
 9787SOL    HW130260   5.804   4.063   1.282
 9787SOL    HW230261   5.852   3.956   1.168
 9788SOL     OW30262   6.804   0.142   6.338
 9788SOL    HW130263   6.737   0.161   6.266
 9788SOL    HW230264   6.884   0.097   6.299
 9789SOL     OW30265   2.344   4.562   4.151
 9789SOL    HW130266   2.274   4.525   4.090
 9789SOL    HW230267   2.354   4.501   4.230
 9790SOL     OW30268   0.513   1.414   3.324
 9790SOL    HW130269   0.601   1.375   3.296
 9790SOL    HW230270   0.476   1.468   3.250
 9791SOL     OW30271   1.469   2.346   0.627
 9791SOL    HW130272   1.425   2.348   0.717
 9791SOL    HW230273   1.553   2.292   0.632
 9792SOL     OW30274   4.865   5.809   2.871
 9792SOL    HW130275   4.862   5.727   2.813
 9792SOL    HW230276   4.897   5.887   2.816
 9793SOL     OW30277   4.850   5.749   1.744
 9793SOL    HW130278   4.894   5.667   1.706
 9793SOL    HW230279   4.832   5.735   1.841
 9794SOL     OW30280   3.541   4.483   0.374
 9794SOL    HW130281   3.586   4.459   0.459
 9794SOL    HW230282   3.521   4.581   0.372
 9795SOL     OW30283   2.013   5.286   2.551
 9795SOL    HW130284   2.084   5.216   2.548
 9795SOL    HW230285   1.933   5.254   2.499
 9796SOL     OW30286   4.208   5.054   6.104
 9796SOL    HW130287   4.304   5.076   6.086
 9796SOL    HW230288   4.153   5.078   6.024
 9797SOL     OW30289   6.482   3.446   5.062
 9797SOL    HW130290   6.449   3.534   5.097
 9797SOL    HW230291   6.580   3.437   5.081
 9798SOL     OW30292   3.217   1.444   1.594
 9798SOL    HW130293   3.161   1.420   1.674
 9798SOL    HW230294   3.252   1.537   1.605
 9799SOL     OW30295   4.017   3.676   3.063
 9799SOL    HW130296   4.054   3.591   3.102
 9799SOL    HW230297   4.073   3.705   2.986
 9800SOL     OW30298   4.152   6.037   0.593
 9800SOL    HW130299   4.157   5.975   0.672
 9800SOL    HW230300   4.061   6.077   0.588
 9801SOL     OW30301   5.860   5.258   1.705
 9801SOL    HW130302   5.829   5.270   1.799
 9801SOL    HW230303   5.831   5.168   1.671
 9802SOL     OW30304   0.939   6.374   2.373
 9802SOL    HW130305   0.946   6.400   2.277
 9802SOL    HW230306   0.926   6.275   2.380
 9803SOL     OW30307   5.769   6.892   5.612
 9803SOL    HW130308   5.825   6.904   5.694
 9803SOL    HW230309   5.807   6.818   5.557
 9804SOL     OW30310   5.355   6.271   3.906
 9804SOL    HW130311   5.414   6.333   3.854
 9804SOL    HW230312   5.267   6.262   3.859
 9805SOL     OW30313   2.717   4.849   1.048
 9805SOL    HW130314   2.671   4.779   0.994
 9805SOL    HW230315   2.772   4.806   1.120
 9806SOL     OW30316   1.029   0.831   3.033
 9806SOL    HW130317   0.977   0.763   3.085
 9806SOL    HW230318   1.061   0.903   3.094
 9807SOL     OW30319   2.104   4.091   0.906
 9807SOL    HW130320   2.069   4.183   0.887
 9807SOL    HW230321   2.189   4.078   0.855
 9808SOL     OW30322   1.971   2.363   3.359
 9808SOL    HW130323   2.000   2.337   3.267
 9808SOL    HW230324   1.932   2.284   3.406
 9809SOL     OW30325   0.434   6.986   4.168
 9809SOL    HW130326   0.340   7.013   4.150
 9809SOL    HW230327   0.477   0.029   4.230
 9810SOL     OW30328   4.945   1.909   2.741
 9810SOL    HW130329   4.991   1.848   2.806
 9810SOL    HW230330   4.910   1.854   2.664
 9811SOL     OW30331   1.511   0.010   2.906
 9811SOL    HW130332   1.593   0.066   2.910
 9811SOL    HW230333   1.437   0.055   2.955
 9812SOL     OW30334   5.753   2.971   7.019
 9812SOL    HW130335   5.658   2.948   7.000
 9812SOL    HW230336   5.789   2.912   0.067
 9813SOL     OW30337   6.040   4.594   0.315
 9813SOL    HW130338   6.012   4.498   0.318
 9813SOL    HW230339   6.103   4.607   0.239
 9814SOL     OW30340   6.751   1.110   5.450
 9814SOL    HW130341   6.663   1.126   5.406
 9814SOL    HW230342   6.741   1.038   5.520
 9815SOL     OW30343   0.113   5.170   2.382
 9815SOL    HW130344   0.027   5.173   2.332
 9815SOL    HW230345   0.097   5.191   2.479
 9816SOL     OW30346   6.732   2.461   5.270
 9816SOL    HW130347   6.780   2.544   5.242
 9816SOL    HW230348   6.761   2.435   5.363
 9817SOL     OW30349   2.236   1.745   0.359
 9817SOL    HW130350   2.253   1.728   0.456
 9817SOL    HW230351   2.235   1.844   0.342
 9818SOL     OW30352   0.063   0.549   2.454
 9818SOL    HW130353   0.061   0.611   2.533
 9818SOL    HW230354   0.158   0.533   2.426
 9819SOL     OW30355   6.157   0.805   5.282
 9819SOL    HW130356   6.175   0.804   5.184
 9819SOL    HW230357   6.148   0.899   5.314
 9820SOL     OW30358   3.223   0.662   6.380
 9820SOL    HW130359   3.208   0.690   6.475
 9820SOL    HW230360   3.293   0.590   6.378
 9821SOL     OW30361   4.300   3.865   6.104
 9821SOL    HW130362   4.386   3.905   6.133
 9821SOL    HW230363   4.281   3.783   6.159
 9822SOL     OW30364   2.976   6.943   3.582
 9822SOL    HW130365   2.913   6.988   3.645
 9822SOL    HW230366   3.063   6.992   3.581
 9823SOL     OW30367   3.780   6.623   2.580
 9823SOL    HW130368   3.855   6.559   2.592
 9823SOL    HW230369   3.812   6.703   2.529
 9824SOL     OW30370   1.704   6.231   5.306
 9824SOL    HW130371   1.652   6.260   5.226
 9824SOL    HW230372   1.660   6.266   5.389
 9825SOL     OW30373   0.556   6.495   4.597
 9825SOL    HW130374   0.631   6.430   4.584
 9825SOL    HW230375   0.593   6.581   4.634
 9826SOL     OW30376   1.556   6.755   5.097
 9826SOL    HW130377   1.590   6.673   5.142
 9826SOL    HW230378   1.631   6.802   5.051
 9827SOL     OW30379   2.083   4.646   1.217
 9827SOL    HW130380   2.062   4.548   1.217
 9827SOL    HW230381   1.999   4.698   1.199
 9828SOL     OW30382   4.965   1.815   4.370
 9828SOL    HW130383   4.938   1.777   4.281
 9828SOL    HW230384   5.059   1.848   4.364
 9829SOL     OW30385   5.586   4.004   5.872
 9829SOL    HW130386   5.492   4.028   5.848
 9829SOL    HW230387   5.626   3.948   5.799
 9830SOL     OW30388   6.126   0.123   3.410
 9830SOL    HW130389   6.070   0.101   3.329
 9830SOL    HW230390   6.117   0.049   3.477
 9831SOL     OW30391   1.096   4.597   1.403
 9831SOL    HW130392   1.112   4.544   1.320
 9831SOL    HW230393   1.019   4.558   1.453
 9832SOL     OW30394   6.314   5.562   4.987
 9832SOL    HW130395   6.231   5.615   4.970
 9832SOL    HW230396   6.305   5.511   5.073
 9833SOL     OW30397   4.038   3.117   4.080
 9833SOL    HW130398   3.976   3.194   4.087
 9833SOL    HW230399   4.077   3.097   4.170
 9834SOL     OW30400   2.676   5.876   5.742
 9834SOL    HW130401   2.700   5.973   5.750
 9834SOL    HW230402   2.755   5.824   5.709
 9835SOL     OW30403   4.066   3.239   3.562
 9835SOL    HW130404   4.087   3.336   3.555
 9835SOL    HW230405   4.030   3.220   3.654
 9836SOL     OW30406   7.008   3.402   6.533
 9836SOL    HW130407   0.082   3.386   6.543
 9836SOL    HW230408   6.959   3.356   6.607
 9837SOL     OW30409   6.316   0.615   5.396
 9837SOL    HW130410   6.256   0.686   5.360
 9837SOL    HW230411   6.263   0.531   5.410
 9838SOL     OW30412   0.386   5.718   1.501
 9838SOL    HW130413   0.325   5.776   1.448
 9838SOL    HW230414   0.405   5.761   1.589
 9839SOL     OW30415   4.216   6.975   3.412
 9839SOL    HW130416   4.116   6.971   3.405
 9839SOL    HW230417   4.255   6.995   3.322
 9840SOL     OW30418   6.355   1.911   5.310
 9840SOL    HW130419   6.410   1.913   5.393
 9840SOL    HW230420   6.334   1.816   5.286
 9841SOL     OW30421   0.083   5.390   2.060
 9841SOL    HW130422   0.002   5.432   2.019
 9841SOL    HW230423   0.056   5.308   2.110
 9842SOL     OW30424   4.001   0.786   0.869
 9842SOL    HW130425   3.927   0.826   0.814
 9842SOL    HW230426   4.070   0.855   0.888
 9843SOL     OW30427   0.516   0.112   0.702
 9843SOL    HW130428   0.458   0.100   0.621
 9843SOL    HW230429   0.479   0.186   0.758
 9844SOL     OW30430   5.656   0.728   4.449
 9844SOL    HW130431   5.588   0.655   4.437
 9844SOL    HW230432   5.659   0.784   4.367
 9845SOL     OW30433   0.642   3.415   2.584
 9845SOL    HW130434   0.697   3.356   2.526
 9845SOL    HW230435   0.701   3.467   2.646
 9846SOL     OW30436   5.908   2.030   3.357
 9846SOL    HW130437   5.946   2.078   3.437
 9846SOL    HW230438   5.949   2.068   3.274
 9847SOL     OW30439   4.470   3.628   0.190
 9847SOL    HW130440   4.459   3.552   0.127
 9847SOL    HW230441   4.380   3.659   0.222
 9848SOL     OW30442   3.253   3.474   6.340
 9848SOL    HW130443   3.204   3.476   6.427
 9848SOL    HW230444   3.222   3.396   6.286
 9849SOL     OW30445   1.926   2.369   2.259
 9849SOL    HW130446   1.938   2.278   2.301
 9849SOL    HW230447   1.991   2.380   2.184
 9850SOL     OW30448   2.502   0.090   3.721
 9850SOL    HW130449   2.544   0.177   3.745
 9850SOL    HW230450   2.559   0.043   3.653
 9851SOL     OW30451   3.986   6.510   3.263
 9851SOL    HW130452   3.981   6.587   3.199
 9851SOL    HW230453   3.910   6.516   3.328
 9852SOL     OW30454   2.434   0.796   6.627
 9852SOL    HW130455   2.352   0.747   6.596
 9852SOL    HW230456   2.509   0.730   6.638
 9853SOL     OW30457   0.131   3.643   3.915
 9853SOL    HW130458   0.156   3.583   3.839
 9853SOL    HW230459   0.043   3.613   3.953
 9854SOL     OW30460   6.423   4.155   6.827
 9854SOL    HW130461   6.445   4.082   6.892
 9854SOL    HW230462   6.502   4.171   6.767
 9855SOL     OW30463   0.448   6.199   0.852
 9855SOL    HW130464   0.454   6.114   0.801
 9855SOL    HW230465   0.519   6.201   0.923
 9856SOL     OW30466   4.321   4.654   3.486
 9856SOL    HW130467   4.326   4.675   3.583
 9856SOL    HW230468   4.368   4.567   3.468
 9857SOL     OW30469   4.059   6.647   5.753
 9857SOL    HW130470   4.008   6.727   5.720
 9857SOL    HW230471   4.129   6.623   5.686
 9858SOL     OW30472   6.227   5.110   2.619
 9858SOL    HW130473   6.232   5.056   2.702
 9858SOL    HW230474   6.319   5.136   2.589
 9859SOL     OW30475   0.082   6.688   2.986
 9859SOL    HW130476   7.013   6.699   3.020
 9859SOL    HW230477   0.091   6.734   2.898
 9860SOL     OW30478   0.990   3.714   3.496
 9860SOL    HW130479   1.038   3.640   3.450
 9860SOL    HW230480   0.895   3.718   3.463
 9861SOL     OW30481   3.982   2.207   3.972
 9861SOL    HW130482   4.003   2.215   3.874
 9861SOL    HW230483   3.898   2.153   3.983
 9862SOL     OW30484   1.159   3.212   6.115
 9862SOL    HW130485   1.150   3.114   6.100
 9862SOL    HW230486   1.256   3.236   6.128
 9863SOL     OW30487   3.641   5.744   1.887
 9863SOL    HW130488   3.718   5.749   1.950
 9863SOL    HW230489   3.579   5.671   1.916
 9864SOL     OW30490   3.529   6.464   4.725
 9864SOL    HW130491   3.582   6.549   4.734
 9864SOL    HW230492   3.585   6.394   4.681
 9865SOL     OW30493   2.623   4.702   6.081
 9865SOL    HW130494   2.684   4.756   6.139
 9865SOL    HW230495   2.676   4.658   6.008
 9866SOL     OW30496   1.017   5.802   4.917
 9866SOL    HW130497   0.927   5.819   4.958
 9866SOL    HW230498   1.047   5.710   4.938
 9867SOL     OW30499   5.178   1.161   2.893
 9867SOL    HW130500   5.241   1.215   2.837
 9867SOL    HW230501   5.195   1.064   2.876
 9868SOL     OW30502   2.539   5.461   3.071
 9868SOL    HW130503   2.550   5.428   3.165
 9868SOL    HW230504   2.528   5.561   3.072
 9869SOL     OW30505   6.101   1.892   2.914
 9869SOL    HW130506   6.112   1.916   2.817
 9869SOL    HW230507   6.190   1.892   2.959
 9870SOL     OW30508   2.098   3.191   3.419
 9870SOL    HW130509   2.092   3.291   3.421
 9870SOL    HW230510   2.135   3.162   3.331
 9871SOL     OW30511   5.174   5.186   2.569
 9871SOL    HW130512   5.228   5.121   2.622
 9871SOL    HW230513   5.232   5.261   2.538
 9872SOL     OW30514   0.162   6.283   4.837
 9872SOL    HW130515   0.096   6.358   4.835
 9872SOL    HW230516   0.195   6.265   4.745
 9873SOL     OW30517   1.014   0.802   4.223
 9873SOL    HW130518   1.002   0.722   4.164
 9873SOL    HW230519   0.958   0.792   4.304
 9874SOL     OW30520   0.139   2.757   4.472
 9874SOL    HW130521   0.099   2.703   4.547
 9874SOL    HW230522   0.198   2.828   4.509
 9875SOL     OW30523   5.483   5.421   1.088
 9875SOL    HW130524   5.396   5.391   1.129
 9875SOL    HW230525   5.477   5.518   1.064
 9876SOL     OW30526   0.855   6.952   2.927
 9876SOL    HW130527   0.869   6.946   2.829
 9876SOL    HW230528   0.922   6.895   2.974
 9877SOL     OW30529   1.764   5.726   4.976
 9877SOL    HW130530   1.803   5.738   5.068
 9877SOL    HW230531   1.740   5.816   4.938
 9878SOL     OW30532   4.851   4.162   7.024
 9878SOL    HW130533   4.756   4.148   0.029
 9878SOL    HW230534   4.854   4.224   6.946
 9879SOL     OW30535   6.098   4.988   4.420
 9879SOL    HW130536   6.083   5.086   4.405
 9879SOL    HW230537   6.019   4.950   4.469
 9880SOL     OW30538   2.788   1.349   1.042
 9880SOL    HW130539   2.854   1.298   1.097
 9880SOL    HW230540   2.705   1.365   1.095
 9881SOL     OW30541   6.401   0.163   2.653
 9881SOL    HW130542   6.364   0.147   2.561
 9881SOL    HW230543   6.394   0.080   2.708
 9882SOL     OW30544   3.212   3.917   4.909
 9882SOL    HW130545   3.307   3.934   4.883
 9882SOL    HW230546   3.163   3.880   4.830
 9883SOL     OW30547   0.386   4.977   2.707
 9883SOL    HW130548   0.390   4.916   2.786
 9883SOL    HW230549   0.476   5.016   2.689
 9884SOL     OW30550   3.469   2.714   5.286
 9884SOL    HW130551   3.451   2.788   5.351
 9884SOL    HW230552   3.391   2.652   5.284
 9885SOL     OW30553   4.838   2.484   5.105
 9885SOL    HW130554   4.789   2.559   5.059
 9885SOL    HW230555   4.843   2.504   5.203
 9886SOL     OW30556   2.124   5.889   1.391
 9886SOL    HW130557   2.053   5.902   1.321
 9886SOL    HW230558   2.154   5.977   1.425
 9887SOL     OW30559   3.250   1.500   6.975
 9887SOL    HW130560   3.308   1.580   6.993
 9887SOL    HW230561   3.274   1.461   6.886
 9888SOL     OW30562   6.623   6.821   3.718
 9888SOL    HW130563   6.613   6.875   3.635
 9888SOL    HW230564   6.701   6.855   3.771
 9889SOL     OW30565   6.482   5.684   2.342
 9889SOL    HW130566   6.487   5.584   2.336
 9889SOL    HW230567   6.574   5.722   2.343
 9890SOL     OW30568   1.569   3.262   3.212
 9890SOL    HW130569   1.613   3.185   3.167
 9890SOL    HW230570   1.565   3.340   3.150
 9891SOL     OW30571   3.481   0.398   1.140
 9891SOL    HW130572   3.534   0.315   1.156
 9891SOL    HW230573   3.540   0.470   1.107
 9892SOL     OW30574   2.126   5.964   2.963
 9892SOL    HW130575   2.149   5.905   2.886
 9892SOL    HW230576   2.204   5.971   3.025
 9893SOL     OW30577   5.388   4.834   4.434
 9893SOL    HW130578   5.334   4.768   4.381
 9893SOL    HW230579   5.389   4.922   4.387
 9894SOL     OW30580   4.860   3.506   5.931
 9894SOL    HW130581   4.830   3.430   5.989
 9894SOL    HW230582   4.790   3.577   5.931
 9895SOL     OW30583   5.356   2.872   6.203
 9895SOL    HW130584   5.434   2.934   6.197
 9895SOL    HW230585   5.272   2.924   6.188
 9896SOL     OW30586   3.223   4.111   6.306
 9896SOL    HW130587   3.245   4.022   6.346
 9896SOL    HW230588   3.235   4.107   6.207
 9897SOL     OW30589   0.927   1.166   2.978
 9897SOL    HW130590   0.912   1.114   3.062
 9897SOL    HW230591   0.974   1.108   2.911
 9898SOL     OW30592   0.382   5.514   6.978
 9898SOL    HW130593   0.432   5.458   6.912
 9898SOL    HW230594   0.444   5.544   0.026
 9899SOL     OW30595   3.715   5.048   0.489
 9899SOL    HW130596   3.666   5.063   0.575
 9899SOL    HW230597   3.803   5.003   0.508
 9900SOL     OW30598   2.794   5.427   3.345
 9900SOL    HW130599   2.710   5.413   3.397
 9900SOL    HW230600   2.858   5.353   3.365
 9901SOL     OW30601   2.859   1.684   5.938
 9901SOL    HW130602   2.905   1.604   5.974
 9901SOL    HW230603   2.762   1.664   5.923
 9902SOL     OW30604   3.851   4.356   6.625
 9902SOL    HW130605   3.862   4.433   6.688
 9902SOL    HW230606   3.933   4.300   6.626
 9903SOL     OW30607   3.170   1.501   0.579
 9903SOL    HW130608   3.268   1.491   0.596
 9903SOL    HW230609   3.134   1.574   0.637
 9904SOL     OW30610   6.804   6.377   1.640
 9904SOL    HW130611   6.893   6.336   1.661
 9904SOL    HW230612   6.792   6.379   1.540
 9905SOL     OW30613   2.040   6.787   6.547
 9905SOL    HW130614   2.105   6.838   6.491
 9905SOL    HW230615   2.032   6.693   6.512
 9906SOL     OW30616   3.022   3.706   6.936
 9906SOL    HW130617   2.929   3.702   6.973
 9906SOL    HW230618   3.036   3.629   6.873
 9907SOL     OW30619   0.700   6.922   3.673
 9907SOL    HW130620   0.650   6.909   3.588
 9907SOL    HW230621   0.797   6.932   3.653
 9908SOL     OW30622   0.330   3.376   6.227
 9908SOL    HW130623   0.368   3.356   6.137
 9908SOL    HW230624   0.284   3.295   6.263
 9909SOL     OW30625   2.606   5.668   2.172
 9909SOL    HW130626   2.582   5.588   2.118
 9909SOL    HW230627   2.687   5.649   2.227
 9910SOL     OW30628   1.208   5.399   0.646
 9910SOL    HW130629   1.276   5.446   0.702
 9910SOL    HW230630   1.135   5.463   0.622
 9911SOL     OW30631   3.092   4.615   1.694
 9911SOL    HW130632   3.188   4.601   1.719
 9911SOL    HW230633   3.034   4.557   1.750
 9912SOL     OW30634   6.461   6.353   7.003
 9912SOL    HW130635   6.545   6.391   6.964
 9912SOL    HW230636   6.471   6.341   0.077
 9913SOL     OW30637   6.209   2.536   1.089
 9913SOL    HW130638   6.207   2.470   1.164
 9913SOL    HW230639   6.188   2.489   1.003
 9914SOL     OW30640   2.234   5.079   3.634
 9914SOL    HW130641   2.316   5.132   3.655
 9914SOL    HW230642   2.252   5.016   3.560
 9915SOL     OW30643   5.952   4.860   4.844
 9915SOL    HW130644   6.026   4.908   4.890
 9915SOL    HW230645   5.990   4.803   4.771
 9916SOL     OW30646   1.388   2.820   0.681
 9916SOL    HW130647   1.293   2.821   0.649
 9916SOL    HW230648   1.392   2.860   0.772
 9917SOL     OW30649   1.645   4.681   4.484
 9917SOL    HW130650   1.634   4.776   4.514
 9917SOL    HW230651   1.674   4.625   4.561
 9918SOL     OW30652   3.096   2.057   3.937
 9918SOL    HW130653   3.118   2.069   3.840
 9918SOL    HW230654   2.997   2.068   3.950
 9919SOL     OW30655   0.657   6.091   1.751
 9919SOL    HW130656   0.702   6.068   1.837
 9919SOL    HW230657   0.663   6.013   1.688
 9920SOL     OW30658   3.533   0.147   2.634
 9920SOL    HW130659   3.569   0.186   2.719
 9920SOL    HW230660   3.457   0.086   2.656
 9921SOL     OW30661   4.620   0.750   2.592
 9921SOL    HW130662   4.538   0.780   2.640
 9921SOL    HW230663   4.599   0.668   2.539
 9922SOL     OW30664   6.116   2.303   2.759
 9922SOL    HW130665   6.190   2.236   2.761
 9922SOL    HW230666   6.077   2.306   2.667
 9923SOL     OW30667   4.906   6.588   5.731
 9923SOL    HW130668   4.829   6.550   5.783
 9923SOL    HW230669   4.962   6.513   5.697
 9924SOL     OW30670   6.052   6.469   4.040
 9924SOL    HW130671   6.071   6.374   4.065
 9924SOL    HW230672   5.972   6.473   3.980
 9925SOL     OW30673   3.823   2.197   5.335
 9925SOL    HW130674   3.849   2.102   5.355
 9925SOL    HW230675   3.735   2.198   5.288
 9926SOL     OW30676   1.716   1.177   6.423
 9926SOL    HW130677   1.801   1.169   6.475
 9926SOL    HW230678   1.664   1.256   6.455
 9927SOL     OW30679   2.234   4.101   4.301
 9927SOL    HW130680   2.209   4.005   4.289
 9927SOL    HW230681   2.168   4.146   4.360
 9928SOL     OW30682   6.366   3.793   3.490
 9928SOL    HW130683   6.435   3.800   3.419
 9928SOL    HW230684   6.390   3.719   3.553
 9929SOL     OW30685   1.590   5.232   5.238
 9929SOL    HW130686   1.644   5.272   5.313
 9929SOL    HW230687   1.591   5.294   5.160
 9930SOL     OW30688   0.163   6.484   0.205
 9930SOL    HW130689   0.196   6.544   0.278
 9930SOL    HW230690   0.219   6.401   0.202
 9931SOL     OW30691   1.086   3.836   6.777
 9931SOL    HW130692   1.042   3.855   6.689
 9931SOL    HW230693   1.117   3.741   6.779
 9932SOL     OW30694   2.199   1.490   1.400
 9932SOL    HW130695   2.121   1.478   1.461
 9932SOL    HW230696   2.269   1.547   1.444
 9933SOL     OW30697   2.337   1.668   2.958
 9933SOL    HW130698   2.299   1.761   2.948
 9933SOL    HW230699   2.349   1.627   2.868
 9934SOL     OW30700   5.040   1.361   5.681
 9934SOL    HW130701   5.095   1.279   5.692
 9934SOL    HW230702   4.972   1.366   5.755
 9935SOL     OW30703   3.491   2.506   0.098
 9935SOL    HW130704   3.511   2.455   0.014
 9935SOL    HW230705   3.563   2.573   0.114
 9936SOL     OW30706   4.624   6.242   0.800
 9936SOL    HW130707   4.653   6.233   0.895
 9936SOL    HW230708   4.646   6.158   0.751
 9937SOL     OW30709   1.025   0.244   5.652
 9937SOL    HW130710   1.122   0.229   5.671
 9937SOL    HW230711   1.015   0.320   5.588
 9938SOL     OW30712   1.695   1.727   3.927
 9938SOL    HW130713   1.691   1.627   3.917
 9938SOL    HW230714   1.604   1.766   3.912
 9939SOL     OW30715   3.082   3.428   0.650
 9939SOL    HW130716   3.053   3.384   0.735
 9939SOL    HW230717   3.169   3.388   0.620
 9940SOL     OW30718   6.038   1.112   2.994
 9940SOL    HW130719   6.009   1.040   3.057
 9940SOL    HW230720   5.996   1.097   2.905
 9941SOL     OW30721   6.011   3.387   0.829
 9941SOL    HW130722   5.947   3.362   0.756
 9941SOL    HW230723   6.009   3.316   0.900
 9942SOL     OW30724   5.570   4.593   2.563
 9942SOL    HW130725   5.490   4.608   2.621
 9942SOL    HW230726   5.542   4.593   2.467
 9943SOL     OW30727   1.263   4.981   4.564
 9943SOL    HW130728   1.262   5.026   4.475
 9943SOL    HW230729   1.255   5.049   4.637
 9944SOL     OW30730   2.397   5.353   6.226
 9944SOL    HW130731   2.427   5.267   6.185
 9944SOL    HW230732   2.430   5.358   6.321
 9945SOL     OW30733   6.246   3.278   5.356
 9945SOL    HW130734   6.308   3.212   5.397
 9945SOL    HW230735   6.263   3.283   5.257
 9946SOL     OW30736   5.395   1.746   1.648
 9946SOL    HW130737   5.494   1.732   1.654
 9946SOL    HW230738   5.365   1.732   1.554
 9947SOL     OW30739   0.019   0.796   3.408
 9947SOL    HW130740   7.009   0.720   3.462
 9947SOL    HW230741   6.981   0.814   3.332
 9948SOL     OW30742   4.592   1.417   5.316
 9948SOL    HW130743   4.665   1.439   5.381
 9948SOL    HW230744   4.632   1.368   5.237
 9949SOL     OW30745   6.871   3.422   2.866
 9949SOL    HW130746   6.899   3.463   2.953
 9949SOL    HW230747   6.777   3.449   2.845
 9950SOL     OW30748   5.012   4.679   5.941
 9950SOL    HW130749   4.997   4.764   5.991
 9950SOL    HW230750   4.965   4.604   5.988
 9951SOL     OW30751   0.054   2.683   2.327
 9951SOL    HW130752   7.021   2.737   2.388
 9951SOL    HW230753   0.104   2.743   2.265
 9952SOL     OW30754   1.636   4.695   1.583
 9952SOL    HW130755   1.554   4.709   1.639
 9952SOL    HW230756   1.668   4.601   1.595
 9953SOL     OW30757   6.281   3.612   5.591
 9953SOL    HW130758   6.311   3.690   5.646
 9953SOL    HW230759   6.358   3.551   5.574
 9954SOL     OW30760   4.782   2.646   1.829
 9954SOL    HW130761   4.804   2.658   1.926
 9954SOL    HW230762   4.734   2.726   1.795
 9955SOL     OW30763   5.844   4.872   2.500
 9955SOL    HW130764   5.797   4.864   2.412
 9955SOL    HW230765   5.879   4.782   2.526
 9956SOL     OW30766   1.850   4.759   3.187
 9956SOL    HW130767   1.806   4.849   3.184
 9956SOL    HW230768   1.875   4.731   3.094
 9957SOL     OW30769   5.852   6.589   0.702
 9957SOL    HW130770   5.754   6.607   0.713
 9957SOL    HW230771   5.882   6.624   0.614
 9958SOL     OW30772   6.480   6.340   5.775
 9958SOL    HW130773   6.557   6.319   5.835
 9958SOL    HW230774   6.405   6.276   5.793
 9959SOL     OW30775   5.816   5.267   0.043
 9959SOL    HW130776   5.716   5.272   0.032
 9959SOL    HW230777   5.838   5.242   0.137
 9960SOL     OW30778   5.983   0.788   6.179
 9960SOL    HW130779   6.031   0.761   6.095
 9960SOL    HW230780   5.887   0.760   6.171
 9961SOL     OW30781   2.991   6.745   0.230
 9961SOL    HW130782   3.000   6.823   0.293
 9961SOL    HW230783   2.913   6.761   0.169
 9962SOL     OW30784   4.498   1.176   1.872
 9962SOL    HW130785   4.471   1.266   1.905
 9962SOL    HW230786   4.502   1.177   1.772
 9963SOL     OW30787   0.547   0.316   6.426
 9963SOL    HW130788   0.497   0.388   6.378
 9963SOL    HW230789   0.604   0.358   6.497
 9964SOL     OW30790   4.691   5.247   5.721
 9964SOL    HW130791   4.688   5.345   5.737
 9964SOL    HW230792   4.606   5.205   5.752
 9965SOL     OW30793   2.102   5.395   5.636
 9965SOL    HW130794   2.136   5.326   5.700
 9965SOL    HW230795   2.150   5.481   5.652
 9966SOL     OW30796   1.562   4.186   2.232
 9966SOL    HW130797   1.584   4.252   2.305
 9966SOL    HW230798   1.557   4.233   2.145
 9967SOL     OW30799   6.502   1.053   2.454
 9967SOL    HW130800   6.523   1.039   2.357
 9967SOL    HW230801   6.414   1.099   2.463
 9968SOL     OW30802   4.633   6.373   6.511
 9968SOL    HW130803   4.619   6.328   6.423
 9968SOL    HW230804   4.728   6.361   6.541
 9969SOL     OW30805   0.906   6.665   3.344
 9969SOL    HW130806   0.808   6.684   3.342
 9969SOL    HW230807   0.954   6.744   3.383
 9970SOL     OW30808   0.409   2.811   1.460
 9970SOL    HW130809   0.428   2.906   1.437
 9970SOL    HW230810   0.478   2.779   1.525
 9971SOL     OW30811   6.879   5.697   5.747
 9971SOL    HW130812   6.820   5.678   5.668
 9971SOL    HW230813   6.835   5.664   5.830
 9972SOL     OW30814   3.146   4.756   5.594
 9972SOL    HW130815   3.078   4.829   5.586
 9972SOL    HW230816   3.124   4.684   5.529
 9973SOL     OW30817   3.368   1.931   2.841
 9973SOL    HW130818   3.433   1.856   2.840
 9973SOL    HW230819   3.352   1.963   2.748
 9974SOL     OW30820   0.213   4.650   3.336
 9974SOL    HW130821   0.209   4.742   3.375
 9974SOL    HW230822   0.260   4.654   3.248
 9975SOL     OW30823   1.444   4.832   6.939
 9975SOL    HW130824   1.446   4.850   6.840
 9975SOL    HW230825   1.530   4.788   6.966
 9976SOL     OW30826   4.473   5.534   4.738
 9976SOL    HW130827   4.518   5.506   4.653
 9976SOL    HW230828   4.509   5.479   4.814
 9977SOL     OW30829   3.340   0.144   6.219
 9977SOL    HW130830   3.405   0.124   6.292
 9977SOL    HW230831   3.247   0.141   6.256
 9978SOL     OW30832   6.837   3.300   6.712
 9978SOL    HW130833   6.889   3.301   6.797
 9978SOL    HW230834   6.753   3.353   6.724
 9979SOL     OW30835   3.311   3.891   3.656
 9979SOL    HW130836   3.387   3.870   3.594
 9979SOL    HW230837   3.345   3.896   3.749
 9980SOL     OW30838   0.891   6.687   6.560
 9980SOL    HW130839   0.872   6.590   6.577
 9980SOL    HW230840   0.884   6.706   6.462
 9981SOL     OW30841   5.771   1.938   1.783
 9981SOL    HW130842   5.861   1.933   1.825
 9981SOL    HW230843   5.700   1.930   1.853
 9982SOL     OW30844   2.623   1.156   5.294
 9982SOL    HW130845   2.600   1.232   5.233
 9982SOL    HW230846   2.699   1.104   5.256
 9983SOL     OW30847   0.347   2.231   2.036
 9983SOL    HW130848   0.346   2.225   1.936
 9983SOL    HW230849   0.428   2.283   2.064
 9984SOL     OW30850   1.382   4.607   0.955
 9984SOL    HW130851   1.359   4.524   1.005
 9984SOL    HW230852   1.346   4.686   1.003
 9985SOL     OW30853   5.878   4.991   6.214
 9985SOL    HW130854   5.779   5.003   6.219
 9985SOL    HW230855   5.901   4.933   6.136
 9986SOL     OW30856   5.437   4.165   0.463
 9986SOL    HW130857   5.433   4.242   0.399
 9986SOL    HW230858   5.440   4.200   0.556
 9987SOL     OW30859   5.510   1.762   0.847
 9987SOL    HW130860   5.449   1.682   0.847
 9987SOL    HW230861   5.479   1.827   0.777
 9988SOL     OW30862   5.406   6.931   4.219
 9988SOL    HW130863   5.328   6.943   4.157
 9988SOL    HW230864   5.372   6.906   4.310
 9989SOL     OW30865   6.866   5.188   1.328
 9989SOL    HW130866   6.816   5.173   1.242
 9989SOL    HW230867   6.845   5.114   1.392
 9990SOL     OW30868   0.895   6.611   2.812
 9990SOL    HW130869   0.940   6.681   2.757
 9990SOL    HW230870   0.931   6.613   2.905
 9991SOL     OW30871   2.007   3.054   2.186
 9991SOL    HW130872   2.065   3.034   2.264
 9991SOL    HW230873   2.054   3.116   2.123
 9992SOL     OW30874   1.408   3.830   0.372
 9992SOL    HW130875   1.394   3.796   0.465
 9992SOL    HW230876   1.481   3.898   0.372
 9993SOL     OW30877   4.117   0.113   4.337
 9993SOL    HW130878   4.143   0.209   4.327
 9993SOL    HW230879   4.083   0.078   4.249
 9994SOL     OW30880   5.750   5.002   5.396
 9994SOL    HW130881   5.836   4.982   5.444
 9994SOL    HW230882   5.758   4.971   5.301
 9995SOL     OW30883   3.943   2.263   6.192
 9995SOL    HW130884   3.982   2.354   6.181
 9995SOL    HW230885   3.935   2.219   6.102
 9996SOL     OW30886   2.720   4.222   1.474
 9996SOL    HW130887   2.713   4.125   1.498
 9996SOL    HW230888   2.631   4.254   1.440
 9997SOL     OW30889   5.770   0.077   3.378
 9997SOL    HW130890   5.837   0.049   3.309
 9997SOL    HW230891   5.767   0.176   3.383
 9998SOL     OW30892   6.106   3.446   2.936
 9998SOL    HW130893   6.050   3.512   2.985
 9998SOL    HW230894   6.099   3.461   2.838
 9999SOL     OW30895   0.995   0.484   4.424
 9999SOL    HW130896   1.033   0.392   4.431
 9999SOL    HW230897   0.970   0.517   4.515
10000SOL     OW30898   4.300   3.470   1.509
10000SOL    HW130899   4.211   3.467   1.555
10000SOL    HW230900   4.297   3.535   1.433
10001SOL     OW30901   3.681   5.516   1.505
10001SOL    HW130902   3.746   5.529   1.580
10001SOL    HW230903   3.588   5.534   1.538
10002SOL     OW30904   2.380   6.591   2.757
10002SOL    HW130905   2.362   6.560   2.850
10002SOL    HW230906   2.436   6.674   2.759
10003SOL     OW30907   0.902   1.418   3.026
10003SOL    HW130908   0.926   1.326   2.996
10003SOL    HW230909   0.983   1.463   3.063
10004SOL     OW30910   0.465   2.840   2.800
10004SOL    HW130911   0.395   2.790   2.749
10004SOL    HW230912   0.444   2.835   2.898
10005SOL     OW30913   2.118   6.091   2.614
10005SOL    HW130914   2.119   6.161   2.685
10005SOL    HW230915   2.091   6.132   2.527
10006SOL     OW30916   5.006   2.022   6.493
10006SOL    HW130917   4.983   1.955   6.423
10006SOL    HW230918   5.101   2.007   6.523
10007SOL     OW30919   1.841   5.352   2.957
10007SOL    HW130920   1.796   5.416   3.020
10007SOL    HW230921   1.939   5.348   2.978
10008SOL     OW30922   2.867   0.696   5.775
10008SOL    HW130923   2.844   0.628   5.704
10008SOL    HW230924   2.819   0.674   5.859
10009SOL     OW30925   1.096   4.804   1.665
10009SOL    HW130926   1.008   4.843   1.638
10009SOL    HW230927   1.140   4.864   1.733
10010SOL     OW30928   2.119   4.527   0.548
10010SOL    HW130929   2.031   4.502   0.507
10010SOL    HW230930   2.192   4.516   0.480
10011SOL     OW30931   3.214   3.222   7.009
10011SOL    HW130932   3.277   3.151   6.976
10011SOL    HW230933   3.259   3.311   7.005
10012SOL     OW30934   5.406   2.097   3.211
10012SOL    HW130935   5.433   2.024   3.149
10012SOL    HW230936   5.401   2.062   3.305
10013SOL     OW30937   0.320   6.211   5.864
10013SOL    HW130938   0.377   6.131   5.885
10013SOL    HW230939   0.378   6.284   5.828
10014SOL     OW30940   1.283   1.371   2.724
10014SOL    HW130941   1.294   1.408   2.816
10014SOL    HW230942   1.302   1.443   2.657
10015SOL     OW30943   4.038   0.695   0.273
10015SOL    HW130944   3.964   0.689   0.207
10015SOL    HW230945   4.112   0.751   0.235
10016SOL     OW30946   3.070   1.495   5.131
10016SOL    HW130947   3.154   1.541   5.160
10016SOL    HW230948   3.092   1.421   5.069
10017SOL     OW30949   2.803   2.160   3.295
10017SOL    HW130950   2.874   2.157   3.365
10017SOL    HW230951   2.804   2.250   3.252
10018SOL     OW30952   0.107   4.337   5.565
10018SOL    HW130953   0.091   4.248   5.522
10018SOL    HW230954   0.144   4.324   5.657
10019SOL     OW30955   0.442   1.870   3.049
10019SOL    HW130956   0.390   1.907   3.126
10019SOL    HW230957   0.491   1.944   3.003
10020SOL     OW30958   6.628   0.829   3.600
10020SOL    HW130959   6.609   0.894   3.526
10020SOL    HW230960   6.548   0.772   3.616
10021SOL     OW30961   2.248   4.124   1.877
10021SOL    HW130962   2.203   4.162   1.957
10021SOL    HW230963   2.206   4.036   1.853
10022SOL     OW30964   0.777   6.077   5.963
10022SOL    HW130965   0.838   6.087   6.041
10022SOL    HW230966   0.828   6.092   5.879
10023SOL     OW30967   1.513   1.065   4.312
10023SOL    HW130968   1.538   1.097   4.403
10023SOL    HW230969   1.419   1.031   4.313
10024SOL     OW30970   1.858   3.535   3.129
10024SOL    HW130971   1.811   3.579   3.052
10024SOL    HW230972   1.919   3.600   3.173
10025SOL     OW30973   0.163   1.727   1.583
10025SOL    HW130974   0.168   1.689   1.675
10025SOL    HW230975   0.233   1.799   1.573
10026SOL     OW30976   6.758   1.462   4.954
10026SOL    HW130977   6.687   1.434   4.889
10026SOL    HW230978   6.808   1.540   4.916
10027SOL     OW30979   3.550   1.593   5.615
10027SOL    HW130980   3.618   1.522   5.632
10027SOL    HW230981   3.459   1.553   5.616
10028SOL     OW30982   3.885   6.268   1.934
10028SOL    HW130983   3.801   6.306   1.896
10028SOL    HW230984   3.933   6.216   1.863
10029SOL     OW30985   6.806   5.228   3.337
10029SOL    HW130986   6.850   5.316   3.354
10029SOL    HW230987   6.877   5.157   3.332
10030SOL     OW30988   3.123   6.813   3.856
10030SOL    HW130989   3.031   6.809   3.818
10030SOL    HW230990   3.139   6.903   3.896
10031SOL     OW30991   2.107   6.450   3.198
10031SOL    HW130992   2.047   6.475   3.274
10031SOL    HW230993   2.078   6.363   3.159
10032SOL     OW30994   2.156   5.604   4.614
10032SOL    HW130995   2.199   5.627   4.701
10032SOL    HW230996   2.196   5.659   4.541
10033SOL     OW30997   2.282   1.549   4.222
10033SOL    HW130998   2.222   1.619   4.259
10033SOL    HW230999   2.373   1.557   4.263
10034SOL     OW31000   2.751   0.706   1.515
10034SOL    HW131001   2.746   0.644   1.437
10034SOL    HW231002   2.660   0.719   1.554
10035SOL     OW31003   0.143   2.956   2.234
10035SOL    HW131004   0.102   2.983   2.321
10035SOL    HW231005   0.233   2.998   2.225
10036SOL     OW31006   0.530   1.346   0.174
10036SOL    HW131007   0.588   1.273   0.138
10036SOL    HW231008   0.555   1.433   0.131
10037SOL     OW31009   6.321   0.959   6.442
10037SOL    HW131010   6.259   0.882   6.433
10037SOL    HW231011   6.320   0.992   6.536
10038SOL     OW31012   4.116   0.311   0.172
10038SOL    HW131013   4.135   0.325   0.269
10038SOL    HW231014   4.093   0.214   0.155
10039SOL     OW31015   0.042   4.293   0.604
10039SOL    HW131016   0.028   4.323   0.509
10039SOL    HW231017   0.014   4.366   0.667
10040SOL     OW31018   3.066   0.504   0.848
10040SOL    HW131019   3.140   0.478   0.786
10040SOL    HW231020   3.081   0.597   0.881
10041SOL     OW31021   5.650   4.847   5.941
10041SOL    HW131022   5.663   4.924   6.004
10041SOL    HW231023   5.689   4.764   5.982
10042SOL     OW31024   5.963   0.080   4.651
10042SOL    HW131025   5.993   0.136   4.728
10042SOL    HW231026   6.026   0.004   4.639
10043SOL     OW31027   0.519   0.348   3.272
10043SOL    HW131028   0.475   0.352   3.182
10043SOL    HW231029   0.600   0.289   3.267
10044SOL     OW31030   2.616   2.240   6.769
10044SOL    HW131031   2.675   2.181   6.824
10044SOL    HW231032   2.588   2.319   6.823
10045SOL     OW31033   4.028   6.667   4.672
10045SOL    HW131034   4.095   6.619   4.616
10045SOL    HW231035   4.030   6.765   4.650
10046SOL     OW31036   6.681   1.461   0.561
10046SOL    HW131037   6.728   1.446   0.648
10046SOL    HW231038   6.697   1.384   0.500
10047SOL     OW31039   1.331   2.118   3.900
10047SOL    HW131040   1.356   2.193   3.960
10047SOL    HW231041   1.377   2.129   3.812
10048SOL     OW31042   3.138   2.419   1.713
10048SOL    HW131043   3.058   2.433   1.771
10048SOL    HW231044   3.194   2.345   1.751
10049SOL     OW31045   0.982   4.688   5.043
10049SOL    HW131046   0.974   4.762   5.110
10049SOL    HW231047   0.915   4.701   4.970
10050SOL     OW31048   6.067   1.398   5.182
10050SOL    HW131049   6.056   1.300   5.166
10050SOL    HW231050   6.068   1.446   5.094
10051SOL     OW31051   5.988   1.676   0.912
10051SOL    HW131052   5.999   1.588   0.865
10051SOL    HW231053   5.980   1.661   1.011
10052SOL     OW31054   2.138   5.498   0.452
10052SOL    HW131055   2.078   5.552   0.393
10052SOL    HW231056   2.114   5.514   0.547
10053SOL     OW31057   3.292   6.918   3.098
10053SOL    HW131058   3.286   6.871   3.187
10053SOL    HW231059   3.377   6.892   3.053
10054SOL     OW31060   5.414   4.616   3.981
10054SOL    HW131061   5.390   4.533   3.930
10054SOL    HW231062   5.333   4.672   3.995
10055SOL     OW31063   4.955   2.314   6.795
10055SOL    HW131064   4.982   2.410   6.787
10055SOL    HW231065   4.896   2.290   6.718
10056SOL     OW31066   4.973   4.216   2.814
10056SOL    HW131067   4.951   4.262   2.900
10056SOL    HW231068   4.898   4.156   2.788
10057SOL     OW31069   2.220   3.014   3.180
10057SOL    HW131070   2.131   2.969   3.175
10057SOL    HW231071   2.224   3.087   3.111
10058SOL     OW31072   1.232   5.339   3.860
10058SOL    HW131073   1.141   5.366   3.828
10058SOL    HW231074   1.245   5.241   3.845
10059SOL     OW31075   4.020   6.114   1.678
10059SOL    HW131076   3.971   6.198   1.655
10059SOL    HW231077   4.013   6.049   1.603
10060SOL     OW31078   2.332   2.787   2.403
10060SOL    HW131079   2.342   2.782   2.503
10060SOL    HW231080   2.386   2.715   2.361
10061SOL     OW31081   0.213   1.674   5.807
10061SOL    HW131082   0.177   1.598   5.752
10061SOL    HW231083   0.187   1.761   5.765
10062SOL     OW31084   5.999   5.739   2.607
10062SOL    HW131085   5.927   5.674   2.582
10062SOL    HW231086   6.088   5.700   2.586
10063SOL     OW31087   1.151   2.949   2.573
10063SOL    HW131088   1.229   2.911   2.523
10063SOL    HW231089   1.067   2.932   2.522
10064SOL     OW31090   5.082   4.630   5.462
10064SOL    HW131091   5.143   4.703   5.431
10064SOL    HW231092   5.136   4.550   5.488
10065SOL     OW31093   0.472   0.271   2.580
10065SOL    HW131094   0.470   0.260   2.481
10065SOL    HW231095   0.469   0.368   2.603
10066SOL     OW31096   6.516   0.162   4.354
10066SOL    HW131097   6.547   0.257   4.343
10066SOL    HW231098   6.563   0.104   4.287
10067SOL     OW31099   4.668   6.738   2.442
10067SOL    HW131100   4.608   6.818   2.436
10067SOL    HW231101   4.668   6.689   2.355
10068SOL     OW31102   5.544   3.364   5.631
10068SOL    HW131103   5.543   3.393   5.535
10068SOL    HW231104   5.503   3.274   5.639
10069SOL     OW31105   4.938   1.047   4.800
10069SOL    HW131106   5.025   0.998   4.790
10069SOL    HW231107   4.910   1.044   4.896
10070SOL     OW31108   0.601   0.157   4.283
10070SOL    HW131109   0.667   0.097   4.328
10070SOL    HW231110   0.626   0.252   4.302
10071SOL     OW31111   4.610   4.390   5.238
10071SOL    HW131112   4.688   4.377   5.300
10071SOL    HW231113   4.526   4.362   5.284
10072SOL     OW31114   0.389   6.150   4.384
10072SOL    HW131115   0.398   6.213   4.307
10072SOL    HW231116   0.334   6.071   4.358
10073SOL     OW31117   0.008   0.071   6.710
10073SOL    HW131118   7.003   0.157   6.667
10073SOL    HW231119   6.956   0.033   6.762
10074SOL     OW31120   1.933   6.459   4.688
10074SOL    HW131121   2.020   6.453   4.639
10074SOL    HW231122   1.871   6.518   4.638
10075SOL     OW31123   1.285   2.414   4.415
10075SOL    HW131124   1.316   2.322   4.436
10075SOL    HW231125   1.186   2.420   4.426
10076SOL     OW31126   5.581   6.897   3.426
10076SOL    HW131127   5.542   6.903   3.517
10076SOL    HW231128   5.667   6.947   3.423
10077SOL     OW31129   2.477   1.232   5.741
10077SOL    HW131130   2.543   1.307   5.731
10077SOL    HW231131   2.430   1.218   5.653
10078SOL     OW31132   5.698   5.976   5.197
10078SOL    HW131133   5.696   6.075   5.193
10078SOL    HW231134   5.697   5.946   5.292
10079SOL     OW31135   0.788   3.191   5.842
10079SOL    HW131136   0.747   3.111   5.885
10079SOL    HW231137   0.737   3.273   5.866
10080SOL     OW31138   1.564   2.170   5.164
10080SOL    HW131139   1.560   2.270   5.169
10080SOL    HW231140   1.489   2.137   5.108
10081SOL     OW31141   0.519   0.884   0.893
10081SOL    HW131142   0.567   0.797   0.896
10081SOL    HW231143   0.445   0.879   0.825
10082SOL     OW31144   6.886   0.938   0.197
10082SOL    HW131145   6.791   0.921   0.170
10082SOL    HW231146   6.947   0.888   0.137
10083SOL     OW31147   5.403   1.255   4.470
10083SOL    HW131148   5.486   1.286   4.425
10083SOL    HW231149   5.404   1.155   4.477
10084SOL     OW31150   2.858   0.576   7.002
10084SOL    HW131151   2.891   0.554   0.070
10084SOL    HW231152   2.929   0.554   6.935
10085SOL     OW31153   0.793   5.676   2.498
10085SOL    HW131154   0.713   5.622   2.471
10085SOL    HW231155   0.872   5.616   2.508
10086SOL     OW31156   6.932   1.888   2.569
10086SOL    HW131157   6.985   1.971   2.589
10086SOL    HW231158   6.994   1.814   2.542
10087SOL     OW31159   1.638   0.210   3.449
10087SOL    HW131160   1.539   0.225   3.452
10087SOL    HW231161   1.662   0.134   3.510
10088SOL     OW31162   5.723   7.022   4.573
10088SOL    HW131163   5.816   0.029   4.593
10088SOL    HW231164   5.702   0.015   4.477
10089SOL     OW31165   2.241   2.406   2.212
10089SOL    HW131166   2.252   2.475   2.141
10089SOL    HW231167   2.282   2.320   2.182
10090SOL     OW31168   0.507   5.790   2.318
10090SOL    HW131169   0.533   5.701   2.357
10090SOL    HW231170   0.409   5.789   2.296
10091SOL     OW31171   0.921   1.644   4.196
10091SOL    HW131172   0.952   1.682   4.109
10091SOL    HW231173   0.960   1.697   4.271
10092SOL     OW31174   2.732   2.600   5.344
10092SOL    HW131175   2.670   2.544   5.400
10092SOL    HW231176   2.678   2.664   5.289
10093SOL     OW31177   6.758   6.864   5.227
10093SOL    HW131178   6.826   6.937   5.237
10093SOL    HW231179   6.667   6.900   5.248
10094SOL     OW31180   1.269   0.414   1.795
10094SOL    HW131181   1.352   0.433   1.847
10094SOL    HW231182   1.256   0.315   1.788
10095SOL     OW31183   0.804   2.590   4.805
10095SOL    HW131184   0.790   2.596   4.706
10095SOL    HW231185   0.891   2.633   4.829
10096SOL     OW31186   6.627   5.875   2.755
10096SOL    HW131187   6.570   5.877   2.674
10096SOL    HW231188   6.650   5.969   2.782
10097SOL     OW31189   1.892   2.024   5.718
10097SOL    HW131190   1.877   2.112   5.764
10097SOL    HW231191   1.990   2.010   5.705
10098SOL     OW31192   2.843   4.662   6.507
10098SOL    HW131193   2.783   4.740   6.492
10098SOL    HW231194   2.845   4.605   6.424
10099SOL     OW31195   1.149   3.500   4.328
10099SOL    HW131196   1.152   3.576   4.263
10099SOL    HW231197   1.060   3.499   4.374
10100SOL     OW31198   4.718   0.500   6.095
10100SOL    HW131199   4.778   0.426   6.064
10100SOL    HW231200   4.679   0.477   6.184
10101SOL     OW31201   0.640   3.667   2.426
10101SOL    HW131202   0.649   3.586   2.484
10101SOL    HW231203   0.694   3.741   2.464
10102SOL     OW31204   4.198   0.888   4.400
10102SOL    HW131205   4.110   0.918   4.436
10102SOL    HW231206   4.254   0.851   4.474
10103SOL     OW31207   6.837   2.930   0.637
10103SOL    HW131208   6.915   2.960   0.692
10103SOL    HW231209   6.850   2.834   0.611
10104SOL     OW31210   2.009   5.293   6.053
10104SOL    HW131211   1.953   5.359   6.003
10104SOL    HW231212   1.960   5.206   6.059
10105SOL     OW31213   3.873   0.369   0.005
10105SOL    HW131214   3.806   0.443   0.014
10105SOL    HW231215   3.941   0.376   0.078
10106SOL     OW31216   4.701   5.803   0.752
10106SOL    HW131217   4.753   5.719   0.769
10106SOL    HW231218   4.651   5.828   0.835
10107SOL     OW31219   5.579   2.085   5.857
10107SOL    HW131220   5.542   2.066   5.766
10107SOL    HW231221   5.676   2.108   5.850
10108SOL     OW31222   5.041   5.805   6.405
10108SOL    HW131223   5.043   5.899   6.440
10108SOL    HW231224   5.132   5.781   6.371
10109SOL     OW31225   5.206   6.297   4.133
10109SOL    HW131226   5.253   6.258   4.213
10109SOL    HW231227   5.262   6.281   4.051
10110SOL     OW31228   3.580   2.407   6.267
10110SOL    HW131229   3.533   2.492   6.242
10110SOL    HW231230   3.530   2.329   6.228
10111SOL     OW31231   6.825   2.316   1.741
10111SOL    HW131232   6.799   2.340   1.835
10111SOL    HW231233   6.919   2.345   1.724
10112SOL     OW31234   4.804   3.988   5.903
10112SOL    HW131235   4.897   4.021   5.884
10112SOL    HW231236   4.791   3.899   5.858
10113SOL     OW31237   3.565   0.070   0.931
10113SOL    HW131238   3.607   0.135   0.994
10113SOL    HW231239   3.553   7.006   0.977
10114SOL     OW31240   4.518   1.719   1.809
10114SOL    HW131241   4.498   1.793   1.744
10114SOL    HW231242   4.614   1.694   1.802
10115SOL     OW31243   1.572   1.236   4.522
10115SOL    HW131244   1.640   1.282   4.465
10115SOL    HW231245   1.496   1.298   4.541
10116SOL     OW31246   0.609   0.649   1.043
10116SOL    HW131247   0.701   0.654   1.004
10116SOL    HW231248   0.600   0.715   1.117
10117SOL     OW31249   3.862   6.970   6.409
10117SOL    HW131250   3.902   6.921   6.332
10117SOL    HW231251   3.862   0.044   6.391
10118SOL     OW31252   4.994   5.231   3.035
10118SOL    HW131253   4.988   5.244   3.134
10118SOL    HW231254   5.041   5.145   3.015
10119SOL     OW31255   1.993   0.300   5.838
10119SOL    HW131256   2.075   0.358   5.840
10119SOL    HW231257   2.017   0.210   5.802
10120SOL     OW31258   5.680   3.158   3.597
10120SOL    HW131259   5.662   3.226   3.667
10120SOL    HW231260   5.621   3.078   3.612
10121SOL     OW31261   5.890   4.668   4.645
10121SOL    HW131262   5.796   4.639   4.664
10121SOL    HW231263   5.888   4.739   4.575
10122SOL     OW31264   5.290   2.432   1.189
10122SOL    HW131265   5.363   2.446   1.122
10122SOL    HW231266   5.302   2.493   1.267
10123SOL     OW31267   0.375   5.993   0.621
10123SOL    HW131268   0.316   6.074   0.626
10123SOL    HW231269   0.327   5.919   0.574
10124SOL     OW31270   3.571   4.023   0.779
10124SOL    HW131271   3.632   3.956   0.822
10124SOL    HW231272   3.591   4.027   0.681
10125SOL     OW31273   2.518   0.910   6.987
10125SOL    HW131274   2.544   0.987   6.929
10125SOL    HW231275   2.511   0.941   0.058
10126SOL     OW31276   6.144   5.293   6.562
10126SOL    HW131277   6.179   5.346   6.639
10126SOL    HW231278   6.201   5.213   6.547
10127SOL     OW31279   3.842   4.928   5.021
10127SOL    HW131280   3.854   4.934   5.120
10127SOL    HW231281   3.919   4.879   4.981
10128SOL     OW31282   0.637   1.768   0.735
10128SOL    HW131283   0.733   1.797   0.729
10128SOL    HW231284   0.607   1.736   0.645
10129SOL     OW31285   5.612   2.515   2.799
10129SOL    HW131286   5.612   2.416   2.783
10129SOL    HW231287   5.524   2.553   2.769
10130SOL     OW31288   6.138   5.584   1.691
10130SOL    HW131289   6.170   5.611   1.782
10130SOL    HW231290   6.141   5.485   1.683
10131SOL     OW31291   0.404   0.649   0.446
10131SOL    HW131292   0.437   0.742   0.463
10131SOL    HW231293   0.363   0.644   0.355
10132SOL     OW31294   2.247   6.402   2.635
10132SOL    HW131295   2.293   6.483   2.673
10132SOL    HW231296   2.260   6.400   2.536
10133SOL     OW31297   5.882   4.623   2.579
10133SOL    HW131298   5.800   4.572   2.604
10133SOL    HW231299   5.960   4.587   2.631
10134SOL     OW31300   0.936   1.914   1.603
10134SOL    HW131301   0.874   1.848   1.560
10134SOL    HW231302   0.977   1.873   1.684
10135SOL     OW31303   3.003   6.853   1.709
10135SOL    HW131304   3.057   6.833   1.791
10135SOL    HW231305   2.952   6.938   1.724
10136SOL     OW31306   5.798   6.702   2.715
10136SOL    HW131307   5.779   6.614   2.758
10136SOL    HW231308   5.868   6.690   2.644
10137SOL     OW31309   5.706   4.634   4.365
10137SOL    HW131310   5.725   4.537   4.351
10137SOL    HW231311   5.664   4.671   4.282
10138SOL     OW31312   5.689   3.090   6.395
10138SOL    HW131313   5.752   3.103   6.471
10138SOL    HW231314   5.621   3.021   6.419
10139SOL     OW31315   3.929   3.011   3.142
10139SOL    HW131316   4.005   3.003   3.077
10139SOL    HW231317   3.849   2.963   3.105
10140SOL     OW31318   1.265   4.770   5.009
10140SOL    HW131319   1.308   4.762   4.919
10140SOL    HW231320   1.212   4.687   5.027
10141SOL     OW31321   1.600   0.537   3.528
10141SOL    HW131322   1.662   0.497   3.460
10141SOL    HW231323   1.654   0.573   3.604
10142SOL     OW31324   5.423   5.373   4.097
10142SOL    HW131325   5.432   5.407   4.191
10142SOL    HW231326   5.331   5.336   4.084
10143SOL     OW31327   3.857   6.116   1.374
10143SOL    HW131328   3.871   6.199   1.429
10143SOL    HW231329   3.941   6.062   1.374
10144SOL     OW31330   3.415   5.046   2.330
10144SOL    HW131331   3.381   5.132   2.292
10144SOL    HW231332   3.370   5.028   2.418
10145SOL     OW31333   2.295   0.528   6.070
10145SOL    HW131334   2.238   0.490   5.997
10145SOL    HW231335   2.307   0.627   6.054
10146SOL     OW31336   4.493   4.546   3.888
10146SOL    HW131337   4.509   4.458   3.842
10146SOL    HW231338   4.579   4.595   3.896
10147SOL     OW31339   5.232   5.553   4.701
10147SOL    HW131340   5.176   5.543   4.618
10147SOL    HW231341   5.172   5.553   4.781
10148SOL     OW31342   6.050   5.977   1.281
10148SOL    HW131343   6.095   6.029   1.353
10148SOL    HW231344   5.955   6.008   1.272
10149SOL     OW31345   3.845   2.612   1.692
10149SOL    HW131346   3.856   2.514   1.707
10149SOL    HW231347   3.757   2.642   1.728
10150SOL     OW31348   5.127   4.245   0.844
10150SOL    HW131349   5.184   4.178   0.892
10150SOL    HW231350   5.065   4.288   0.909
10151SOL     OW31351   0.375   5.234   5.948
10151SOL    HW131352   0.335   5.143   5.949
10151SOL    HW231353   0.441   5.241   5.873
10152SOL     OW31354   0.590   5.920   4.133
10152SOL    HW131355   0.558   5.894   4.224
10152SOL    HW231356   0.650   6.000   4.140
10153SOL     OW31357   5.159   5.453   3.936
10153SOL    HW131358   5.096   5.523   3.971
10153SOL    HW231359   5.211   5.491   3.859
10154SOL     OW31360   6.236   5.611   5.686
10154SOL    HW131361   6.234   5.520   5.645
10154SOL    HW231362   6.151   5.660   5.664
10155SOL     OW31363   4.236   1.801   5.702
10155SOL    HW131364   4.281   1.825   5.616
10155SOL    HW231365   4.154   1.857   5.715
10156SOL     OW31366   5.639   6.803   1.899
10156SOL    HW131367   5.670   6.894   1.926
10156SOL    HW231368   5.555   6.811   1.845
10157SOL     OW31369   4.949   6.885   3.121
10157SOL    HW131370   4.997   6.881   3.209
10157SOL    HW231371   4.884   6.808   3.116
10158SOL     OW31372   5.033   3.642   5.756
10158SOL    HW131373   4.992   3.608   5.840
10158SOL    HW231374   4.972   3.625   5.679
10159SOL     OW31375   0.943   0.578   6.655
10159SOL    HW131376   0.924   0.620   6.566
10159SOL    HW231377   1.040   0.560   6.664
10160SOL     OW31378   0.288   0.024   3.886
10160SOL    HW131379   0.371   6.999   3.911
10160SOL    HW231380   0.312   0.114   3.851
10161SOL     OW31381   2.803   5.612   5.254
10161SOL    HW131382   2.805   5.519   5.219
10161SOL    HW231383   2.866   5.620   5.332
10162SOL     OW31384   2.686   2.558   5.750
10162SOL    HW131385   2.752   2.502   5.801
10162SOL    HW231386   2.650   2.504   5.674
10163SOL     OW31387   0.784   3.697   5.219
10163SOL    HW131388   0.867   3.694   5.274
10163SOL    HW231389   0.713   3.642   5.263
10164SOL     OW31390   1.823   3.053   6.699
10164SOL    HW131391   1.900   3.003   6.739
10164SOL    HW231392   1.742   2.995   6.697
10165SOL     OW31393   0.118   1.709   3.405
10165SOL    HW131394   0.062   1.647   3.351
10165SOL    HW231395   0.210   1.671   3.416
10166SOL     OW31396   0.526   1.139   2.161
10166SOL    HW131397   0.441   1.154   2.211
10166SOL    HW231398   0.570   1.227   2.142
10167SOL     OW31399   4.877   0.780   0.163
10167SOL    HW131400   4.968   0.768   0.123
10167SOL    HW231401   4.837   0.690   0.183
10168SOL     OW31402   6.359   4.642   5.840
10168SOL    HW131403   6.410   4.686   5.766
10168SOL    HW231404   6.422   4.585   5.893
10169SOL     OW31405   6.994   4.157   5.201
10169SOL    HW131406   6.910   4.167   5.255
10169SOL    HW231407   0.031   4.092   5.246
10170SOL     OW31408   1.704   4.665   4.819
10170SOL    HW131409   1.632   4.599   4.797
10170SOL    HW231410   1.764   4.676   4.740
10171SOL     OW31411   6.548   2.661   6.008
10171SOL    HW131412   6.488   2.741   6.004
10171SOL    HW231413   6.495   2.581   6.036
10172SOL     OW31414   4.926   0.274   4.864
10172SOL    HW131415   5.004   0.286   4.925
10172SOL    HW231416   4.899   0.178   4.862
10173SOL     OW31417   1.926   2.755   2.541
10173SOL    HW131418   1.847   2.804   2.504
10173SOL    HW231419   1.910   2.657   2.536
10174SOL     OW31420   6.373   5.090   0.901
10174SOL    HW131421   6.413   5.005   0.867
10174SOL    HW231422   6.444   5.143   0.948
10175SOL     OW31423   5.732   2.323   5.289
10175SOL    HW131424   5.742   2.352   5.194
10175SOL    HW231425   5.808   2.360   5.343
10176SOL     OW31426   2.873   3.098   0.663
10176SOL    HW131427   2.795   3.122   0.720
10176SOL    HW231428   2.957   3.104   0.716
10177SOL     OW31429   0.798   6.898   5.780
10177SOL    HW131430   0.863   6.834   5.738
10177SOL    HW231431   0.824   6.913   5.876
10178SOL     OW31432   4.927   3.138   5.116
10178SOL    HW131433   4.936   3.234   5.145
10178SOL    HW231434   5.007   3.112   5.062
10179SOL     OW31435   6.759   2.990   0.336
10179SOL    HW131436   6.695   3.064   0.359
10179SOL    HW231437   6.716   2.902   0.354
10180SOL     OW31438   1.725   6.591   6.807
10180SOL    HW131439   1.635   6.635   6.801
10180SOL    HW231440   1.758   6.596   6.901
10181SOL     OW31441   5.885   3.256   2.577
10181SOL    HW131442   5.864   3.256   2.675
10181SOL    HW231443   5.861   3.167   2.538
10182SOL     OW31444   3.799   1.535   1.136
10182SOL    HW131445   3.735   1.566   1.206
10182SOL    HW231446   3.785   1.588   1.052
10183SOL     OW31447   1.647   1.745   6.323
10183SOL    HW131448   1.722   1.713   6.266
10183SOL    HW231449   1.588   1.807   6.271
10184SOL     OW31450   4.677   0.191   0.470
10184SOL    HW131451   4.613   0.114   0.466
10184SOL    HW231452   4.628   0.277   0.459
10185SOL     OW31453   4.669   1.087   0.439
10185SOL    HW131454   4.583   1.038   0.426
10185SOL    HW231455   4.664   1.175   0.392
10186SOL     OW31456   4.890   2.392   2.766
10186SOL    HW131457   4.945   2.308   2.761
10186SOL    HW231458   4.897   2.431   2.858
10187SOL     OW31459   0.446   2.700   2.171
10187SOL    HW131460   0.356   2.656   2.178
10187SOL    HW231461   0.515   2.639   2.209
10188SOL     OW31462   3.883   6.246   0.900
10188SOL    HW131463   3.805   6.195   0.935
10188SOL    HW231464   3.968   6.205   0.935
10189SOL     OW31465   0.250   6.631   4.682
10189SOL    HW131466   0.168   6.684   4.662
10189SOL    HW231467   0.239   6.538   4.648
10190SOL     OW31468   5.779   3.016   0.425
10190SOL    HW131469   5.756   3.089   0.360
10190SOL    HW231470   5.803   2.933   0.374
10191SOL     OW31471   6.595   4.551   0.132
10191SOL    HW131472   6.578   4.455   0.153
10191SOL    HW231473   6.527   4.583   0.065
10192SOL     OW31474   4.008   1.677   0.679
10192SOL    HW131475   4.090   1.626   0.656
10192SOL    HW231476   3.932   1.647   0.622
10193SOL     OW31477   4.999   4.732   1.318
10193SOL    HW131478   4.983   4.687   1.406
10193SOL    HW231479   5.093   4.765   1.314
10194SOL     OW31480   4.759   2.702   4.969
10194SOL    HW131481   4.716   2.739   5.051
10194SOL    HW231482   4.836   2.761   4.942
10195SOL     OW31483   5.612   5.565   2.515
10195SOL    HW131484   5.709   5.546   2.500
10195SOL    HW231485   5.572   5.492   2.571
10196SOL     OW31486   0.757   1.399   4.448
10196SOL    HW131487   0.828   1.470   4.456
10196SOL    HW231488   0.796   1.310   4.473
10197SOL     OW31489   4.730   0.561   6.696
10197SOL    HW131490   4.803   0.609   6.745
10197SOL    HW231491   4.718   0.603   6.606
10198SOL     OW31492   4.795   0.257   1.544
10198SOL    HW131493   4.863   0.186   1.564
10198SOL    HW231494   4.709   0.213   1.516
10199SOL     OW31495   0.574   2.386   5.715
10199SOL    HW131496   0.627   2.327   5.653
10199SOL    HW231497   0.514   2.329   5.771
10200SOL     OW31498   5.228   2.586   2.677
10200SOL    HW131499   5.157   2.581   2.747
10200SOL    HW231500   5.198   2.536   2.596
10201SOL     OW31501   1.900   3.288   0.861
10201SOL    HW131502   1.861   3.328   0.944
10201SOL    HW231503   1.826   3.260   0.800
10202SOL     OW31504   4.798   0.002   2.800
10202SOL    HW131505   4.832   0.028   2.891
10202SOL    HW231506   4.754   0.080   2.757
10203SOL     OW31507   0.389   3.580   5.536
10203SOL    HW131508   0.320   3.640   5.495
10203SOL    HW231509   0.469   3.574   5.476
10204SOL     OW31510   4.460   4.699   6.011
10204SOL    HW131511   4.360   4.703   6.012
10204SOL    HW231512   4.492   4.643   6.087
10205SOL     OW31513   0.222   1.592   6.998
10205SOL    HW131514   0.222   1.664   0.043
10205SOL    HW231515   0.136   1.594   6.948
10206SOL     OW31516   2.640   2.121   4.348
10206SOL    HW131517   2.638   2.161   4.257
10206SOL    HW231518   2.578   2.042   4.352
10207SOL     OW31519   2.067   2.891   6.145
10207SOL    HW131520   2.092   2.799   6.174
10207SOL    HW231521   2.103   2.908   6.053
10208SOL     OW31522   6.620   0.504   5.640
10208SOL    HW131523   6.656   0.414   5.614
10208SOL    HW231524   6.662   0.575   5.585
10209SOL     OW31525   6.909   6.395   5.674
10209SOL    HW131526   6.980   6.376   5.742
10209SOL    HW231527   6.903   6.493   5.658
10210SOL     OW31528   3.552   0.699   2.002
10210SOL    HW131529   3.479   0.741   1.948
10210SOL    HW231530   3.638   0.707   1.952
10211SOL     OW31531   5.543   5.460   6.582
10211SOL    HW131532   5.449   5.430   6.566
10211SOL    HW231533   5.598   5.382   6.614
10212SOL     OW31534   0.209   0.513   0.633
10212SOL    HW131535   0.267   0.574   0.579
10212SOL    HW231536   0.157   0.454   0.571
10213SOL     OW31537   6.792   2.916   1.761
10213SOL    HW131538   6.867   2.858   1.729
10213SOL    HW231539   6.744   2.871   1.836
10214SOL     OW31540   1.112   2.505   1.510
10214SOL    HW131541   1.126   2.585   1.452
10214SOL    HW231542   1.155   2.521   1.600
10215SOL     OW31543   4.063   3.525   1.969
10215SOL    HW131544   3.971   3.491   1.948
10215SOL    HW231545   4.095   3.483   2.054
10216SOL     OW31546   0.784   6.434   2.146
10216SOL    HW131547   0.719   6.384   2.203
10216SOL    HW231548   0.762   6.419   2.050
10217SOL     OW31549   3.482   1.829   5.221
10217SOL    HW131550   3.489   1.918   5.265
10217SOL    HW231551   3.471   1.841   5.122
10218SOL     OW31552   0.718   2.935   2.959
10218SOL    HW131553   0.812   2.902   2.965
10218SOL    HW231554   0.668   2.879   2.893
10219SOL     OW31555   0.303   6.506   3.113
10219SOL    HW131556   0.245   6.573   3.066
10219SOL    HW231557   0.335   6.544   3.199
10220SOL     OW31558   3.938   3.262   6.807
10220SOL    HW131559   3.954   3.338   6.870
10220SOL    HW231560   3.933   3.177   6.859
10221SOL     OW31561   1.073   5.662   2.784
10221SOL    HW131562   0.988   5.701   2.749
10221SOL    HW231563   1.151   5.713   2.747
10222SOL     OW31564   3.047   3.168   3.305
10222SOL    HW131565   3.073   3.219   3.388
10222SOL    HW231566   3.117   3.100   3.285
10223SOL     OW31567   3.303   6.829   0.813
10223SOL    HW131568   3.305   6.733   0.782
10223SOL    HW231569   3.234   6.879   0.761
10224SOL     OW31570   6.887   3.632   4.000
10224SOL    HW131571   6.826   3.694   3.951
10224SOL    HW231572   6.850   3.539   3.995
10225SOL     OW31573   1.863   3.932   5.631
10225SOL    HW131574   1.847   3.841   5.668
10225SOL    HW231575   1.876   3.926   5.532
10226SOL     OW31576   4.029   5.149   6.310
10226SOL    HW131577   4.076   5.069   6.272
10226SOL    HW231578   4.017   5.217   6.238
10227SOL     OW31579   5.249   4.048   1.002
10227SOL    HW131580   5.323   3.994   0.961
10227SOL    HW231581   5.237   4.020   1.098
10228SOL     OW31582   5.269   7.011   6.926
10228SOL    HW131583   5.283   0.057   6.857
10228SOL    HW231584   5.344   6.945   6.922
10229SOL     OW31585   0.248   2.424   5.186
10229SOL    HW131586   0.159   2.378   5.185
10229SOL    HW231587   0.276   2.439   5.281
10230SOL     OW31588   5.790   5.879   1.697
10230SOL    HW131589   5.769   5.976   1.686
10230SOL    HW231590   5.870   5.856   1.641
10231SOL     OW31591   0.141   3.670   1.949
10231SOL    HW131592   0.138   3.767   1.924
10231SOL    HW231593   0.088   3.655   2.033
10232SOL     OW31594   4.603   4.557   2.287
10232SOL    HW131595   4.537   4.589   2.219
10232SOL    HW231596   4.642   4.636   2.335
10233SOL     OW31597   3.639   3.043   5.612
10233SOL    HW131598   3.738   3.045   5.605
10233SOL    HW231599   3.599   3.103   5.542
10234SOL     OW31600   0.999   0.696   2.046
10234SOL    HW131601   1.044   0.756   2.112
10234SOL    HW231602   0.956   0.752   1.974
10235SOL     OW31603   1.020   0.384   2.665
10235SOL    HW131604   1.026   0.314   2.735
10235SOL    HW231605   1.088   0.455   2.682
10236SOL     OW31606   1.168   0.597   2.737
10236SOL    HW131607   1.145   0.692   2.755
10236SOL    HW231608   1.241   0.592   2.669
10237SOL     OW31609   0.200   4.235   5.842
10237SOL    HW131610   0.289   4.209   5.877
10237SOL    HW231611   0.136   4.158   5.851
10238SOL     OW31612   2.867   0.189   0.567
10238SOL    HW131613   2.773   0.179   0.533
10238SOL    HW231614   2.884   0.121   0.638
10239SOL     OW31615   1.205   2.589   5.168
10239SOL    HW131616   1.196   2.551   5.076
10239SOL    HW231617   1.132   2.657   5.183
10240SOL     OW31618   1.204   6.611   1.184
10240SOL    HW131619   1.214   6.657   1.096
10240SOL    HW231620   1.166   6.676   1.251
10241SOL     OW31621   4.482   3.802   1.560
10241SOL    HW131622   4.530   3.874   1.510
10241SOL    HW231623   4.413   3.843   1.620
10242SOL     OW31624   0.820   3.457   1.705
10242SOL    HW131625   0.802   3.547   1.744
10242SOL    HW231626   0.772   3.387   1.758
10243SOL     OW31627   3.937   5.337   2.071
10243SOL    HW131628   3.940   5.311   1.974
10243SOL    HW231629   3.902   5.260   2.125
10244SOL     OW31630   1.966   5.661   1.334
10244SOL    HW131631   1.914   5.737   1.372
10244SOL    HW231632   2.046   5.642   1.391
10245SOL     OW31633   6.272   4.005   0.985
10245SOL    HW131634   6.235   4.097   0.979
10245SOL    HW231635   6.372   4.009   0.982
10246SOL     OW31636   3.501   3.512   3.766
10246SOL    HW131637   3.530   3.599   3.727
10246SOL    HW231638   3.436   3.468   3.705
10247SOL     OW31639   0.722   3.603   4.928
10247SOL    HW131640   0.630   3.640   4.916
10247SOL    HW231641   0.788   3.679   4.931
10248SOL     OW31642   0.814   1.283   4.144
10248SOL    HW131643   0.870   1.311   4.222
10248SOL    HW231644   0.731   1.339   4.141
10249SOL     OW31645   2.756   4.858   6.243
10249SOL    HW131646   2.795   4.945   6.275
10249SOL    HW231647   2.792   4.836   6.153
10250SOL     OW31648   2.797   2.880   0.292
10250SOL    HW131649   2.790   2.977   0.271
10250SOL    HW231650   2.798   2.828   0.207
10251SOL     OW31651   1.031   0.999   4.950
10251SOL    HW131652   0.972   1.055   5.007
10251SOL    HW231653   0.982   0.971   4.867
10252SOL     OW31654   5.534   3.830   6.129
10252SOL    HW131655   5.545   3.893   6.052
10252SOL    HW231656   5.516   3.738   6.095
10253SOL     OW31657   3.823   5.295   0.669
10253SOL    HW131658   3.803   5.393   0.673
10253SOL    HW231659   3.738   5.243   0.680
10254SOL     OW31660   6.608   1.789   6.511
10254SOL    HW131661   6.684   1.796   6.576
10254SOL    HW231662   6.545   1.718   6.541
10255SOL     OW31663   4.196   4.275   1.693
10255SOL    HW131664   4.208   4.306   1.599
10255SOL    HW231665   4.260   4.324   1.753
10256SOL     OW31666   2.086   0.465   4.039
10256SOL    HW131667   2.081   0.470   3.939
10256SOL    HW231668   2.103   0.371   4.067
10257SOL     OW31669   3.569   6.366   3.131
10257SOL    HW131670   3.524   6.442   3.176
10257SOL    HW231671   3.585   6.292   3.197
10258SOL     OW31672   3.477   1.596   2.236
10258SOL    HW131673   3.449   1.683   2.196
10258SOL    HW231674   3.489   1.528   2.163
10259SOL     OW31675   2.184   3.932   3.540
10259SOL    HW131676   2.095   3.977   3.541
10259SOL    HW231677   2.234   3.959   3.457
10260SOL     OW31678   0.120   0.524   3.936
10260SOL    HW131679   0.130   0.618   3.902
10260SOL    HW231680   0.146   0.521   4.032
10261SOL     OW31681   6.202   3.727   1.674
10261SOL    HW131682   6.260   3.661   1.626
10261SOL    HW231683   6.108   3.718   1.641
10262SOL     OW31684   4.436   1.139   6.791
10262SOL    HW131685   4.341   1.147   6.763
10262SOL    HW231686   4.495   1.170   6.716
10263SOL     OW31687   5.557   0.419   2.819
10263SOL    HW131688   5.617   0.433   2.740
10263SOL    HW231689   5.494   0.496   2.827
10264SOL     OW31690   6.819   1.285   6.289
10264SOL    HW131691   6.832   1.206   6.349
10264SOL    HW231692   6.907   1.311   6.249
10265SOL     OW31693   1.490   1.269   2.471
10265SOL    HW131694   1.559   1.203   2.441
10265SOL    HW231695   1.410   1.220   2.507
10266SOL     OW31696   2.747   3.690   1.696
10266SOL    HW131697   2.659   3.733   1.714
10266SOL    HW231698   2.809   3.706   1.773
10267SOL     OW31699   5.990   0.747   0.366
10267SOL    HW131700   5.992   0.774   0.463
10267SOL    HW231701   5.897   0.720   0.341
10268SOL     OW31702   4.044   5.814   2.982
10268SOL    HW131703   4.087   5.897   3.015
10268SOL    HW231704   4.109   5.763   2.926
10269SOL     OW31705   2.725   1.363   6.238
10269SOL    HW131706   2.684   1.393   6.152
10269SOL    HW231707   2.653   1.345   6.305
10270SOL     OW31708   3.030   0.249   3.337
10270SOL    HW131709   2.999   0.341   3.313
10270SOL    HW231710   3.099   0.254   3.409
10271SOL     OW31711   2.258   1.120   0.146
10271SOL    HW131712   2.247   1.202   0.089
10271SOL    HW231713   2.346   1.124   0.193
10272SOL     OW31714   5.661   6.249   5.204
10272SOL    HW131715   5.649   6.325   5.140
10272SOL    HW231716   5.646   6.281   5.298
10273SOL     OW31717   2.006   5.492   2.286
10273SOL    HW131718   2.056   5.416   2.245
10273SOL    HW231719   1.914   5.461   2.312
10274SOL     OW31720   0.738   4.491   5.058
10274SOL    HW131721   0.769   4.503   5.153
10274SOL    HW231722   0.763   4.571   5.004
10275SOL     OW31723   0.059   1.191   1.867
10275SOL    HW131724   0.003   1.179   1.785
10275SOL    HW231725   0.125   1.116   1.874
10276SOL     OW31726   3.463   4.911   5.231
10276SOL    HW131727   3.537   4.852   5.262
10276SOL    HW231728   3.401   4.930   5.306
10277SOL     OW31729   0.349   5.330   3.533
10277SOL    HW131730   0.268   5.272   3.541
10277SOL    HW231731   0.429   5.282   3.570
10278SOL     OW31732   5.679   0.428   4.111
10278SOL    HW131733   5.730   0.459   4.191
10278SOL    HW231734   5.581   0.438   4.129
10279SOL     OW31735   1.095   5.308   4.416
10279SOL    HW131736   1.098   5.328   4.514
10279SOL    HW231737   1.178   5.258   4.390
10280SOL     OW31738   6.207   5.987   0.739
10280SOL    HW131739   6.246   6.038   0.662
10280SOL    HW231740   6.232   6.031   0.825
10281SOL     OW31741   6.162   6.680   4.466
10281SOL    HW131742   6.195   6.760   4.415
10281SOL    HW231743   6.136   6.608   4.402
10282SOL     OW31744   5.255   2.344   3.462
10282SOL    HW131745   5.323   2.373   3.394
10282SOL    HW231746   5.174   2.402   3.455
10283SOL     OW31747   0.073   2.292   1.035
10283SOL    HW131748   0.137   2.225   0.997
10283SOL    HW231749   0.090   2.302   1.133
10284SOL     OW31750   1.305   5.345   5.290
10284SOL    HW131751   1.400   5.319   5.307
10284SOL    HW231752   1.293   5.367   5.193
10285SOL     OW31753   0.250   6.963   6.079
10285SOL    HW131754   0.163   7.011   6.081
10285SOL    HW231755   0.279   6.950   5.984
10286SOL     OW31756   3.513   0.805   1.636
10286SOL    HW131757   3.567   0.723   1.621
10286SOL    HW231758   3.431   0.782   1.689
10287SOL     OW31759   0.692   5.851   3.212
10287SOL    HW131760   0.612   5.876   3.267
10287SOL    HW231761   0.694   5.907   3.129
10288SOL     OW31762   3.772   6.283   4.698
10288SOL    HW131763   3.772   6.267   4.797
10288SOL    HW231764   3.798   6.378   4.680
10289SOL     OW31765   3.709   6.473   6.416
10289SOL    HW131766   3.693   6.397   6.353
10289SOL    HW231767   3.624   6.524   6.430
10290SOL     OW31768   3.600   3.242   2.600
10290SOL    HW131769   3.642   3.202   2.681
10290SOL    HW231770   3.503   3.216   2.596
10291SOL     OW31771   3.372   1.963   1.632
10291SOL    HW131772   3.471   1.971   1.646
10291SOL    HW231773   3.334   2.053   1.614
10292SOL     OW31774   0.460   0.832   5.997
10292SOL    HW131775   0.535   0.831   6.063
10292SOL    HW231776   0.446   0.926   5.965
10293SOL     OW31777   1.627   2.900   5.741
10293SOL    HW131778   1.726   2.887   5.747
10293SOL    HW231779   1.607   2.983   5.688
10294SOL     OW31780   0.917   6.697   1.683
10294SOL    HW131781   0.845   6.679   1.616
10294SOL    HW231782   0.928   6.796   1.695
10295SOL     OW31783   2.379   0.981   0.996
10295SOL    HW131784   2.471   0.964   0.962
10295SOL    HW231785   2.384   1.020   1.088
10296SOL     OW31786   0.036   3.236   4.890
10296SOL    HW131787   0.107   3.227   4.960
10296SOL    HW231788   6.970   3.227   4.932
10297SOL     OW31789   3.812   1.666   0.888
10297SOL    HW131790   3.742   1.721   0.842
10297SOL    HW231791   3.896   1.668   0.834
10298SOL     OW31792   1.671   0.617   1.682
10298SOL    HW131793   1.594   0.662   1.636
10298SOL    HW231794   1.688   0.663   1.770
10299SOL     OW31795   5.211   0.029   2.588
10299SOL    HW131796   5.114   0.037   2.568
10299SOL    HW231797   5.247   6.969   2.547
10300SOL     OW31798   0.711   4.141   1.502
10300SOL    HW131799   0.744   4.047   1.501
10300SOL    HW231800   0.675   4.163   1.593
10301SOL     OW31801   4.545   1.354   0.047
10301SOL    HW131802   4.503   1.263   0.043
10301SOL    HW231803   4.567   1.377   0.142
10302SOL     OW31804   3.042   6.159   5.313
10302SOL    HW131805   3.030   6.245   5.263
10302SOL    HW231806   3.121   6.168   5.374
10303SOL     OW31807   0.639   4.825   5.735
10303SOL    HW131808   0.571   4.852   5.804
10303SOL    HW231809   0.731   4.841   5.771
10304SOL     OW31810   4.791   5.294   0.758
10304SOL    HW131811   4.827   5.273   0.667
10304SOL    HW231812   4.756   5.211   0.801
10305SOL     OW31813   2.920   3.275   4.861
10305SOL    HW131814   2.945   3.298   4.767
10305SOL    HW231815   2.939   3.178   4.878
10306SOL     OW31816   3.656   1.187   1.885
10306SOL    HW131817   3.710   1.196   1.801
10306SOL    HW231818   3.679   1.102   1.932
10307SOL     OW31819   1.813   6.233   4.789
10307SOL    HW131820   1.867   6.179   4.853
10307SOL    HW231821   1.872   6.300   4.744
10308SOL     OW31822   2.519   4.629   2.339
10308SOL    HW131823   2.450   4.557   2.346
10308SOL    HW231824   2.540   4.647   2.243
10309SOL     OW31825   0.360   1.128   4.540
10309SOL    HW131826   0.429   1.200   4.527
10309SOL    HW231827   0.365   1.063   4.464
10310SOL     OW31828   2.905   4.348   6.540
10310SOL    HW131829   2.858   4.357   6.452
10310SOL    HW231830   2.965   4.268   6.537
10311SOL     OW31831   5.319   6.276   6.953
10311SOL    HW131832   5.235   6.307   6.996
10311SOL    HW231833   5.397   6.304   7.008
10312SOL     OW31834   2.286   6.606   1.253
10312SOL    HW131835   2.377   6.647   1.261
10312SOL    HW231836   2.220   6.664   1.299
10313SOL     OW31837   4.757   6.672   3.135
10313SOL    HW131838   4.737   6.595   3.075
10313SOL    HW231839   4.671   6.707   3.173
10314SOL     OW31840   0.374   6.624   0.679
10314SOL    HW131841   0.299   6.682   0.708
10314SOL    HW231842   0.418   6.664   0.598
10315SOL     OW31843   5.203   4.791   4.032
10315SOL    HW131844   5.195   4.754   4.125
10315SOL    HW231845   5.241   4.883   4.035
10316SOL     OW31846   1.455   2.200   0.074
10316SOL    HW131847   1.497   2.231   0.160
10316SOL    HW231848   1.489   2.256   7.023
10317SOL     OW31849   4.278   5.751   4.526
10317SOL    HW131850   4.372   5.725   4.504
10317SOL    HW231851   4.278   5.839   4.574
10318SOL     OW31852   6.181   0.011   0.009
10318SOL    HW131853   6.082   0.000   0.017
10318SOL    HW231854   6.220   0.036   0.097
10319SOL     OW31855   1.229   4.301   4.608
10319SOL    HW131856   1.228   4.387   4.659
10319SOL    HW231857   1.323   4.266   4.603
10320SOL     OW31858   6.837   6.748   3.059
10320SOL    HW131859   6.832   6.651   3.082
10320SOL    HW231860   6.806   6.802   3.137
10321SOL     OW31861   5.789   2.260   3.833
10321SOL    HW131862   5.806   2.310   3.918
10321SOL    HW231863   5.812   2.163   3.847
10322SOL     OW31864   4.505   4.601   4.820
10322SOL    HW131865   4.463   4.578   4.908
10322SOL    HW231866   4.448   4.667   4.773
10323SOL     OW31867   0.639   4.949   6.059
10323SOL    HW131868   0.687   4.888   6.122
10323SOL    HW231869   0.596   5.023   6.111
10324SOL     OW31870   3.294   3.164   2.627
10324SOL    HW131871   3.257   3.213   2.705
10324SOL    HW231872   3.248   3.195   2.543
10325SOL     OW31873   5.978   5.852   5.348
10325SOL    HW131874   5.922   5.933   5.366
10325SOL    HW231875   5.918   5.773   5.332
10326SOL     OW31876   5.087   3.839   6.497
10326SOL    HW131877   5.043   3.883   6.418
10326SOL    HW231878   5.112   3.908   6.564
10327SOL     OW31879   1.624   5.680   0.006
10327SOL    HW131880   1.539   5.628   7.020
10327SOL    HW231881   1.696   5.620   0.038
10328SOL     OW31882   6.536   2.037   3.563
10328SOL    HW131883   6.587   1.955   3.590
10328SOL    HW231884   6.574   2.073   3.478
10329SOL     OW31885   3.653   2.063   1.716
10329SOL    HW131886   3.627   2.134   1.782
10329SOL    HW231887   3.745   2.029   1.738
10330SOL     OW31888   5.120   6.136   1.904
10330SOL    HW131889   5.025   6.153   1.881
10330SOL    HW231890   5.126   6.091   1.993
10331SOL     OW31891   5.413   5.379   5.577
10331SOL    HW131892   5.509   5.398   5.554
10331SOL    HW231893   5.360   5.463   5.570
10332SOL     OW31894   1.897   0.932   6.648
10332SOL    HW131895   1.907   1.029   6.627
10332SOL    HW231896   1.988   0.893   6.666
10333SOL     OW31897   1.605   3.663   3.850
10333SOL    HW131898   1.627   3.650   3.753
10333SOL    HW231899   1.583   3.574   3.891
10334SOL     OW31900   3.873   1.416   4.229
10334SOL    HW131901   3.940   1.341   4.223
10334SOL    HW231902   3.922   1.503   4.236
10335SOL     OW31903   2.064   3.801   3.878
10335SOL    HW131904   2.143   3.861   3.868
10335SOL    HW231905   2.077   3.741   3.957
10336SOL     OW31906   5.944   6.455   3.047
10336SOL    HW131907   5.939   6.554   3.048
10336SOL    HW231908   5.937   6.420   3.140
10337SOL     OW31909   5.884   6.350   6.596
10337SOL    HW131910   5.847   6.436   6.560
10337SOL    HW231911   5.816   6.278   6.584
10338SOL     OW31912   0.499   5.811   2.007
10338SOL    HW131913   0.484   5.907   2.030
10338SOL    HW231914   0.522   5.760   2.090
10339SOL     OW31915   5.459   2.464   5.883
10339SOL    HW131916   5.484   2.409   5.804
10339SOL    HW231917   5.382   2.421   5.930
10340SOL     OW31918   3.419   3.239   6.585
10340SOL    HW131919   3.517   3.242   6.601
10340SOL    HW231920   3.401   3.203   6.493
10341SOL     OW31921   3.970   4.776   3.238
10341SOL    HW131922   3.999   4.756   3.145
10341SOL    HW231923   4.045   4.819   3.288
10342SOL     OW31924   0.912   1.783   3.727
10342SOL    HW131925   0.934   1.770   3.823
10342SOL    HW231926   0.861   1.868   3.715
10343SOL     OW31927   4.238   5.168   1.201
10343SOL    HW131928   4.303   5.093   1.211
10343SOL    HW231929   4.151   5.143   1.244
10344SOL     OW31930   5.066   6.826   6.962
10344SOL    HW131931   5.142   6.891   6.963
10344SOL    HW231932   4.987   6.868   7.007
10345SOL     OW31933   0.718   4.695   4.884
10345SOL    HW131934   0.791   4.685   4.817
10345SOL    HW231935   0.635   4.651   4.849
10346SOL     OW31936   1.118   5.157   0.976
10346SOL    HW131937   1.052   5.229   0.956
10346SOL    HW231938   1.085   5.102   1.053
10347SOL     OW31939   0.410   2.087   5.327
10347SOL    HW131940   0.457   2.091   5.238
10347SOL    HW231941   0.469   2.039   5.393
10348SOL     OW31942   0.345   5.408   1.158
10348SOL    HW131943   0.249   5.404   1.129
10348SOL    HW231944   0.383   5.315   1.159
10349SOL     OW31945   6.520   7.012   6.678
10349SOL    HW131946   6.516   6.913   6.689
10349SOL    HW231947   6.529   0.010   6.580
10350SOL     OW31948   4.156   0.112   6.994
10350SOL    HW131949   4.128   0.079   6.904
10350SOL    HW231950   4.110   0.059   0.040
10351SOL     OW31951   4.389   5.665   6.352
10351SOL    HW131952   4.396   5.764   6.351
10351SOL    HW231953   4.423   5.630   6.439
10352SOL     OW31954   4.150   4.839   5.767
10352SOL    HW131955   4.190   4.930   5.779
10352SOL    HW231956   4.183   4.779   5.840
10353SOL     OW31957   0.370   3.469   4.731
10353SOL    HW131958   0.334   3.562   4.739
10353SOL    HW231959   0.296   3.408   4.699
10354SOL     OW31960   5.317   1.116   1.091
10354SOL    HW131961   5.320   1.019   1.065
10354SOL    HW231962   5.401   1.161   1.061
10355SOL     OW31963   0.646   4.599   2.719
10355SOL    HW131964   0.551   4.627   2.729
10355SOL    HW231965   0.650   4.503   2.690
10356SOL     OW31966   0.876   3.128   4.905
10356SOL    HW131967   0.781   3.138   4.876
10356SOL    HW231968   0.931   3.097   4.828
10357SOL     OW31969   3.082   2.946   6.606
10357SOL    HW131970   3.120   2.942   6.513
10357SOL    HW231971   3.155   2.971   6.670
10358SOL     OW31972   0.496   0.460   2.129
10358SOL    HW131973   0.443   0.480   2.046
10358SOL    HW231974   0.536   0.545   2.163
10359SOL     OW31975   1.844   1.685   0.517
10359SOL    HW131976   1.845   1.587   0.534
10359SOL    HW231977   1.754   1.722   0.539
10360SOL     OW31978   0.553   4.111   3.774
10360SOL    HW131979   0.639   4.110   3.826
10360SOL    HW231980   0.476   4.117   3.838
10361SOL     OW31981   3.122   5.789   0.193
10361SOL    HW131982   3.062   5.719   0.232
10361SOL    HW231983   3.217   5.767   0.214
10362SOL     OW31984   0.649   4.930   5.262
10362SOL    HW131985   0.601   4.864   5.205
10362SOL    HW231986   0.609   4.931   5.353
10363SOL     OW31987   5.279   0.643   5.022
10363SOL    HW131988   5.230   0.602   4.944
10363SOL    HW231989   5.234   0.617   5.107
10364SOL     OW31990   1.044   3.589   0.967
10364SOL    HW131991   0.996   3.676   0.973
10364SOL    HW231992   1.116   3.595   0.899
10365SOL     OW31993   5.582   4.766   6.872
10365SOL    HW131994   5.566   4.693   6.938
10365SOL    HW231995   5.677   4.797   6.878
10366SOL     OW31996   4.801   0.066   3.729
10366SOL    HW131997   4.800   0.157   3.689
10366SOL    HW231998   4.896   0.034   3.738
10367SOL     OW31999   5.961   1.200   3.391
10367SOL    HW132000   6.003   1.202   3.482
10367SOL    HW232001   5.989   1.281   3.340
10368SOL     OW32002   2.202   6.950   0.827
10368SOL    HW132003   2.138   7.019   0.862
10368SOL    HW232004   2.161   6.860   0.832
10369SOL     OW32005   4.882   2.995   6.256
10369SOL    HW132006   4.844   3.085   6.232
10369SOL    HW232007   4.855   2.972   6.350
10370SOL     OW32008   2.661   0.375   4.963
10370SOL    HW132009   2.702   0.466   4.954
10370SOL    HW232010   2.714   0.309   4.909
10371SOL     OW32011   4.800   6.085   5.628
10371SOL    HW132012   4.834   6.092   5.722
10371SOL    HW232013   4.741   6.005   5.620
10372SOL     OW32014   0.066   1.159   4.536
10372SOL    HW132015   0.097   1.104   4.459
10372SOL    HW232016   0.146   1.189   4.589
10373SOL     OW32017   1.340   6.672   5.423
10373SOL    HW132018   1.345   6.754   5.367
10373SOL    HW232019   1.245   6.655   5.449
10374SOL     OW32020   3.821   1.177   3.511
10374SOL    HW132021   3.907   1.175   3.562
10374SOL    HW232022   3.826   1.114   3.434
10375SOL     OW32023   6.871   2.603   1.115
10375SOL    HW132024   6.855   2.530   1.181
10375SOL    HW232025   6.965   2.635   1.122
10376SOL     OW32026   5.630   0.060   3.914
10376SOL    HW132027   5.592   6.994   3.932
10376SOL    HW232028   5.565   0.130   3.942
10377SOL     OW32029   6.252   6.403   3.689
10377SOL    HW132030   6.312   6.324   3.680
10377SOL    HW232031   6.193   6.392   3.769
10378SOL     OW32032   6.755   6.874   5.512
10378SOL    HW132033   6.851   6.896   5.529
10378SOL    HW232034   6.739   6.868   5.414
10379SOL     OW32035   4.044   1.273   5.290
10379SOL    HW132036   3.961   1.220   5.308
10379SOL    HW232037   4.123   1.224   5.327
10380SOL     OW32038   3.310   0.823   4.608
10380SOL    HW132039   3.391   0.839   4.664
10380SOL    HW232040   3.316   0.876   4.524
10381SOL     OW32041   3.125   5.646   5.036
10381SOL    HW132042   3.100   5.648   4.939
10381SOL    HW232043   3.085   5.724   5.082
10382SOL     OW32044   0.343   5.127   1.057
10382SOL    HW132045   0.255   5.084   1.078
10382SOL    HW232046   0.410   5.102   1.127
10383SOL     OW32047   5.512   3.558   1.196
10383SOL    HW132048   5.457   3.493   1.248
10383SOL    HW232049   5.543   3.631   1.257
10384SOL     OW32050   5.004   1.426   0.052
10384SOL    HW132051   4.919   1.402   0.006
10384SOL    HW232052   4.984   1.471   0.140
10385SOL     OW32053   6.726   3.059   6.580
10385SOL    HW132054   6.744   3.152   6.612
10385SOL    HW232055   6.802   2.999   6.608
10386SOL     OW32056   0.216   1.614   6.486
10386SOL    HW132057   0.283   1.625   6.413
10386SOL    HW232058   0.148   1.687   6.480
10387SOL     OW32059   1.348   3.957   3.129
10387SOL    HW132060   1.403   4.022   3.076
10387SOL    HW232061   1.253   3.961   3.098
10388SOL     OW32062   2.238   4.350   2.083
10388SOL    HW132063   2.201   4.441   2.064
10388SOL    HW232064   2.326   4.340   2.036
10389SOL     OW32065   1.637   5.706   3.327
10389SOL    HW132066   1.663   5.802   3.312
10389SOL    HW232067   1.543   5.692   3.297
10390SOL     OW32068   2.088   3.455   3.427
10390SOL    HW132069   2.035   3.528   3.382
10390SOL    HW232070   2.158   3.496   3.485
10391SOL     OW32071   3.422   5.297   4.147
10391SOL    HW132072   3.520   5.317   4.139
10391SOL    HW232073   3.370   5.382   4.137
10392SOL     OW32074   0.016   5.528   0.253
10392SOL    HW132075   0.075   5.497   0.178
10392SOL    HW232076   6.974   5.594   0.218
10393SOL     OW32077   1.646   1.572   4.588
10393SOL    HW132078   1.725   1.605   4.535
10393SOL    HW232079   1.657   1.599   4.683
10394SOL     OW32080   3.402   6.568   0.718
10394SOL    HW132081   3.420   6.472   0.697
10394SOL    HW232082   3.369   6.615   0.637
10395SOL     OW32083   1.381   0.028   3.711
10395SOL    HW132084   1.285   0.005   3.723
10395SOL    HW232085   1.408   0.096   3.780
10396SOL     OW32086   0.604   0.853   4.322
10396SOL    HW132087   0.652   0.927   4.275
10396SOL    HW232088   0.514   0.886   4.352
10397SOL     OW32089   4.695   2.548   2.676
10397SOL    HW132090   4.718   2.599   2.593
10397SOL    HW232091   4.775   2.499   2.709
10398SOL     OW32092   0.746   2.506   2.609
10398SOL    HW132093   0.679   2.579   2.598
10398SOL    HW232094   0.834   2.536   2.573
10399SOL     OW32095   6.996   2.769   5.982
10399SOL    HW132096   0.041   2.705   6.017
10399SOL    HW232097   6.933   2.719   5.922
10400SOL     OW32098   1.899   5.007   2.543
10400SOL    HW132099   1.811   5.038   2.509
10400SOL    HW232100   1.955   4.974   2.466
10401SOL     OW32101   0.927   6.043   1.213
10401SOL    HW132102   0.879   6.112   1.267
10401SOL    HW232103   1.026   6.051   1.229
10402SOL     OW32104   1.262   2.538   4.898
10402SOL    HW132105   1.191   2.593   4.854
10402SOL    HW232106   1.349   2.588   4.893
10403SOL     OW32107   5.556   0.867   3.240
10403SOL    HW132108   5.634   0.913   3.281
10403SOL    HW232109   5.551   0.890   3.143
10404SOL     OW32110   6.475   0.234   4.911
10404SOL    HW132111   6.568   0.202   4.893
10404SOL    HW232112   6.415   0.205   4.837
10405SOL     OW32113   3.884   0.324   6.591
10405SOL    HW132114   3.852   0.392   6.526
10405SOL    HW232115   3.938   0.368   6.663
10406SOL     OW32116   1.349   6.386   4.821
10406SOL    HW132117   1.370   6.392   4.919
10406SOL    HW232118   1.289   6.308   4.804
10407SOL     OW32119   3.601   0.900   6.940
10407SOL    HW132120   3.573   0.985   6.985
10407SOL    HW232121   3.569   0.900   6.845
10408SOL     OW32122   2.872   0.010   2.503
10408SOL    HW132123   2.871   0.070   2.423
10408SOL    HW232124   2.951   6.972   2.497
10409SOL     OW32125   0.028   4.420   1.990
10409SOL    HW132126   7.008   4.499   1.949
10409SOL    HW232127   7.014   4.336   1.952
10410SOL     OW32128   5.405   5.071   0.727
10410SOL    HW132129   5.472   4.997   0.724
10410SOL    HW232130   5.349   5.062   0.810
10411SOL     OW32131   2.407   5.222   1.925
10411SOL    HW132132   2.400   5.127   1.952
10411SOL    HW232133   2.469   5.230   1.846
10412SOL     OW32134   1.104   4.071   6.006
10412SOL    HW132135   1.103   4.071   6.106
10412SOL    HW232136   1.175   4.133   5.974
10413SOL     OW32137   0.091   0.950   5.499
10413SOL    HW132138   0.067   1.041   5.534
10413SOL    HW232139   0.158   0.908   5.561
10414SOL     OW32140   5.383   5.329   4.954
10414SOL    HW132141   5.413   5.414   4.911
10414SOL    HW232142   5.360   5.262   4.883
10415SOL     OW32143   6.829   4.416   3.002
10415SOL    HW132144   6.912   4.471   3.009
10415SOL    HW232145   6.820   4.381   2.908
10416SOL     OW32146   5.130   0.904   6.939
10416SOL    HW132147   5.131   0.812   6.977
10416SOL    HW232148   5.097   0.968   7.008
10417SOL     OW32149   4.973   4.238   4.466
10417SOL    HW132150   5.060   4.258   4.510
10417SOL    HW232151   4.988   4.215   4.370
10418SOL     OW32152   6.066   3.050   0.131
10418SOL    HW132153   5.997   3.113   0.095
10418SOL    HW232154   6.028   3.001   0.210
10419SOL     OW32155   1.093   0.248   4.593
10419SOL    HW132156   0.996   0.224   4.596
10419SOL    HW232157   1.144   0.184   4.650
10420SOL     OW32158   6.370   3.857   4.403
10420SOL    HW132159   6.295   3.912   4.438
10420SOL    HW232160   6.412   3.805   4.478
10421SOL     OW32161   0.415   3.508   3.908
10421SOL    HW132162   0.430   3.554   3.995
10421SOL    HW232163   0.317   3.511   3.885
10422SOL     OW32164   5.780   3.135   6.149
10422SOL    HW132165   5.760   3.148   6.246
10422SOL    HW232166   5.834   3.212   6.116
10423SOL     OW32167   2.507   6.038   1.904
10423SOL    HW132168   2.455   6.076   1.828
10423SOL    HW232169   2.596   6.084   1.910
10424SOL     OW32170   5.147   0.776   2.786
10424SOL    HW132171   5.127   0.858   2.730
10424SOL    HW232172   5.077   0.707   2.768
10425SOL     OW32173   0.596   4.718   0.826
10425SOL    HW132174   0.599   4.628   0.783
10425SOL    HW232175   0.522   4.772   0.785
10426SOL     OW32176   6.472   3.037   6.842
10426SOL    HW132177   6.420   3.102   6.786
10426SOL    HW232178   6.526   3.088   6.909
10427SOL     OW32179   5.712   0.796   3.820
10427SOL    HW132180   5.797   0.765   3.863
10427SOL    HW232181   5.673   0.722   3.765
10428SOL     OW32182   1.640   0.654   5.148
10428SOL    HW132183   1.607   0.582   5.209
10428SOL    HW232184   1.578   0.663   5.071
10429SOL     OW32185   2.194   4.867   2.046
10429SOL    HW132186   2.287   4.891   2.075
10429SOL    HW232187   2.182   4.891   1.950
10430SOL     OW32188   3.625   1.784   4.740
10430SOL    HW132189   3.686   1.706   4.730
10430SOL    HW232190   3.570   1.795   4.657
10431SOL     OW32191   4.448   1.788   3.915
10431SOL    HW132192   4.475   1.854   3.846
10431SOL    HW232193   4.371   1.733   3.881
10432SOL     OW32194   1.510   4.500   1.400
10432SOL    HW132195   1.541   4.593   1.417
10432SOL    HW232196   1.586   4.436   1.415
10433SOL     OW32197   3.563   6.557   3.706
10433SOL    HW132198   3.527   6.487   3.644
10433SOL    HW232199   3.656   6.533   3.733
10434SOL     OW32200   4.852   2.000   0.835
10434SOL    HW132201   4.824   1.996   0.931
10434SOL    HW232202   4.800   1.933   0.782
10435SOL     OW32203   2.789   1.048   1.478
10435SOL    HW132204   2.798   0.971   1.415
10435SOL    HW232205   2.847   1.123   1.447
10436SOL     OW32206   1.817   4.163   5.145
10436SOL    HW132207   1.840   4.221   5.067
10436SOL    HW232208   1.819   4.219   5.229
10437SOL     OW32209   6.918   0.057   5.291
10437SOL    HW132210   6.883   0.142   5.330
10437SOL    HW232211   6.981   0.078   5.217
10438SOL     OW32212   6.785   5.998   6.815
10438SOL    HW132213   6.808   5.912   6.768
10438SOL    HW232214   6.867   6.054   6.825
10439SOL     OW32215   6.232   5.012   5.763
10439SOL    HW132216   6.263   4.920   5.738
10439SOL    HW232217   6.170   5.046   5.693
10440SOL     OW32218   5.255   2.778   2.105
10440SOL    HW132219   5.259   2.678   2.098
10440SOL    HW232220   5.314   2.819   2.035
10441SOL     OW32221   5.179   1.572   5.576
10441SOL    HW132222   5.278   1.568   5.562
10441SOL    HW232223   5.147   1.484   5.613
10442SOL     OW32224   2.716   0.596   5.989
10442SOL    HW132225   2.757   0.639   6.069
10442SOL    HW232226   2.731   0.497   5.993
10443SOL     OW32227   1.147   1.406   7.015
10443SOL    HW132228   1.180   1.478   6.953
10443SOL    HW232229   1.214   1.392   0.063
10444SOL     OW32230   4.394   5.831   3.364
10444SOL    HW132231   4.471   5.822   3.301
10444SOL    HW232232   4.425   5.809   3.457
10445SOL     OW32233   1.315   3.312   3.291
10445SOL    HW132234   1.309   3.326   3.390
10445SOL    HW232235   1.410   3.293   3.266
10446SOL     OW32236   2.877   4.797   5.302
10446SOL    HW132237   2.848   4.748   5.383
10446SOL    HW232238   2.912   4.733   5.233
10447SOL     OW32239   1.675   2.898   3.221
10447SOL    HW132240   1.580   2.869   3.226
10447SOL    HW232241   1.682   2.980   3.163
10448SOL     OW32242   0.531   4.875   1.744
10448SOL    HW132243   0.628   4.895   1.728
10448SOL    HW232244   0.496   4.819   1.669
10449SOL     OW32245   3.898   5.888   4.489
10449SOL    HW132246   3.896   5.986   4.508
10449SOL    HW232247   3.808   5.848   4.506
10450SOL     OW32248   0.744   2.674   4.551
10450SOL    HW132249   0.751   2.699   4.454
10450SOL    HW232250   0.648   2.675   4.578
10451SOL     OW32251   2.157   2.008   5.321
10451SOL    HW132252   2.138   2.002   5.223
10451SOL    HW232253   2.220   2.084   5.338
10452SOL     OW32254   0.268   2.976   4.563
10452SOL    HW132255   0.361   2.939   4.562
10452SOL    HW232256   0.246   3.011   4.472
10453SOL     OW32257   3.121   5.572   3.784
10453SOL    HW132258   3.120   5.493   3.844
10453SOL    HW232259   3.155   5.545   3.694
10454SOL     OW32260   6.780   2.613   6.821
10454SOL    HW132261   6.777   2.712   6.810
10454SOL    HW232262   6.810   2.570   6.736
10455SOL     OW32263   0.693   6.032   2.998
10455SOL    HW132264   0.782   6.071   2.973
10455SOL    HW232265   0.633   6.033   2.919
10456SOL     OW32266   1.227   6.076   5.798
10456SOL    HW132267   1.191   6.085   5.705
10456SOL    HW232268   1.283   5.994   5.804
10457SOL     OW32269   4.380   1.867   1.256
10457SOL    HW132270   4.304   1.863   1.321
10457SOL    HW232271   4.375   1.791   1.193
10458SOL     OW32272   2.002   6.529   6.699
10458SOL    HW132273   1.903   6.542   6.708
10458SOL    HW232274   2.043   6.523   6.790
10459SOL     OW32275   5.220   6.274   1.455
10459SOL    HW132276   5.178   6.183   1.463
10459SOL    HW232277   5.315   6.269   1.483
10460SOL     OW32278   5.800   1.500   6.386
10460SOL    HW132279   5.884   1.448   6.372
10460SOL    HW232280   5.738   1.484   6.309
10461SOL     OW32281   6.742   4.047   5.585
10461SOL    HW132282   6.703   3.984   5.517
10461SOL    HW232283   6.706   4.024   5.675
10462SOL     OW32284   4.518   4.005   6.904
10462SOL    HW132285   4.519   3.926   6.965
10462SOL    HW232286   4.547   3.977   6.813
10463SOL     OW32287   4.288   2.579   5.449
10463SOL    HW132288   4.216   2.553   5.384
10463SOL    HW232289   4.253   2.648   5.512
10464SOL     OW32290   6.036   4.830   1.602
10464SOL    HW132291   6.028   4.739   1.561
10464SOL    HW232292   6.130   4.843   1.635
10465SOL     OW32293   4.912   4.212   0.373
10465SOL    HW132294   4.970   4.289   0.400
10465SOL    HW232295   4.825   4.246   0.338
10466SOL     OW32296   6.406   3.867   5.644
10466SOL    HW132297   6.378   3.946   5.698
10466SOL    HW232298   6.493   3.832   5.678
10467SOL     OW32299   0.351   4.008   6.519
10467SOL    HW132300   0.423   3.968   6.462
10467SOL    HW232301   0.264   3.963   6.501
10468SOL     OW32302   1.654   4.608   3.564
10468SOL    HW132303   1.744   4.626   3.603
10468SOL    HW232304   1.586   4.667   3.607
10469SOL     OW32305   1.722   0.990   4.765
10469SOL    HW132306   1.773   1.055   4.709
10469SOL    HW232307   1.698   0.910   4.710
10470SOL     OW32308   2.501   4.125   1.771
10470SOL    HW132309   2.538   4.217   1.785
10470SOL    HW232310   2.404   4.124   1.797
10471SOL     OW32311   1.440   4.776   6.023
10471SOL    HW132312   1.511   4.723   5.976
10471SOL    HW232313   1.371   4.805   5.956
10472SOL     OW32314   4.265   5.384   5.988
10472SOL    HW132315   4.304   5.414   5.901
10472SOL    HW232316   4.170   5.356   5.974
10473SOL     OW32317   5.902   5.688   0.563
10473SOL    HW132318   5.874   5.592   0.575
10473SOL    HW232319   5.938   5.723   0.650
10474SOL     OW32320   5.985   5.411   5.404
10474SOL    HW132321   6.014   5.386   5.496
10474SOL    HW232322   5.903   5.360   5.379
10475SOL     OW32323   6.762   6.216   1.978
10475SOL    HW132324   6.792   6.201   2.072
10475SOL    HW232325   6.740   6.128   1.936
10476SOL     OW32326   5.237   6.096   1.010
10476SOL    HW132327   5.262   6.192   1.019
10476SOL    HW232328   5.244   6.069   0.914
10477SOL     OW32329   0.017   5.848   3.646
10477SOL    HW132330   0.085   5.920   3.638
10477SOL    HW232331   0.060   5.764   3.680
10478SOL     OW32332   0.031   1.375   0.344
10478SOL    HW132333   7.001   1.299   0.381
10478SOL    HW232334   0.107   1.395   0.405
10479SOL     OW32335   0.265   4.507   2.908
10479SOL    HW132336   0.330   4.476   2.977
10479SOL    HW232337   0.312   4.558   2.837
10480SOL     OW32338   2.848   1.753   3.801
10480SOL    HW132339   2.913   1.712   3.737
10480SOL    HW232340   2.755   1.748   3.763
10481SOL     OW32341   6.002   0.663   1.958
10481SOL    HW132342   5.956   0.739   1.912
10481SOL    HW232343   6.087   0.642   1.909
10482SOL     OW32344   4.573   4.427   4.601
10482SOL    HW132345   4.581   4.527   4.599
10482SOL    HW232346   4.477   4.401   4.607
10483SOL     OW32347   5.612   1.846   6.486
10483SOL    HW132348   5.529   1.791   6.487
10483SOL    HW232349   5.629   1.878   6.393
10484SOL     OW32350   5.660   0.383   1.193
10484SOL    HW132351   5.582   0.405   1.135
10484SOL    HW232352   5.739   0.438   1.166
10485SOL     OW32353   5.540   3.360   5.348
10485SOL    HW132354   5.540   3.260   5.354
10485SOL    HW232355   5.635   3.392   5.338
10486SOL     OW32356   6.311   3.213   3.289
10486SOL    HW132357   6.316   3.306   3.252
10486SOL    HW232358   6.221   3.199   3.330
10487SOL     OW32359   3.450   0.214   2.204
10487SOL    HW132360   3.375   0.189   2.265
10487SOL    HW232361   3.484   0.305   2.229
10488SOL     OW32362   4.079   3.818   0.087
10488SOL    HW132363   3.997   3.767   0.112
10488SOL    HW232364   4.068   3.914   0.114
10489SOL     OW32365   1.326   4.766   5.547
10489SOL    HW132366   1.357   4.674   5.522
10489SOL    HW232367   1.319   4.822   5.464
10490SOL     OW32368   6.191   6.417   4.375
10490SOL    HW132369   6.100   6.404   4.336
10490SOL    HW232370   6.205   6.351   4.449
10491SOL     OW32371   6.896   5.894   4.582
10491SOL    HW132372   6.814   5.847   4.616
10491SOL    HW232373   6.902   5.884   4.483
10492SOL     OW32374   4.651   3.691   5.962
10492SOL    HW132375   4.616   3.764   5.904
10492SOL    HW232376   4.582   3.668   6.031
10493SOL     OW32377   3.538   1.391   7.000
10493SOL    HW132378   3.596   1.324   0.021
10493SOL    HW232379   3.560   1.394   6.902
10494SOL     OW32380   5.765   0.987   5.277
10494SOL    HW132381   5.674   1.028   5.269
10494SOL    HW232382   5.768   0.929   5.359
10495SOL     OW32383   0.823   0.768   6.858
10495SOL    HW132384   0.875   0.717   6.789
10495SOL    HW232385   0.725   0.753   6.843
10496SOL     OW32386   0.405   0.264   5.059
10496SOL    HW132387   0.312   0.242   5.031
10496SOL    HW232388   0.444   0.188   5.111
10497SOL     OW32389   2.295   1.065   6.183
10497SOL    HW132390   2.365   0.999   6.208
10497SOL    HW232391   2.206   1.019   6.177
10498SOL     OW32392   2.429   5.626   5.441
10498SOL    HW132393   2.372   5.625   5.524
10498SOL    HW232394   2.459   5.533   5.420
10499SOL     OW32395   3.322   6.735   1.778
10499SOL    HW132396   3.412   6.753   1.739
10499SOL    HW232397   3.285   6.818   1.819
10500SOL     OW32398   1.738   1.017   6.849
10500SOL    HW132399   1.794   0.969   6.781
10500SOL    HW232400   1.749   0.973   6.938
10501SOL     OW32401   1.479   3.665   3.392
10501SOL    HW132402   1.398   3.614   3.419
10501SOL    HW232403   1.483   3.671   3.292
10502SOL     OW32404   3.609   6.675   4.407
10502SOL    HW132405   3.615   6.719   4.318
10502SOL    HW232406   3.553   6.731   4.468
10503SOL     OW32407   2.353   3.585   6.725
10503SOL    HW132408   2.348   3.608   6.628
10503SOL    HW232409   2.399   3.497   6.736
10504SOL     OW32410   2.087   2.770   0.530
10504SOL    HW132411   2.185   2.792   0.524
10504SOL    HW232412   2.038   2.849   0.567
10505SOL     OW32413   0.879   5.364   0.392
10505SOL    HW132414   0.798   5.413   0.361
10505SOL    HW232415   0.870   5.267   0.370
10506SOL     OW32416   6.821   6.024   6.282
10506SOL    HW132417   6.898   6.087   6.287
10506SOL    HW232418   6.736   6.076   6.270
10507SOL     OW32419   2.901   0.290   4.280
10507SOL    HW132420   2.905   0.195   4.247
10507SOL    HW232421   2.903   0.291   4.380
10508SOL     OW32422   5.711   5.580   3.320
10508SOL    HW132423   5.754   5.619   3.239
10508SOL    HW232424   5.615   5.607   3.323
10509SOL     OW32425   2.177   1.679   4.894
10509SOL    HW132426   2.087   1.720   4.907
10509SOL    HW232427   2.206   1.636   4.980
10510SOL     OW32428   5.302   0.444   6.366
10510SOL    HW132429   5.293   0.491   6.453
10510SOL    HW232430   5.333   0.350   6.381
10511SOL     OW32431   6.863   2.498   2.341
10511SOL    HW132432   6.936   2.565   2.329
10511SOL    HW232433   6.775   2.542   2.326
10512SOL     OW32434   1.878   6.927   0.161
10512SOL    HW132435   1.784   6.947   0.131
10512SOL    HW232436   1.941   6.944   0.085
10513SOL     OW32437   6.591   2.708   1.233
10513SOL    HW132438   6.510   2.650   1.225
10513SOL    HW232439   6.672   2.652   1.245
10514SOL     OW32440   1.768   2.471   1.550
10514SOL    HW132441   1.772   2.553   1.608
10514SOL    HW232442   1.847   2.471   1.488
10515SOL     OW32443   0.611   4.239   4.177
10515SOL    HW132444   0.578   4.331   4.155
10515SOL    HW232445   0.710   4.235   4.166
10516SOL     OW32446   2.527   6.320   0.134
10516SOL    HW132447   2.523   6.370   0.048
10516SOL    HW232448   2.597   6.248   0.127
10517SOL     OW32449   0.488   2.303   3.874
10517SOL    HW132450   0.582   2.271   3.889
10517SOL    HW232451   0.467   2.374   3.942
10518SOL     OW32452   1.118   6.209   3.594
10518SOL    HW132453   1.069   6.288   3.556
10518SOL    HW232454   1.064   6.126   3.578
10519SOL     OW32455   3.068   3.446   5.752
10519SOL    HW132456   3.107   3.376   5.692
10519SOL    HW232457   3.114   3.533   5.735
10520SOL     OW32458   2.447   4.925   6.695
10520SOL    HW132459   2.394   4.840   6.691
10520SOL    HW232460   2.415   4.981   6.771
10521SOL     OW32461   0.213   6.109   1.902
10521SOL    HW132462   0.310   6.096   1.925
10521SOL    HW232463   0.189   6.051   1.825
10522SOL     OW32464   5.737   6.436   2.494
10522SOL    HW132465   5.776   6.366   2.435
10522SOL    HW232466   5.808   6.503   2.518
10523SOL     OW32467   6.108   6.029   6.402
10523SOL    HW132468   6.147   5.938   6.418
10523SOL    HW232469   6.165   6.098   6.447
10524SOL     OW32470   5.146   0.876   4.820
10524SOL    HW132471   5.195   0.905   4.902
10524SOL    HW232472   5.125   0.778   4.827
10525SOL     OW32473   2.096   0.217   5.483
10525SOL    HW132474   2.145   0.247   5.400
10525SOL    HW232475   2.109   0.119   5.495
10526SOL     OW32476   4.287   5.314   2.827
10526SOL    HW132477   4.367   5.374   2.831
10526SOL    HW232478   4.267   5.292   2.731
10527SOL     OW32479   2.203   2.501   4.198
10527SOL    HW132480   2.285   2.550   4.169
10527SOL    HW232481   2.145   2.561   4.253
10528SOL     OW32482   5.441   4.122   6.580
10528SOL    HW132483   5.463   4.049   6.514
10528SOL    HW232484   5.444   4.084   6.672
10529SOL     OW32485   6.970   5.789   5.232
10529SOL    HW132486   0.002   5.870   5.217
10529SOL    HW232487   6.875   5.808   5.207
10530SOL     OW32488   1.167   1.390   4.474
10530SOL    HW132489   1.229   1.339   4.533
10530SOL    HW232490   1.122   1.327   4.410
10531SOL     OW32491   3.128   2.163   4.393
10531SOL    HW132492   3.161   2.072   4.419
10531SOL    HW232493   3.132   2.224   4.472
10532SOL     OW32494   3.182   4.109   4.094
10532SOL    HW132495   3.216   4.111   4.188
10532SOL    HW232496   3.087   4.078   4.093
10533SOL     OW32497   3.470   1.413   6.504
10533SOL    HW132498   3.491   1.454   6.416
10533SOL    HW232499   3.400   1.342   6.492
10534SOL     OW32500   5.610   4.498   1.991
10534SOL    HW132501   5.579   4.412   2.031
10534SOL    HW232502   5.693   4.529   2.037
10535SOL     OW32503   6.342   1.613   1.618
10535SOL    HW132504   6.359   1.599   1.715
10535SOL    HW232505   6.351   1.526   1.569
10536SOL     OW32506   6.220   5.995   2.080
10536SOL    HW132507   6.136   5.994   2.027
10536SOL    HW232508   6.254   5.902   2.092
10537SOL     OW32509   6.258   4.802   1.199
10537SOL    HW132510   6.331   4.839   1.257
10537SOL    HW232511   6.259   4.849   1.111
10538SOL     OW32512   4.785   3.521   6.513
10538SOL    HW132513   4.859   3.456   6.530
10538SOL    HW232514   4.756   3.515   6.418
10539SOL     OW32515   1.948   2.942   4.941
10539SOL    HW132516   1.960   2.843   4.954
10539SOL    HW232517   1.912   2.959   4.849
10540SOL     OW32518   3.565   1.053   0.791
10540SOL    HW132519   3.641   0.989   0.808
10540SOL    HW232520   3.593   1.145   0.818
10541SOL     OW32521   3.313   2.623   1.724
10541SOL    HW132522   3.247   2.554   1.695
10541SOL    HW232523   3.404   2.582   1.726
10542SOL     OW32524   1.710   2.747   0.144
10542SOL    HW132525   1.804   2.763   0.112
10542SOL    HW232526   1.656   2.705   0.071
10543SOL     OW32527   2.940   0.474   4.090
10543SOL    HW132528   2.917   0.391   4.142
10543SOL    HW232529   2.873   0.545   4.111
10544SOL     OW32530   0.043   1.683   1.337
10544SOL    HW132531   6.994   1.615   1.344
10544SOL    HW232532   0.092   1.689   1.424
10545SOL     OW32533   3.276   0.759   3.166
10545SOL    HW132534   3.303   0.838   3.111
10545SOL    HW232535   3.233   0.691   3.107
10546SOL     OW32536   4.489   1.270   4.826
10546SOL    HW132537   4.586   1.276   4.851
10546SOL    HW232538   4.479   1.286   4.728
10547SOL     OW32539   4.553   5.751   1.881
10547SOL    HW132540   4.628   5.737   1.946
10547SOL    HW232541   4.479   5.686   1.901
10548SOL     OW32542   4.594   4.151   5.918
10548SOL    HW132543   4.685   4.114   5.899
10548SOL    HW232544   4.572   4.139   6.015
10549SOL     OW32545   6.527   1.608   2.434
10549SOL    HW132546   6.609   1.665   2.430
10549SOL    HW232547   6.489   1.611   2.527
10550SOL     OW32548   4.540   6.732   5.336
10550SOL    HW132549   4.519   6.829   5.350
10550SOL    HW232550   4.507   6.703   5.247
10551SOL     OW32551   2.035   2.767   5.773
10551SOL    HW132552   1.939   2.742   5.785
10551SOL    HW232553   2.093   2.689   5.797
10552SOL     OW32554   3.607   0.874   5.454
10552SOL    HW132555   3.573   0.780   5.450
10552SOL    HW232556   3.530   0.937   5.464
10553SOL     OW32557   2.974   4.518   7.008
10553SOL    HW132558   2.933   4.484   6.923
10553SOL    HW232559   3.050   4.579   6.986
10554SOL     OW32560   6.449   3.893   6.096
10554SOL    HW132561   6.509   3.815   6.115
10554SOL    HW232562   6.493   3.977   6.126
10555SOL     OW32563   3.182   3.017   0.417
10555SOL    HW132564   3.101   2.974   0.458
10555SOL    HW232565   3.264   2.974   0.455
10556SOL     OW32566   2.816   4.952   4.230
10556SOL    HW132567   2.872   5.001   4.296
10556SOL    HW232568   2.759   4.885   4.277
10557SOL     OW32569   5.597   1.510   3.062
10557SOL    HW132570   5.586   1.609   3.060
10557SOL    HW232571   5.632   1.478   2.974
10558SOL     OW32572   5.925   5.601   6.545
10558SOL    HW132573   5.919   5.558   6.635
10558SOL    HW232574   6.017   5.637   6.531
10559SOL     OW32575   4.142   3.168   1.545
10559SOL    HW132576   4.202   3.121   1.610
10559SOL    HW232577   4.175   3.150   1.452
10560SOL     OW32578   6.974   2.132   4.151
10560SOL    HW132579   7.006   2.099   4.062
10560SOL    HW232580   6.886   2.178   4.138
10561SOL     OW32581   1.541   4.358   6.085
10561SOL    HW132582   1.506   4.273   6.124
10561SOL    HW232583   1.464   4.414   6.052
10562SOL     OW32584   4.454   2.051   1.047
10562SOL    HW132585   4.456   1.995   1.130
10562SOL    HW232586   4.522   2.124   1.054
10563SOL     OW32587   2.224   1.946   2.264
10563SOL    HW132588   2.292   1.962   2.336
10563SOL    HW232589   2.216   1.848   2.248
10564SOL     OW32590   0.466   1.507   2.681
10564SOL    HW132591   0.557   1.522   2.720
10564SOL    HW232592   0.402   1.574   2.719
10565SOL     OW32593   5.287   2.293   5.038
10565SOL    HW132594   5.187   2.298   5.037
10565SOL    HW232595   5.318   2.230   4.967
10566SOL     OW32596   4.797   5.641   0.107
10566SOL    HW132597   4.779   5.731   0.066
10566SOL    HW232598   4.709   5.597   0.127
10567SOL     OW32599   1.906   6.101   4.988
10567SOL    HW132600   1.936   6.102   5.083
10567SOL    HW232601   1.825   6.043   4.979
10568SOL     OW32602   4.245   0.328   4.215
10568SOL    HW132603   4.260   0.425   4.201
10568SOL    HW232604   4.218   0.285   4.129
10569SOL     OW32605   6.546   1.596   3.664
10569SOL    HW132606   6.457   1.570   3.701
10569SOL    HW232607   6.537   1.681   3.611
10570SOL     OW32608   0.928   2.506   1.969
10570SOL    HW132609   0.958   2.558   1.889
10570SOL    HW232610   0.894   2.568   2.039
10571SOL     OW32611   6.580   6.907   4.970
10571SOL    HW132612   6.653   6.844   4.997
10571SOL    HW232613   6.618   6.982   4.916
10572SOL     OW32614   6.351   3.726   3.144
10572SOL    HW132615   6.425   3.720   3.211
10572SOL    HW232616   6.285   3.795   3.173
10573SOL     OW32617   6.780   4.891   5.700
10573SOL    HW132618   6.695   4.933   5.670
10573SOL    HW232619   6.808   4.821   5.634
10574SOL     OW32620   0.438   2.567   3.064
10574SOL    HW132621   0.435   2.469   3.082
10574SOL    HW232622   0.348   2.607   3.081
10575SOL     OW32623   0.175   0.245   5.961
10575SOL    HW132624   0.108   0.290   5.901
10575SOL    HW232625   0.255   0.220   5.907
10576SOL     OW32626   0.595   5.938   3.603
10576SOL    HW132627   0.567   6.019   3.655
10576SOL    HW232628   0.695   5.932   3.602
10577SOL     OW32629   0.165   3.240   5.362
10577SOL    HW132630   0.213   3.292   5.292
10577SOL    HW232631   0.095   3.298   5.405
10578SOL     OW32632   5.787   0.608   5.772
10578SOL    HW132633   5.799   0.641   5.866
10578SOL    HW232634   5.876   0.593   5.730
10579SOL     OW32635   5.859   6.166   0.875
10579SOL    HW132636   5.819   6.215   0.953
10579SOL    HW232637   5.791   6.154   0.804
10580SOL     OW32638   1.176   4.977   1.257
10580SOL    HW132639   1.215   4.938   1.341
10580SOL    HW232640   1.142   5.069   1.276
10581SOL     OW32641   3.965   2.007   3.108
10581SOL    HW132642   4.030   2.053   3.168
10581SOL    HW232643   3.956   1.911   3.136
10582SOL     OW32644   3.371   4.275   7.003
10582SOL    HW132645   3.286   4.234   6.973
10582SOL    HW232646   3.404   4.339   6.934
10583SOL     OW32647   4.891   0.934   1.366
10583SOL    HW132648   4.875   0.836   1.356
10583SOL    HW232649   4.819   0.985   1.318
10584SOL     OW32650   5.841   6.482   1.597
10584SOL    HW132651   5.752   6.500   1.639
10584SOL    HW232652   5.914   6.499   1.663
10585SOL     OW32653   3.421   4.222   6.489
10585SOL    HW132654   3.420   4.313   6.530
10585SOL    HW232655   3.327   4.188   6.482
10586SOL     OW32656   5.243   2.070   1.998
10586SOL    HW132657   5.234   2.160   1.957
10586SOL    HW232658   5.155   2.022   1.991
10587SOL     OW32659   0.106   3.418   0.865
10587SOL    HW132660   0.080   3.327   0.833
10587SOL    HW232661   0.088   3.485   0.793
10588SOL     OW32662   1.914   5.282   3.852
10588SOL    HW132663   1.956   5.310   3.938
10588SOL    HW232664   1.930   5.185   3.837
10589SOL     OW32665   5.728   0.517   4.750
10589SOL    HW132666   5.769   0.489   4.837
10589SOL    HW232667   5.696   0.612   4.758
10590SOL     OW32668   1.024   6.990   4.282
10590SOL    HW132669   0.994   6.955   4.194
10590SOL    HW232670   0.947   6.989   4.346
10591SOL     OW32671   1.419   2.330   1.280
10591SOL    HW132672   1.476   2.292   1.207
10591SOL    HW232673   1.468   2.405   1.325
10592SOL     OW32674   4.907   1.630   6.507
10592SOL    HW132675   4.978   1.584   6.561
10592SOL    HW232676   4.942   1.647   6.415
10593SOL     OW32677   1.283   3.833   2.675
10593SOL    HW132678   1.338   3.785   2.743
10593SOL    HW232679   1.248   3.918   2.715
10594SOL     OW32680   1.964   1.180   3.829
10594SOL    HW132681   1.889   1.121   3.858
10594SOL    HW232682   2.051   1.130   3.834
10595SOL     OW32683   1.688   5.963   4.906
10595SOL    HW132684   1.636   5.974   4.821
10595SOL    HW232685   1.627   5.969   4.984
10596SOL     OW32686   2.484   1.414   0.926
10596SOL    HW132687   2.533   1.405   1.012
10596SOL    HW232688   2.386   1.424   0.943
10597SOL     OW32689   2.243   0.423   3.337
10597SOL    HW132690   2.276   0.471   3.256
10597SOL    HW232691   2.279   0.467   3.419
10598SOL     OW32692   3.075   1.098   0.684
10598SOL    HW132693   3.141   1.115   0.756
10598SOL    HW232694   3.055   1.000   0.680
10599SOL     OW32695   4.883   6.691   6.281
10599SOL    HW132696   4.907   6.735   6.368
10599SOL    HW232697   4.929   6.738   6.206
10600SOL     OW32698   1.771   3.491   5.341
10600SOL    HW132699   1.766   3.411   5.280
10600SOL    HW232700   1.709   3.477   5.418
10601SOL     OW32701   4.450   6.038   5.494
10601SOL    HW132702   4.506   5.959   5.518
10601SOL    HW232703   4.498   6.094   5.426
10602SOL     OW32704   4.558   2.483   2.310
10602SOL    HW132705   4.605   2.434   2.237
10602SOL    HW232706   4.620   2.549   2.352
10603SOL     OW32707   0.845   5.991   5.123
10603SOL    HW132708   0.787   6.052   5.177
10603SOL    HW232709   0.789   5.940   5.057
10604SOL     OW32710   1.039   4.680   6.566
10604SOL    HW132711   1.080   4.631   6.489
10604SOL    HW232712   0.940   4.666   6.565
10605SOL     OW32713   1.636   4.941   0.251
10605SOL    HW132714   1.556   4.935   0.192
10605SOL    HW232715   1.691   4.858   0.243
10606SOL     OW32716   1.142   0.671   1.750
10606SOL    HW132717   1.118   0.678   1.653
10606SOL    HW232718   1.188   0.584   1.767
10607SOL     OW32719   5.284   4.183   0.161
10607SOL    HW132720   5.202   4.125   0.159
10607SOL    HW232721   5.364   4.128   0.141
10608SOL     OW32722   5.071   6.466   2.166
10608SOL    HW132723   5.146   6.446   2.103
10608SOL    HW232724   4.984   6.448   2.122
10609SOL     OW32725   4.035   6.723   3.043
10609SOL    HW132726   4.042   6.682   2.952
10609SOL    HW232727   4.112   6.785   3.058
10610SOL     OW32728   2.172   4.586   5.050
10610SOL    HW132729   2.222   4.594   5.136
10610SOL    HW232730   2.080   4.625   5.061
10611SOL     OW32731   5.077   1.919   5.993
10611SOL    HW132732   5.141   1.845   6.013
10611SOL    HW232733   5.120   1.986   5.933
10612SOL     OW32734   1.405   0.613   1.523
10612SOL    HW132735   1.440   0.600   1.430
10612SOL    HW232736   1.408   0.526   1.572
10613SOL     OW32737   1.863   6.648   0.073
10613SOL    HW132738   1.864   6.594   0.157
10613SOL    HW232739   1.858   6.745   0.096
10614SOL     OW32740   0.894   0.568   3.172
10614SOL    HW132741   0.865   0.543   3.080
10614SOL    HW232742   0.815   0.569   3.233
10615SOL     OW32743   0.797   6.163   5.662
10615SOL    HW132744   0.710   6.114   5.657
10615SOL    HW232745   0.851   6.143   5.581
10616SOL     OW32746   3.430   5.542   1.914
10616SOL    HW132747   3.389   5.629   1.887
10616SOL    HW232748   3.439   5.483   1.834
10617SOL     OW32749   6.352   1.882   6.660
10617SOL    HW132750   6.414   1.934   6.600
10617SOL    HW232751   6.333   1.937   6.742
10618SOL     OW32752   6.784   3.973   1.215
10618SOL    HW132753   6.758   3.882   1.180
10618SOL    HW232754   6.705   4.034   1.209
10619SOL     OW32755   0.478   3.231   3.861
10619SOL    HW132756   0.478   3.331   3.862
10619SOL    HW232757   0.385   3.197   3.871
10620SOL     OW32758   1.633   5.304   3.767
10620SOL    HW132759   1.717   5.307   3.820
10620SOL    HW232760   1.650   5.259   3.680
10621SOL     OW32761   3.560   1.067   0.515
10621SOL    HW132762   3.478   1.122   0.502
10621SOL    HW232763   3.565   1.037   0.610
10622SOL     OW32764   4.489   2.470   0.705
10622SOL    HW132765   4.517   2.476   0.801
10622SOL    HW232766   4.399   2.511   0.694
10623SOL     OW32767   6.415   1.548   4.151
10623SOL    HW132768   6.368   1.487   4.088
10623SOL    HW232769   6.408   1.512   4.244
10624SOL     OW32770   2.976   1.261   3.179
10624SOL    HW132771   2.884   1.268   3.218
10624SOL    HW232772   3.017   1.173   3.206
10625SOL     OW32773   0.645   2.338   1.990
10625SOL    HW132774   0.614   2.276   1.918
10625SOL    HW232775   0.745   2.340   1.993
10626SOL     OW32776   6.847   1.566   2.675
10626SOL    HW132777   6.813   1.648   2.721
10626SOL    HW232778   6.915   1.592   2.606
10627SOL     OW32779   2.895   5.216   4.581
10627SOL    HW132780   2.809   5.176   4.613
10627SOL    HW232781   2.961   5.143   4.563
10628SOL     OW32782   0.409   0.460   4.841
10628SOL    HW132783   0.409   0.558   4.864
10628SOL    HW232784   0.441   0.408   4.921
10629SOL     OW32785   3.516   3.835   6.390
10629SOL    HW132786   3.488   3.893   6.467
10629SOL    HW232787   3.567   3.756   6.425
10630SOL     OW32788   5.304   1.181   1.351
10630SOL    HW132789   5.290   1.143   1.260
10630SOL    HW232790   5.397   1.160   1.382
10631SOL     OW32791   1.673   6.897   4.231
10631SOL    HW132792   1.625   6.928   4.149
10631SOL    HW232793   1.606   6.885   4.305
10632SOL     OW32794   6.702   3.160   0.617
10632SOL    HW132795   6.768   3.207   0.676
10632SOL    HW232796   6.732   3.066   0.602
10633SOL     OW32797   1.565   5.102   6.063
10633SOL    HW132798   1.567   5.100   5.963
10633SOL    HW232799   1.485   5.052   6.096
10634SOL     OW32800   3.267   6.516   2.612
10634SOL    HW132801   3.254   6.424   2.650
10634SOL    HW232802   3.180   6.548   2.572
10635SOL     OW32803   0.621   0.555   1.473
10635SOL    HW132804   0.696   0.507   1.428
10635SOL    HW232805   0.557   0.488   1.511
10636SOL     OW32806   5.220   1.905   6.622
10636SOL    HW132807   5.266   1.899   6.533
10636SOL    HW232808   5.232   1.819   6.672
10637SOL     OW32809   3.832   3.593   6.891
10637SOL    HW132810   3.909   3.620   6.833
10637SOL    HW232811   3.855   3.608   6.987
10638SOL     OW32812   6.499   1.639   5.722
10638SOL    HW132813   6.476   1.628   5.819
10638SOL    HW232814   6.462   1.561   5.671
10639SOL     OW32815   3.546   1.383   3.672
10639SOL    HW132816   3.590   1.314   3.729
10639SOL    HW232817   3.516   1.342   3.586
10640SOL     OW32818   4.859   6.343   0.492
10640SOL    HW132819   4.785   6.409   0.504
10640SOL    HW232820   4.842   6.263   0.550
10641SOL     OW32821   3.598   6.937   0.250
10641SOL    HW132822   3.670   6.976   0.193
10641SOL    HW232823   3.631   6.925   0.343
10642SOL     OW32824   0.500   6.294   2.233
10642SOL    HW132825   0.409   6.277   2.273
10642SOL    HW232826   0.562   6.222   2.262
10643SOL     OW32827   4.027   3.861   5.930
10643SOL    HW132828   4.040   3.805   6.012
10643SOL    HW232829   4.052   3.809   5.849
10644SOL     OW32830   4.208   1.647   5.290
10644SOL    HW132831   4.167   1.575   5.234
10644SOL    HW232832   4.262   1.708   5.233
10645SOL     OW32833   1.810   1.309   3.144
10645SOL    HW132834   1.869   1.384   3.173
10645SOL    HW232835   1.734   1.300   3.207
10646SOL     OW32836   6.943   4.520   0.177
10646SOL    HW132837   6.930   4.620   0.176
10646SOL    HW232838   6.930   4.484   0.085
10647SOL     OW32839   6.523   6.238   1.549
10647SOL    HW132840   6.477   6.323   1.524
10647SOL    HW232841   6.617   6.257   1.576
10648SOL     OW32842   4.580   3.821   5.712
10648SOL    HW132843   4.502   3.876   5.739
10648SOL    HW232844   4.597   3.832   5.614
10649SOL     OW32845   6.564   4.487   5.957
10649SOL    HW132846   6.565   4.428   6.037
10649SOL    HW232847   6.594   4.579   5.983
10650SOL     OW32848   2.041   1.153   5.549
10650SOL    HW132849   2.082   1.093   5.618
10650SOL    HW232850   1.959   1.196   5.587
10651SOL     OW32851   1.271   0.752   5.277
10651SOL    HW132852   1.332   0.815   5.325
10651SOL    HW232853   1.206   0.804   5.222
10652SOL     OW32854   4.474   0.572   0.606
10652SOL    HW132855   4.455   0.484   0.649
10652SOL    HW232856   4.491   0.558   0.508
10653SOL     OW32857   5.653   4.410   3.364
10653SOL    HW132858   5.745   4.382   3.338
10653SOL    HW232859   5.639   4.506   3.337
10654SOL     OW32860   5.104   6.847   0.967
10654SOL    HW132861   5.038   6.852   0.892
10654SOL    HW232862   5.097   6.931   1.022
10655SOL     OW32863   3.734   6.022   0.538
10655SOL    HW132864   3.798   6.095   0.560
10655SOL    HW232865   3.775   5.961   0.469
10656SOL     OW32866   0.602   3.374   5.892
10656SOL    HW132867   0.584   3.450   5.829
10656SOL    HW232868   0.516   3.342   5.930
10657SOL     OW32869   6.218   0.492   6.408
10657SOL    HW132870   6.256   0.413   6.457
10657SOL    HW232871   6.120   0.478   6.393
10658SOL     OW32872   0.220   6.033   3.672
10658SOL    HW132873   0.317   6.026   3.647
10658SOL    HW232874   0.194   6.130   3.672
10659SOL     OW32875   5.938   1.315   2.360
10659SOL    HW132876   5.982   1.331   2.449
10659SOL    HW232877   5.976   1.232   2.319
10660SOL     OW32878   4.635   4.673   5.140
10660SOL    HW132879   4.577   4.750   5.112
10660SOL    HW232880   4.580   4.589   5.142
10661SOL     OW32881   6.532   1.098   1.903
10661SOL    HW132882   6.621   1.054   1.888
10661SOL    HW232883   6.539   1.196   1.881
10662SOL     OW32884   0.703   2.154   0.602
10662SOL    HW132885   0.621   2.105   0.570
10662SOL    HW232886   0.712   2.143   0.701
10663SOL     OW32887   0.885   2.523   2.875
10663SOL    HW132888   0.803   2.485   2.832
10663SOL    HW232889   0.902   2.476   2.962
10664SOL     OW32890   2.140   5.454   6.242
10664SOL    HW132891   2.231   5.423   6.215
10664SOL    HW232892   2.072   5.418   6.179
10665SOL     OW32893   6.028   2.098   6.574
10665SOL    HW132894   6.067   2.161   6.507
10665SOL    HW232895   5.928   2.105   6.574
10666SOL     OW32896   0.313   5.919   1.107
10666SOL    HW132897   0.304   5.828   1.147
10666SOL    HW232898   0.375   5.915   1.028
10667SOL     OW32899   3.285   2.471   5.841
10667SOL    HW132900   3.327   2.515   5.761
10667SOL    HW232901   3.324   2.380   5.853
10668SOL     OW32902   1.539   6.965   6.521
10668SOL    HW132903   1.628   6.961   6.566
10668SOL    HW232904   1.493   0.026   6.547
10669SOL     OW32905   1.747   5.532   6.364
10669SOL    HW132906   1.747   5.447   6.311
10669SOL    HW232907   1.840   5.568   6.370
10670SOL     OW32908   5.895   3.982   5.274
10670SOL    HW132909   5.940   3.975   5.185
10670SOL    HW232910   5.798   3.961   5.264
10671SOL     OW32911   2.162   3.124   3.674
10671SOL    HW132912   2.128   3.141   3.581
10671SOL    HW232913   2.147   3.206   3.730
10672SOL     OW32914   6.507   2.707   0.744
10672SOL    HW132915   6.578   2.685   0.812
10672SOL    HW232916   6.512   2.805   0.722
10673SOL     OW32917   3.443   4.086   3.171
10673SOL    HW132918   3.354   4.101   3.215
10673SOL    HW232919   3.430   4.061   3.075
10674SOL     OW32920   3.113   1.982   2.600
10674SOL    HW132921   3.192   1.992   2.539
10674SOL    HW232922   3.090   1.885   2.609
10675SOL     OW32923   1.466   2.039   5.395
10675SOL    HW132924   1.374   2.062   5.428
10675SOL    HW232925   1.489   2.097   5.317
10676SOL     OW32926   6.513   0.506   0.046
10676SOL    HW132927   6.600   0.554   0.036
10676SOL    HW232928   6.509   0.430   7.006
10677SOL     OW32929   5.370   6.975   6.370
10677SOL    HW132930   5.327   6.929   6.292
10677SOL    HW232931   5.363   6.917   6.451
10678SOL     OW32932   1.988   5.994   3.876
10678SOL    HW132933   1.944   5.965   3.791
10678SOL    HW232934   1.950   6.083   3.904
10679SOL     OW32935   6.174   5.303   4.471
10679SOL    HW132936   6.182   5.286   4.570
10679SOL    HW232937   6.259   5.345   4.438
10680SOL     OW32938   0.476   2.284   3.580
10680SOL    HW132939   0.465   2.296   3.679
10680SOL    HW232940   0.570   2.256   3.560
10681SOL     OW32941   0.656   3.406   6.860
10681SOL    HW132942   0.560   3.418   6.883
10681SOL    HW232943   0.688   3.486   6.809
10682SOL     OW32944   6.596   2.267   3.674
10682SOL    HW132945   6.535   2.330   3.625
10682SOL    HW232946   6.575   2.173   3.646
10683SOL     OW32947   1.217   0.188   4.294
10683SOL    HW132948   1.202   0.260   4.226
10683SOL    HW232949   1.146   0.118   4.286
10684SOL     OW32950   5.165   6.087   0.728
10684SOL    HW132951   5.083   6.034   0.707
10684SOL    HW232952   5.150   6.183   0.703
10685SOL     OW32953   6.466   2.039   4.252
10685SOL    HW132954   6.484   2.132   4.220
10685SOL    HW232955   6.377   2.009   4.219
10686SOL     OW32956   5.372   3.951   1.491
10686SOL    HW132957   5.321   3.937   1.405
10686SOL    HW232958   5.436   3.875   1.503
10687SOL     OW32959   0.763   5.197   1.291
10687SOL    HW132960   0.727   5.236   1.206
10687SOL    HW232961   0.762   5.266   1.363
10688SOL     OW32962   1.719   5.436   1.608
10688SOL    HW132963   1.798   5.496   1.625
10688SOL    HW232964   1.743   5.369   1.538
10689SOL     OW32965   6.724   1.243   2.236
10689SOL    HW132966   6.624   1.244   2.244
10689SOL    HW232967   6.763   1.309   2.300
10690SOL     OW32968   3.770   0.623   2.284
10690SOL    HW132969   3.685   0.672   2.265
10690SOL    HW232970   3.801   0.645   2.377
10691SOL     OW32971   5.223   1.749   2.145
10691SOL    HW132972   5.300   1.811   2.161
10691SOL    HW232973   5.141   1.803   2.125
10692SOL     OW32974   5.690   6.369   4.556
10692SOL    HW132975   5.646   6.451   4.519
10692SOL    HW232976   5.773   6.351   4.504
10693SOL     OW32977   4.220   2.279   4.655
10693SOL    HW132978   4.157   2.317   4.588
10693SOL    HW232979   4.289   2.348   4.679
10694SOL     OW32980   3.725   6.581   0.257
10694SOL    HW132981   3.761   6.662   0.212
10694SOL    HW232982   3.717   6.597   0.356
10695SOL     OW32983   5.595   3.106   5.819
10695SOL    HW132984   5.513   3.081   5.769
10695SOL    HW232985   5.639   3.184   5.775
10696SOL     OW32986   6.266   0.798   0.736
10696SOL    HW132987   6.357   0.780   0.697
10696SOL    HW232988   6.270   0.878   0.795
10697SOL     OW32989   3.413   5.644   3.175
10697SOL    HW132990   3.346   5.711   3.209
10697SOL    HW232991   3.400   5.631   3.077
10698SOL     OW32992   3.940   6.977   3.386
10698SOL    HW132993   3.858   6.922   3.400
10698SOL    HW232994   3.959   6.984   3.288
10699SOL     OW32995   7.007   3.860   3.498
10699SOL    HW132996   7.012   3.941   3.440
10699SOL    HW232997   6.975   3.886   3.589
10700SOL     OW32998   0.378   2.694   3.365
10700SOL    HW132999   0.351   2.778   3.412
10700SOL    HW233000   0.349   2.697   3.270
10701SOL     OW33001   1.744   6.742   1.525
10701SOL    HW133002   1.761   6.831   1.567
10701SOL    HW233003   1.697   6.683   1.589
10702SOL     OW33004   4.792   1.946   1.095
10702SOL    HW133005   4.722   1.876   1.096
10702SOL    HW233006   4.750   2.036   1.102
10703SOL     OW33007   3.458   4.172   4.854
10703SOL    HW133008   3.552   4.140   4.842
10703SOL    HW233009   3.428   4.153   4.947
10704SOL     OW33010   5.608   5.507   1.841
10704SOL    HW133011   5.531   5.457   1.804
10704SOL    HW233012   5.657   5.553   1.767
10705SOL     OW33013   1.064   3.356   0.561
10705SOL    HW133014   1.047   3.367   0.463
10705SOL    HW233015   0.983   3.382   0.612
10706SOL     OW33016   3.317   3.838   0.415
10706SOL    HW133017   3.281   3.765   0.473
10706SOL    HW233018   3.304   3.813   0.319
10707SOL     OW33019   6.029   1.402   6.309
10707SOL    HW133020   6.082   1.318   6.297
10707SOL    HW233021   6.081   1.479   6.271
10708SOL     OW33022   4.277   3.386   0.936
10708SOL    HW133023   4.308   3.329   0.860
10708SOL    HW233024   4.308   3.347   1.022
10709SOL     OW33025   0.462   1.345   5.678
10709SOL    HW133026   0.547   1.392   5.703
10709SOL    HW233027   0.469   1.248   5.701
10710SOL     OW33028   6.694   6.929   3.490
10710SOL    HW133029   6.696   7.007   3.428
10710SOL    HW233030   6.781   6.880   3.484
10711SOL     OW33031   2.304   4.340   4.951
10711SOL    HW133032   2.226   4.358   5.011
10711SOL    HW233033   2.350   4.256   4.980
10712SOL     OW33034   3.447   2.080   5.639
10712SOL    HW133035   3.513   2.018   5.598
10712SOL    HW233036   3.372   2.096   5.574
10713SOL     OW33037   2.386   0.005   6.640
10713SOL    HW133038   2.411   0.078   6.704
10713SOL    HW233039   2.435   0.019   6.554
10714SOL     OW33040   5.638   5.074   4.529
10714SOL    HW133041   5.695   5.151   4.503
10714SOL    HW233042   5.626   5.073   4.628
10715SOL     OW33043   5.575   0.073   2.433
10715SOL    HW133044   5.511   0.150   2.433
10715SOL    HW233045   5.552   0.010   2.507
10716SOL     OW33046   6.370   1.955   2.996
10716SOL    HW133047   6.370   1.973   3.094
10716SOL    HW233048   6.457   1.915   2.969
10717SOL     OW33049   0.143   6.682   1.234
10717SOL    HW133050   0.168   6.593   1.196
10717SOL    HW233051   0.093   6.735   1.165
10718SOL     OW33052   0.390   4.662   5.376
10718SOL    HW133053   0.454   4.608   5.431
10718SOL    HW233054   0.301   4.618   5.377
10719SOL     OW33055   3.799   6.451   2.988
10719SOL    HW133056   3.730   6.428   3.056
10719SOL    HW233057   3.846   6.368   2.958
10720SOL     OW33058   1.243   3.529   5.589
10720SOL    HW133059   1.169   3.546   5.655
10720SOL    HW233060   1.287   3.442   5.610
10721SOL     OW33061   5.673   0.359   4.481
10721SOL    HW133062   5.579   0.365   4.447
10721SOL    HW233063   5.691   0.436   4.542
10722SOL     OW33064   0.966   4.918   1.007
10722SOL    HW133065   0.975   4.827   1.049
10722SOL    HW233066   0.882   4.961   1.039
10723SOL     OW33067   0.304   5.566   6.300
10723SOL    HW133068   0.278   5.646   6.246
10723SOL    HW233069   0.285   5.483   6.248
10724SOL     OW33070   3.691   6.766   5.894
10724SOL    HW133071   3.769   6.822   5.923
10724SOL    HW233072   3.708   6.670   5.918
10725SOL     OW33073   6.710   0.354   5.133
10725SOL    HW133074   6.718   0.450   5.105
10725SOL    HW233075   6.776   0.299   5.081
10726SOL     OW33076   0.009   1.125   3.898
10726SOL    HW133077   0.015   1.218   3.860
10726SOL    HW233078   6.962   1.074   3.850
10727SOL     OW33079   5.607   5.499   6.020
10727SOL    HW133080   5.549   5.548   6.085
10727SOL    HW233081   5.702   5.528   6.032
10728SOL     OW33082   5.056   5.995   4.868
10728SOL    HW133083   5.044   5.959   4.776
10728SOL    HW233084   5.149   6.029   4.879
10729SOL     OW33085   6.471   2.929   4.596
10729SOL    HW133086   6.417   3.007   4.564
10729SOL    HW233087   6.420   2.881   4.668
10730SOL     OW33088   0.895   5.875   4.250
10730SOL    HW133089   0.946   5.822   4.183
10730SOL    HW233090   0.813   5.913   4.207
10731SOL     OW33091   5.183   4.002   5.512
10731SOL    HW133092   5.233   4.088   5.520
10731SOL    HW233093   5.247   3.925   5.515
10732SOL     OW33094   5.786   5.350   1.961
10732SOL    HW133095   5.711   5.408   1.931
10732SOL    HW233096   5.858   5.407   2.002
10733SOL     OW33097   1.091   2.279   5.984
10733SOL    HW133098   1.077   2.341   6.061
10733SOL    HW233099   1.003   2.247   5.951
10734SOL     OW33100   0.635   1.524   4.164
10734SOL    HW133101   0.578   1.581   4.223
10734SOL    HW233102   0.730   1.550   4.174
10735SOL     OW33103   0.442   1.162   2.439
10735SOL    HW133104   0.344   1.185   2.433
10735SOL    HW233105   0.496   1.244   2.421
10736SOL     OW33106   5.338   5.886   4.191
10736SOL    HW133107   5.367   5.979   4.212
10736SOL    HW233108   5.409   5.841   4.135
10737SOL     OW33109   5.759   1.484   0.783
10737SOL    HW133110   5.726   1.389   0.784
10737SOL    HW233111   5.853   1.486   0.749
10738SOL     OW33112   0.947   6.640   2.453
10738SOL    HW133113   0.949   6.541   2.440
10738SOL    HW233114   0.854   6.674   2.441
10739SOL     OW33115   5.180   2.727   3.979
10739SOL    HW133116   5.160   2.698   3.885
10739SOL    HW233117   5.192   2.646   4.037
10740SOL     OW33118   3.029   1.173   6.787
10740SOL    HW133119   3.030   1.165   6.887
10740SOL    HW233120   2.965   1.245   6.759
10741SOL     OW33121   2.438   2.701   3.868
10741SOL    HW133122   2.430   2.668   3.774
10741SOL    HW233123   2.370   2.772   3.885
10742SOL     OW33124   6.379   0.549   2.449
10742SOL    HW133125   6.471   0.517   2.427
10742SOL    HW233126   6.384   0.631   2.506
10743SOL     OW33127   4.452   2.978   6.543
10743SOL    HW133128   4.463   3.064   6.593
10743SOL    HW233129   4.425   2.906   6.606
10744SOL     OW33130   1.848   1.561   1.185
10744SOL    HW133131   1.892   1.484   1.232
10744SOL    HW233132   1.749   1.548   1.185
10745SOL     OW33133   3.650   5.973   2.274
10745SOL    HW133134   3.619   5.920   2.352
10745SOL    HW233135   3.748   5.961   2.261
10746SOL     OW33136   2.507   5.680   5.023
10746SOL    HW133137   2.478   5.609   5.088
10746SOL    HW233138   2.545   5.637   4.942
10747SOL     OW33139   6.848   0.319   5.380
10747SOL    HW133140   6.797   0.333   5.295
10747SOL    HW233141   6.887   0.406   5.410
10748SOL     OW33142   3.213   6.404   1.843
10748SOL    HW133143   3.263   6.419   1.758
10748SOL    HW233144   3.206   6.491   1.893
10749SOL     OW33145   5.513   2.015   2.908
10749SOL    HW133146   5.552   2.004   2.816
10749SOL    HW233147   5.547   1.943   2.968
10750SOL     OW33148   3.427   2.036   3.710
10750SOL    HW133149   3.516   2.076   3.729
10750SOL    HW233150   3.431   1.937   3.728
10751SOL     OW33151   5.516   6.339   3.113
10751SOL    HW133152   5.488   6.321   3.019
10751SOL    HW233153   5.557   6.257   3.153
10752SOL     OW33154   6.969   6.339   6.602
10752SOL    HW133155   0.027   6.297   6.563
10752SOL    HW233156   6.945   6.292   6.687
10753SOL     OW33157   5.040   6.825   5.048
10753SOL    HW133158   5.015   6.746   5.105
10753SOL    HW233159   4.957   6.873   5.020
10754SOL     OW33160   6.406   5.297   2.023
10754SOL    HW133161   6.470   5.373   2.017
10754SOL    HW233162   6.336   5.318   2.092
10755SOL     OW33163   0.437   1.192   2.964
10755SOL    HW133164   0.409   1.220   3.056
10755SOL    HW233165   0.536   1.182   2.961
10756SOL     OW33166   0.718   6.241   7.024
10756SOL    HW133167   0.623   6.225   6.997
10756SOL    HW233168   0.757   6.311   6.964
10757SOL     OW33169   0.621   1.798   2.554
10757SOL    HW133170   0.711   1.782   2.514
10757SOL    HW233171   0.621   1.769   2.649
10758SOL     OW33172   0.304   1.166   1.105
10758SOL    HW133173   0.386   1.117   1.131
10758SOL    HW233174   0.327   1.261   1.085
10759SOL     OW33175   3.390   5.277   5.290
10759SOL    HW133176   3.428   5.188   5.316
10759SOL    HW233177   3.336   5.267   5.206
10760SOL     OW33178   1.167   5.057   6.717
10760SOL    HW133179   1.094   5.124   6.702
10760SOL    HW233180   1.155   5.014   6.806
10761SOL     OW33181   1.209   0.346   0.054
10761SOL    HW133182   1.292   0.382   0.013
10761SOL    HW233183   1.188   0.256   0.015
10762SOL     OW33184   1.729   5.191   0.839
10762SOL    HW133185   1.650   5.143   0.800
10762SOL    HW233186   1.702   5.232   0.927
10763SOL     OW33187   5.809   1.534   1.776
10763SOL    HW133188   5.904   1.544   1.746
10763SOL    HW233189   5.778   1.441   1.760
10764SOL     OW33190   5.059   0.097   3.486
10764SOL    HW133191   5.157   0.103   3.467
10764SOL    HW233192   5.025   0.186   3.516
10765SOL     OW33193   6.889   2.643   1.971
10765SOL    HW133194   6.898   2.652   1.872
10765SOL    HW233195   6.855   2.551   1.993
10766SOL     OW33196   3.519   6.239   0.091
10766SOL    HW133197   3.426   6.207   0.072
10766SOL    HW233198   3.559   6.182   0.162
10767SOL     OW33199   0.634   5.447   0.349
10767SOL    HW133200   0.602   5.520   0.288
10767SOL    HW233201   0.605   5.468   0.443
10768SOL     OW33202   6.875   6.370   0.465
10768SOL    HW133203   6.824   6.410   0.541
10768SOL    HW233204   6.873   6.270   0.472
10769SOL     OW33205   2.891   3.576   4.165
10769SOL    HW133206   2.926   3.491   4.204
10769SOL    HW233207   2.849   3.556   4.076
10770SOL     OW33208   4.575   0.942   5.434
10770SOL    HW133209   4.663   0.930   5.387
10770SOL    HW233210   4.530   1.024   5.400
10771SOL     OW33211   5.043   6.178   5.765
10771SOL    HW133212   5.136   6.145   5.781
10771SOL    HW233213   5.046   6.260   5.707
10772SOL     OW33214   5.256   3.186   4.037
10772SOL    HW133215   5.234   3.187   4.135
10772SOL    HW233216   5.326   3.256   4.018
10773SOL     OW33217   0.891   3.739   0.505
10773SOL    HW133218   0.922   3.734   0.410
10773SOL    HW233219   0.839   3.656   0.527
10774SOL     OW33220   6.399   2.828   1.853
10774SOL    HW133221   6.420   2.874   1.766
10774SOL    HW233222   6.308   2.789   1.849
10775SOL     OW33223   1.735   4.538   6.171
10775SOL    HW133224   1.683   4.468   6.123
10775SOL    HW233225   1.833   4.520   6.161
10776SOL     OW33226   0.183   3.522   3.675
10776SOL    HW133227   0.178   3.576   3.591
10776SOL    HW233228   0.164   3.426   3.654
10777SOL     OW33229   0.204   6.915   2.183
10777SOL    HW133230   0.175   6.994   2.130
10777SOL    HW233231   0.275   6.866   2.134
10778SOL     OW33232   4.349   6.714   3.148
10778SOL    HW133233   4.420   6.750   3.209
10778SOL    HW233234   4.322   6.623   3.180
10779SOL     OW33235   5.265   2.755   5.817
10779SOL    HW133236   5.283   2.713   5.728
10779SOL    HW233237   5.202   2.832   5.805
10780SOL     OW33238   1.213   5.905   4.381
10780SOL    HW133239   1.129   5.927   4.430
10780SOL    HW233240   1.249   5.818   4.415
10781SOL     OW33241   6.349   2.847   6.006
10781SOL    HW133242   6.288   2.779   5.965
10781SOL    HW233243   6.295   2.911   6.060
10782SOL     OW33244   1.587   3.463   4.669
10782SOL    HW133245   1.557   3.542   4.615
10782SOL    HW233246   1.584   3.486   4.766
10783SOL     OW33247   1.064   3.929   4.498
10783SOL    HW133248   1.069   3.995   4.572
10783SOL    HW233249   1.081   3.837   4.534
10784SOL     OW33250   4.824   5.818   3.408
10784SOL    HW133251   4.894   5.889   3.392
10784SOL    HW233252   4.852   5.760   3.484
10785SOL     OW33253   1.617   5.705   1.596
10785SOL    HW133254   1.631   5.606   1.604
10785SOL    HW233255   1.524   5.723   1.562
10786SOL     OW33256   4.743   1.470   2.556
10786SOL    HW133257   4.763   1.401   2.625
10786SOL    HW233258   4.648   1.459   2.525
10787SOL     OW33259   3.473   1.204   3.403
10787SOL    HW133260   3.483   1.118   3.354
10787SOL    HW233261   3.384   1.208   3.448
10788SOL     OW33262   1.458   3.042   6.924
10788SOL    HW133263   1.368   3.005   6.944
10788SOL    HW233264   1.477   3.035   6.826
10789SOL     OW33265   0.076   2.168   2.692
10789SOL    HW133266   0.076   2.204   2.599
10789SOL    HW233267   0.129   2.228   2.751
10790SOL     OW33268   6.887   3.037   4.586
10790SOL    HW133269   6.908   2.943   4.614
10790SOL    HW233270   6.826   3.036   4.507
10791SOL     OW33271   1.906   2.983   3.769
10791SOL    HW133272   1.977   2.913   3.758
10791SOL    HW233273   1.949   3.073   3.777
10792SOL     OW33274   3.075   0.374   1.438
10792SOL    HW133275   3.171   0.400   1.444
10792SOL    HW233276   3.020   0.455   1.419
10793SOL     OW33277   3.870   1.901   3.600
10793SOL    HW133278   3.818   1.934   3.522
10793SOL    HW233279   3.884   1.802   3.592
10794SOL     OW33280   4.959   2.887   0.469
10794SOL    HW133281   4.945   2.892   0.370
10794SOL    HW233282   5.029   2.953   0.496
10795SOL     OW33283   6.020   2.503   3.960
10795SOL    HW133284   6.076   2.446   3.900
10795SOL    HW233285   6.014   2.596   3.923
10796SOL     OW33286   6.986   1.570   6.933
10796SOL    HW133287   6.948   1.545   6.844
10796SOL    HW233288   6.916   1.559   7.003
10797SOL     OW33289   5.824   4.560   6.715
10797SOL    HW133290   5.725   4.555   6.703
10797SOL    HW233291   5.851   4.653   6.737
10798SOL     OW33292   3.337   5.817   0.708
10798SOL    HW133293   3.321   5.730   0.755
10798SOL    HW233294   3.311   5.892   0.768
10799SOL     OW33295   2.060   1.243   2.934
10799SOL    HW133296   2.051   1.343   2.942
10799SOL    HW233297   2.091   1.206   3.021
10800SOL     OW33298   0.987   0.721   5.025
10800SOL    HW133299   0.988   0.727   5.125
10800SOL    HW233300   1.012   0.809   4.986
10801SOL     OW33301   3.053   6.185   6.720
10801SOL    HW133302   2.990   6.191   6.643
10801SOL    HW233303   3.001   6.175   6.805
10802SOL     OW33304   1.148   5.080   3.172
10802SOL    HW133305   1.196   5.052   3.254
10802SOL    HW233306   1.163   5.177   3.156
10803SOL     OW33307   0.394   4.818   4.407
10803SOL    HW133308   0.321   4.750   4.409
10803SOL    HW233309   0.385   4.879   4.485
10804SOL     OW33310   5.218   5.223   6.176
10804SOL    HW133311   5.215   5.155   6.103
10804SOL    HW233312   5.307   5.219   6.222
10805SOL     OW33313   5.691   5.242   6.637
10805SOL    HW133314   5.691   5.171   6.707
10805SOL    HW233315   5.737   5.209   6.555
10806SOL     OW33316   7.010   2.892   5.383
10806SOL    HW133317   0.056   2.893   5.454
10806SOL    HW233318   6.934   2.951   5.411
10807SOL     OW33319   4.163   2.743   5.621
10807SOL    HW133320   4.132   2.838   5.623
10807SOL    HW233321   4.154   2.703   5.712
10808SOL     OW33322   0.189   2.713   0.835
10808SOL    HW133323   0.168   2.764   0.918
10808SOL    HW233324   0.122   2.640   0.823
10809SOL     OW33325   1.021   0.782   3.489
10809SOL    HW133326   1.077   0.862   3.514
10809SOL    HW233327   0.924   0.809   3.489
10810SOL     OW33328   1.890   1.662   6.143
10810SOL    HW133329   1.909   1.692   6.050
10810SOL    HW233330   1.945   1.581   6.164
10811SOL     OW33331   4.123   5.208   6.551
10811SOL    HW133332   4.062   5.186   6.628
10811SOL    HW233333   4.080   5.179   6.466
10812SOL     OW33334   6.354   3.183   2.371
10812SOL    HW133335   6.300   3.184   2.287
10812SOL    HW233336   6.442   3.228   2.354
10813SOL     OW33337   2.875   5.341   2.263
10813SOL    HW133338   2.899   5.426   2.217
10813SOL    HW233339   2.829   5.279   2.199
10814SOL     OW33340   1.584   5.969   4.214
10814SOL    HW133341   1.607   6.063   4.187
10814SOL    HW233342   1.661   5.909   4.193
10815SOL     OW33343   5.511   2.569   6.139
10815SOL    HW133344   5.530   2.652   6.087
10815SOL    HW233345   5.464   2.503   6.080
10816SOL     OW33346   2.241   2.108   1.309
10816SOL    HW133347   2.237   2.182   1.241
10816SOL    HW233348   2.158   2.111   1.365
10817SOL     OW33349   4.138   1.481   2.089
10817SOL    HW133350   4.047   1.521   2.102
10817SOL    HW233351   4.195   1.544   2.036
10818SOL     OW33352   4.664   3.496   5.648
10818SOL    HW133353   4.615   3.581   5.666
10818SOL    HW233354   4.760   3.507   5.672
10819SOL     OW33355   2.098   3.286   5.184
10819SOL    HW133356   2.126   3.230   5.106
10819SOL    HW233357   2.171   3.289   5.251
10820SOL     OW33358   0.927   6.284   4.892
10820SOL    HW133359   0.994   6.277   4.967
10820SOL    HW233360   0.962   6.235   4.812
10821SOL     OW33361   0.004   0.527   5.917
10821SOL    HW133362   0.073   0.537   5.990
10821SOL    HW233363   6.938   0.519   5.958
10822SOL     OW33364   0.631   5.947   6.254
10822SOL    HW133365   0.716   5.951   6.201
10822SOL    HW233366   0.566   5.887   6.210
10823SOL     OW33367   2.911   2.170   0.304
10823SOL    HW133368   2.932   2.103   0.375
10823SOL    HW233369   2.813   2.192   0.307
10824SOL     OW33370   5.088   1.529   4.287
10824SOL    HW133371   5.107   1.431   4.297
10824SOL    HW233372   5.056   1.548   4.195
10825SOL     OW33373   4.352   2.299   2.008
10825SOL    HW133374   4.328   2.336   2.097
10825SOL    HW233375   4.271   2.257   1.967
10826SOL     OW33376   6.777   3.443   0.654
10826SOL    HW133377   6.775   3.371   0.724
10826SOL    HW233378   6.776   3.532   0.698
10827SOL     OW33379   6.996   3.573   4.670
10827SOL    HW133380   0.010   3.481   4.656
10827SOL    HW233381   6.952   3.604   4.586
10828SOL     OW33382   2.902   4.449   0.243
10828SOL    HW133383   2.970   4.399   0.298
10828SOL    HW233384   2.945   4.480   0.159
10829SOL     OW33385   1.422   3.444   1.656
10829SOL    HW133386   1.428   3.543   1.669
10829SOL    HW233387   1.514   3.404   1.660
10830SOL     OW33388   6.344   0.356   3.728
10830SOL    HW133389   6.339   0.314   3.638
10830SOL    HW233390   6.253   0.353   3.771
10831SOL     OW33391   5.459   3.253   2.599
10831SOL    HW133392   5.486   3.247   2.503
10831SOL    HW233393   5.519   3.317   2.647
10832SOL     OW33394   1.726   2.897   2.453
10832SOL    HW133395   1.700   2.865   2.362
10832SOL    HW233396   1.712   2.996   2.459
10833SOL     OW33397   3.792   0.468   4.724
10833SOL    HW133398   3.717   0.472   4.791
10833SOL    HW233399   3.873   0.430   4.768
10834SOL     OW33400   0.129   2.005   6.236
10834SOL    HW133401   0.034   1.979   6.254
10834SOL    HW233402   0.174   1.934   6.182
10835SOL     OW33403   0.509   1.024   1.122
10835SOL    HW133404   0.525   0.962   1.199
10835SOL    HW233405   0.489   0.971   1.040
10836SOL     OW33406   6.365   1.165   1.600
10836SOL    HW133407   6.443   1.211   1.643
10836SOL    HW233408   6.281   1.196   1.644
10837SOL     OW33409   2.082   4.758   0.676
10837SOL    HW133410   2.162   4.789   0.727
10837SOL    HW233411   2.105   4.672   0.628
10838SOL     OW33412   6.262   6.648   1.223
10838SOL    HW133413   6.224   6.579   1.161
10838SOL    HW233414   6.188   6.690   1.275
10839SOL     OW33415   2.552   1.338   6.455
10839SOL    HW133416   2.460   1.310   6.427
10839SOL    HW233417   2.552   1.437   6.473
10840SOL     OW33418   0.898   0.570   3.679
10840SOL    HW133419   0.883   0.665   3.706
10840SOL    HW233420   0.918   0.565   3.581
10841SOL     OW33421   4.127   4.233   6.626
10841SOL    HW133422   4.199   4.293   6.590
10841SOL    HW233423   4.149   4.206   6.720
10842SOL     OW33424   6.002   2.294   2.488
10842SOL    HW133425   5.916   2.241   2.485
10842SOL    HW233426   5.981   2.391   2.478
10843SOL     OW33427   1.061   1.877   1.864
10843SOL    HW133428   1.076   1.805   1.931
10843SOL    HW233429   1.143   1.933   1.855
10844SOL     OW33430   4.259   6.477   3.253
10844SOL    HW133431   4.285   6.450   3.346
10844SOL    HW233432   4.167   6.518   3.255
10845SOL     OW33433   2.502   3.480   1.193
10845SOL    HW133434   2.524   3.384   1.210
10845SOL    HW233435   2.449   3.488   1.108
10846SOL     OW33436   3.349   1.239   2.129
10846SOL    HW133437   3.438   1.277   2.105
10846SOL    HW233438   3.280   1.311   2.128
10847SOL     OW33439   5.396   2.144   4.820
10847SOL    HW133440   5.309   2.184   4.793
10847SOL    HW233441   5.457   2.141   4.741
10848SOL     OW33442   2.175   0.437   6.284
10848SOL    HW133443   2.231   0.484   6.216
10848SOL    HW233444   2.086   0.482   6.290
10849SOL     OW33445   7.015   4.571   4.984
10849SOL    HW133446   6.974   4.570   4.893
10849SOL    HW233447   0.086   4.600   4.978
10850SOL     OW33448   6.218   0.566   3.890
10850SOL    HW133449   6.305   0.563   3.939
10850SOL    HW233450   6.147   0.522   3.945
10851SOL     OW33451   5.681   3.248   0.795
10851SOL    HW133452   5.596   3.285   0.834
10851SOL    HW233453   5.698   3.157   0.832
10852SOL     OW33454   5.439   1.583   5.582
10852SOL    HW133455   5.415   1.658   5.519
10852SOL    HW233456   5.511   1.528   5.541
10853SOL     OW33457   1.111   6.917   5.858
10853SOL    HW133458   1.123   6.947   5.763
10853SOL    HW233459   1.115   6.996   5.918
10854SOL     OW33460   6.150   6.056   6.749
10854SOL    HW133461   6.090   6.132   6.777
10854SOL    HW233462   6.095   5.974   6.733
10855SOL     OW33463   0.417   6.183   6.937
10855SOL    HW133464   0.348   6.128   6.985
10855SOL    HW233465   0.371   6.249   6.878
10856SOL     OW33466   4.286   6.804   0.028
10856SOL    HW133467   4.305   6.711   0.061
10856SOL    HW233468   4.197   6.806   7.008
10857SOL     OW33469   6.430   6.529   4.430
10857SOL    HW133470   6.339   6.491   4.417
10857SOL    HW233471   6.469   6.496   4.516
10858SOL     OW33472   1.248   2.770   1.405
10858SOL    HW133473   1.212   2.863   1.405
10858SOL    HW233474   1.299   2.754   1.490
10859SOL     OW33475   1.952   4.662   2.240
10859SOL    HW133476   1.976   4.743   2.294
10859SOL    HW233477   1.898   4.600   2.296
10860SOL     OW33478   5.472   0.993   2.699
10860SOL    HW133479   5.388   0.965   2.652
10860SOL    HW233480   5.509   1.075   2.655
10861SOL     OW33481   2.894   4.538   1.037
10861SOL    HW133482   2.880   4.579   1.128
10861SOL    HW233483   2.978   4.485   1.037
10862SOL     OW33484   3.350   4.341   5.632
10862SOL    HW133485   3.363   4.391   5.546
10862SOL    HW233486   3.394   4.251   5.625
10863SOL     OW33487   0.652   0.634   4.137
10863SOL    HW133488   0.652   0.545   4.182
10863SOL    HW233489   0.652   0.706   4.207
10864SOL     OW33490   2.925   3.312   2.133
10864SOL    HW133491   2.996   3.380   2.115
10864SOL    HW233492   2.934   3.280   2.228
10865SOL     OW33493   3.794   1.693   2.608
10865SOL    HW133494   3.792   1.732   2.516
10865SOL    HW233495   3.864   1.739   2.662
10866SOL     OW33496   0.239   3.357   5.096
10866SOL    HW133497   0.335   3.371   5.069
10866SOL    HW233498   0.219   3.260   5.098
10867SOL     OW33499   5.439   3.436   0.607
10867SOL    HW133500   5.342   3.444   0.583
10867SOL    HW233501   5.467   3.340   0.603
10868SOL     OW33502   6.954   0.229   5.832
10868SOL    HW133503   6.898   0.215   5.751
10868SOL    HW233504   6.906   0.288   5.897
10869NA      NA33505   6.441   1.529   6.851
10870NA      NA33506   4.710   4.485   4.800
10871NA      NA33507   1.221   4.477   3.028
10872NA      NA33508   5.998   3.615   3.932
10873NA      NA33509   4.219   2.274   5.170
10874NA      NA33510   2.559   3.767   6.733
10875NA      NA33511   1.976   5.104   0.505
10876NA      NA33512   4.292   4.788   2.043
10877NA      NA33513   5.494   3.717   1.012
10878NA      NA33514   3.715   2.198   0.718
10879NA      NA33515   4.912   6.107   1.566
10880NA      NA33516   3.045   6.327   3.917
10881NA      NA33517   4.035   5.623   3.186
10882NA      NA33518   4.683   4.713   5.681
   7.02423   7.02423   7.02423
