Generated by trjconv : CNT in water t= 245.00000
33518
    1C        C    1   2.842   2.769   4.744
    1C        C    2   2.898   2.719   4.864
    1C        C    3   2.841   2.771   4.981
    1C        C    4   2.847   2.773   4.260
    1C        C    5   2.902   2.725   4.381
    1C        C    6   2.847   2.775   4.501
    1C        C    7   3.009   2.639   4.625
    1C        C    8   2.893   2.720   4.623
    1C        C    9   3.077   2.606   4.744
    1C        C   10   3.008   2.632   4.864
    1C        C   11   3.178   2.489   4.975
    1C        C   12   3.055   2.557   4.973
    1C        C   13   2.854   2.778   3.770
    1C        C   14   2.902   2.727   3.892
    1C        C   15   2.850   2.772   4.015
    1C        C   16   3.017   2.647   4.137
    1C        C   17   2.898   2.723   4.138
    1C        C   18   3.082   2.616   4.259
    1C        C   19   3.022   2.650   4.382
    1C        C   20   3.210   2.557   4.504
    1C        C   21   3.080   2.613   4.506
    1C        C   22   3.278   2.534   4.625
    1C        C   23   3.210   2.554   4.747
    1C        C   24   3.410   2.478   4.862
    1C        C   25   3.268   2.500   4.865
    1C        C   26   3.487   2.476   4.980
    1C        C   27   2.847   2.769   3.280
    1C        C   28   2.903   2.725   3.401
    1C        C   29   2.855   2.776   3.524
    1C        C   30   3.021   2.648   3.649
    1C        C   31   2.906   2.730   3.647
    1C        C   32   3.078   2.607   3.771
    1C        C   33   3.016   2.643   3.893
    1C        C   34   3.207   2.552   4.015
    1C        C   35   3.079   2.611   4.016
    1C        C   36   3.278   2.540   4.136
    1C        C   37   3.213   2.564   4.259
    1C        C   38   3.415   2.503   4.380
    1C        C   39   3.278   2.536   4.382
    1C        C   40   3.487   2.492   4.501
    1C        C   41   3.414   2.497   4.622
    1C        C   42   3.628   2.479   4.746
    1C        C   43   3.486   2.475   4.742
    1C        C   44   3.700   2.485   4.867
    1C        C   45   3.625   2.486   4.985
    1C        C   46   2.839   2.754   2.795
    1C        C   47   2.893   2.707   2.916
    1C        C   48   2.844   2.763   3.036
    1C        C   49   3.018   2.642   3.161
    1C        C   50   2.900   2.720   3.159
    1C        C   51   3.080   2.607   3.283
    1C        C   52   3.019   2.643   3.405
    1C        C   53   3.210   2.552   3.527
    1C        C   54   3.081   2.608   3.527
    1C        C   55   3.277   2.531   3.650
    1C        C   56   3.208   2.550   3.771
    1C        C   57   3.414   2.505   3.895
    1C        C   58   3.275   2.526   3.893
    1C        C   59   3.486   2.500   4.016
    1C        C   60   3.416   2.508   4.139
    1C        C   61   3.629   2.492   4.257
    1C        C   62   3.488   2.494   4.260
    1C        C   63   3.696   2.503   4.381
    1C        C   64   3.628   2.495   4.505
    1C        C   65   3.836   2.536   4.620
    1C        C   66   3.701   2.496   4.626
    1C        C   67   3.903   2.557   4.742
    1C        C   68   3.836   2.523   4.862
    1C        C   69   4.048   2.584   4.978
    1C        C   70   3.919   2.529   4.974
    1C        C   71   2.822   2.733   2.306
    1C        C   72   2.879   2.690   2.429
    1C        C   73   2.829   2.744   2.549
    1C        C   74   3.007   2.630   2.672
    1C        C   75   2.889   2.706   2.671
    1C        C   76   3.074   2.600   2.793
    1C        C   77   3.014   2.635   2.916
    1C        C   78   3.208   2.548   3.035
    1C        C   79   3.079   2.606   3.039
    1C        C   80   3.276   2.530   3.158
    1C        C   81   3.211   2.554   3.281
    1C        C   82   3.414   2.499   3.401
    1C        C   83   3.276   2.529   3.404
    1C        C   84   3.483   2.489   3.524
    1C        C   85   3.416   2.501   3.647
    1C        C   86   3.624   2.493   3.769
    1C        C   87   3.483   2.497   3.771
    1C        C   88   3.694   2.508   3.891
    1C        C   89   3.627   2.503   4.015
    1C        C   90   3.837   2.534   4.135
    1C        C   91   3.701   2.498   4.135
    1C        C   92   3.900   2.566   4.257
    1C        C   93   3.831   2.545   4.378
    1C        C   94   4.025   2.634   4.500
    1C        C   95   3.903   2.564   4.498
    1C        C   96   4.089   2.671   4.621
    1C        C   97   4.029   2.623   4.740
    1C        C   98   4.183   2.767   4.864
    1C        C   99   4.095   2.654   4.862
    1C        C  100   4.205   2.842   4.980
    1C        C  101   2.819   2.730   2.069
    1C        C  102   2.992   2.593   2.185
    1C        C  103   2.879   2.682   2.186
    1C        C  104   3.060   2.581   2.309
    1C        C  105   3.001   2.619   2.431
    1C        C  106   3.199   2.535   2.549
    1C        C  107   3.069   2.590   2.551
    1C        C  108   3.272   2.524   2.669
    1C        C  109   3.203   2.544   2.791
    1C        C  110   3.411   2.494   2.911
    1C        C  111   3.272   2.521   2.912
    1C        C  112   3.483   2.491   3.033
    1C        C  113   3.413   2.498   3.156
    1C        C  114   3.624   2.492   3.279
    1C        C  115   3.483   2.489   3.278
    1C        C  116   3.695   2.500   3.401
    1C        C  117   3.625   2.491   3.523
    1C        C  118   3.830   2.536   3.647
    1C        C  119   3.694   2.497   3.646
    1C        C  120   3.897   2.567   3.768
    1C        C  121   3.829   2.550   3.890
    1C        C  122   4.023   2.635   4.012
    1C        C  123   3.898   2.569   4.012
    1C        C  124   4.082   2.673   4.135
    1C        C  125   4.027   2.630   4.257
    1C        C  126   4.190   2.768   4.377
    1C        C  127   4.083   2.676   4.378
    1C        C  128   4.237   2.823   4.498
    1C        C  129   4.196   2.763   4.619
    1C        C  130   4.318   2.934   4.739
    1C        C  131   4.240   2.815   4.742
    1C        C  132   4.347   3.006   4.858
    1C        C  133   4.277   2.960   4.971
    1C        C  134   3.172   2.470   2.079
    1C        C  135   3.037   2.507   2.080
    1C        C  136   3.258   2.485   2.188
    1C        C  137   3.190   2.523   2.306
    1C        C  138   3.402   2.483   2.427
    1C        C  139   3.263   2.504   2.426
    1C        C  140   3.479   2.478   2.545
    1C        C  141   3.410   2.492   2.667
    1C        C  142   3.622   2.487   2.791
    1C        C  143   3.481   2.485   2.789
    1C        C  144   3.695   2.495   2.912
    1C        C  145   3.624   2.490   3.034
    1C        C  146   3.831   2.528   3.156
    1C        C  147   3.694   2.493   3.157
    1C        C  148   3.898   2.556   3.277
    1C        C  149   3.832   2.535   3.400
    1C        C  150   4.020   2.627   3.520
    1C        C  151   3.894   2.562   3.524
    1C        C  152   4.081   2.666   3.642
    1C        C  153   4.022   2.633   3.766
    1C        C  154   4.189   2.764   3.886
    1C        C  155   4.080   2.673   3.888
    1C        C  156   4.238   2.813   4.009
    1C        C  157   4.191   2.764   4.132
    1C        C  158   4.333   2.921   4.252
    1C        C  159   4.245   2.811   4.254
    1C        C  160   4.366   2.987   4.373
    1C        C  161   4.327   2.932   4.497
    1C        C  162   4.432   3.116   4.615
    1C        C  163   4.365   2.992   4.619
    1C        C  164   4.465   3.182   4.735
    1C        C  165   4.426   3.122   4.857
    1C        C  166   4.517   3.320   4.971
    1C        C  167   4.469   3.189   4.973
    1C        C  168   3.474   2.437   2.073
    1C        C  169   3.397   2.461   2.188
    1C        C  170   3.615   2.468   2.307
    1C        C  171   3.473   2.464   2.306
    1C        C  172   3.691   2.483   2.425
    1C        C  173   3.621   2.480   2.548
    1C        C  174   3.830   2.529   2.665
    1C        C  175   3.693   2.494   2.668
    1C        C  176   3.896   2.556   2.787
    1C        C  177   3.832   2.530   2.910
    1C        C  178   4.021   2.618   3.031
    1C        C  179   3.897   2.551   3.033
    1C        C  180   4.084   2.657   3.151
    1C        C  181   4.023   2.622   3.274
    1C        C  182   4.188   2.752   3.396
    1C        C  183   4.079   2.662   3.397
    1C        C  184   4.240   2.802   3.517
    1C        C  185   4.191   2.755   3.641
    1C        C  186   4.329   2.919   3.762
    1C        C  187   4.240   2.810   3.762
    1C        C  188   4.368   2.979   3.884
    1C        C  189   4.330   2.920   4.006
    1C        C  190   4.436   3.104   4.127
    1C        C  191   4.370   2.979   4.128
    1C        C  192   4.459   3.174   4.247
    1C        C  193   4.426   3.115   4.371
    1C        C  194   4.500   3.316   4.489
    1C        C  195   4.454   3.182   4.492
    1C        C  196   4.524   3.386   4.609
    1C        C  197   4.508   3.318   4.732
    1C        C  198   4.557   3.532   4.849
    1C        C  199   4.530   3.391   4.852
    1C        C  200   4.584   3.621   4.957
    1C        C  201   3.613   2.418   2.071
    1C        C  202   3.822   2.513   2.183
    1C        C  203   3.688   2.463   2.185
    1C        C  204   3.896   2.542   2.301
    1C        C  205   3.828   2.516   2.422
    1C        C  206   4.018   2.615   2.542
    1C        C  207   3.898   2.542   2.542
    1C        C  208   4.082   2.654   2.662
    1C        C  209   4.022   2.621   2.786
    1C        C  210   4.192   2.743   2.903
    1C        C  211   4.081   2.656   2.909
    1C        C  212   4.240   2.796   3.025
    1C        C  213   4.192   2.748   3.149
    1C        C  214   4.330   2.907   3.270
    1C        C  215   4.240   2.798   3.272
    1C        C  216   4.364   2.970   3.392
    1C        C  217   4.328   2.912   3.516
    1C        C  218   4.434   3.098   3.638
    1C        C  219   4.371   2.971   3.637
    1C        C  220   4.461   3.168   3.757
    1C        C  221   4.436   3.103   3.880
    1C        C  222   4.497   3.303   4.000
    1C        C  223   4.466   3.165   4.004
    1C        C  224   4.511   3.376   4.120
    1C        C  225   4.497   3.310   4.245
    1C        C  226   4.522   3.523   4.367
    1C        C  227   4.509   3.383   4.365
    1C        C  228   4.516   3.596   4.488
    1C        C  229   4.529   3.527   4.610
    1C        C  230   4.505   3.743   4.726
    1C        C  231   4.535   3.604   4.728
    1C        C  232   4.491   3.819   4.845
    1C        C  233   4.540   3.754   4.959
    1C        C  234   4.011   2.608   2.061
    1C        C  235   3.889   2.540   2.063
    1C        C  236   4.079   2.648   2.176
    1C        C  237   4.023   2.605   2.299
    1C        C  238   4.198   2.730   2.418
    1C        C  239   4.083   2.647   2.420
    1C        C  240   4.248   2.784   2.539
    1C        C  241   4.197   2.736   2.662
    1C        C  242   4.329   2.906   2.781
    1C        C  243   4.247   2.791   2.782
    1C        C  244   4.373   2.960   2.904
    1C        C  245   4.331   2.905   3.027
    1C        C  246   4.432   3.092   3.146
    1C        C  247   4.371   2.964   3.148
    1C        C  248   4.452   3.161   3.268
    1C        C  249   4.424   3.098   3.391
    1C        C  250   4.484   3.301   3.512
    1C        C  251   4.449   3.164   3.514
    1C        C  252   4.500   3.371   3.634
    1C        C  253   4.496   3.305   3.758
    1C        C  254   4.519   3.517   3.877
    1C        C  255   4.507   3.376   3.880
    1C        C  256   4.514   3.588   3.999
    1C        C  257   4.515   3.517   4.121
    1C        C  258   4.497   3.729   4.241
    1C        C  259   4.521   3.590   4.242
    1C        C  260   4.475   3.803   4.360
    1C        C  261   4.492   3.735   4.483
    1C        C  262   4.425   3.939   4.601
    1C        C  263   4.479   3.808   4.604
    1C        C  264   4.398   4.009   4.721
    1C        C  265   4.436   3.949   4.843
    1C        C  266   4.323   4.135   4.957
    1C        C  267   4.394   4.016   4.959
    1C        C  268   4.263   2.772   2.061
    1C        C  269   4.190   2.736   2.175
    1C        C  270   4.340   2.889   2.295
    1C        C  271   4.246   2.783   2.296
    1C        C  272   4.376   2.954   2.415
    1C        C  273   4.338   2.893   2.536
    1C        C  274   4.448   3.077   2.658
    1C        C  275   4.375   2.956   2.657
    1C        C  276   4.472   3.147   2.778
    1C        C  277   4.442   3.083   2.901
    1C        C  278   4.501   3.288   3.023
    1C        C  279   4.463   3.152   3.022
    1C        C  280   4.510   3.362   3.143
    1C        C  281   4.489   3.298   3.267
    1C        C  282   4.507   3.510   3.388
    1C        C  283   4.500   3.369   3.389
    1C        C  284   4.512   3.581   3.510
    1C        C  285   4.513   3.511   3.634
    1C        C  286   4.496   3.726   3.752
    1C        C  287   4.519   3.586   3.753
    1C        C  288   4.476   3.793   3.874
    1C        C  289   4.490   3.728   3.999
    1C        C  290   4.428   3.932   4.114
    1C        C  291   4.472   3.798   4.120
    1C        C  292   4.395   3.997   4.236
    1C        C  293   4.425   3.935   4.359
    1C        C  294   4.325   4.126   4.478
    1C        C  295   4.395   4.003   4.479
    1C        C  296   4.282   4.186   4.598
    1C        C  297   4.320   4.128   4.721
    1C        C  298   4.195   4.312   4.836
    1C        C  299   4.281   4.197   4.839
    1C        C  300   4.166   4.401   4.945
    1C        C  301   4.356   2.875   2.060
    1C        C  302   4.463   3.070   2.173
    1C        C  303   4.395   2.944   2.176
    1C        C  304   4.483   3.142   2.294
    1C        C  305   4.443   3.078   2.413
    1C        C  306   4.506   3.281   2.536
    1C        C  307   4.472   3.144   2.535
    1C        C  308   4.502   3.354   2.656
    1C        C  309   4.495   3.286   2.780
    1C        C  310   4.517   3.500   2.899
    1C        C  311   4.509   3.359   2.901
    1C        C  312   4.516   3.575   3.019
    1C        C  313   4.515   3.503   3.141
    1C        C  314   4.483   3.714   3.262
    1C        C  315   4.506   3.574   3.262
    1C        C  316   4.475   3.786   3.384
    1C        C  317   4.499   3.721   3.507
    1C        C  318   4.428   3.923   3.628
    1C        C  319   4.482   3.792   3.628
    1C        C  320   4.393   3.985   3.749
    1C        C  321   4.423   3.923   3.873
    1C        C  322   4.318   4.112   3.989
    1C        C  323   4.395   3.994   3.992
    1C        C  324   4.280   4.172   4.112
    1C        C  325   4.322   4.118   4.236
    1C        C  326   4.187   4.285   4.351
    1C        C  327   4.286   4.185   4.355
    1C        C  328   4.131   4.334   4.471
    1C        C  329   4.187   4.290   4.593
    1C        C  330   4.025   4.435   4.714
    1C        C  331   4.140   4.352   4.711
    1C        C  332   3.967   4.491   4.830
    1C        C  333   4.048   4.476   4.943
    1C        C  334   4.549   3.266   2.061
    1C        C  335   4.527   3.128   2.059
    1C        C  336   4.532   3.349   2.173
    1C        C  337   4.514   3.281   2.295
    1C        C  338   4.524   3.495   2.413
    1C        C  339   4.522   3.354   2.416
    1C        C  340   4.519   3.567   2.534
    1C        C  341   4.510   3.495   2.655
    1C        C  342   4.493   3.708   2.771
    1C        C  343   4.514   3.568   2.776
    1C        C  344   4.473   3.778   2.892
    1C        C  345   4.490   3.713   3.017
    1C        C  346   4.422   3.914   3.138
    1C        C  347   4.469   3.781   3.139
    1C        C  348   4.394   3.982   3.259
    1C        C  349   4.429   3.920   3.381
    1C        C  350   4.315   4.099   3.503
    1C        C  351   4.391   3.980   3.503
    1C        C  352   4.274   4.161   3.623
    1C        C  353   4.315   4.103   3.745
    1C        C  354   4.173   4.263   3.865
    1C        C  355   4.273   4.163   3.865
    1C        C  356   4.120   4.313   3.987
    1C        C  357   4.181   4.272   4.108
    1C        C  358   4.011   4.401   4.229
    1C        C  359   4.128   4.323   4.228
    1C        C  360   3.949   4.443   4.349
    1C        C  361   4.013   4.411   4.471
    1C        C  362   3.827   4.511   4.591
    1C        C  363   3.958   4.460   4.592
    1C        C  364   3.759   4.545   4.710
    1C        C  365   3.835   4.541   4.829
    1C        C  366   3.629   4.584   4.947
    1C        C  367   3.767   4.568   4.949
    1C        C  368   4.510   3.562   2.049
    1C        C  369   4.524   3.490   2.169
    1C        C  370   4.501   3.703   2.286
    1C        C  371   4.518   3.563   2.289
    1C        C  372   4.484   3.775   2.406
    1C        C  373   4.497   3.707   2.529
    1C        C  374   4.424   3.909   2.647
    1C        C  375   4.476   3.778   2.649
    1C        C  376   4.392   3.971   2.770
    1C        C  377   4.425   3.911   2.893
    1C        C  378   4.320   4.097   3.011
    1C        C  379   4.395   3.978   3.014
    1C        C  380   4.274   4.153   3.132
    1C        C  381   4.311   4.096   3.256
    1C        C  382   4.170   4.251   3.375
    1C        C  383   4.267   4.148   3.380
    1C        C  384   4.119   4.305   3.495
    1C        C  385   4.174   4.261   3.617
    1C        C  386   4.004   4.384   3.741
    1C        C  387   4.121   4.306   3.741
    1C        C  388   3.939   4.424   3.861
    1C        C  389   4.004   4.393   3.982
    1C        C  390   3.815   4.482   4.106
    1C        C  391   3.947   4.430   4.106
    1C        C  392   3.749   4.510   4.227
    1C        C  393   3.820   4.501   4.349
    1C        C  394   3.614   4.545   4.473
    1C        C  395   3.754   4.525   4.471
    1C        C  396   3.543   4.556   4.595
    1C        C  397   3.619   4.563   4.714
    1C        C  398   3.408   4.554   4.839
    1C        C  399   3.547   4.577   4.834
    1C        C  400   3.340   4.518   4.956
    1C        C  401   4.501   3.701   2.049
    1C        C  402   4.452   3.913   2.166
    1C        C  403   4.487   3.776   2.166
    1C        C  404   4.412   3.977   2.285
    1C        C  405   4.436   3.908   2.406
    1C        C  406   4.326   4.096   2.524
    1C        C  407   4.403   3.977   2.525
    1C        C  408   4.281   4.152   2.645
    1C        C  409   4.315   4.090   2.767
    1C        C  410   4.176   4.252   2.886
    1C        C  411   4.271   4.148   2.888
    1C        C  412   4.122   4.299   3.008
    1C        C  413   4.171   4.250   3.131
    1C        C  414   3.999   4.376   3.250
    1C        C  415   4.117   4.297   3.252
    1C        C  416   3.941   4.414   3.373
    1C        C  417   4.002   4.385   3.497
    1C        C  418   3.814   4.479   3.617
    1C        C  419   3.943   4.422   3.620
    1C        C  420   3.745   4.499   3.738
    1C        C  421   3.808   4.475   3.863
    1C        C  422   3.606   4.532   3.984
    1C        C  423   3.743   4.502   3.986
    1C        C  424   3.539   4.543   4.108
    1C        C  425   3.611   4.540   4.229
    1C        C  426   3.400   4.551   4.355
    1C        C  427   3.541   4.553   4.352
    1C        C  428   3.330   4.542   4.477
    1C        C  429   3.402   4.552   4.598
    1C        C  430   3.192   4.522   4.722
    1C        C  431   3.331   4.551   4.720
    1C        C  432   3.124   4.487   4.842
    1C        C  433   3.203   4.491   4.957
    1C        C  434   4.379   4.117   2.047
    1C        C  435   4.444   3.993   2.052
    1C        C  436   4.304   4.162   2.161
    1C        C  437   4.335   4.097   2.283
    1C        C  438   4.176   4.245   2.399
    1C        C  439   4.281   4.151   2.402
    1C        C  440   4.122   4.292   2.521
    1C        C  441   4.178   4.250   2.643
    1C        C  442   4.003   4.372   2.763
    1C        C  443   4.121   4.295   2.764
    1C        C  444   3.938   4.405   2.884
    1C        C  445   4.000   4.371   3.007
    1C        C  446   3.809   4.468   3.127
    1C        C  447   3.938   4.411   3.128
    1C        C  448   3.744   4.492   3.251
    1C        C  449   3.811   4.470   3.373
    1C        C  450   3.606   4.525   3.495
    1C        C  451   3.745   4.497   3.495
    1C        C  452   3.538   4.541   3.617
    1C        C  453   3.608   4.535   3.740
    1C        C  454   3.396   4.548   3.865
    1C        C  455   3.537   4.544   3.861
    1C        C  456   3.328   4.543   3.989
    1C        C  457   3.398   4.551   4.111
    1C        C  458   3.192   4.502   4.236
    1C        C  459   3.330   4.536   4.234
    1C        C  460   3.124   4.486   4.358
    1C        C  461   3.193   4.507   4.480
    1C        C  462   2.995   4.433   4.602
    1C        C  463   3.123   4.494   4.602
    1C        C  464   2.931   4.397   4.722
    1C        C  465   2.990   4.437   4.845
    1C        C  466   2.798   4.333   4.957
    1C        C  467   2.901   4.428   4.957
    1C        C  468   4.126   4.292   2.042
    1C        C  469   4.188   4.245   2.159
    1C        C  470   4.007   4.373   2.276
    1C        C  471   4.122   4.290   2.277
    1C        C  472   3.940   4.404   2.397
    1C        C  473   4.003   4.369   2.519
    1C        C  474   3.810   4.460   2.641
    1C        C  475   3.940   4.403   2.640
    1C        C  476   3.744   4.487   2.762
    1C        C  477   3.810   4.465   2.885
    1C        C  478   3.603   4.521   3.006
    1C        C  479   3.742   4.493   3.006
    1C        C  480   3.535   4.529   3.129
    1C        C  481   3.605   4.518   3.251
    1C        C  482   3.393   4.528   3.376
    1C        C  483   3.534   4.528   3.373
    1C        C  484   3.325   4.531   3.499
    1C        C  485   3.397   4.545   3.620
    1C        C  486   3.190   4.500   3.744
    1C        C  487   3.325   4.540   3.742
    1C        C  488   3.126   4.476   3.868
    1C        C  489   3.192   4.503   3.989
    1C        C  490   3.000   4.418   4.111
    1C        C  491   3.127   4.479   4.112
    1C        C  492   2.939   4.383   4.233
    1C        C  493   2.997   4.425   4.355
    1C        C  494   2.834   4.297   4.481
    1C        C  495   2.938   4.392   4.479
    1C        C  496   2.779   4.249   4.602
    1C        C  497   2.818   4.310   4.723
    1C        C  498   2.662   4.162   4.842
    1C        C  499   2.749   4.273   4.840
    1C        C  500   2.593   4.117   4.955
    1C        C  501   4.001   4.354   2.038
    1C        C  502   3.813   4.463   2.154
    1C        C  503   3.941   4.403   2.155
    1C        C  504   3.740   4.474   2.275
    1C        C  505   3.805   4.446   2.397
    1C        C  506   3.603   4.509   2.522
    1C        C  507   3.740   4.474   2.519
    1C        C  508   3.531   4.516   2.643
    1C        C  509   3.605   4.514   2.764
    1C        C  510   3.391   4.527   2.886
    1C        C  511   3.532   4.527   2.884
    1C        C  512   3.319   4.526   3.007
    1C        C  513   3.393   4.532   3.127
    1C        C  514   3.189   4.490   3.254
    1C        C  515   3.327   4.522   3.251
    1C        C  516   3.123   4.471   3.378
    1C        C  517   3.187   4.500   3.500
    1C        C  518   2.995   4.413   3.624
    1C        C  519   3.122   4.473   3.623
    1C        C  520   2.939   4.371   3.747
    1C        C  521   3.002   4.407   3.869
    1C        C  522   2.835   4.279   3.994
    1C        C  523   2.938   4.376   3.991
    1C        C  524   2.791   4.228   4.118
    1C        C  525   2.838   4.284   4.238
    1C        C  526   2.696   4.130   4.364
    1C        C  527   2.785   4.240   4.361
    1C        C  528   2.655   4.073   4.486
    1C        C  529   2.689   4.140   4.606
    1C        C  530   2.582   3.955   4.730
    1C        C  531   2.643   4.083   4.726
    1C        C  532   2.541   3.896   4.853
    1C        C  533   2.528   3.993   4.958
    1C        C  534   3.613   4.548   2.036
    1C        C  535   3.749   4.514   2.041
    1C        C  536   3.535   4.532   2.155
    1C        C  537   3.602   4.507   2.278
    1C        C  538   3.390   4.516   2.397
    1C        C  539   3.532   4.513   2.400
    1C        C  540   3.318   4.514   2.518
    1C        C  541   3.390   4.517   2.640
    1C        C  542   3.184   4.479   2.766
    1C        C  543   3.322   4.512   2.763
    1C        C  544   3.119   4.456   2.889
    1C        C  545   3.183   4.486   3.011
    1C        C  546   2.992   4.401   3.134
    1C        C  547   3.119   4.465   3.135
    1C        C  548   2.936   4.366   3.259
    1C        C  549   2.998   4.404   3.380
    1C        C  550   2.831   4.275   3.504
    1C        C  551   2.938   4.367   3.503
    1C        C  552   2.780   4.228   3.628
    1C        C  553   2.831   4.280   3.749
    1C        C  554   2.702   4.114   3.875
    1C        C  555   2.786   4.228   3.872
    1C        C  556   2.665   4.055   3.997
    1C        C  557   2.703   4.117   4.118
    1C        C  558   2.598   3.940   4.245
    1C        C  559   2.664   4.064   4.243
    1C        C  560   2.564   3.878   4.368
    1C        C  561   2.590   3.947   4.488
    1C        C  562   2.530   3.745   4.615
    1C        C  563   2.565   3.882   4.611
    1C        C  564   2.514   3.678   4.738
    1C        C  565   2.520   3.755   4.858
    1C        C  566   2.522   3.540   4.977
    1C        C  567   2.518   3.679   4.976
    1C        C  568   3.324   4.471   2.041
    1C        C  569   3.395   4.509   2.155
    1C        C  570   3.181   4.467   2.279
    1C        C  571   3.320   4.500   2.276
    1C        C  572   3.114   4.448   2.402
    1C        C  573   3.184   4.469   2.523
    1C        C  574   2.985   4.401   2.646
    1C        C  575   3.114   4.459   2.645
    1C        C  576   2.927   4.360   2.768
    1C        C  577   2.992   4.393   2.889
    1C        C  578   2.826   4.268   3.015
    1C        C  579   2.933   4.360   3.013
    1C        C  580   2.785   4.213   3.139
    1C        C  581   2.834   4.269   3.259
    1C        C  582   2.696   4.111   3.385
    1C        C  583   2.783   4.223   3.382
    1C        C  584   2.657   4.054   3.508
    1C        C  585   2.695   4.115   3.630
    1C        C  586   2.598   3.929   3.756
    1C        C  587   2.660   4.056   3.753
    1C        C  588   2.570   3.865   3.879
    1C        C  589   2.596   3.932   4.001
    1C        C  590   2.539   3.731   4.126
    1C        C  591   2.573   3.869   4.125
    1C        C  592   2.527   3.668   4.252
    1C        C  593   2.536   3.740   4.373
    1C        C  594   2.509   3.530   4.498
    1C        C  595   2.520   3.671   4.495
    1C        C  596   2.511   3.458   4.620
    1C        C  597   2.512   3.536   4.738
    1C        C  598   2.526   3.323   4.860
    1C        C  599   2.518   3.464   4.859
    1C        C  600   2.533   3.243   4.975
    1C        C  601   3.192   4.432   2.044
    1C        C  602   2.979   4.387   2.159
    1C        C  603   3.112   4.440   2.158
    1C        C  604   2.918   4.361   2.284
    1C        C  605   2.981   4.400   2.404
    1C        C  606   2.816   4.268   2.527
    1C        C  607   2.921   4.362   2.526
    1C        C  608   2.764   4.220   2.649
    1C        C  609   2.817   4.271   2.769
    1C        C  610   2.689   4.106   2.895
    1C        C  611   2.775   4.218   2.893
    1C        C  612   2.650   4.050   3.019
    1C        C  613   2.692   4.107   3.141
    1C        C  614   2.588   3.925   3.268
    1C        C  615   2.654   4.050   3.265
    1C        C  616   2.562   3.861   3.391
    1C        C  617   2.593   3.929   3.512
    1C        C  618   2.519   3.731   3.634
    1C        C  619   2.565   3.865   3.635
    1C        C  620   2.510   3.664   3.758
    1C        C  621   2.527   3.731   3.881
    1C        C  622   2.508   3.522   4.007
    1C        C  623   2.514   3.663   4.004
    1C        C  624   2.511   3.455   4.132
    1C        C  625   2.511   3.528   4.253
    1C        C  626   2.535   3.319   4.380
    1C        C  627   2.513   3.459   4.376
    1C        C  628   2.549   3.247   4.500
    1C        C  629   2.525   3.318   4.620
    1C        C  630   2.586   3.112   4.745
    1C        C  631   2.544   3.248   4.742
    1C        C  632   2.612   3.044   4.867
    1C        C  633   2.561   3.106   4.985
    1C        C  634   2.781   4.302   2.052
    1C        C  635   2.892   4.386   2.045
    1C        C  636   2.747   4.227   2.165
    1C        C  637   2.808   4.270   2.285
    1C        C  638   2.678   4.103   2.411
    1C        C  639   2.759   4.219   2.407
    1C        C  640   2.635   4.048   2.534
    1C        C  641   2.672   4.113   2.654
    1C        C  642   2.581   3.920   2.778
    1C        C  643   2.642   4.048   2.775
    1C        C  644   2.558   3.856   2.901
    1C        C  645   2.585   3.924   3.022
    1C        C  646   2.523   3.724   3.147
    1C        C  647   2.561   3.860   3.146
    1C        C  648   2.510   3.654   3.269
    1C        C  649   2.527   3.724   3.391
    1C        C  650   2.508   3.515   3.516
    1C        C  651   2.513   3.657   3.514
    1C        C  652   2.508   3.449   3.641
    1C        C  653   2.505   3.523   3.762
    1C        C  654   2.526   3.313   3.887
    1C        C  655   2.506   3.453   3.884
    1C        C  656   2.548   3.247   4.010
    1C        C  657   2.531   3.315   4.133
    1C        C  658   2.605   3.121   4.256
    1C        C  659   2.549   3.250   4.257
    1C        C  660   2.636   3.056   4.378
    1C        C  661   2.600   3.116   4.501
    1C        C  662   2.707   2.936   4.621
    1C        C  663   2.625   3.051   4.624
    1C        C  664   2.753   2.880   4.742
    1C        C  665   2.697   2.929   4.864
    1C        C  666   2.738   2.864   4.981
    1C        C  667   2.676   4.021   2.053
    1C        C  668   2.678   4.103   2.166
    1C        C  669   2.585   3.913   2.291
    1C        C  670   2.642   4.043   2.289
    1C        C  671   2.554   3.849   2.413
    1C        C  672   2.572   3.922   2.533
    1C        C  673   2.512   3.720   2.659
    1C        C  674   2.550   3.856   2.656
    1C        C  675   2.501   3.649   2.781
    1C        C  676   2.518   3.720   2.902
    1C        C  677   2.497   3.512   3.027
    1C        C  678   2.510   3.652   3.026
    1C        C  679   2.503   3.441   3.149
    1C        C  680   2.503   3.513   3.271
    1C        C  681   2.530   3.305   3.396
    1C        C  682   2.506   3.444   3.394
    1C        C  683   2.549   3.240   3.520
    1C        C  684   2.532   3.310   3.642
    1C        C  685   2.594   3.111   3.769
    1C        C  686   2.545   3.243   3.765
    1C        C  687   2.627   3.049   3.891
    1C        C  688   2.602   3.117   4.013
    1C        C  689   2.712   2.936   4.133
    1C        C  690   2.634   3.054   4.135
    1C        C  691   2.753   2.878   4.255
    1C        C  692   2.709   2.936   4.376
    1C        C  693   2.754   2.881   4.499
    1C        C  694   2.625   3.891   2.054
    1C        C  695   2.531   3.702   2.175
    1C        C  696   2.574   3.836   2.172
    1C        C  697   2.508   3.637   2.298
    1C        C  698   2.519   3.712   2.417
    1C        C  699   2.484   3.505   2.543
    1C        C  700   2.500   3.645   2.540
    1C        C  701   2.493   3.433   2.664
    1C        C  702   2.490   3.509   2.784
    1C        C  703   2.519   3.299   2.909
    1C        C  704   2.497   3.438   2.906
    1C        C  705   2.539   3.228   3.030
    1C        C  706   2.528   3.302   3.150
    1C        C  707   2.593   3.102   3.275
    1C        C  708   2.544   3.235   3.274
    1C        C  709   2.628   3.043   3.399
    1C        C  710   2.603   3.109   3.521
    1C        C  711   2.710   2.934   3.647
    1C        C  712   2.630   3.050   3.646
    1C        C  713   2.754   2.878   3.769
    1C        C  714   2.712   2.936   3.891
    1C        C  715   2.756   2.878   4.012
    1C        C  716   2.448   3.501   2.062
    1C        C  717   2.485   3.636   2.060
    1C        C  718   2.462   3.422   2.181
    1C        C  719   2.482   3.498   2.299
    1C        C  720   2.509   3.291   2.422
    1C        C  721   2.481   3.430   2.423
    1C        C  722   2.531   3.224   2.545
    1C        C  723   2.514   3.293   2.667
    1C        C  724   2.584   3.093   2.788
    1C        C  725   2.530   3.224   2.789
    1C        C  726   2.610   3.027   2.910
    1C        C  727   2.579   3.093   3.032
    1C        C  728   2.701   2.919   3.155
    1C        C  729   2.622   3.036   3.154
    1C        C  730   2.750   2.872   3.279
    1C        C  731   2.713   2.930   3.402
    1C        C  732   2.756   2.877   3.526
    1C        C  733   2.482   3.195   2.072
    1C        C  734   2.487   3.281   2.182
    1C        C  735   2.573   3.084   2.304
    1C        C  736   2.518   3.215   2.304
    1C        C  737   2.617   3.025   2.425
    1C        C  738   2.587   3.095   2.544
    1C        C  739   2.700   2.916   2.668
    1C        C  740   2.621   3.033   2.666
    1C        C  741   2.743   2.859   2.790
    1C        C  742   2.694   2.914   2.910
    1C        C  743   2.745   2.863   3.032
    1C        C  744   2.542   3.069   2.073
    1C        C  745   2.689   2.901   2.184
    1C        C  746   2.605   3.014   2.186
    1C        C  747   2.731   2.842   2.305
    1C        C  748   2.691   2.905   2.425
    1C        C  749   2.736   2.851   2.548
    1C        C  750   2.736   2.842   2.066
    1C        C  751   3.646   2.295   1.996
    1C        O  752   3.665   2.188   2.061
    1C        O  753   3.660   2.284   1.857
    1C        C  754   4.629   3.052   1.983
    1C        O  755   4.634   3.055   1.857
    1C        O  756   4.763   3.052   2.022
    1C        C  757   4.433   4.205   1.940
    1C        O  758   4.539   4.272   1.948
    1C        O  759   4.370   4.181   1.817
    1C        C  760   3.579   4.631   1.919
    1C        O  761   3.572   4.756   1.936
    1C        O  762   3.557   4.590   1.787
    1C        C  763   2.883   4.499   1.949
    1C        O  764   2.941   4.488   1.838
    1C        O  765   2.824   4.622   1.981
    1C        C  766   2.356   3.464   1.951
    1C        O  767   2.398   3.453   1.833
    1C        O  768   2.217   3.463   1.968
    1C        C  769   4.693   3.593   5.054
    1C        O  770   4.671   3.601   5.178
    1C        O  771   4.820   3.638   5.016
    1C        C  772   4.267   4.464   5.033
    1C        O  773   4.259   4.462   5.159
    1C        O  774   4.376   4.539   4.988
    1C        C  775   4.146   2.509   5.060
    1C        O  776   4.227   2.422   5.020
    1C        O  777   4.154   2.539   5.197
    1C        C  778   2.874   4.536   5.055
    1C        O  779   2.854   4.656   5.022
    1C        O  780   2.935   4.529   5.181
    1C        C  781   2.468   3.038   5.078
    1C        O  782   2.363   2.974   5.047
    1C        O  783   2.504   3.029   5.211
    1C        C  784   2.422   3.985   5.061
    1C        O  785   2.299   4.010   5.050
    1C        O  786   2.465   4.007   5.193
    1C        C  787   2.954   2.421   1.992
    1C        O  788   2.929   2.444   1.871
    1C        O  789   2.904   2.295   2.026
    1C        C  790   3.173   2.372   5.065
    1C        O  791   3.244   2.269   5.046
    1C        O  792   3.181   2.403   5.201
    1C        H  793   4.258   3.028   5.051
    1C        H  794   4.204   2.793   5.075
    1C        H  795   4.533   3.133   5.038
    1C        H  796   4.561   3.362   5.059
    1C        H  797   4.536   3.803   5.053
    1C        H  798   4.458   4.006   5.044
    1C        H  799   4.253   4.137   5.038
    1C        H  800   4.028   4.540   5.027
    1C        H  801   3.816   4.608   5.035
    1C        H  802   3.591   4.640   5.031
    1C        H  803   3.382   4.535   5.053
    1C        H  804   3.163   4.442   5.044
    1C        H  805   3.890   2.471   5.059
    1C        H  806   3.679   2.464   5.075
    1C        H  807   2.982   2.526   5.044
    1C        H  808   3.440   2.517   5.067
    1C        H  809   2.846   2.714   5.071
    1C        H  810   2.694   2.888   5.076
    1C        H  811   2.580   3.292   5.057
    1C        H  812   2.522   3.489   5.071
    1C        H  813   2.483   3.730   5.064
    1C        H  814   2.576   4.182   5.039
    1C        H  815   2.795   4.268   5.041
    1C        H  816   2.740   2.901   1.977
    1C        H  817   2.819   2.669   1.981
    1C        H  818   3.210   2.456   1.980
    1C        H  819   3.428   2.460   1.980
    1C        H  820   3.841   2.521   1.969
    1C        H  821   4.050   2.634   1.965
    1C        H  822   4.239   2.723   1.969
    1C        H  823   4.420   2.877   1.974
    1C        H  824   4.599   3.308   1.976
    1C        H  825   4.466   3.519   1.962
    1C        H  826   4.536   3.752   1.961
    1C        H  827   3.810   4.564   1.968
    1C        H  828   3.945   4.336   1.949
    1C        H  829   4.168   4.264   1.948
    1C        H  830   4.538   3.996   2.002
    1C        H  831   2.650   3.834   1.967
    1C        H  832   2.757   4.033   1.984
    1C        H  833   2.692   4.342   2.007
    1C        H  834   3.379   4.443   1.953
    1C        H  835   3.166   4.352   1.978
    1C        H  836   2.500   2.999   2.004
    1C        H  837   2.437   3.234   1.983
    1C        H  838   2.451   3.698   1.980
    2V3OU   H29  839   2.810   3.552   2.474
    2V3OU   C27  840   2.789   3.500   2.572
    2V3OU   H27  841   2.736   3.568   2.644
    2V3OU   H28  842   2.734   3.407   2.547
    2V3OU   O11  843   2.914   3.467   2.632
    2V3OU   C15  844   2.922   3.399   2.752
    2V3OU   C13  845   3.050   3.373   2.804
    2V3OU   C14  846   3.077   3.271   2.897
    2V3OU   C16  847   2.978   3.186   2.944
    2V3OU    H6  848   2.993   3.093   3.001
    2V3OU   C12  849   3.213   3.231   2.939
    2V3OU    O2  850   3.234   3.117   2.984
    2V3OU   C10  851   3.327   3.310   2.890
    2V3OU    C8  852   3.457   3.272   2.923
    2V3OU   O10  853   3.485   3.159   2.993
    2V3OU   H26  854   3.399   3.114   3.001
    2V3OU    C6  855   3.564   3.353   2.876
    2V3OU    C5  856   3.537   3.467   2.801
    2V3OU    C4  857   3.701   3.294   2.884
    2V3OU    H4  858   3.718   3.232   2.977
    2V3OU    H5  859   3.704   3.218   2.800
    2V3OU    C2  860   3.815   3.395   2.868
    2V3OU    O6  861   3.811   3.476   2.986
    2V3OU   H21  862   3.757   3.552   2.962
    2V3OU    C3  863   3.778   3.489   2.753
    2V3OU    H2  864   3.856   3.569   2.745
    2V3OU    H3  865   3.777   3.434   2.656
    2V3OU   C25  866   3.953   3.329   2.863
    2V3OU    O7  867   4.003   3.293   2.756
    2V3OU   C26  868   4.030   3.288   2.988
    2V3OU   H22  869   4.072   3.381   3.035
    2V3OU   H23  870   4.116   3.223   2.958
    2V3OU    O8  871   3.960   3.209   3.081
    2V3OU   H24  872   3.922   3.262   3.152
    2V3OU    C1  873   3.649   3.565   2.777
    2V3OU    H1  874   3.624   3.620   2.682
    2V3OU    O3  875   3.653   3.652   2.891
    2V3OU   C19  876   3.618   3.790   2.886
    2V3OU    H9  877   3.522   3.801   2.827
    2V3OU    O4  878   3.712   3.846   2.798
    2V3OU   C20  879   3.843   3.868   2.852
    2V3OU   H10  880   3.890   3.765   2.862
    2V3OU   C24  881   3.610   3.851   3.026
    2V3OU   H16  882   3.546   3.788   3.093
    2V3OU   H17  883   3.562   3.951   3.015
    2V3OU   C23  884   3.752   3.872   3.079
    2V3OU   H15  885   3.797   3.768   3.093
    2V3OU    N1  886   3.740   3.948   3.202
    2V3OU   H19  887   3.807   3.919   3.270
    2V3OU   H20  888   3.645   3.925   3.222
    2V3OU   C21  889   3.851   3.946   2.983
    2V3OU   H11  890   3.954   3.927   3.027
    2V3OU    O5  891   3.828   4.086   2.985
    2V3OU   H18  892   3.779   4.095   3.068
    2V3OU   C22  893   3.913   3.943   2.741
    2V3OU   H12  894   3.863   4.041   2.720
    2V3OU   H13  895   3.906   3.883   2.647
    2V3OU   H14  896   4.021   3.958   2.766
    2V3OU   C11  897   3.159   3.471   2.793
    2V3OU    O1  898   3.136   3.591   2.765
    2V3OU    C9  899   3.299   3.427   2.815
    2V3OU    C7  900   3.403   3.506   2.769
    2V3OU    O9  901   3.387   3.621   2.695
    2V3OU   H25  902   3.290   3.621   2.688
    2V3OU   C17  903   2.825   3.313   2.806
    2V3OU    H7  904   2.725   3.352   2.786
    2V3OU   C18  905   2.850   3.210   2.897
    2V3OU    H8  906   2.777   3.168   2.968
    3SOL     OW  907   2.509   5.395   0.130
    3SOL    HW1  908   2.537   5.449   0.210
    3SOL    HW2  909   2.454   5.451   0.069
    4SOL     OW  910   6.497   6.888   2.203
    4SOL    HW1  911   6.470   6.810   2.259
    4SOL    HW2  912   6.439   6.892   2.121
    5SOL     OW  913   4.304   2.043   2.671
    5SOL    HW1  914   4.377   1.999   2.723
    5SOL    HW2  915   4.309   2.015   2.575
    6SOL     OW  916   4.093   1.005   2.137
    6SOL    HW1  917   4.095   1.080   2.071
    6SOL    HW2  918   4.122   0.921   2.091
    7SOL     OW  919   0.159   3.510   2.720
    7SOL    HW1  920   0.082   3.456   2.686
    7SOL    HW2  921   0.125   3.597   2.757
    8SOL     OW  922   3.324   0.803   0.084
    8SOL    HW1  923   3.233   0.763   0.071
    8SOL    HW2  924   3.393   0.739   0.051
    9SOL     OW  925   4.913   0.942   6.100
    9SOL    HW1  926   4.902   1.016   6.034
    9SOL    HW2  927   4.980   0.877   6.065
   10SOL     OW  928   1.690   4.887   5.810
   10SOL    HW1  929   1.597   4.911   5.784
   10SOL    HW2  930   1.723   4.813   5.752
   11SOL     OW  931   2.667   0.499   5.893
   11SOL    HW1  932   2.715   0.418   5.927
   11SOL    HW2  933   2.734   0.568   5.865
   12SOL     OW  934   3.793   5.553   3.597
   12SOL    HW1  935   3.823   5.467   3.556
   12SOL    HW2  936   3.835   5.630   3.549
   13SOL     OW  937   4.084   6.085   4.057
   13SOL    HW1  938   4.177   6.054   4.038
   13SOL    HW2  939   4.084   6.139   4.141
   14SOL     OW  940   3.694   5.671   5.765
   14SOL    HW1  941   3.712   5.645   5.670
   14SOL    HW2  942   3.643   5.757   5.767
   15SOL     OW  943   0.225   6.475   2.069
   15SOL    HW1  944   0.192   6.554   2.121
   15SOL    HW2  945   0.325   6.482   2.059
   16SOL     OW  946   5.152   2.761   6.027
   16SOL    HW1  947   5.144   2.859   6.009
   16SOL    HW2  948   5.157   2.745   6.125
   17SOL     OW  949   5.569   6.518   6.437
   17SOL    HW1  950   5.479   6.556   6.458
   17SOL    HW2  951   5.621   6.505   6.522
   18SOL     OW  952   3.179   0.863   5.373
   18SOL    HW1  953   3.084   0.851   5.343
   18SOL    HW2  954   3.204   0.790   5.436
   19SOL     OW  955   0.072   2.001   2.977
   19SOL    HW1  956   0.028   1.945   3.047
   19SOL    HW2  957   0.059   1.960   2.887
   20SOL     OW  958   5.508   1.516   3.962
   20SOL    HW1  959   5.411   1.542   3.971
   20SOL    HW2  960   5.519   1.458   3.882
   21SOL     OW  961   3.440   1.416   2.812
   21SOL    HW1  962   3.432   1.514   2.798
   21SOL    HW2  963   3.523   1.382   2.766
   22SOL     OW  964   2.122   6.647   6.734
   22SOL    HW1  965   2.138   6.582   6.808
   22SOL    HW2  966   2.073   6.727   6.770
   23SOL     OW  967   5.547   5.679   3.294
   23SOL    HW1  968   5.521   5.587   3.262
   23SOL    HW2  969   5.543   5.681   3.394
   24SOL     OW  970   4.376   0.175   3.545
   24SOL    HW1  971   4.373   0.193   3.644
   24SOL    HW2  972   4.318   0.097   3.524
   25SOL     OW  973   3.428   0.716   4.854
   25SOL    HW1  974   3.482   0.662   4.919
   25SOL    HW2  975   3.334   0.722   4.886
   26SOL     OW  976   0.087   0.673   0.526
   26SOL    HW1  977   0.006   0.703   0.577
   26SOL    HW2  978   0.158   0.645   0.590
   27SOL     OW  979   1.399   2.316   2.409
   27SOL    HW1  980   1.440   2.235   2.452
   27SOL    HW2  981   1.367   2.379   2.480
   28SOL     OW  982   3.025   1.459   6.224
   28SOL    HW1  983   3.012   1.443   6.126
   28SOL    HW2  984   2.936   1.459   6.270
   29SOL     OW  985   6.312   1.727   1.944
   29SOL    HW1  986   6.254   1.805   1.968
   29SOL    HW2  987   6.373   1.753   1.869
   30SOL     OW  988   4.429   0.852   3.792
   30SOL    HW1  989   4.347   0.904   3.813
   30SOL    HW2  990   4.508   0.894   3.838
   31SOL     OW  991   0.912   2.717   6.355
   31SOL    HW1  992   0.970   2.723   6.273
   31SOL    HW2  993   0.912   2.623   6.389
   32SOL     OW  994   0.480   1.802   2.671
   32SOL    HW1  995   0.552   1.735   2.689
   32SOL    HW2  996   0.401   1.754   2.632
   33SOL     OW  997   1.328   4.664   5.740
   33SOL    HW1  998   1.279   4.582   5.772
   33SOL    HW2  999   1.353   4.652   5.644
   34SOL     OW 1000   3.106   0.260   4.475
   34SOL    HW1 1001   3.101   0.208   4.560
   34SOL    HW2 1002   3.023   0.242   4.421
   35SOL     OW 1003   3.828   3.709   6.826
   35SOL    HW1 1004   3.922   3.721   6.793
   35SOL    HW2 1005   3.769   3.684   6.749
   36SOL     OW 1006   5.768   1.402   4.756
   36SOL    HW1 1007   5.733   1.412   4.663
   36SOL    HW2 1008   5.868   1.410   4.755
   37SOL     OW 1009   1.149   2.265   0.395
   37SOL    HW1 1010   1.167   2.310   0.308
   37SOL    HW2 1011   1.234   2.231   0.433
   38SOL     OW 1012   0.718   5.184   1.959
   38SOL    HW1 1013   0.774   5.140   2.029
   38SOL    HW2 1014   0.634   5.132   1.945
   39SOL     OW 1015   6.807   4.402   6.930
   39SOL    HW1 1016   6.750   4.467   6.880
   39SOL    HW2 1017   6.756   4.317   6.945
   40SOL     OW 1018   4.909   1.506   0.272
   40SOL    HW1 1019   4.846   1.492   0.196
   40SOL    HW2 1020   4.866   1.565   0.340
   41SOL     OW 1021   6.572   4.999   3.446
   41SOL    HW1 1022   6.574   4.904   3.416
   41SOL    HW2 1023   6.511   5.007   3.525
   42SOL     OW 1024   2.678   5.135   4.621
   42SOL    HW1 1025   2.676   5.049   4.672
   42SOL    HW2 1026   2.700   5.115   4.525
   43SOL     OW 1027   5.224   6.965   5.355
   43SOL    HW1 1028   5.271   6.928   5.275
   43SOL    HW2 1029   5.289   7.017   5.411
   44SOL     OW 1030   4.271   1.258   5.965
   44SOL    HW1 1031   4.363   1.227   5.939
   44SOL    HW2 1032   4.265   1.357   5.954
   45SOL     OW 1033   4.523   6.076   1.957
   45SOL    HW1 1034   4.600   6.067   2.020
   45SOL    HW2 1035   4.556   6.100   1.866
   46SOL     OW 1036   0.471   3.155   2.854
   46SOL    HW1 1037   0.408   3.077   2.857
   46SOL    HW2 1038   0.436   3.229   2.912
   47SOL     OW 1039   4.766   3.875   0.728
   47SOL    HW1 1040   4.760   3.886   0.827
   47SOL    HW2 1041   4.843   3.927   0.692
   48SOL     OW 1042   6.761   3.352   5.658
   48SOL    HW1 1043   6.775   3.448   5.681
   48SOL    HW2 1044   6.842   3.317   5.611
   49SOL     OW 1045   5.070   3.758   1.508
   49SOL    HW1 1046   5.127   3.683   1.542
   49SOL    HW2 1047   5.042   3.738   1.414
   50SOL     OW 1048   5.614   1.413   5.267
   50SOL    HW1 1049   5.526   1.368   5.276
   50SOL    HW2 1050   5.623   1.451   5.175
   51SOL     OW 1051   2.613   6.663   3.247
   51SOL    HW1 1052   2.603   6.579   3.300
   51SOL    HW2 1053   2.532   6.677   3.190
   52SOL     OW 1054   6.194   3.507   2.989
   52SOL    HW1 1055   6.145   3.576   3.041
   52SOL    HW2 1056   6.198   3.533   2.893
   53SOL     OW 1057   3.896   6.122   3.843
   53SOL    HW1 1058   3.951   6.095   3.922
   53SOL    HW2 1059   3.892   6.222   3.839
   54SOL     OW 1060   4.290   4.967   1.086
   54SOL    HW1 1061   4.203   5.001   1.052
   54SOL    HW2 1062   4.320   4.889   1.031
   55SOL     OW 1063   2.111   2.989   6.422
   55SOL    HW1 1064   2.205   2.970   6.393
   55SOL    HW2 1065   2.108   3.004   6.520
   56SOL     OW 1066   6.934   0.863   1.339
   56SOL    HW1 1067   6.977   0.911   1.415
   56SOL    HW2 1068   7.004   0.814   1.285
   57SOL     OW 1069   4.600   1.063   1.902
   57SOL    HW1 1070   4.554   1.043   1.816
   57SOL    HW2 1071   4.577   0.992   1.969
   58SOL     OW 1072   0.699   6.360   5.776
   58SOL    HW1 1073   0.798   6.367   5.763
   58SOL    HW2 1074   0.676   6.376   5.872
   59SOL     OW 1075   1.304   2.344   5.511
   59SOL    HW1 1076   1.239   2.284   5.557
   59SOL    HW2 1077   1.397   2.311   5.527
   60SOL     OW 1078   5.501   2.719   4.742
   60SOL    HW1 1079   5.460   2.657   4.809
   60SOL    HW2 1080   5.435   2.790   4.717
   61SOL     OW 1081   6.624   2.242   4.733
   61SOL    HW1 1082   6.694   2.216   4.666
   61SOL    HW2 1083   6.652   2.212   4.824
   62SOL     OW 1084   1.214   1.102   1.731
   62SOL    HW1 1085   1.125   1.137   1.761
   62SOL    HW2 1086   1.254   1.167   1.666
   63SOL     OW 1087   5.603   1.252   3.341
   63SOL    HW1 1088   5.508   1.223   3.355
   63SOL    HW2 1089   5.660   1.214   3.414
   64SOL     OW 1090   0.494   3.405   5.754
   64SOL    HW1 1091   0.537   3.387   5.843
   64SOL    HW2 1092   0.401   3.440   5.769
   65SOL     OW 1093   0.736   4.953   0.030
   65SOL    HW1 1094   0.706   5.046   0.047
   65SOL    HW2 1095   0.791   4.949   6.966
   66SOL     OW 1096   4.286   1.075   5.426
   66SOL    HW1 1097   4.212   1.044   5.367
   66SOL    HW2 1098   4.370   1.086   5.372
   67SOL     OW 1099   6.261   3.629   5.936
   67SOL    HW1 1100   6.197   3.585   5.998
   67SOL    HW2 1101   6.242   3.600   5.842
   68SOL     OW 1102   6.260   0.855   6.443
   68SOL    HW1 1103   6.192   0.923   6.413
   68SOL    HW2 1104   6.220   0.798   6.515
   69SOL     OW 1105   0.884   3.644   6.445
   69SOL    HW1 1106   0.912   3.730   6.403
   69SOL    HW2 1107   0.964   3.597   6.482
   70SOL     OW 1108   5.406   4.263   5.219
   70SOL    HW1 1109   5.368   4.197   5.283
   70SOL    HW2 1110   5.469   4.324   5.268
   71SOL     OW 1111   4.188   1.888   3.807
   71SOL    HW1 1112   4.138   1.818   3.858
   71SOL    HW2 1113   4.166   1.881   3.710
   72SOL     OW 1114   1.705   0.303   4.077
   72SOL    HW1 1115   1.697   0.389   4.128
   72SOL    HW2 1116   1.702   0.322   3.979
   73SOL     OW 1117   3.672   0.594   1.435
   73SOL    HW1 1118   3.723   0.508   1.423
   73SOL    HW2 1119   3.656   0.609   1.533
   74SOL     OW 1120   3.931   0.724   0.390
   74SOL    HW1 1121   4.025   0.753   0.407
   74SOL    HW2 1122   3.915   0.634   0.432
   75SOL     OW 1123   4.358   0.725   1.111
   75SOL    HW1 1124   4.444   0.712   1.159
   75SOL    HW2 1125   4.328   0.820   1.119
   76SOL     OW 1126   2.887   3.333   1.640
   76SOL    HW1 1127   2.827   3.266   1.596
   76SOL    HW2 1128   2.835   3.387   1.706
   77SOL     OW 1129   0.837   6.965   3.693
   77SOL    HW1 1130   0.896   0.024   3.710
   77SOL    HW2 1131   0.751   6.996   3.651
   78SOL     OW 1132   5.637   1.394   0.096
   78SOL    HW1 1133   5.638   1.439   0.006
   78SOL    HW2 1134   5.555   1.421   0.145
   79SOL     OW 1135   3.076   5.834   0.982
   79SOL    HW1 1136   3.071   5.764   1.052
   79SOL    HW2 1137   3.163   5.883   0.989
   80SOL     OW 1138   4.866   1.242   4.468
   80SOL    HW1 1139   4.877   1.337   4.497
   80SOL    HW2 1140   4.856   1.184   4.549
   81SOL     OW 1141   2.158   6.878   2.347
   81SOL    HW1 1142   2.076   6.826   2.370
   81SOL    HW2 1143   2.183   6.860   2.252
   82SOL     OW 1144   5.678   4.779   0.687
   82SOL    HW1 1145   5.647   4.805   0.596
   82SOL    HW2 1146   5.684   4.679   0.693
   83SOL     OW 1147   0.583   0.258   6.905
   83SOL    HW1 1148   0.538   0.192   6.964
   83SOL    HW2 1149   0.678   0.231   6.889
   84SOL     OW 1150   6.645   2.804   3.313
   84SOL    HW1 1151   6.702   2.749   3.374
   84SOL    HW2 1152   6.559   2.756   3.296
   85SOL     OW 1153   1.710   1.334   3.891
   85SOL    HW1 1154   1.711   1.434   3.890
   85SOL    HW2 1155   1.776   1.299   3.824
   86SOL     OW 1156   0.690   1.533   6.157
   86SOL    HW1 1157   0.721   1.442   6.129
   86SOL    HW2 1158   0.632   1.573   6.086
   87SOL     OW 1159   4.691   4.726   0.884
   87SOL    HW1 1160   4.638   4.735   0.968
   87SOL    HW2 1161   4.756   4.802   0.877
   88SOL     OW 1162   3.669   1.785   5.905
   88SOL    HW1 1163   3.653   1.688   5.920
   88SOL    HW2 1164   3.582   1.833   5.900
   89SOL     OW 1165   2.408   2.673   6.291
   89SOL    HW1 1166   2.494   2.722   6.304
   89SOL    HW2 1167   2.416   2.580   6.326
   90SOL     OW 1168   4.223   5.066   2.318
   90SOL    HW1 1169   4.162   4.987   2.316
   90SOL    HW2 1170   4.268   5.076   2.229
   91SOL     OW 1171   6.284   3.918   6.018
   91SOL    HW1 1172   6.253   3.835   5.972
   91SOL    HW2 1173   6.277   3.906   6.117
   92SOL     OW 1174   4.399   4.587   0.708
   92SOL    HW1 1175   4.464   4.646   0.660
   92SOL    HW2 1176   4.393   4.498   0.662
   93SOL     OW 1177   3.351   3.515   0.441
   93SOL    HW1 1178   3.433   3.494   0.388
   93SOL    HW2 1179   3.326   3.436   0.497
   94SOL     OW 1180   2.193   5.963   6.168
   94SOL    HW1 1181   2.231   5.891   6.110
   94SOL    HW2 1182   2.191   6.049   6.116
   95SOL     OW 1183   0.667   6.834   2.676
   95SOL    HW1 1184   0.750   6.808   2.627
   95SOL    HW2 1185   0.598   6.865   2.611
   96SOL     OW 1186   3.463   0.041   4.754
   96SOL    HW1 1187   3.505   0.044   4.845
   96SOL    HW2 1188   3.476   6.970   4.715
   97SOL     OW 1189   2.586   3.239   6.266
   97SOL    HW1 1190   2.502   3.263   6.315
   97SOL    HW2 1191   2.571   3.251   6.167
   98SOL     OW 1192   0.769   3.157   0.622
   98SOL    HW1 1193   0.772   3.255   0.601
   98SOL    HW2 1194   0.677   3.132   0.653
   99SOL     OW 1195   3.874   2.606   1.532
   99SOL    HW1 1196   3.821   2.640   1.455
   99SOL    HW2 1197   3.812   2.568   1.601
  100SOL     OW 1198   0.857   6.490   5.004
  100SOL    HW1 1199   0.856   6.426   4.928
  100SOL    HW2 1200   0.928   6.559   4.989
  101SOL     OW 1201   1.856   4.992   2.382
  101SOL    HW1 1202   1.894   5.039   2.303
  101SOL    HW2 1203   1.772   4.944   2.356
  102SOL     OW 1204   3.661   5.486   1.726
  102SOL    HW1 1205   3.594   5.418   1.758
  102SOL    HW2 1206   3.652   5.497   1.627
  103SOL     OW 1207   2.030   2.265   1.594
  103SOL    HW1 1208   2.019   2.202   1.671
  103SOL    HW2 1209   2.127   2.284   1.580
  104SOL     OW 1210   1.414   5.895   2.610
  104SOL    HW1 1211   1.479   5.925   2.540
  104SOL    HW2 1212   1.321   5.914   2.579
  105SOL     OW 1213   0.038   1.289   5.983
  105SOL    HW1 1214   0.047   1.229   6.063
  105SOL    HW2 1215   0.016   1.234   5.903
  106SOL     OW 1216   3.769   6.499   4.472
  106SOL    HW1 1217   3.769   6.553   4.557
  106SOL    HW2 1218   3.690   6.439   4.471
  107SOL     OW 1219   1.132   1.206   0.923
  107SOL    HW1 1220   1.103   1.124   0.872
  107SOL    HW2 1221   1.187   1.178   1.002
  108SOL     OW 1222   3.012   6.593   5.784
  108SOL    HW1 1223   3.102   6.636   5.793
  108SOL    HW2 1224   3.024   6.494   5.770
  109SOL     OW 1225   1.050   0.918   2.452
  109SOL    HW1 1226   1.133   0.865   2.435
  109SOL    HW2 1227   1.074   1.004   2.497
  110SOL     OW 1228   3.112   5.639   4.172
  110SOL    HW1 1229   3.040   5.643   4.241
  110SOL    HW2 1230   3.176   5.566   4.196
  111SOL     OW 1231   1.595   1.367   4.179
  111SOL    HW1 1232   1.569   1.309   4.255
  111SOL    HW2 1233   1.669   1.323   4.127
  112SOL     OW 1234   3.260   5.894   6.459
  112SOL    HW1 1235   3.328   5.826   6.487
  112SOL    HW2 1236   3.293   5.985   6.482
  113SOL     OW 1237   0.897   5.146   2.419
  113SOL    HW1 1238   0.840   5.225   2.442
  113SOL    HW2 1239   0.857   5.063   2.457
  114SOL     OW 1240   1.273   6.835   2.379
  114SOL    HW1 1241   1.361   6.853   2.337
  114SOL    HW2 1242   1.267   6.884   2.466
  115SOL     OW 1243   5.030   1.287   3.098
  115SOL    HW1 1244   5.040   1.206   3.039
  115SOL    HW2 1245   5.021   1.257   3.193
  116SOL     OW 1246   6.224   5.834   1.796
  116SOL    HW1 1247   6.201   5.758   1.858
  116SOL    HW2 1248   6.205   5.921   1.842
  117SOL     OW 1249   1.416   1.841   0.955
  117SOL    HW1 1250   1.508   1.874   0.933
  117SOL    HW2 1251   1.349   1.910   0.929
  118SOL     OW 1252   1.750   0.719   2.593
  118SOL    HW1 1253   1.847   0.744   2.594
  118SOL    HW2 1254   1.716   0.723   2.499
  119SOL     OW 1255   0.698   0.629   6.889
  119SOL    HW1 1256   0.657   0.671   6.970
  119SOL    HW2 1257   0.649   0.546   6.865
  120SOL     OW 1258   5.758   0.278   6.423
  120SOL    HW1 1259   5.674   0.307   6.468
  120SOL    HW2 1260   5.753   0.180   6.403
  121SOL     OW 1261   1.863   3.105   6.422
  121SOL    HW1 1262   1.956   3.069   6.426
  121SOL    HW2 1263   1.844   3.137   6.329
  122SOL     OW 1264   1.521   3.568   6.804
  122SOL    HW1 1265   1.592   3.591   6.737
  122SOL    HW2 1266   1.431   3.587   6.766
  123SOL     OW 1267   0.722   1.154   2.715
  123SOL    HW1 1268   0.705   1.073   2.659
  123SOL    HW2 1269   0.663   1.229   2.684
  124SOL     OW 1270   3.482   2.614   0.780
  124SOL    HW1 1271   3.571   2.659   0.778
  124SOL    HW2 1272   3.467   2.567   0.693
  125SOL     OW 1273   3.515   1.911   0.448
  125SOL    HW1 1274   3.549   1.820   0.426
  125SOL    HW2 1275   3.481   1.955   0.365
  126SOL     OW 1276   2.123   4.186   0.903
  126SOL    HW1 1277   2.156   4.138   0.821
  126SOL    HW2 1278   2.057   4.129   0.950
  127SOL     OW 1279   0.823   4.580   6.879
  127SOL    HW1 1280   0.794   4.499   6.931
  127SOL    HW2 1281   0.742   4.633   6.854
  128SOL     OW 1282   5.019   2.209   1.402
  128SOL    HW1 1283   4.920   2.195   1.399
  128SOL    HW2 1284   5.058   2.196   1.310
  129SOL     OW 1285   3.079   3.577   6.548
  129SOL    HW1 1286   3.019   3.651   6.517
  129SOL    HW2 1287   3.173   3.596   6.518
  130SOL     OW 1288   1.359   1.881   4.122
  130SOL    HW1 1289   1.393   1.963   4.077
  130SOL    HW2 1290   1.368   1.891   4.221
  131SOL     OW 1291   4.885   0.051   3.328
  131SOL    HW1 1292   4.984   0.061   3.336
  131SOL    HW2 1293   4.856   0.073   3.235
  132SOL     OW 1294   3.049   3.123   1.878
  132SOL    HW1 1295   3.038   3.088   1.785
  132SOL    HW2 1296   3.077   3.049   1.939
  133SOL     OW 1297   5.402   1.083   4.470
  133SOL    HW1 1298   5.496   1.053   4.452
  133SOL    HW2 1299   5.361   1.119   4.387
  134SOL     OW 1300   6.870   1.053   2.378
  134SOL    HW1 1301   6.807   1.010   2.314
  134SOL    HW2 1302   6.846   1.150   2.387
  135SOL     OW 1303   5.483   4.030   3.879
  135SOL    HW1 1304   5.466   3.952   3.819
  135SOL    HW2 1305   5.511   3.997   3.969
  136SOL     OW 1306   2.159   5.323   5.121
  136SOL    HW1 1307   2.136   5.355   5.029
  136SOL    HW2 1308   2.157   5.400   5.185
  137SOL     OW 1309   5.393   1.406   2.878
  137SOL    HW1 1310   5.472   1.347   2.862
  137SOL    HW2 1311   5.360   1.393   2.972
  138SOL     OW 1312   1.066   3.962   2.681
  138SOL    HW1 1313   1.121   3.949   2.764
  138SOL    HW2 1314   1.118   4.014   2.614
  139SOL     OW 1315   1.423   0.181   5.390
  139SOL    HW1 1316   1.493   0.149   5.325
  139SOL    HW2 1317   1.413   0.280   5.382
  140SOL     OW 1318   1.229   6.660   3.980
  140SOL    HW1 1319   1.139   6.652   3.938
  140SOL    HW2 1320   1.221   6.644   4.078
  141SOL     OW 1321   6.999   2.708   5.047
  141SOL    HW1 1322   6.964   2.752   4.965
  141SOL    HW2 1323   0.002   2.777   5.116
  142SOL     OW 1324   1.159   4.342   1.353
  142SOL    HW1 1325   1.160   4.440   1.374
  142SOL    HW2 1326   1.251   4.305   1.364
  143SOL     OW 1327   5.649   3.923   0.574
  143SOL    HW1 1328   5.572   3.976   0.610
  143SOL    HW2 1329   5.660   3.942   0.477
  144SOL     OW 1330   1.014   4.694   5.726
  144SOL    HW1 1331   1.076   4.616   5.718
  144SOL    HW2 1332   1.028   4.738   5.814
  145SOL     OW 1333   0.855   5.246   1.134
  145SOL    HW1 1334   0.794   5.189   1.079
  145SOL    HW2 1335   0.893   5.319   1.077
  146SOL     OW 1336   4.684   0.875   6.232
  146SOL    HW1 1337   4.762   0.928   6.198
  146SOL    HW2 1338   4.633   0.837   6.155
  147SOL     OW 1339   5.170   2.781   6.318
  147SOL    HW1 1340   5.149   2.878   6.328
  147SOL    HW2 1341   5.096   2.727   6.358
  148SOL     OW 1342   0.061   5.375   0.974
  148SOL    HW1 1343   0.056   5.461   0.922
  148SOL    HW2 1344   0.019   5.302   0.921
  149SOL     OW 1345   3.922   2.139   3.917
  149SOL    HW1 1346   3.831   2.153   3.878
  149SOL    HW2 1347   3.991   2.154   3.847
  150SOL     OW 1348   5.789   0.156   0.735
  150SOL    HW1 1349   5.727   0.086   0.700
  150SOL    HW2 1350   5.817   0.132   0.828
  151SOL     OW 1351   3.506   1.537   1.347
  151SOL    HW1 1352   3.540   1.472   1.415
  151SOL    HW2 1353   3.407   1.525   1.336
  152SOL     OW 1354   0.070   0.827   1.594
  152SOL    HW1 1355   0.082   0.730   1.615
  152SOL    HW2 1356   7.002   0.858   1.630
  153SOL     OW 1357   3.301   0.594   3.458
  153SOL    HW1 1358   3.318   0.692   3.464
  153SOL    HW2 1359   3.295   0.568   3.362
  154SOL     OW 1360   0.540   3.074   1.489
  154SOL    HW1 1361   0.571   3.118   1.404
  154SOL    HW2 1362   0.600   3.103   1.564
  155SOL     OW 1363   0.649   1.561   4.940
  155SOL    HW1 1364   0.553   1.586   4.923
  155SOL    HW2 1365   0.708   1.635   4.906
  156SOL     OW 1366   0.077   0.744   1.156
  156SOL    HW1 1367   0.123   0.656   1.156
  156SOL    HW2 1368   0.143   0.817   1.176
  157SOL     OW 1369   5.319   2.772   1.196
  157SOL    HW1 1370   5.357   2.793   1.286
  157SOL    HW2 1371   5.242   2.834   1.177
  158SOL     OW 1372   1.794   3.566   2.014
  158SOL    HW1 1373   1.743   3.588   1.931
  158SOL    HW2 1374   1.742   3.500   2.068
  159SOL     OW 1375   4.744   4.559   2.467
  159SOL    HW1 1376   4.655   4.524   2.437
  159SOL    HW2 1377   4.817   4.514   2.415
  160SOL     OW 1378   5.516   6.157   0.578
  160SOL    HW1 1379   5.417   6.149   0.568
  160SOL    HW2 1380   5.552   6.222   0.511
  161SOL     OW 1381   1.710   6.434   3.265
  161SOL    HW1 1382   1.664   6.502   3.208
  161SOL    HW2 1383   1.662   6.346   3.257
  162SOL     OW 1384   3.618   6.447   0.265
  162SOL    HW1 1385   3.699   6.440   0.323
  162SOL    HW2 1386   3.646   6.467   0.171
  163SOL     OW 1387   6.347   5.394   1.698
  163SOL    HW1 1388   6.265   5.337   1.703
  163SOL    HW2 1389   6.378   5.399   1.603
  164SOL     OW 1390   0.456   4.656   2.033
  164SOL    HW1 1391   0.471   4.580   2.096
  164SOL    HW2 1392   0.466   4.742   2.082
  165SOL     OW 1393   4.774   3.615   1.077
  165SOL    HW1 1394   4.725   3.635   0.992
  165SOL    HW2 1395   4.763   3.518   1.100
  166SOL     OW 1396   1.500   3.685   2.115
  166SOL    HW1 1397   1.469   3.714   2.205
  166SOL    HW2 1398   1.577   3.742   2.086
  167SOL     OW 1399   4.604   3.694   6.778
  167SOL    HW1 1400   4.697   3.676   6.810
  167SOL    HW2 1401   4.608   3.735   6.687
  168SOL     OW 1402   3.296   2.823   0.715
  168SOL    HW1 1403   3.218   2.832   0.777
  168SOL    HW2 1404   3.376   2.791   0.766
  169SOL     OW 1405   5.552   1.839   1.883
  169SOL    HW1 1406   5.594   1.886   1.960
  169SOL    HW2 1407   5.616   1.773   1.845
  170SOL     OW 1408   0.275   6.831   2.695
  170SOL    HW1 1409   0.233   6.767   2.760
  170SOL    HW2 1410   0.343   6.886   2.743
  171SOL     OW 1411   2.157   4.282   6.642
  171SOL    HW1 1412   2.195   4.192   6.623
  171SOL    HW2 1413   2.209   4.352   6.595
  172SOL     OW 1414   6.528   1.139   2.916
  172SOL    HW1 1415   6.618   1.121   2.877
  172SOL    HW2 1416   6.494   1.057   2.962
  173SOL     OW 1417   6.558   1.144   4.268
  173SOL    HW1 1418   6.534   1.192   4.184
  173SOL    HW2 1419   6.648   1.173   4.299
  174SOL     OW 1420   3.987   5.533   3.899
  174SOL    HW1 1421   4.015   5.465   3.831
  174SOL    HW2 1422   3.889   5.523   3.917
  175SOL     OW 1423   3.058   0.008   1.817
  175SOL    HW1 1424   2.969   0.041   1.786
  175SOL    HW2 1425   3.130   0.066   1.779
  176SOL     OW 1426   6.620   4.236   0.880
  176SOL    HW1 1427   6.603   4.244   0.781
  176SOL    HW2 1428   6.711   4.270   0.901
  177SOL     OW 1429   6.305   3.055   3.364
  177SOL    HW1 1430   6.208   3.052   3.388
  177SOL    HW2 1431   6.360   3.031   3.443
  178SOL     OW 1432   2.795   3.757   6.299
  178SOL    HW1 1433   2.778   3.854   6.285
  178SOL    HW2 1434   2.827   3.741   6.393
  179SOL     OW 1435   4.483   1.530   5.778
  179SOL    HW1 1436   4.386   1.545   5.760
  179SOL    HW2 1437   4.525   1.484   5.700
  180SOL     OW 1438   2.374   6.578   0.383
  180SOL    HW1 1439   2.473   6.592   0.386
  180SOL    HW2 1440   2.344   6.565   0.289
  181SOL     OW 1441   3.519   3.345   5.797
  181SOL    HW1 1442   3.613   3.321   5.772
  181SOL    HW2 1443   3.473   3.264   5.834
  182SOL     OW 1444   3.300   1.928   5.160
  182SOL    HW1 1445   3.366   1.987   5.113
  182SOL    HW2 1446   3.209   1.970   5.154
  183SOL     OW 1447   3.774   2.062   2.935
  183SOL    HW1 1448   3.714   2.064   3.014
  183SOL    HW2 1449   3.726   2.101   2.856
  184SOL     OW 1450   0.758   6.701   4.666
  184SOL    HW1 1451   0.707   6.635   4.721
  184SOL    HW2 1452   0.804   6.653   4.591
  185SOL     OW 1453   0.673   0.943   6.183
  185SOL    HW1 1454   0.596   0.882   6.166
  185SOL    HW2 1455   0.729   0.906   6.257
  186SOL     OW 1456   5.877   0.831   3.981
  186SOL    HW1 1457   5.866   0.782   4.068
  186SOL    HW2 1458   5.940   0.908   3.995
  187SOL     OW 1459   5.220   0.078   2.547
  187SOL    HW1 1460   5.184   0.101   2.637
  187SOL    HW2 1461   5.199   7.002   2.526
  188SOL     OW 1462   0.998   3.018   2.986
  188SOL    HW1 1463   0.977   3.070   2.904
  188SOL    HW2 1464   0.914   2.990   3.031
  189SOL     OW 1465   2.830   5.373   1.245
  189SOL    HW1 1466   2.888   5.373   1.326
  189SOL    HW2 1467   2.750   5.430   1.261
  190SOL     OW 1468   5.148   3.034   5.525
  190SOL    HW1 1469   5.171   3.132   5.531
  190SOL    HW2 1470   5.132   2.998   5.617
  191SOL     OW 1471   5.957   0.235   6.619
  191SOL    HW1 1472   5.874   0.214   6.567
  191SOL    HW2 1473   6.027   0.270   6.557
  192SOL     OW 1474   0.922   5.228   1.775
  192SOL    HW1 1475   0.835   5.203   1.818
  192SOL    HW2 1476   0.996   5.174   1.815
  193SOL     OW 1477   4.430   3.564   5.249
  193SOL    HW1 1478   4.359   3.581   5.181
  193SOL    HW2 1479   4.518   3.595   5.213
  194SOL     OW 1480   4.175   0.815   2.823
  194SOL    HW1 1481   4.182   0.739   2.759
  194SOL    HW2 1482   4.176   0.902   2.772
  195SOL     OW 1483   1.551   0.096   4.201
  195SOL    HW1 1484   1.618   0.158   4.159
  195SOL    HW2 1485   1.597   0.040   4.270
  196SOL     OW 1486   3.146   0.675   0.788
  196SOL    HW1 1487   3.147   0.633   0.697
  196SOL    HW2 1488   3.090   0.758   0.786
  197SOL     OW 1489   2.151   0.100   1.239
  197SOL    HW1 1490   2.238   0.051   1.236
  197SOL    HW2 1491   2.152   0.173   1.172
  198SOL     OW 1492   5.399   0.036   1.629
  198SOL    HW1 1493   5.474   0.069   1.572
  198SOL    HW2 1494   5.315   0.032   1.575
  199SOL     OW 1495   6.966   1.412   3.286
  199SOL    HW1 1496   6.906   1.435   3.210
  199SOL    HW2 1497   6.989   1.495   3.336
  200SOL     OW 1498   1.247   4.761   1.988
  200SOL    HW1 1499   1.154   4.735   2.013
  200SOL    HW2 1500   1.263   4.738   1.892
  201SOL     OW 1501   6.471   6.567   6.385
  201SOL    HW1 1502   6.505   6.561   6.291
  201SOL    HW2 1503   6.483   6.661   6.419
  202SOL     OW 1504   4.642   0.505   6.098
  202SOL    HW1 1505   4.727   0.519   6.148
  202SOL    HW2 1506   4.641   0.413   6.059
  203SOL     OW 1507   4.365   2.364   4.411
  203SOL    HW1 1508   4.272   2.327   4.419
  203SOL    HW2 1509   4.431   2.295   4.441
  204SOL     OW 1510   0.805   0.923   6.663
  204SOL    HW1 1511   0.836   0.894   6.753
  204SOL    HW2 1512   0.706   0.915   6.657
  205SOL     OW 1513   0.493   1.410   2.971
  205SOL    HW1 1514   0.542   1.489   3.007
  205SOL    HW2 1515   0.486   1.340   3.043
  206SOL     OW 1516   6.866   4.710   1.204
  206SOL    HW1 1517   6.844   4.620   1.168
  206SOL    HW2 1518   6.964   4.715   1.225
  207SOL     OW 1519   5.218   1.202   3.625
  207SOL    HW1 1520   5.296   1.261   3.646
  207SOL    HW2 1521   5.238   1.109   3.655
  208SOL     OW 1522   5.636   2.597   5.006
  208SOL    HW1 1523   5.661   2.599   5.103
  208SOL    HW2 1524   5.716   2.621   4.950
  209SOL     OW 1525   0.164   4.859   4.032
  209SOL    HW1 1526   0.119   4.944   4.056
  209SOL    HW2 1527   0.212   4.870   3.945
  210SOL     OW 1528   3.902   1.461   0.707
  210SOL    HW1 1529   3.831   1.531   0.696
  210SOL    HW2 1530   3.988   1.505   0.733
  211SOL     OW 1531   2.670   6.201   3.315
  211SOL    HW1 1532   2.582   6.194   3.361
  211SOL    HW2 1533   2.671   6.142   3.234
  212SOL     OW 1534   1.405   4.330   1.884
  212SOL    HW1 1535   1.459   4.413   1.901
  212SOL    HW2 1536   1.328   4.352   1.825
  213SOL     OW 1537   3.168   0.484   6.811
  213SOL    HW1 1538   3.186   0.562   6.752
  213SOL    HW2 1539   3.222   0.405   6.780
  214SOL     OW 1540   4.329   5.187   1.568
  214SOL    HW1 1541   4.299   5.235   1.485
  214SOL    HW2 1542   4.379   5.250   1.627
  215SOL     OW 1543   2.050   3.651   1.020
  215SOL    HW1 1544   2.120   3.719   0.996
  215SOL    HW2 1545   2.055   3.574   0.955
  216SOL     OW 1546   2.295   6.043   4.024
  216SOL    HW1 1547   2.335   5.957   3.993
  216SOL    HW2 1548   2.364   6.115   4.022
  217SOL     OW 1549   2.293   2.360   3.967
  217SOL    HW1 1550   2.285   2.262   3.986
  217SOL    HW2 1551   2.210   2.393   3.923
  218SOL     OW 1552   0.832   3.515   4.221
  218SOL    HW1 1553   0.881   3.580   4.163
  218SOL    HW2 1554   0.747   3.556   4.253
  219SOL     OW 1555   4.556   6.339   5.975
  219SOL    HW1 1556   4.489   6.285   6.026
  219SOL    HW2 1557   4.524   6.352   5.881
  220SOL     OW 1558   3.671   7.011   0.918
  220SOL    HW1 1559   3.649   6.914   0.910
  220SOL    HW2 1560   3.737   0.016   0.847
  221SOL     OW 1561   6.112   2.749   1.398
  221SOL    HW1 1562   6.193   2.802   1.422
  221SOL    HW2 1563   6.139   2.665   1.352
  222SOL     OW 1564   2.618   5.064   5.094
  222SOL    HW1 1565   2.622   5.060   5.194
  222SOL    HW2 1566   2.651   4.977   5.057
  223SOL     OW 1567   5.501   2.434   0.517
  223SOL    HW1 1568   5.483   2.412   0.613
  223SOL    HW2 1569   5.556   2.361   0.476
  224SOL     OW 1570   2.179   2.452   4.688
  224SOL    HW1 1571   2.170   2.365   4.736
  224SOL    HW2 1572   2.089   2.497   4.683
  225SOL     OW 1573   4.472   2.854   6.316
  225SOL    HW1 1574   4.531   2.811   6.247
  225SOL    HW2 1575   4.506   2.945   6.336
  226SOL     OW 1576   1.103   0.852   6.351
  226SOL    HW1 1577   1.006   0.834   6.335
  226SOL    HW2 1578   1.112   0.926   6.417
  227SOL     OW 1579   1.460   3.308   3.148
  227SOL    HW1 1580   1.551   3.294   3.187
  227SOL    HW2 1581   1.391   3.275   3.212
  228SOL     OW 1582   3.311   5.967   3.847
  228SOL    HW1 1583   3.334   5.896   3.780
  228SOL    HW2 1584   3.385   6.034   3.851
  229SOL     OW 1585   5.032   5.974   6.933
  229SOL    HW1 1586   5.055   5.881   6.904
  229SOL    HW2 1587   4.933   5.982   6.943
  230SOL     OW 1588   3.281   4.890   3.550
  230SOL    HW1 1589   3.309   4.868   3.456
  230SOL    HW2 1590   3.334   4.968   3.583
  231SOL     OW 1591   5.997   2.037   0.040
  231SOL    HW1 1592   5.983   2.033   6.961
  231SOL    HW2 1593   5.987   1.946   0.079
  232SOL     OW 1594   1.107   3.571   6.631
  232SOL    HW1 1595   1.164   3.621   6.566
  232SOL    HW2 1596   1.129   3.474   6.627
  233SOL     OW 1597   2.342   2.053   3.677
  233SOL    HW1 1598   2.280   1.989   3.631
  233SOL    HW2 1599   2.325   2.051   3.776
  234SOL     OW 1600   4.624   0.204   4.968
  234SOL    HW1 1601   4.657   0.139   5.035
  234SOL    HW2 1602   4.537   0.173   4.930
  235SOL     OW 1603   3.553   3.016   1.758
  235SOL    HW1 1604   3.618   2.976   1.694
  235SOL    HW2 1605   3.462   3.018   1.716
  236SOL     OW 1606   4.499   3.137   6.938
  236SOL    HW1 1607   4.442   3.219   6.942
  236SOL    HW2 1608   4.558   3.141   6.857
  237SOL     OW 1609   5.915   5.010   1.821
  237SOL    HW1 1610   5.987   4.973   1.762
  237SOL    HW2 1611   5.853   4.936   1.848
  238SOL     OW 1612   5.015   1.792   0.407
  238SOL    HW1 1613   5.017   1.831   0.315
  238SOL    HW2 1614   5.044   1.861   0.474
  239SOL     OW 1615   0.349   5.346   6.098
  239SOL    HW1 1616   0.421   5.279   6.084
  239SOL    HW2 1617   0.267   5.300   6.132
  240SOL     OW 1618   0.484   2.939   3.857
  240SOL    HW1 1619   0.444   2.884   3.931
  240SOL    HW2 1620   0.417   2.950   3.784
  241SOL     OW 1621   1.700   0.414   4.868
  241SOL    HW1 1622   1.798   0.419   4.848
  241SOL    HW2 1623   1.655   0.354   4.802
  242SOL     OW 1624   3.589   3.190   5.402
  242SOL    HW1 1625   3.552   3.121   5.464
  242SOL    HW2 1626   3.559   3.281   5.431
  243SOL     OW 1627   4.022   0.302   5.849
  243SOL    HW1 1628   4.075   0.350   5.779
  243SOL    HW2 1629   3.934   0.347   5.861
  244SOL     OW 1630   5.898   2.258   4.502
  244SOL    HW1 1631   5.849   2.172   4.491
  244SOL    HW2 1632   5.847   2.319   4.563
  245SOL     OW 1633   6.391   3.575   4.384
  245SOL    HW1 1634   6.420   3.626   4.303
  245SOL    HW2 1635   6.327   3.630   4.436
  246SOL     OW 1636   4.894   2.399   3.268
  246SOL    HW1 1637   4.977   2.451   3.289
  246SOL    HW2 1638   4.908   2.303   3.295
  247SOL     OW 1639   2.906   1.957   1.680
  247SOL    HW1 1640   2.869   1.864   1.682
  247SOL    HW2 1641   2.989   1.961   1.736
  248SOL     OW 1642   3.968   2.183   2.629
  248SOL    HW1 1643   4.055   2.201   2.583
  248SOL    HW2 1644   3.969   2.227   2.719
  249SOL     OW 1645   3.864   0.094   5.286
  249SOL    HW1 1646   3.787   0.153   5.263
  249SOL    HW2 1647   3.894   0.045   5.204
  250SOL     OW 1648   5.281   2.497   0.969
  250SOL    HW1 1649   5.225   2.430   0.921
  250SOL    HW2 1650   5.254   2.589   0.942
  251SOL     OW 1651   4.299   3.872   5.481
  251SOL    HW1 1652   4.271   3.849   5.574
  251SOL    HW2 1653   4.383   3.823   5.459
  252SOL     OW 1654   6.555   6.841   6.731
  252SOL    HW1 1655   6.546   6.745   6.757
  252SOL    HW2 1656   6.545   6.850   6.632
  253SOL     OW 1657   2.714   4.766   0.024
  253SOL    HW1 1658   2.696   4.682   6.992
  253SOL    HW2 1659   2.785   4.819   6.998
  254SOL     OW 1660   4.930   3.125   3.280
  254SOL    HW1 1661   4.974   3.081   3.202
  254SOL    HW2 1662   4.995   3.184   3.326
  255SOL     OW 1663   1.896   3.187   4.592
  255SOL    HW1 1664   1.978   3.241   4.573
  255SOL    HW2 1665   1.922   3.098   4.630
  256SOL     OW 1666   6.730   4.141   6.493
  256SOL    HW1 1667   6.825   4.110   6.488
  256SOL    HW2 1668   6.727   4.238   6.519
  257SOL     OW 1669   4.930   6.426   4.003
  257SOL    HW1 1670   4.977   6.418   3.915
  257SOL    HW2 1671   4.988   6.477   4.067
  258SOL     OW 1672   0.712   4.897   4.675
  258SOL    HW1 1673   0.811   4.889   4.678
  258SOL    HW2 1674   0.686   4.982   4.630
  259SOL     OW 1675   1.334   1.757   2.738
  259SOL    HW1 1676   1.245   1.718   2.761
  259SOL    HW2 1677   1.322   1.854   2.717
  260SOL     OW 1678   4.452   0.909   0.872
  260SOL    HW1 1679   4.498   0.897   0.784
  260SOL    HW2 1680   4.464   1.002   0.904
  261SOL     OW 1681   6.143   3.715   6.953
  261SOL    HW1 1682   6.060   3.661   6.969
  261SOL    HW2 1683   6.197   3.719   0.017
  262SOL     OW 1684   6.592   4.264   0.580
  262SOL    HW1 1685   6.651   4.342   0.560
  262SOL    HW2 1686   6.497   4.295   0.588
  263SOL     OW 1687   0.419   1.373   3.607
  263SOL    HW1 1688   0.517   1.357   3.596
  263SOL    HW2 1689   0.381   1.406   3.520
  264SOL     OW 1690   4.603   3.375   6.452
  264SOL    HW1 1691   4.638   3.461   6.414
  264SOL    HW2 1692   4.550   3.394   6.534
  265SOL     OW 1693   4.499   5.299   2.963
  265SOL    HW1 1694   4.568   5.246   2.913
  265SOL    HW2 1695   4.525   5.395   2.966
  266SOL     OW 1696   3.593   3.003   5.616
  266SOL    HW1 1697   3.578   3.062   5.695
  266SOL    HW2 1698   3.684   2.963   5.620
  267SOL     OW 1699   0.132   2.083   6.372
  267SOL    HW1 1700   0.129   1.997   6.322
  267SOL    HW2 1701   0.172   2.154   6.314
  268SOL     OW 1702   4.008   0.532   4.960
  268SOL    HW1 1703   4.092   0.578   4.989
  268SOL    HW2 1704   4.009   0.437   4.991
  269SOL     OW 1705   1.478   3.215   1.047
  269SOL    HW1 1706   1.419   3.165   1.109
  269SOL    HW2 1707   1.550   3.262   1.098
  270SOL     OW 1708   0.042   0.821   0.104
  270SOL    HW1 1709   0.038   0.743   0.167
  270SOL    HW2 1710   7.008   0.897   0.141
  271SOL     OW 1711   1.781   1.619   0.752
  271SOL    HW1 1712   1.817   1.552   0.686
  271SOL    HW2 1713   1.696   1.584   0.791
  272SOL     OW 1714   3.150   4.861   4.406
  272SOL    HW1 1715   3.197   4.775   4.428
  272SOL    HW2 1716   3.181   4.895   4.318
  273SOL     OW 1717   1.889   4.199   5.110
  273SOL    HW1 1718   1.948   4.219   5.032
  273SOL    HW2 1719   1.854   4.285   5.148
  274SOL     OW 1720   4.861   1.974   3.332
  274SOL    HW1 1721   4.954   1.960   3.367
  274SOL    HW2 1722   4.806   1.892   3.349
  275SOL     OW 1723   6.268   4.541   5.530
  275SOL    HW1 1724   6.233   4.523   5.438
  275SOL    HW2 1725   6.288   4.454   5.575
  276SOL     OW 1726   6.939   5.367   2.511
  276SOL    HW1 1727   7.000   5.385   2.588
  276SOL    HW2 1728   6.845   5.383   2.538
  277SOL     OW 1729   1.747   3.811   0.941
  277SOL    HW1 1730   1.693   3.735   0.978
  277SOL    HW2 1731   1.831   3.775   0.901
  278SOL     OW 1732   6.839   4.931   1.488
  278SOL    HW1 1733   6.816   4.839   1.456
  278SOL    HW2 1734   6.765   4.967   1.544
  279SOL     OW 1735   6.277   2.978   4.726
  279SOL    HW1 1736   6.184   2.984   4.763
  279SOL    HW2 1737   6.306   3.068   4.692
  280SOL     OW 1738   2.406   6.674   3.004
  280SOL    HW1 1739   2.456   6.611   2.944
  280SOL    HW2 1740   2.410   6.766   2.967
  281SOL     OW 1741   3.197   4.789   2.053
  281SOL    HW1 1742   3.248   4.743   1.980
  281SOL    HW2 1743   3.100   4.795   2.027
  282SOL     OW 1744   3.615   1.498   5.205
  282SOL    HW1 1745   3.706   1.459   5.193
  282SOL    HW2 1746   3.590   1.550   5.123
  283SOL     OW 1747   6.964   1.168   5.751
  283SOL    HW1 1748   6.916   1.246   5.712
  283SOL    HW2 1749   6.902   1.090   5.755
  284SOL     OW 1750   0.998   4.342   4.617
  284SOL    HW1 1751   1.086   4.297   4.634
  284SOL    HW2 1752   0.925   4.274   4.624
  285SOL     OW 1753   5.617   5.069   5.899
  285SOL    HW1 1754   5.699   5.050   5.845
  285SOL    HW2 1755   5.627   5.157   5.945
  286SOL     OW 1756   3.390   5.733   4.999
  286SOL    HW1 1757   3.304   5.774   5.028
  286SOL    HW2 1758   3.380   5.633   4.994
  287SOL     OW 1759   0.676   4.597   0.130
  287SOL    HW1 1760   0.727   4.512   0.139
  287SOL    HW2 1761   0.662   4.618   0.033
  288SOL     OW 1762   3.856   2.018   6.019
  288SOL    HW1 1763   3.795   1.939   6.016
  288SOL    HW2 1764   3.803   2.101   5.998
  289SOL     OW 1765   0.168   5.175   5.053
  289SOL    HW1 1766   0.099   5.165   5.125
  289SOL    HW2 1767   0.251   5.215   5.091
  290SOL     OW 1768   5.470   1.419   4.321
  290SOL    HW1 1769   5.478   1.383   4.229
  290SOL    HW2 1770   5.460   1.519   4.317
  291SOL     OW 1771   2.120   2.173   4.717
  291SOL    HW1 1772   2.056   2.138   4.648
  291SOL    HW2 1773   2.096   2.137   4.807
  292SOL     OW 1774   2.035   1.847   3.011
  292SOL    HW1 1775   2.053   1.916   3.082
  292SOL    HW2 1776   2.056   1.885   2.921
  293SOL     OW 1777   4.767   4.938   1.912
  293SOL    HW1 1778   4.862   4.934   1.883
  293SOL    HW2 1779   4.711   4.883   1.849
  294SOL     OW 1780   6.710   5.454   6.053
  294SOL    HW1 1781   6.680   5.413   6.139
  294SOL    HW2 1782   6.659   5.539   6.037
  295SOL     OW 1783   3.408   1.530   4.222
  295SOL    HW1 1784   3.373   1.449   4.268
  295SOL    HW2 1785   3.485   1.505   4.163
  296SOL     OW 1786   5.751   2.048   2.021
  296SOL    HW1 1787   5.819   1.984   1.986
  296SOL    HW2 1788   5.713   2.012   2.107
  297SOL     OW 1789   2.837   5.070   3.015
  297SOL    HW1 1790   2.864   5.064   2.919
  297SOL    HW2 1791   2.744   5.105   3.021
  298SOL     OW 1792   3.370   5.687   0.484
  298SOL    HW1 1793   3.383   5.589   0.496
  298SOL    HW2 1794   3.338   5.728   0.570
  299SOL     OW 1795   3.572   3.529   6.339
  299SOL    HW1 1796   3.479   3.566   6.334
  299SOL    HW2 1797   3.568   3.432   6.364
  300SOL     OW 1798   5.414   0.721   2.038
  300SOL    HW1 1799   5.487   0.722   2.106
  300SOL    HW2 1800   5.337   0.777   2.071
  301SOL     OW 1801   5.688   3.143   0.557
  301SOL    HW1 1802   5.596   3.109   0.578
  301SOL    HW2 1803   5.684   3.204   0.478
  302SOL     OW 1804   0.415   1.047   3.675
  302SOL    HW1 1805   0.461   1.052   3.763
  302SOL    HW2 1806   0.432   1.131   3.623
  303SOL     OW 1807   6.653   6.750   1.723
  303SOL    HW1 1808   6.748   6.739   1.697
  303SOL    HW2 1809   6.614   6.829   1.675
  304SOL     OW 1810   1.680   0.389   5.481
  304SOL    HW1 1811   1.680   0.292   5.456
  304SOL    HW2 1812   1.706   0.444   5.401
  305SOL     OW 1813   0.691   3.394   0.425
  305SOL    HW1 1814   0.609   3.367   0.476
  305SOL    HW2 1815   0.693   3.346   0.337
  306SOL     OW 1816   2.139   0.420   3.692
  306SOL    HW1 1817   2.204   0.374   3.632
  306SOL    HW2 1818   2.143   0.380   3.784
  307SOL     OW 1819   4.855   6.269   0.421
  307SOL    HW1 1820   4.876   6.196   0.356
  307SOL    HW2 1821   4.757   6.291   0.415
  308SOL     OW 1822   6.462   3.399   4.584
  308SOL    HW1 1823   6.402   3.319   4.593
  308SOL    HW2 1824   6.429   3.457   4.509
  309SOL     OW 1825   2.990   5.947   6.577
  309SOL    HW1 1826   2.928   5.876   6.544
  309SOL    HW2 1827   3.084   5.922   6.557
  310SOL     OW 1828   6.095   6.853   5.265
  310SOL    HW1 1829   6.036   6.931   5.244
  310SOL    HW2 1830   6.064   6.774   5.212
  311SOL     OW 1831   4.703   4.850   2.817
  311SOL    HW1 1832   4.709   4.882   2.722
  311SOL    HW2 1833   4.690   4.751   2.818
  312SOL     OW 1834   4.229   1.336   4.500
  312SOL    HW1 1835   4.274   1.259   4.455
  312SOL    HW2 1836   4.172   1.301   4.575
  313SOL     OW 1837   3.033   3.921   2.391
  313SOL    HW1 1838   3.039   3.822   2.383
  313SOL    HW2 1839   2.962   3.946   2.456
  314SOL     OW 1840   3.289   5.701   6.826
  314SOL    HW1 1841   3.213   5.636   6.832
  314SOL    HW2 1842   3.362   5.661   6.771
  315SOL     OW 1843   1.278   2.500   4.037
  315SOL    HW1 1844   1.320   2.588   4.060
  315SOL    HW2 1845   1.183   2.515   4.009
  316SOL     OW 1846   3.183   1.584   4.045
  316SOL    HW1 1847   3.259   1.589   4.110
  316SOL    HW2 1848   3.151   1.490   4.039
  317SOL     OW 1849   0.232   0.967   1.157
  317SOL    HW1 1850   0.208   1.052   1.110
  317SOL    HW2 1851   0.329   0.968   1.182
  318SOL     OW 1852   1.136   5.534   6.453
  318SOL    HW1 1853   1.056   5.594   6.460
  318SOL    HW2 1854   1.132   5.484   6.366
  319SOL     OW 1855   6.716   0.522   3.603
  319SOL    HW1 1856   6.710   0.606   3.658
  319SOL    HW2 1857   6.652   0.454   3.638
  320SOL     OW 1858   6.203   2.410   0.897
  320SOL    HW1 1859   6.268   2.350   0.850
  320SOL    HW2 1860   6.235   2.505   0.890
  321SOL     OW 1861   3.842   1.637   6.985
  321SOL    HW1 1862   3.941   1.625   6.979
  321SOL    HW2 1863   3.802   1.635   6.893
  322SOL     OW 1864   3.975   3.150   4.273
  322SOL    HW1 1865   4.001   3.126   4.367
  322SOL    HW2 1866   3.881   3.120   4.256
  323SOL     OW 1867   1.038   3.189   6.273
  323SOL    HW1 1868   0.982   3.116   6.312
  323SOL    HW2 1869   1.135   3.165   6.280
  324SOL     OW 1870   2.388   1.443   5.098
  324SOL    HW1 1871   2.487   1.454   5.082
  324SOL    HW2 1872   2.344   1.533   5.093
  325SOL     OW 1873   1.105   2.921   2.195
  325SOL    HW1 1874   1.085   2.917   2.097
  325SOL    HW2 1875   1.083   3.012   2.230
  326SOL     OW 1876   1.538   5.240   7.013
  326SOL    HW1 1877   1.582   5.330   7.017
  326SOL    HW2 1878   1.574   5.182   0.067
  327SOL     OW 1879   1.635   5.042   3.634
  327SOL    HW1 1880   1.663   4.948   3.651
  327SOL    HW2 1881   1.561   5.044   3.567
  328SOL     OW 1882   1.618   5.308   2.163
  328SOL    HW1 1883   1.674   5.282   2.085
  328SOL    HW2 1884   1.528   5.266   2.157
  329SOL     OW 1885   3.889   4.057   4.628
  329SOL    HW1 1886   3.811   4.076   4.687
  329SOL    HW2 1887   3.961   4.125   4.644
  330SOL     OW 1888   3.694   0.057   1.673
  330SOL    HW1 1889   3.624   0.129   1.672
  330SOL    HW2 1890   3.670   7.009   1.743
  331SOL     OW 1891   3.657   5.057   0.725
  331SOL    HW1 1892   3.744   5.008   0.719
  331SOL    HW2 1893   3.601   5.033   0.646
  332SOL     OW 1894   4.326   1.856   5.051
  332SOL    HW1 1895   4.251   1.896   4.998
  332SOL    HW2 1896   4.396   1.822   4.989
  333SOL     OW 1897   2.814   0.264   5.995
  333SOL    HW1 1898   2.844   0.169   6.004
  333SOL    HW2 1899   2.895   0.322   5.984
  334SOL     OW 1900   2.879   0.558   1.728
  334SOL    HW1 1901   2.795   0.611   1.741
  334SOL    HW2 1902   2.951   0.617   1.691
  335SOL     OW 1903   3.920   6.939   5.082
  335SOL    HW1 1904   3.896   6.842   5.088
  335SOL    HW2 1905   3.870   6.980   5.006
  336SOL     OW 1906   1.792   0.700   3.324
  336SOL    HW1 1907   1.846   0.616   3.334
  336SOL    HW2 1908   1.721   0.686   3.255
  337SOL     OW 1909   0.435   2.707   0.130
  337SOL    HW1 1910   0.491   2.732   0.209
  337SOL    HW2 1911   0.364   2.776   0.116
  338SOL     OW 1912   2.615   2.231   1.538
  338SOL    HW1 1913   2.706   2.209   1.502
  338SOL    HW2 1914   2.567   2.147   1.562
  339SOL     OW 1915   3.240   6.368   3.865
  339SOL    HW1 1916   3.294   6.406   3.790
  339SOL    HW2 1917   3.151   6.338   3.830
  340SOL     OW 1918   4.860   4.468   5.462
  340SOL    HW1 1919   4.869   4.467   5.562
  340SOL    HW2 1920   4.765   4.447   5.437
  341SOL     OW 1921   6.886   0.981   4.592
  341SOL    HW1 1922   6.932   0.989   4.504
  341SOL    HW2 1923   6.859   0.886   4.608
  342SOL     OW 1924   5.616   3.463   6.757
  342SOL    HW1 1925   5.669   3.381   6.777
  342SOL    HW2 1926   5.674   3.530   6.711
  343SOL     OW 1927   2.051   5.433   0.765
  343SOL    HW1 1928   2.143   5.467   0.784
  343SOL    HW2 1929   1.996   5.507   0.726
  344SOL     OW 1930   1.382   4.939   2.140
  344SOL    HW1 1931   1.345   4.865   2.084
  344SOL    HW2 1932   1.384   5.023   2.086
  345SOL     OW 1933   5.193   1.514   3.866
  345SOL    HW1 1934   5.216   1.536   3.771
  345SOL    HW2 1935   5.173   1.599   3.916
  346SOL     OW 1936   2.407   0.729   2.803
  346SOL    HW1 1937   2.417   0.816   2.852
  346SOL    HW2 1938   2.452   0.657   2.856
  347SOL     OW 1939   3.151   5.276   6.390
  347SOL    HW1 1940   3.183   5.248   6.300
  347SOL    HW2 1941   3.191   5.364   6.414
  348SOL     OW 1942   5.280   3.862   2.596
  348SOL    HW1 1943   5.369   3.836   2.634
  348SOL    HW2 1944   5.227   3.779   2.577
  349SOL     OW 1945   6.856   5.050   0.616
  349SOL    HW1 1946   6.775   4.992   0.619
  349SOL    HW2 1947   6.934   4.997   0.583
  350SOL     OW 1948   3.451   3.508   1.117
  350SOL    HW1 1949   3.380   3.551   1.061
  350SOL    HW2 1950   3.410   3.436   1.172
  351SOL     OW 1951   1.802   2.839   0.620
  351SOL    HW1 1952   1.802   2.787   0.705
  351SOL    HW2 1953   1.770   2.781   0.545
  352SOL     OW 1954   2.801   1.325   4.542
  352SOL    HW1 1955   2.873   1.389   4.568
  352SOL    HW2 1956   2.727   1.328   4.610
  353SOL     OW 1957   2.365   6.496   0.854
  353SOL    HW1 1958   2.365   6.554   0.935
  353SOL    HW2 1959   2.441   6.431   0.859
  354SOL     OW 1960   3.476   2.667   0.286
  354SOL    HW1 1961   3.492   2.600   0.213
  354SOL    HW2 1962   3.557   2.724   0.297
  355SOL     OW 1963   0.932   3.534   2.522
  355SOL    HW1 1964   0.875   3.486   2.456
  355SOL    HW2 1965   0.916   3.496   2.613
  356SOL     OW 1966   3.151   0.015   5.715
  356SOL    HW1 1967   3.224   0.012   5.784
  356SOL    HW2 1968   3.098   0.098   5.727
  357SOL     OW 1969   0.383   6.534   5.415
  357SOL    HW1 1970   0.394   6.544   5.316
  357SOL    HW2 1971   0.467   6.498   5.455
  358SOL     OW 1972   4.543   0.416   1.205
  358SOL    HW1 1973   4.634   0.392   1.239
  358SOL    HW2 1974   4.480   0.340   1.221
  359SOL     OW 1975   1.656   2.541   1.854
  359SOL    HW1 1976   1.614   2.451   1.844
  359SOL    HW2 1977   1.743   2.543   1.806
  360SOL     OW 1978   0.746   5.182   6.483
  360SOL    HW1 1979   0.701   5.147   6.565
  360SOL    HW2 1980   0.830   5.229   6.508
  361SOL     OW 1981   5.758   5.791   3.000
  361SOL    HW1 1982   5.855   5.812   3.015
  361SOL    HW2 1983   5.704   5.830   3.075
  362SOL     OW 1984   3.992   3.855   1.994
  362SOL    HW1 1985   4.007   3.881   2.089
  362SOL    HW2 1986   4.030   3.763   1.978
  363SOL     OW 1987   5.449   4.731   3.882
  363SOL    HW1 1988   5.530   4.785   3.859
  363SOL    HW2 1989   5.477   4.637   3.904
  364SOL     OW 1990   6.109   5.392   5.903
  364SOL    HW1 1991   6.106   5.297   5.872
  364SOL    HW2 1992   6.107   5.395   6.003
  365SOL     OW 1993   5.504   6.051   2.317
  365SOL    HW1 1994   5.518   6.029   2.413
  365SOL    HW2 1995   5.406   6.058   2.298
  366SOL     OW 1996   6.473   0.856   6.106
  366SOL    HW1 1997   6.526   0.844   6.190
  366SOL    HW2 1998   6.531   0.899   6.037
  367SOL     OW 1999   4.368   3.099   1.122
  367SOL    HW1 2000   4.336   3.186   1.086
  367SOL    HW2 2001   4.312   3.071   1.200
  368SOL     OW 2002   0.201   3.699   5.259
  368SOL    HW1 2003   0.174   3.743   5.345
  368SOL    HW2 2004   0.157   3.746   5.182
  369SOL     OW 2005   6.314   5.719   1.291
  369SOL    HW1 2006   6.222   5.703   1.327
  369SOL    HW2 2007   6.377   5.739   1.366
  370SOL     OW 2008   2.644   1.580   6.043
  370SOL    HW1 2009   2.723   1.630   6.077
  370SOL    HW2 2010   2.625   1.606   5.948
  371SOL     OW 2011   2.482   3.810   6.421
  371SOL    HW1 2012   2.469   3.711   6.434
  371SOL    HW2 2013   2.397   3.857   6.445
  372SOL     OW 2014   1.135   6.413   5.929
  372SOL    HW1 2015   1.229   6.379   5.924
  372SOL    HW2 2016   1.135   6.513   5.930
  373SOL     OW 2017   6.815   6.475   4.525
  373SOL    HW1 2018   6.795   6.553   4.466
  373SOL    HW2 2019   6.741   6.463   4.591
  374SOL     OW 2020   2.725   1.814   3.006
  374SOL    HW1 2021   2.747   1.854   2.917
  374SOL    HW2 2022   2.628   1.827   3.026
  375SOL     OW 2023   1.021   4.869   3.873
  375SOL    HW1 2024   1.037   4.920   3.789
  375SOL    HW2 2025   0.925   4.839   3.875
  376SOL     OW 2026   2.143   1.650   4.621
  376SOL    HW1 2027   2.094   1.575   4.575
  376SOL    HW2 2028   2.098   1.736   4.599
  377SOL     OW 2029   0.814   1.918   1.413
  377SOL    HW1 2030   0.858   1.992   1.362
  377SOL    HW2 2031   0.863   1.832   1.396
  378SOL     OW 2032   3.393   2.209   5.734
  378SOL    HW1 2033   3.390   2.288   5.796
  378SOL    HW2 2034   3.460   2.226   5.661
  379SOL     OW 2035   6.009   4.297   0.686
  379SOL    HW1 2036   5.979   4.221   0.629
  379SOL    HW2 2037   5.995   4.383   0.637
  380SOL     OW 2038   2.982   1.023   1.181
  380SOL    HW1 2039   2.917   1.085   1.225
  380SOL    HW2 2040   2.936   0.974   1.107
  381SOL     OW 2041   1.272   4.290   2.635
  381SOL    HW1 2042   1.220   4.292   2.721
  381SOL    HW2 2043   1.366   4.262   2.654
  382SOL     OW 2044   5.351   6.282   5.976
  382SOL    HW1 2045   5.355   6.319   6.069
  382SOL    HW2 2046   5.276   6.216   5.971
  383SOL     OW 2047   4.588   3.221   5.762
  383SOL    HW1 2048   4.547   3.133   5.739
  383SOL    HW2 2049   4.617   3.267   5.678
  384SOL     OW 2050   6.461   5.567   4.460
  384SOL    HW1 2051   6.370   5.557   4.419
  384SOL    HW2 2052   6.531   5.544   4.392
  385SOL     OW 2053   4.222   6.009   5.531
  385SOL    HW1 2054   4.213   6.071   5.609
  385SOL    HW2 2055   4.216   6.061   5.446
  386SOL     OW 2056   2.642   6.360   5.312
  386SOL    HW1 2057   2.738   6.343   5.334
  386SOL    HW2 2058   2.588   6.361   5.396
  387SOL     OW 2059   1.115   6.607   3.427
  387SOL    HW1 2060   1.079   6.670   3.495
  387SOL    HW2 2061   1.041   6.577   3.367
  388SOL     OW 2062   1.299   1.742   3.894
  388SOL    HW1 2063   1.321   1.789   3.979
  388SOL    HW2 2064   1.309   1.806   3.817
  389SOL     OW 2065   4.308   4.367   1.303
  389SOL    HW1 2066   4.232   4.409   1.353
  389SOL    HW2 2067   4.393   4.384   1.352
  390SOL     OW 2068   3.040   1.141   0.102
  390SOL    HW1 2069   3.128   1.142   0.149
  390SOL    HW2 2070   3.042   1.075   0.028
  391SOL     OW 2071   2.049   3.631   5.422
  391SOL    HW1 2072   2.132   3.575   5.421
  391SOL    HW2 2073   2.011   3.636   5.330
  392SOL     OW 2074   1.708   4.380   1.744
  392SOL    HW1 2075   1.767   4.460   1.756
  392SOL    HW2 2076   1.687   4.340   1.833
  393SOL     OW 2077   1.013   4.634   0.074
  393SOL    HW1 2078   0.951   4.637   7.015
  393SOL    HW2 2079   1.108   4.636   0.043
  394SOL     OW 2080   0.010   2.581   0.441
  394SOL    HW1 2081   0.053   2.534   0.518
  394SOL    HW2 2082   0.045   2.543   0.355
  395SOL     OW 2083   4.907   4.598   3.358
  395SOL    HW1 2084   4.977   4.562   3.419
  395SOL    HW2 2085   4.832   4.533   3.351
  396SOL     OW 2086   3.144   3.245   2.292
  396SOL    HW1 2087   3.139   3.146   2.298
  396SOL    HW2 2088   3.054   3.282   2.267
  397SOL     OW 2089   5.721   1.421   6.039
  397SOL    HW1 2090   5.671   1.337   6.018
  397SOL    HW2 2091   5.727   1.478   5.957
  398SOL     OW 2092   1.337   0.021   3.362
  398SOL    HW1 2093   1.392   0.028   3.446
  398SOL    HW2 2094   1.241   0.037   3.384
  399SOL     OW 2095   5.361   6.332   4.203
  399SOL    HW1 2096   5.424   6.271   4.250
  399SOL    HW2 2097   5.411   6.413   4.170
  400SOL     OW 2098   6.463   6.631   5.834
  400SOL    HW1 2099   6.493   6.539   5.808
  400SOL    HW2 2100   6.537   6.696   5.815
  401SOL     OW 2101   4.825   0.205   6.321
  401SOL    HW1 2102   4.737   0.191   6.276
  401SOL    HW2 2103   4.864   0.117   6.346
  402SOL     OW 2104   6.688   0.921   3.640
  402SOL    HW1 2105   6.740   0.999   3.605
  402SOL    HW2 2106   6.722   0.837   3.598
  403SOL     OW 2107   4.251   1.194   5.076
  403SOL    HW1 2108   4.186   1.139   5.128
  403SOL    HW2 2109   4.338   1.145   5.067
  404SOL     OW 2110   1.597   4.913   4.073
  404SOL    HW1 2111   1.673   4.978   4.079
  404SOL    HW2 2112   1.517   4.959   4.037
  405SOL     OW 2113   2.148   3.058   3.165
  405SOL    HW1 2114   2.217   3.002   3.120
  405SOL    HW2 2115   2.158   3.153   3.137
  406SOL     OW 2116   0.302   4.083   4.985
  406SOL    HW1 2117   0.378   4.128   5.031
  406SOL    HW2 2118   0.326   3.988   4.967
  407SOL     OW 2119   1.427   2.532   5.186
  407SOL    HW1 2120   1.420   2.468   5.263
  407SOL    HW2 2121   1.520   2.533   5.151
  408SOL     OW 2122   3.515   2.120   2.821
  408SOL    HW1 2123   3.530   2.104   2.724
  408SOL    HW2 2124   3.460   2.202   2.833
  409SOL     OW 2125   6.327   3.015   1.434
  409SOL    HW1 2126   6.392   3.048   1.503
  409SOL    HW2 2127   6.234   3.029   1.468
  410SOL     OW 2128   0.866   1.639   1.417
  410SOL    HW1 2129   0.771   1.662   1.435
  410SOL    HW2 2130   0.873   1.589   1.330
  411SOL     OW 2131   6.582   0.977   1.502
  411SOL    HW1 2132   6.613   1.015   1.415
  411SOL    HW2 2133   6.509   0.911   1.485
  412SOL     OW 2134   3.613   5.011   2.597
  412SOL    HW1 2135   3.623   5.079   2.670
  412SOL    HW2 2136   3.521   4.972   2.600
  413SOL     OW 2137   5.545   4.063   1.571
  413SOL    HW1 2138   5.454   4.029   1.592
  413SOL    HW2 2139   5.551   4.161   1.591
  414SOL     OW 2140   3.411   6.330   4.106
  414SOL    HW1 2141   3.355   6.312   4.026
  414SOL    HW2 2142   3.359   6.308   4.189
  415SOL     OW 2143   0.305   0.390   6.729
  415SOL    HW1 2144   0.304   0.403   6.829
  415SOL    HW2 2145   0.387   0.339   6.704
  416SOL     OW 2146   4.994   5.268   5.457
  416SOL    HW1 2147   4.999   5.196   5.526
  416SOL    HW2 2148   4.899   5.280   5.429
  417SOL     OW 2149   2.143   6.907   5.742
  417SOL    HW1 2150   2.185   6.984   5.693
  417SOL    HW2 2151   2.171   6.909   5.837
  418SOL     OW 2152   3.138   6.936   6.698
  418SOL    HW1 2153   3.072   6.884   6.643
  418SOL    HW2 2154   3.216   6.961   6.641
  419SOL     OW 2155   0.877   6.698   2.917
  419SOL    HW1 2156   0.815   6.707   2.839
  419SOL    HW2 2157   0.892   6.788   2.958
  420SOL     OW 2158   5.624   1.642   6.627
  420SOL    HW1 2159   5.626   1.665   6.529
  420SOL    HW2 2160   5.561   1.566   6.641
  421SOL     OW 2161   5.659   3.752   4.748
  421SOL    HW1 2162   5.580   3.763   4.808
  421SOL    HW2 2163   5.635   3.780   4.655
  422SOL     OW 2164   4.857   3.351   0.752
  422SOL    HW1 2165   4.779   3.297   0.785
  422SOL    HW2 2166   4.828   3.408   0.675
  423SOL     OW 2167   1.975   2.146   0.202
  423SOL    HW1 2168   1.988   2.126   0.299
  423SOL    HW2 2169   1.879   2.130   0.177
  424SOL     OW 2170   1.920   4.669   2.386
  424SOL    HW1 2171   1.869   4.728   2.448
  424SOL    HW2 2172   1.970   4.725   2.320
  425SOL     OW 2173   5.233   1.776   4.019
  425SOL    HW1 2174   5.200   1.829   4.097
  425SOL    HW2 2175   5.297   1.831   3.965
  426SOL     OW 2176   2.608   2.402   4.592
  426SOL    HW1 2177   2.508   2.402   4.586
  426SOL    HW2 2178   2.636   2.401   4.688
  427SOL     OW 2179   6.174   6.895   3.986
  427SOL    HW1 2180   6.207   6.819   4.042
  427SOL    HW2 2181   6.211   6.981   4.021
  428SOL     OW 2182   4.198   0.588   3.124
  428SOL    HW1 2183   4.216   0.567   3.221
  428SOL    HW2 2184   4.104   0.563   3.101
  429SOL     OW 2185   0.709   4.752   3.775
  429SOL    HW1 2186   0.665   4.803   3.701
  429SOL    HW2 2187   0.643   4.735   3.848
  430SOL     OW 2188   1.270   6.635   4.686
  430SOL    HW1 2189   1.205   6.701   4.723
  430SOL    HW2 2190   1.333   6.606   4.757
  431SOL     OW 2191   2.714   1.137   0.960
  431SOL    HW1 2192   2.673   1.161   0.872
  431SOL    HW2 2193   2.743   1.221   1.007
  432SOL     OW 2194   6.004   2.187   0.825
  432SOL    HW1 2195   6.056   2.268   0.852
  432SOL    HW2 2196   5.915   2.214   0.789
  433SOL     OW 2197   2.296   6.642   5.858
  433SOL    HW1 2198   2.293   6.605   5.765
  433SOL    HW2 2199   2.223   6.710   5.869
  434SOL     OW 2200   4.470   6.140   3.773
  434SOL    HW1 2201   4.524   6.057   3.757
  434SOL    HW2 2202   4.447   6.147   3.870
  435SOL     OW 2203   3.699   2.150   5.202
  435SOL    HW1 2204   3.609   2.137   5.162
  435SOL    HW2 2205   3.734   2.063   5.237
  436SOL     OW 2206   2.856   5.995   1.990
  436SOL    HW1 2207   2.925   5.927   2.015
  436SOL    HW2 2208   2.797   5.958   1.919
  437SOL     OW 2209   0.732   1.233   6.091
  437SOL    HW1 2210   0.732   1.151   6.147
  437SOL    HW2 2211   0.808   1.229   6.026
  438SOL     OW 2212   1.143   3.738   3.694
  438SOL    HW1 2213   1.185   3.804   3.757
  438SOL    HW2 2214   1.092   3.788   3.624
  439SOL     OW 2215   5.730   6.478   2.152
  439SOL    HW1 2216   5.635   6.507   2.161
  439SOL    HW2 2217   5.737   6.379   2.167
  440SOL     OW 2218   2.852   1.394   5.982
  440SOL    HW1 2219   2.798   1.376   6.064
  440SOL    HW2 2220   2.792   1.421   5.907
  441SOL     OW 2221   6.344   3.142   3.779
  441SOL    HW1 2222   6.329   3.069   3.845
  441SOL    HW2 2223   6.417   3.203   3.812
  442SOL     OW 2224   4.947   5.478   5.772
  442SOL    HW1 2225   4.850   5.497   5.785
  442SOL    HW2 2226   4.958   5.387   5.732
  443SOL     OW 2227   5.449   3.898   4.148
  443SOL    HW1 2228   5.372   3.961   4.159
  443SOL    HW2 2229   5.534   3.946   4.170
  444SOL     OW 2230   4.532   0.297   5.989
  444SOL    HW1 2231   4.441   0.339   5.979
  444SOL    HW2 2232   4.555   0.248   5.905
  445SOL     OW 2233   2.503   5.926   2.979
  445SOL    HW1 2234   2.476   5.915   2.883
  445SOL    HW2 2235   2.470   6.014   3.013
  446SOL     OW 2236   4.095   6.114   2.581
  446SOL    HW1 2237   4.173   6.055   2.564
  446SOL    HW2 2238   4.081   6.175   2.502
  447SOL     OW 2239   6.225   3.940   4.994
  447SOL    HW1 2240   6.257   3.889   5.074
  447SOL    HW2 2241   6.156   4.007   5.022
  448SOL     OW 2242   2.793   0.792   2.712
  448SOL    HW1 2243   2.764   0.770   2.619
  448SOL    HW2 2244   2.893   0.792   2.716
  449SOL     OW 2245   3.107   1.331   4.039
  449SOL    HW1 2246   3.020   1.346   3.992
  449SOL    HW2 2247   3.094   1.268   4.115
  450SOL     OW 2248   1.720   4.779   3.583
  450SOL    HW1 2249   1.747   4.780   3.487
  450SOL    HW2 2250   1.777   4.714   3.633
  451SOL     OW 2251   1.960   2.438   4.103
  451SOL    HW1 2252   1.977   2.400   4.194
  451SOL    HW2 2253   1.898   2.377   4.053
  452SOL     OW 2254   4.315   6.362   1.720
  452SOL    HW1 2255   4.315   6.462   1.726
  452SOL    HW2 2256   4.246   6.332   1.654
  453SOL     OW 2257   3.471   6.458   6.096
  453SOL    HW1 2258   3.499   6.441   6.191
  453SOL    HW2 2259   3.386   6.511   6.096
  454SOL     OW 2260   0.165   3.622   6.572
  454SOL    HW1 2261   0.151   3.721   6.578
  454SOL    HW2 2262   0.208   3.589   6.656
  455SOL     OW 2263   5.984   2.835   5.024
  455SOL    HW1 2264   5.933   2.764   4.975
  455SOL    HW2 2265   5.999   2.913   4.964
  456SOL     OW 2266   1.367   0.729   4.582
  456SOL    HW1 2267   1.290   0.720   4.645
  456SOL    HW2 2268   1.336   0.771   4.497
  457SOL     OW 2269   2.267   4.167   4.442
  457SOL    HW1 2270   2.346   4.221   4.473
  457SOL    HW2 2271   2.184   4.221   4.453
  458SOL     OW 2272   3.018   0.295   2.878
  458SOL    HW1 2273   3.074   0.212   2.888
  458SOL    HW2 2274   3.045   0.344   2.795
  459SOL     OW 2275   1.739   0.596   5.299
  459SOL    HW1 2276   1.838   0.605   5.287
  459SOL    HW2 2277   1.701   0.541   5.225
  460SOL     OW 2278   1.336   0.341   4.945
  460SOL    HW1 2279   1.351   0.370   4.850
  460SOL    HW2 2280   1.381   0.254   4.961
  461SOL     OW 2281   6.307   4.562   6.042
  461SOL    HW1 2282   6.269   4.594   5.956
  461SOL    HW2 2283   6.403   4.539   6.030
  462SOL     OW 2284   3.779   3.732   5.544
  462SOL    HW1 2285   3.702   3.786   5.512
  462SOL    HW2 2286   3.785   3.648   5.491
  463SOL     OW 2287   0.640   0.377   3.776
  463SOL    HW1 2288   0.696   0.434   3.836
  463SOL    HW2 2289   0.544   0.404   3.786
  464SOL     OW 2290   2.843   0.699   5.841
  464SOL    HW1 2291   2.837   0.772   5.774
  464SOL    HW2 2292   2.937   0.664   5.844
  465SOL     OW 2293   0.312   2.486   0.033
  465SOL    HW1 2294   0.362   2.563   0.074
  465SOL    HW2 2295   0.375   2.433   6.996
  466SOL     OW 2296   2.770   6.552   4.196
  466SOL    HW1 2297   2.724   6.464   4.209
  466SOL    HW2 2298   2.868   6.537   4.188
  467SOL     OW 2299   1.512   1.604   2.918
  467SOL    HW1 2300   1.457   1.654   2.851
  467SOL    HW2 2301   1.556   1.526   2.874
  468SOL     OW 2302   4.027   5.560   5.561
  468SOL    HW1 2303   4.041   5.518   5.650
  468SOL    HW2 2304   4.023   5.660   5.572
  469SOL     OW 2305   3.073   3.903   5.665
  469SOL    HW1 2306   3.135   3.979   5.647
  469SOL    HW2 2307   3.111   3.819   5.625
  470SOL     OW 2308   3.910   5.900   1.524
  470SOL    HW1 2309   3.858   5.938   1.600
  470SOL    HW2 2310   3.928   5.803   1.540
  471SOL     OW 2311   3.000   2.168   4.172
  471SOL    HW1 2312   2.925   2.221   4.132
  471SOL    HW2 2313   2.978   2.145   4.267
  472SOL     OW 2314   5.809   4.543   6.913
  472SOL    HW1 2315   5.763   4.582   6.993
  472SOL    HW2 2316   5.828   4.616   6.847
  473SOL     OW 2317   1.007   2.115   2.033
  473SOL    HW1 2318   0.921   2.066   2.023
  473SOL    HW2 2319   1.029   2.161   1.947
  474SOL     OW 2320   5.662   5.622   5.549
  474SOL    HW1 2321   5.696   5.708   5.588
  474SOL    HW2 2322   5.670   5.550   5.618
  475SOL     OW 2323   6.029   3.288   0.450
  475SOL    HW1 2324   6.125   3.286   0.422
  475SOL    HW2 2325   5.986   3.201   0.428
  476SOL     OW 2326   0.060   3.542   2.230
  476SOL    HW1 2327   0.073   3.640   2.243
  476SOL    HW2 2328   0.129   3.491   2.283
  477SOL     OW 2329   2.861   5.857   3.566
  477SOL    HW1 2330   2.782   5.910   3.597
  477SOL    HW2 2331   2.925   5.917   3.518
  478SOL     OW 2332   3.898   6.246   3.445
  478SOL    HW1 2333   3.841   6.287   3.374
  478SOL    HW2 2334   3.921   6.315   3.513
  479SOL     OW 2335   3.827   3.114   5.292
  479SOL    HW1 2336   3.832   3.165   5.206
  479SOL    HW2 2337   3.733   3.115   5.326
  480SOL     OW 2338   2.840   0.197   1.372
  480SOL    HW1 2339   2.819   0.275   1.432
  480SOL    HW2 2340   2.841   0.227   1.277
  481SOL     OW 2341   0.670   6.418   1.647
  481SOL    HW1 2342   0.714   6.329   1.661
  481SOL    HW2 2343   0.632   6.421   1.554
  482SOL     OW 2344   4.688   5.119   2.895
  482SOL    HW1 2345   4.739   5.132   2.810
  482SOL    HW2 2346   4.706   5.027   2.931
  483SOL     OW 2347   0.004   2.239   2.428
  483SOL    HW1 2348   0.073   2.231   2.500
  483SOL    HW2 2349   6.991   2.148   2.403
  484SOL     OW 2350   1.586   4.218   4.795
  484SOL    HW1 2351   1.557   4.311   4.776
  484SOL    HW2 2352   1.538   4.155   4.733
  485SOL     OW 2353   4.930   4.922   2.633
  485SOL    HW1 2354   4.894   4.843   2.584
  485SOL    HW2 2355   5.012   4.955   2.586
  486SOL     OW 2356   5.838   1.768   6.880
  486SOL    HW1 2357   5.892   1.744   6.799
  486SOL    HW2 2358   5.895   1.760   6.961
  487SOL     OW 2359   0.773   0.582   2.916
  487SOL    HW1 2360   0.785   0.483   2.926
  487SOL    HW2 2361   0.846   0.629   2.967
  488SOL     OW 2362   0.791   6.545   2.235
  488SOL    HW1 2363   0.759   6.640   2.234
  488SOL    HW2 2364   0.742   6.491   2.167
  489SOL     OW 2365   6.075   5.721   5.274
  489SOL    HW1 2366   6.135   5.715   5.194
  489SOL    HW2 2367   6.106   5.657   5.344
  490SOL     OW 2368   1.622   5.917   3.847
  490SOL    HW1 2369   1.580   5.876   3.766
  490SOL    HW2 2370   1.563   5.903   3.926
  491SOL     OW 2371   1.211   3.492   1.228
  491SOL    HW1 2372   1.173   3.508   1.320
  491SOL    HW2 2373   1.295   3.544   1.217
  492SOL     OW 2374   1.464   1.054   5.679
  492SOL    HW1 2375   1.561   1.054   5.703
  492SOL    HW2 2376   1.454   1.027   5.583
  493SOL     OW 2377   2.482   6.891   5.692
  493SOL    HW1 2378   2.567   6.942   5.679
  493SOL    HW2 2379   2.407   6.938   5.646
  494SOL     OW 2380   1.729   1.427   6.585
  494SOL    HW1 2381   1.811   1.418   6.642
  494SOL    HW2 2382   1.670   1.348   6.599
  495SOL     OW 2383   3.537   6.589   4.206
  495SOL    HW1 2384   3.635   6.595   4.188
  495SOL    HW2 2385   3.503   6.501   4.174
  496SOL     OW 2386   6.500   2.137   1.704
  496SOL    HW1 2387   6.561   2.186   1.767
  496SOL    HW2 2388   6.406   2.146   1.734
  497SOL     OW 2389   3.307   1.202   4.919
  497SOL    HW1 2390   3.318   1.257   4.836
  497SOL    HW2 2391   3.328   1.258   4.999
  498SOL     OW 2392   0.769   4.573   2.498
  498SOL    HW1 2393   0.863   4.606   2.484
  498SOL    HW2 2394   0.722   4.632   2.563
  499SOL     OW 2395   1.708   5.306   5.023
  499SOL    HW1 2396   1.741   5.328   5.114
  499SOL    HW2 2397   1.682   5.390   4.976
  500SOL     OW 2398   5.389   2.770   0.049
  500SOL    HW1 2399   5.375   2.732   6.977
  500SOL    HW2 2400   5.441   2.855   0.042
  501SOL     OW 2401   4.181   6.941   1.233
  501SOL    HW1 2402   4.148   7.015   1.174
  501SOL    HW2 2403   4.166   6.853   1.188
  502SOL     OW 2404   0.668   4.599   6.604
  502SOL    HW1 2405   0.577   4.638   6.586
  502SOL    HW2 2406   0.658   4.512   6.652
  503SOL     OW 2407   1.988   4.929   6.257
  503SOL    HW1 2408   2.049   5.008   6.267
  503SOL    HW2 2409   1.933   4.939   6.174
  504SOL     OW 2410   1.087   5.470   1.819
  504SOL    HW1 2411   1.085   5.566   1.847
  504SOL    HW2 2412   0.994   5.439   1.796
  505SOL     OW 2413   4.483   6.825   4.789
  505SOL    HW1 2414   4.521   6.746   4.837
  505SOL    HW2 2415   4.408   6.864   4.843
  506SOL     OW 2416   2.925   6.188   2.165
  506SOL    HW1 2417   3.024   6.197   2.173
  506SOL    HW2 2418   2.903   6.099   2.125
  507SOL     OW 2419   3.807   6.755   2.618
  507SOL    HW1 2420   3.880   6.819   2.641
  507SOL    HW2 2421   3.814   6.730   2.521
  508SOL     OW 2422   0.108   2.561   2.583
  508SOL    HW1 2423   0.112   2.594   2.489
  508SOL    HW2 2424   0.150   2.469   2.588
  509SOL     OW 2425   3.520   1.242   0.433
  509SOL    HW1 2426   3.509   1.142   0.436
  509SOL    HW2 2427   3.564   1.268   0.347
  510SOL     OW 2428   6.646   4.434   6.186
  510SOL    HW1 2429   6.565   4.384   6.152
  510SOL    HW2 2430   6.727   4.401   6.137
  511SOL     OW 2431   0.881   2.204   6.736
  511SOL    HW1 2432   0.860   2.301   6.748
  511SOL    HW2 2433   0.802   2.149   6.764
  512SOL     OW 2434   6.330   2.526   0.046
  512SOL    HW1 2435   6.341   2.440   0.097
  512SOL    HW2 2436   6.247   2.521   7.011
  513SOL     OW 2437   5.272   6.856   3.132
  513SOL    HW1 2438   5.300   6.911   3.054
  513SOL    HW2 2439   5.175   6.870   3.151
  514SOL     OW 2440   6.608   0.363   4.204
  514SOL    HW1 2441   6.699   0.398   4.228
  514SOL    HW2 2442   6.551   0.361   4.286
  515SOL     OW 2443   1.999   0.529   0.098
  515SOL    HW1 2444   2.037   0.553   0.188
  515SOL    HW2 2445   1.949   0.442   0.105
  516SOL     OW 2446   2.829   4.780   2.422
  516SOL    HW1 2447   2.796   4.721   2.348
  516SOL    HW2 2448   2.912   4.826   2.393
  517SOL     OW 2449   3.446   4.712   1.568
  517SOL    HW1 2450   3.468   4.669   1.656
  517SOL    HW2 2451   3.356   4.681   1.538
  518SOL     OW 2452   2.744   2.041   3.900
  518SOL    HW1 2453   2.752   1.960   3.958
  518SOL    HW2 2454   2.656   2.085   3.916
  519SOL     OW 2455   0.141   6.546   3.820
  519SOL    HW1 2456   0.042   6.550   3.803
  519SOL    HW2 2457   0.184   6.486   3.753
  520SOL     OW 2458   0.074   3.512   6.851
  520SOL    HW1 2459   0.122   3.427   6.831
  520SOL    HW2 2460   7.011   3.518   6.794
  521SOL     OW 2461   5.379   5.271   4.882
  521SOL    HW1 2462   5.294   5.236   4.922
  521SOL    HW2 2463   5.358   5.347   4.821
  522SOL     OW 2464   4.084   3.662   2.970
  522SOL    HW1 2465   4.040   3.690   3.056
  522SOL    HW2 2466   4.172   3.708   2.962
  523SOL     OW 2467   6.919   5.696   1.855
  523SOL    HW1 2468   6.837   5.723   1.805
  523SOL    HW2 2469   6.959   5.615   1.813
  524SOL     OW 2470   1.793   2.648   2.526
  524SOL    HW1 2471   1.778   2.615   2.432
  524SOL    HW2 2472   1.708   2.639   2.578
  525SOL     OW 2473   1.598   3.930   6.212
  525SOL    HW1 2474   1.570   4.025   6.206
  525SOL    HW2 2475   1.672   3.921   6.278
  526SOL     OW 2476   3.229   6.636   4.012
  526SOL    HW1 2477   3.290   6.557   4.009
  526SOL    HW2 2478   3.273   6.714   3.969
  527SOL     OW 2479   0.442   2.272   0.741
  527SOL    HW1 2480   0.362   2.281   0.682
  527SOL    HW2 2481   0.519   2.321   0.701
  528SOL     OW 2482   1.616   2.844   3.952
  528SOL    HW1 2483   1.689   2.780   3.975
  528SOL    HW2 2484   1.538   2.828   4.012
  529SOL     OW 2485   1.743   6.767   4.995
  529SOL    HW1 2486   1.806   6.773   4.917
  529SOL    HW2 2487   1.796   6.756   5.079
  530SOL     OW 2488   4.130   3.513   2.685
  530SOL    HW1 2489   4.089   3.423   2.674
  530SOL    HW2 2490   4.120   3.543   2.780
  531SOL     OW 2491   1.323   0.821   3.068
  531SOL    HW1 2492   1.335   0.914   3.033
  531SOL    HW2 2493   1.362   0.756   3.003
  532SOL     OW 2494   1.352   3.579   0.417
  532SOL    HW1 2495   1.379   3.488   0.446
  532SOL    HW2 2496   1.310   3.628   0.494
  533SOL     OW 2497   4.747   6.817   3.310
  533SOL    HW1 2498   4.718   6.731   3.352
  533SOL    HW2 2499   4.747   6.889   3.380
  534SOL     OW 2500   6.082   6.079   2.659
  534SOL    HW1 2501   6.102   6.043   2.568
  534SOL    HW2 2502   6.021   6.017   2.707
  535SOL     OW 2503   6.832   4.169   2.755
  535SOL    HW1 2504   6.785   4.087   2.720
  535SOL    HW2 2505   6.794   4.193   2.844
  536SOL     OW 2506   5.965   4.850   2.450
  536SOL    HW1 2507   5.987   4.938   2.493
  536SOL    HW2 2508   6.041   4.822   2.392
  537SOL     OW 2509   3.699   0.601   4.360
  537SOL    HW1 2510   3.716   0.694   4.392
  537SOL    HW2 2511   3.711   0.597   4.260
  538SOL     OW 2512   0.822   4.477   4.341
  538SOL    HW1 2513   0.761   4.420   4.396
  538SOL    HW2 2514   0.884   4.527   4.401
  539SOL     OW 2515   1.941   5.327   2.021
  539SOL    HW1 2516   1.941   5.419   2.060
  539SOL    HW2 2517   2.016   5.319   1.955
  540SOL     OW 2518   1.670   1.041   3.366
  540SOL    HW1 2519   1.681   0.947   3.399
  540SOL    HW2 2520   1.577   1.053   3.330
  541SOL     OW 2521   4.967   5.486   3.758
  541SOL    HW1 2522   4.915   5.488   3.844
  541SOL    HW2 2523   5.022   5.403   3.755
  542SOL     OW 2524   4.000   6.366   0.044
  542SOL    HW1 2525   4.055   6.433   0.094
  542SOL    HW2 2526   3.915   6.409   0.014
  543SOL     OW 2527   6.168   3.635   3.595
  543SOL    HW1 2528   6.255   3.600   3.561
  543SOL    HW2 2529   6.149   3.595   3.685
  544SOL     OW 2530   0.668   5.222   0.019
  544SOL    HW1 2531   0.576   5.238   0.054
  544SOL    HW2 2532   0.676   5.263   6.948
  545SOL     OW 2533   3.909   0.849   1.565
  545SOL    HW1 2534   3.816   0.874   1.537
  545SOL    HW2 2535   3.911   0.753   1.592
  546SOL     OW 2536   1.506   4.064   1.796
  546SOL    HW1 2537   1.551   4.028   1.878
  546SOL    HW2 2538   1.463   4.152   1.817
  547SOL     OW 2539   3.308   2.470   1.210
  547SOL    HW1 2540   3.214   2.481   1.176
  547SOL    HW2 2541   3.308   2.402   1.284
  548SOL     OW 2542   3.228   3.582   1.748
  548SOL    HW1 2543   3.185   3.523   1.817
  548SOL    HW2 2544   3.240   3.674   1.786
  549SOL     OW 2545   5.232   2.161   1.585
  549SOL    HW1 2546   5.171   2.162   1.664
  549SOL    HW2 2547   5.177   2.161   1.501
  550SOL     OW 2548   1.122   5.369   3.408
  550SOL    HW1 2549   1.087   5.300   3.346
  550SOL    HW2 2550   1.195   5.420   3.363
  551SOL     OW 2551   0.430   0.163   1.629
  551SOL    HW1 2552   0.395   0.155   1.723
  551SOL    HW2 2553   0.407   0.081   1.578
  552SOL     OW 2554   5.847   4.489   6.348
  552SOL    HW1 2555   5.777   4.428   6.387
  552SOL    HW2 2556   5.831   4.498   6.250
  553SOL     OW 2557   2.692   6.823   4.159
  553SOL    HW1 2558   2.732   6.732   4.149
  553SOL    HW2 2559   2.618   6.820   4.226
  554SOL     OW 2560   5.799   6.939   0.316
  554SOL    HW1 2561   5.810   0.010   0.277
  554SOL    HW2 2562   5.852   6.873   0.262
  555SOL     OW 2563   3.143   4.899   4.991
  555SOL    HW1 2564   3.127   4.844   5.074
  555SOL    HW2 2565   3.089   4.860   4.916
  556SOL     OW 2566   4.871   1.954   4.118
  556SOL    HW1 2567   4.846   2.015   4.193
  556SOL    HW2 2568   4.862   2.003   4.031
  557SOL     OW 2569   6.469   5.446   6.981
  557SOL    HW1 2570   6.517   5.452   0.049
  557SOL    HW2 2571   6.529   5.480   6.908
  558SOL     OW 2572   3.501   2.982   3.613
  558SOL    HW1 2573   3.583   2.967   3.668
  558SOL    HW2 2574   3.419   2.965   3.668
  559SOL     OW 2575   0.071   5.507   5.544
  559SOL    HW1 2576   0.027   5.536   5.460
  559SOL    HW2 2577   0.003   5.469   5.606
  560SOL     OW 2578   6.519   3.856   3.694
  560SOL    HW1 2579   6.479   3.829   3.606
  560SOL    HW2 2580   6.586   3.787   3.722
  561SOL     OW 2581   0.311   1.909   0.870
  561SOL    HW1 2582   0.235   1.956   0.824
  561SOL    HW2 2583   0.369   1.976   0.916
  562SOL     OW 2584   4.107   0.219   6.337
  562SOL    HW1 2585   4.097   0.310   6.298
  562SOL    HW2 2586   4.203   0.203   6.361
  563SOL     OW 2587   2.859   1.272   3.967
  563SOL    HW1 2588   2.789   1.243   4.032
  563SOL    HW2 2589   2.820   1.274   3.875
  564SOL     OW 2590   0.824   3.594   6.980
  564SOL    HW1 2591   0.859   3.502   6.961
  564SOL    HW2 2592   0.887   3.662   6.943
  565SOL     OW 2593   3.438   3.608   4.374
  565SOL    HW1 2594   3.511   3.610   4.305
  565SOL    HW2 2595   3.432   3.697   4.418
  566SOL     OW 2596   0.756   3.371   3.250
  566SOL    HW1 2597   0.660   3.347   3.240
  566SOL    HW2 2598   0.769   3.468   3.229
  567SOL     OW 2599   3.153   2.839   1.237
  567SOL    HW1 2600   3.222   2.891   1.186
  567SOL    HW2 2601   3.196   2.797   1.318
  568SOL     OW 2602   4.191   0.118   0.354
  568SOL    HW1 2603   4.248   0.048   0.310
  568SOL    HW2 2604   4.229   0.209   0.334
  569SOL     OW 2605   1.104   3.465   0.550
  569SOL    HW1 2606   1.127   3.371   0.525
  569SOL    HW2 2607   1.038   3.503   0.485
  570SOL     OW 2608   3.657   0.479   6.496
  570SOL    HW1 2609   3.563   0.511   6.487
  570SOL    HW2 2610   3.670   0.437   6.586
  571SOL     OW 2611   3.223   4.887   3.244
  571SOL    HW1 2612   3.151   4.842   3.298
  571SOL    HW2 2613   3.192   4.897   3.149
  572SOL     OW 2614   2.479   5.270   4.982
  572SOL    HW1 2615   2.388   5.234   4.964
  572SOL    HW2 2616   2.533   5.202   5.031
  573SOL     OW 2617   5.693   0.965   5.928
  573SOL    HW1 2618   5.644   0.994   5.846
  573SOL    HW2 2619   5.656   1.015   6.007
  574SOL     OW 2620   3.512   1.211   4.546
  574SOL    HW1 2621   3.571   1.279   4.503
  574SOL    HW2 2622   3.569   1.142   4.591
  575SOL     OW 2623   4.370   3.181   1.626
  575SOL    HW1 2624   4.455   3.231   1.646
  575SOL    HW2 2625   4.379   3.087   1.659
  576SOL     OW 2626   1.449   2.847   2.791
  576SOL    HW1 2627   1.508   2.892   2.859
  576SOL    HW2 2628   1.354   2.848   2.823
  577SOL     OW 2629   1.571   0.995   2.310
  577SOL    HW1 2630   1.550   1.093   2.316
  577SOL    HW2 2631   1.491   0.946   2.274
  578SOL     OW 2632   6.981   5.313   4.338
  578SOL    HW1 2633   6.975   5.255   4.257
  578SOL    HW2 2634   0.038   5.282   4.395
  579SOL     OW 2635   1.734   3.108   3.636
  579SOL    HW1 2636   1.750   3.185   3.575
  579SOL    HW2 2637   1.742   3.138   3.731
  580SOL     OW 2638   4.222   5.040   5.376
  580SOL    HW1 2639   4.259   5.070   5.288
  580SOL    HW2 2640   4.159   5.110   5.411
  581SOL     OW 2641   1.588   2.954   1.906
  581SOL    HW1 2642   1.687   2.945   1.892
  581SOL    HW2 2643   1.564   2.920   1.997
  582SOL     OW 2644   4.940   5.696   2.528
  582SOL    HW1 2645   4.968   5.704   2.433
  582SOL    HW2 2646   4.964   5.780   2.577
  583SOL     OW 2647   2.695   6.540   4.830
  583SOL    HW1 2648   2.658   6.633   4.827
  583SOL    HW2 2649   2.784   6.539   4.784
  584SOL     OW 2650   2.956   6.213   6.666
  584SOL    HW1 2651   2.937   6.146   6.594
  584SOL    HW2 2652   3.031   6.180   6.724
  585SOL     OW 2653   4.316   1.436   6.622
  585SOL    HW1 2654   4.313   1.529   6.585
  585SOL    HW2 2655   4.252   1.378   6.572
  586SOL     OW 2656   3.137   0.266   6.292
  586SOL    HW1 2657   3.054   0.273   6.347
  586SOL    HW2 2658   3.214   0.238   6.350
  587SOL     OW 2659   4.772   2.327   3.916
  587SOL    HW1 2660   4.727   2.383   3.985
  587SOL    HW2 2661   4.733   2.345   3.826
  588SOL     OW 2662   2.726   4.985   1.599
  588SOL    HW1 2663   2.628   4.993   1.620
  588SOL    HW2 2664   2.742   5.010   1.504
  589SOL     OW 2665   3.468   5.067   1.602
  589SOL    HW1 2666   3.402   5.118   1.657
  589SOL    HW2 2667   3.506   4.992   1.656
  590SOL     OW 2668   5.251   2.518   1.508
  590SOL    HW1 2669   5.249   2.427   1.550
  590SOL    HW2 2670   5.260   2.508   1.409
  591SOL     OW 2671   3.852   5.836   3.413
  591SOL    HW1 2672   3.818   5.901   3.481
  591SOL    HW2 2673   3.952   5.838   3.413
  592SOL     OW 2674   4.389   0.798   1.445
  592SOL    HW1 2675   4.459   0.781   1.375
  592SOL    HW2 2676   4.319   0.858   1.409
  593SOL     OW 2677   4.591   2.503   4.021
  593SOL    HW1 2678   4.610   2.587   4.072
  593SOL    HW2 2679   4.508   2.460   4.057
  594SOL     OW 2680   5.479   0.868   0.591
  594SOL    HW1 2681   5.490   0.863   0.690
  594SOL    HW2 2682   5.562   0.905   0.550
  595SOL     OW 2683   5.914   0.438   3.452
  595SOL    HW1 2684   5.971   0.403   3.377
  595SOL    HW2 2685   5.897   0.365   3.517
  596SOL     OW 2686   0.340   5.021   3.379
  596SOL    HW1 2687   0.296   5.111   3.375
  596SOL    HW2 2688   0.367   5.001   3.473
  597SOL     OW 2689   2.100   0.235   6.901
  597SOL    HW1 2690   2.144   0.166   6.843
  597SOL    HW2 2691   2.048   0.190   6.973
  598SOL     OW 2692   3.673   4.106   4.795
  598SOL    HW1 2693   3.688   4.041   4.870
  598SOL    HW2 2694   3.593   4.162   4.814
  599SOL     OW 2695   2.924   5.712   2.924
  599SOL    HW1 2696   2.911   5.697   3.022
  599SOL    HW2 2697   2.884   5.637   2.872
  600SOL     OW 2698   5.947   2.038   6.781
  600SOL    HW1 2699   5.983   1.956   6.736
  600SOL    HW2 2700   5.855   2.058   6.746
  601SOL     OW 2701   1.510   1.120   3.896
  601SOL    HW1 2702   1.564   1.199   3.923
  601SOL    HW2 2703   1.423   1.121   3.947
  602SOL     OW 2704   1.275   1.099   6.643
  602SOL    HW1 2705   1.290   1.001   6.641
  602SOL    HW2 2706   1.181   1.119   6.615
  603SOL     OW 2707   2.985   2.903   5.338
  603SOL    HW1 2708   3.033   2.815   5.340
  603SOL    HW2 2709   2.933   2.915   5.423
  604SOL     OW 2710   0.611   1.693   1.517
  604SOL    HW1 2711   0.568   1.603   1.518
  604SOL    HW2 2712   0.540   1.764   1.511
  605SOL     OW 2713   6.829   5.047   0.039
  605SOL    HW1 2714   6.838   5.146   0.030
  605SOL    HW2 2715   6.846   5.020   0.133
  606SOL     OW 2716   5.132   6.396   5.447
  606SOL    HW1 2717   5.081   6.478   5.473
  606SOL    HW2 2718   5.161   6.347   5.530
  607SOL     OW 2719   6.329   4.881   5.264
  607SOL    HW1 2720   6.363   4.973   5.286
  607SOL    HW2 2721   6.364   4.816   5.332
  608SOL     OW 2722   4.174   6.506   6.602
  608SOL    HW1 2723   4.170   6.433   6.670
  608SOL    HW2 2724   4.267   6.514   6.568
  609SOL     OW 2725   3.978   3.083   2.576
  609SOL    HW1 2726   4.008   3.137   2.655
  609SOL    HW2 2727   3.929   3.002   2.608
  610SOL     OW 2728   6.022   3.506   0.886
  610SOL    HW1 2729   5.922   3.498   0.881
  610SOL    HW2 2730   6.048   3.546   0.974
  611SOL     OW 2731   4.891   6.922   1.703
  611SOL    HW1 2732   4.937   6.988   1.762
  611SOL    HW2 2733   4.804   6.896   1.744
  612SOL     OW 2734   3.992   5.678   4.595
  612SOL    HW1 2735   4.015   5.731   4.676
  612SOL    HW2 2736   3.903   5.707   4.559
  613SOL     OW 2737   5.152   5.119   4.930
  613SOL    HW1 2738   5.083   5.161   4.989
  613SOL    HW2 2739   5.118   5.031   4.896
  614SOL     OW 2740   5.182   5.553   6.469
  614SOL    HW1 2741   5.263   5.612   6.468
  614SOL    HW2 2742   5.100   5.609   6.463
  615SOL     OW 2743   6.809   1.848   1.646
  615SOL    HW1 2744   6.868   1.845   1.565
  615SOL    HW2 2745   6.845   1.915   1.711
  616SOL     OW 2746   0.438   3.164   2.579
  616SOL    HW1 2747   0.475   3.158   2.672
  616SOL    HW2 2748   0.340   3.184   2.583
  617SOL     OW 2749   0.168   4.342   6.389
  617SOL    HW1 2750   0.221   4.260   6.367
  617SOL    HW2 2751   0.131   4.381   6.305
  618SOL     OW 2752   0.312   2.689   0.753
  618SOL    HW1 2753   0.353   2.769   0.797
  618SOL    HW2 2754   0.293   2.710   0.657
  619SOL     OW 2755   3.680   1.334   0.232
  619SOL    HW1 2756   3.779   1.351   0.234
  619SOL    HW2 2757   3.636   1.403   0.174
  620SOL     OW 2758   4.105   2.627   1.658
  620SOL    HW1 2759   4.128   2.552   1.719
  620SOL    HW2 2760   4.017   2.608   1.613
  621SOL     OW 2761   2.576   6.759   6.774
  621SOL    HW1 2762   2.591   6.858   6.785
  621SOL    HW2 2763   2.486   6.744   6.734
  622SOL     OW 2764   1.376   0.854   6.213
  622SOL    HW1 2765   1.430   0.930   6.250
  622SOL    HW2 2766   1.298   0.836   6.272
  623SOL     OW 2767   0.794   5.384   5.925
  623SOL    HW1 2768   0.851   5.450   5.877
  623SOL    HW2 2769   0.830   5.370   6.018
  624SOL     OW 2770   0.110   2.515   0.679
  624SOL    HW1 2771   0.187   2.564   0.717
  624SOL    HW2 2772   0.140   2.425   0.646
  625SOL     OW 2773   2.254   1.299   1.234
  625SOL    HW1 2774   2.280   1.396   1.227
  625SOL    HW2 2775   2.170   1.283   1.181
  626SOL     OW 2776   2.437   5.902   3.477
  626SOL    HW1 2777   2.428   5.976   3.412
  626SOL    HW2 2778   2.414   5.815   3.433
  627SOL     OW 2779   4.991   6.775   0.360
  627SOL    HW1 2780   4.931   6.850   0.333
  627SOL    HW2 2781   5.071   6.774   0.301
  628SOL     OW 2782   6.132   5.538   5.490
  628SOL    HW1 2783   6.177   5.451   5.469
  628SOL    HW2 2784   6.057   5.522   5.554
  629SOL     OW 2785   6.949   0.166   0.375
  629SOL    HW1 2786   0.003   0.234   0.379
  629SOL    HW2 2787   6.868   0.206   0.333
  630SOL     OW 2788   6.622   1.644   2.056
  630SOL    HW1 2789   6.574   1.568   2.013
  630SOL    HW2 2790   6.602   1.728   2.005
  631SOL     OW 2791   3.255   6.489   4.901
  631SOL    HW1 2792   3.167   6.522   4.936
  631SOL    HW2 2793   3.242   6.400   4.858
  632SOL     OW 2794   2.433   1.448   0.384
  632SOL    HW1 2795   2.468   1.538   0.357
  632SOL    HW2 2796   2.334   1.451   0.391
  633SOL     OW 2797   5.049   4.529   7.001
  633SOL    HW1 2798   4.969   4.565   6.953
  633SOL    HW2 2799   5.100   4.604   0.022
  634SOL     OW 2800   4.754   4.405   1.790
  634SOL    HW1 2801   4.691   4.342   1.835
  634SOL    HW2 2802   4.704   4.462   1.725
  635SOL     OW 2803   4.646   5.150   0.808
  635SOL    HW1 2804   4.687   5.242   0.804
  635SOL    HW2 2805   4.604   5.136   0.897
  636SOL     OW 2806   4.576   5.479   6.341
  636SOL    HW1 2807   4.623   5.543   6.279
  636SOL    HW2 2808   4.514   5.530   6.401
  637SOL     OW 2809   6.559   3.549   2.329
  637SOL    HW1 2810   6.569   3.635   2.279
  637SOL    HW2 2811   6.629   3.544   2.400
  638SOL     OW 2812   5.490   2.466   2.376
  638SOL    HW1 2813   5.566   2.516   2.333
  638SOL    HW2 2814   5.448   2.524   2.445
  639SOL     OW 2815   5.081   4.016   2.759
  639SOL    HW1 2816   5.140   4.004   2.679
  639SOL    HW2 2817   5.095   4.107   2.797
  640SOL     OW 2818   0.756   4.859   4.064
  640SOL    HW1 2819   0.680   4.795   4.056
  640SOL    HW2 2820   0.809   4.838   4.147
  641SOL     OW 2821   0.499   5.793   4.414
  641SOL    HW1 2822   0.421   5.841   4.454
  641SOL    HW2 2823   0.562   5.765   4.487
  642SOL     OW 2824   0.313   3.622   4.862
  642SOL    HW1 2825   0.283   3.613   4.957
  642SOL    HW2 2826   0.387   3.689   4.857
  643SOL     OW 2827   4.928   5.342   5.062
  643SOL    HW1 2828   4.847   5.385   5.021
  643SOL    HW2 2829   4.902   5.301   5.149
  644SOL     OW 2830   1.498   6.026   4.262
  644SOL    HW1 2831   1.539   5.981   4.341
  644SOL    HW2 2832   1.426   6.089   4.292
  645SOL     OW 2833   5.422   1.512   4.640
  645SOL    HW1 2834   5.398   1.549   4.551
  645SOL    HW2 2835   5.490   1.570   4.684
  646SOL     OW 2836   3.132   1.276   3.499
  646SOL    HW1 2837   3.165   1.235   3.584
  646SOL    HW2 2838   3.210   1.297   3.440
  647SOL     OW 2839   5.374   2.101   5.445
  647SOL    HW1 2840   5.380   2.186   5.393
  647SOL    HW2 2841   5.326   2.118   5.531
  648SOL     OW 2842   6.792   4.115   3.338
  648SOL    HW1 2843   6.810   4.136   3.434
  648SOL    HW2 2844   6.709   4.163   3.309
  649SOL     OW 2845   3.641   3.809   0.263
  649SOL    HW1 2846   3.728   3.797   0.311
  649SOL    HW2 2847   3.573   3.846   0.327
  650SOL     OW 2848   5.919   4.802   0.817
  650SOL    HW1 2849   5.912   4.759   0.907
  650SOL    HW2 2850   5.827   4.812   0.778
  651SOL     OW 2851   6.505   6.570   6.793
  651SOL    HW1 2852   6.434   6.564   6.862
  651SOL    HW2 2853   6.489   6.502   6.721
  652SOL     OW 2854   5.484   6.126   3.883
  652SOL    HW1 2855   5.552   6.075   3.935
  652SOL    HW2 2856   5.417   6.063   3.845
  653SOL     OW 2857   3.405   6.640   4.737
  653SOL    HW1 2858   3.375   6.574   4.805
  653SOL    HW2 2859   3.421   6.594   4.649
  654SOL     OW 2860   0.095   4.015   5.407
  654SOL    HW1 2861   0.008   4.033   5.362
  654SOL    HW2 2862   0.079   3.964   5.492
  655SOL     OW 2863   0.950   6.907   1.661
  655SOL    HW1 2864   0.909   6.817   1.679
  655SOL    HW2 2865   1.042   6.910   1.700
  656SOL     OW 2866   1.817   6.024   1.756
  656SOL    HW1 2867   1.916   6.030   1.763
  656SOL    HW2 2868   1.791   5.939   1.711
  657SOL     OW 2869   1.412   2.087   2.090
  657SOL    HW1 2870   1.392   2.184   2.098
  657SOL    HW2 2871   1.326   2.035   2.088
  658SOL     OW 2872   2.564   3.737   6.705
  658SOL    HW1 2873   2.551   3.640   6.726
  658SOL    HW2 2874   2.491   3.790   6.748
  659SOL     OW 2875   2.346   6.048   5.871
  659SOL    HW1 2876   2.367   5.952   5.890
  659SOL    HW2 2877   2.412   6.084   5.805
  660SOL     OW 2878   5.012   4.392   1.946
  660SOL    HW1 2879   4.925   4.357   1.912
  660SOL    HW2 2880   5.004   4.490   1.964
  661SOL     OW 2881   4.071   5.953   3.742
  661SOL    HW1 2882   4.093   5.867   3.787
  661SOL    HW2 2883   4.005   6.004   3.798
  662SOL     OW 2884   4.063   0.497   5.430
  662SOL    HW1 2885   4.053   0.595   5.447
  662SOL    HW2 2886   3.977   0.459   5.397
  663SOL     OW 2887   2.291   4.072   6.215
  663SOL    HW1 2888   2.317   4.146   6.277
  663SOL    HW2 2889   2.374   4.031   6.175
  664SOL     OW 2890   0.243   5.760   5.954
  664SOL    HW1 2891   0.279   5.837   6.007
  664SOL    HW2 2892   0.167   5.718   6.004
  665SOL     OW 2893   4.699   5.449   2.067
  665SOL    HW1 2894   4.726   5.359   2.033
  665SOL    HW2 2895   4.602   5.448   2.091
  666SOL     OW 2896   5.608   2.201   2.406
  666SOL    HW1 2897   5.706   2.203   2.425
  666SOL    HW2 2898   5.575   2.294   2.391
  667SOL     OW 2899   1.514   4.664   3.268
  667SOL    HW1 2900   1.482   4.698   3.180
  667SOL    HW2 2901   1.517   4.564   3.267
  668SOL     OW 2902   4.774   6.339   5.554
  668SOL    HW1 2903   4.796   6.359   5.458
  668SOL    HW2 2904   4.832   6.264   5.587
  669SOL     OW 2905   4.586   0.464   2.799
  669SOL    HW1 2906   4.519   0.402   2.759
  669SOL    HW2 2907   4.558   0.558   2.783
  670SOL     OW 2908   3.218   2.582   1.653
  670SOL    HW1 2909   3.261   2.654   1.707
  670SOL    HW2 2910   3.255   2.493   1.680
  671SOL     OW 2911   2.248   6.531   0.608
  671SOL    HW1 2912   2.304   6.550   0.689
  671SOL    HW2 2913   2.304   6.544   0.526
  672SOL     OW 2914   0.269   5.462   1.807
  672SOL    HW1 2915   0.307   5.378   1.847
  672SOL    HW2 2916   0.339   5.532   1.803
  673SOL     OW 2917   6.941   0.026   1.452
  673SOL    HW1 2918   6.896   0.063   1.533
  673SOL    HW2 2919   7.003   0.095   1.414
  674SOL     OW 2920   0.775   1.351   5.430
  674SOL    HW1 2921   0.770   1.357   5.330
  674SOL    HW2 2922   0.767   1.443   5.468
  675SOL     OW 2923   0.275   1.017   2.619
  675SOL    HW1 2924   0.304   0.948   2.552
  675SOL    HW2 2925   0.330   1.010   2.701
  676SOL     OW 2926   3.509   5.615   2.419
  676SOL    HW1 2927   3.415   5.591   2.446
  676SOL    HW2 2928   3.573   5.554   2.465
  677SOL     OW 2929   5.293   1.573   0.745
  677SOL    HW1 2930   5.291   1.670   0.720
  677SOL    HW2 2931   5.231   1.522   0.685
  678SOL     OW 2932   2.531   0.113   5.381
  678SOL    HW1 2933   2.441   0.126   5.421
  678SOL    HW2 2934   2.563   0.020   5.399
  679SOL     OW 2935   4.545   2.483   3.342
  679SOL    HW1 2936   4.512   2.394   3.311
  679SOL    HW2 2937   4.626   2.509   3.290
  680SOL     OW 2938   5.530   5.306   5.175
  680SOL    HW1 2939   5.505   5.397   5.142
  680SOL    HW2 2940   5.450   5.245   5.169
  681SOL     OW 2941   5.011   4.806   1.743
  681SOL    HW1 2942   5.011   4.747   1.662
  681SOL    HW2 2943   5.005   4.902   1.714
  682SOL     OW 2944   6.304   1.032   1.333
  682SOL    HW1 2945   6.248   1.101   1.287
  682SOL    HW2 2946   6.366   0.991   1.267
  683SOL     OW 2947   4.887   3.162   0.373
  683SOL    HW1 2948   4.904   3.121   0.463
  683SOL    HW2 2949   4.861   3.090   0.308
  684SOL     OW 2950   6.671   1.061   0.490
  684SOL    HW1 2951   6.593   1.005   0.461
  684SOL    HW2 2952   6.751   1.038   0.434
  685SOL     OW 2953   4.519   1.610   3.649
  685SOL    HW1 2954   4.436   1.557   3.638
  685SOL    HW2 2955   4.509   1.673   3.727
  686SOL     OW 2956   5.038   2.568   3.704
  686SOL    HW1 2957   5.095   2.637   3.749
  686SOL    HW2 2958   5.049   2.480   3.750
  687SOL     OW 2959   0.440   2.439   4.765
  687SOL    HW1 2960   0.450   2.519   4.824
  687SOL    HW2 2961   0.349   2.438   4.725
  688SOL     OW 2962   0.253   1.715   0.085
  688SOL    HW1 2963   0.294   1.757   0.004
  688SOL    HW2 2964   0.177   1.657   0.058
  689SOL     OW 2965   0.906   4.881   6.338
  689SOL    HW1 2966   0.868   4.882   6.431
  689SOL    HW2 2967   0.832   4.885   6.272
  690SOL     OW 2968   0.345   3.408   2.900
  690SOL    HW1 2969   0.411   3.471   2.942
  690SOL    HW2 2970   0.291   3.457   2.832
  691SOL     OW 2971   2.620   0.734   0.397
  691SOL    HW1 2972   2.692   0.665   0.385
  691SOL    HW2 2973   2.620   0.795   0.318
  692SOL     OW 2974   3.991   0.688   3.561
  692SOL    HW1 2975   3.998   0.607   3.619
  692SOL    HW2 2976   3.947   0.762   3.613
  693SOL     OW 2977   5.605   0.568   4.138
  693SOL    HW1 2978   5.684   0.616   4.176
  693SOL    HW2 2979   5.634   0.516   4.058
  694SOL     OW 2980   4.558   6.645   4.114
  694SOL    HW1 2981   4.498   6.698   4.174
  694SOL    HW2 2982   4.584   6.700   4.034
  695SOL     OW 2983   4.875   6.400   4.525
  695SOL    HW1 2984   4.941   6.359   4.462
  695SOL    HW2 2985   4.799   6.439   4.473
  696SOL     OW 2986   4.637   5.066   3.168
  696SOL    HW1 2987   4.676   4.975   3.152
  696SOL    HW2 2988   4.657   5.125   3.090
  697SOL     OW 2989   1.286   3.993   3.493
  697SOL    HW1 2990   1.308   3.939   3.412
  697SOL    HW2 2991   1.351   3.971   3.566
  698SOL     OW 2992   4.641   6.349   1.032
  698SOL    HW1 2993   4.691   6.431   1.059
  698SOL    HW2 2994   4.606   6.302   1.113
  699SOL     OW 2995   1.955   3.951   6.725
  699SOL    HW1 2996   1.956   3.907   6.815
  699SOL    HW2 2997   1.887   4.024   6.724
  700SOL     OW 2998   2.584   0.800   1.968
  700SOL    HW1 2999   2.669   0.790   2.019
  700SOL    HW2 3000   2.522   0.859   2.019
  701SOL     OW 3001   6.522   3.693   6.566
  701SOL    HW1 3002   6.502   3.785   6.600
  701SOL    HW2 3003   6.480   3.682   6.476
  702SOL     OW 3004   1.767   6.449   5.072
  702SOL    HW1 3005   1.752   6.547   5.060
  702SOL    HW2 3006   1.770   6.427   5.169
  703SOL     OW 3007   3.489   2.965   6.408
  703SOL    HW1 3008   3.544   3.027   6.352
  703SOL    HW2 3009   3.398   3.005   6.422
  704SOL     OW 3010   1.424   2.771   0.070
  704SOL    HW1 3011   1.344   2.749   0.014
  704SOL    HW2 3012   1.435   2.870   0.074
  705SOL     OW 3013   6.002   5.036   2.981
  705SOL    HW1 3014   6.073   5.104   2.959
  705SOL    HW2 3015   5.977   5.044   3.077
  706SOL     OW 3016   4.444   2.231   5.163
  706SOL    HW1 3017   4.410   2.161   5.102
  706SOL    HW2 3018   4.515   2.192   5.223
  707SOL     OW 3019   4.360   4.692   3.009
  707SOL    HW1 3020   4.377   4.599   2.979
  707SOL    HW2 3021   4.425   4.717   3.081
  708SOL     OW 3022   3.434   0.653   2.332
  708SOL    HW1 3023   3.508   0.596   2.367
  708SOL    HW2 3024   3.362   0.662   2.401
  709SOL     OW 3025   0.273   5.771   0.689
  709SOL    HW1 3026   0.321   5.822   0.761
  709SOL    HW2 3027   0.306   5.801   0.600
  710SOL     OW 3028   3.679   2.656   1.322
  710SOL    HW1 3029   3.627   2.581   1.363
  710SOL    HW2 3030   3.635   2.743   1.344
  711SOL     OW 3031   7.014   3.059   6.002
  711SOL    HW1 3032   0.027   3.009   5.922
  711SOL    HW2 3033   0.043   3.028   6.083
  712SOL     OW 3034   3.944   2.074   1.223
  712SOL    HW1 3035   4.031   2.025   1.214
  712SOL    HW2 3036   3.892   2.038   1.300
  713SOL     OW 3037   3.839   2.795   6.364
  713SOL    HW1 3038   3.850   2.872   6.301
  713SOL    HW2 3039   3.771   2.731   6.329
  714SOL     OW 3040   0.688   4.491   3.292
  714SOL    HW1 3041   0.730   4.481   3.382
  714SOL    HW2 3042   0.609   4.551   3.298
  715SOL     OW 3043   5.028   6.342   0.093
  715SOL    HW1 3044   5.035   6.333   0.192
  715SOL    HW2 3045   5.106   6.296   0.050
  716SOL     OW 3046   0.393   0.930   2.180
  716SOL    HW1 3047   0.446   0.969   2.104
  716SOL    HW2 3048   0.323   0.996   2.209
  717SOL     OW 3049   6.476   4.339   3.564
  717SOL    HW1 3050   6.532   4.290   3.631
  717SOL    HW2 3051   6.472   4.436   3.588
  718SOL     OW 3052   4.175   3.388   6.206
  718SOL    HW1 3053   4.219   3.299   6.222
  718SOL    HW2 3054   4.167   3.404   6.108
  719SOL     OW 3055   6.846   0.492   2.878
  719SOL    HW1 3056   6.879   0.397   2.873
  719SOL    HW2 3057   6.919   0.550   2.914
  720SOL     OW 3058   2.317   0.267   6.004
  720SOL    HW1 3059   2.310   0.230   5.911
  720SOL    HW2 3060   2.227   0.262   6.048
  721SOL     OW 3061   2.894   1.931   2.601
  721SOL    HW1 3062   2.954   1.870   2.549
  721SOL    HW2 3063   2.814   1.881   2.633
  722SOL     OW 3064   2.712   0.556   5.236
  722SOL    HW1 3065   2.652   0.490   5.192
  722SOL    HW2 3066   2.678   0.649   5.219
  723SOL     OW 3067   1.515   4.560   3.584
  723SOL    HW1 3068   1.485   4.508   3.504
  723SOL    HW2 3069   1.570   4.638   3.554
  724SOL     OW 3070   1.143   1.685   4.257
  724SOL    HW1 3071   1.044   1.699   4.265
  724SOL    HW2 3072   1.186   1.769   4.224
  725SOL     OW 3073   1.936   5.564   2.159
  725SOL    HW1 3074   1.957   5.644   2.103
  725SOL    HW2 3075   1.850   5.579   2.208
  726SOL     OW 3076   3.594   4.299   1.431
  726SOL    HW1 3077   3.674   4.282   1.374
  726SOL    HW2 3078   3.560   4.392   1.416
  727SOL     OW 3079   6.564   4.424   5.276
  727SOL    HW1 3080   6.599   4.463   5.361
  727SOL    HW2 3081   6.602   4.474   5.198
  728SOL     OW 3082   6.407   2.699   3.296
  728SOL    HW1 3083   6.342   2.655   3.358
  728SOL    HW2 3084   6.357   2.738   3.218
  729SOL     OW 3085   0.325   1.889   1.225
  729SOL    HW1 3086   0.419   1.924   1.227
  729SOL    HW2 3087   0.291   1.882   1.319
  730SOL     OW 3088   6.527   0.052   4.446
  730SOL    HW1 3089   6.453   7.010   4.472
  730SOL    HW2 3090   6.555   0.034   4.352
  731SOL     OW 3091   4.821   5.341   6.711
  731SOL    HW1 3092   4.918   5.341   6.737
  731SOL    HW2 3093   4.814   5.352   6.612
  732SOL     OW 3094   5.277   2.504   1.247
  732SOL    HW1 3095   5.331   2.588   1.255
  732SOL    HW2 3096   5.244   2.494   1.153
  733SOL     OW 3097   5.350   0.348   4.090
  733SOL    HW1 3098   5.348   0.312   4.184
  733SOL    HW2 3099   5.340   0.448   4.093
  734SOL     OW 3100   6.053   4.443   3.019
  734SOL    HW1 3101   6.150   4.460   3.003
  734SOL    HW2 3102   6.024   4.492   3.102
  735SOL     OW 3103   3.814   1.726   0.569
  735SOL    HW1 3104   3.893   1.772   0.607
  735SOL    HW2 3105   3.807   1.746   0.471
  736SOL     OW 3106   0.221   2.178   3.698
  736SOL    HW1 3107   0.296   2.174   3.765
  736SOL    HW2 3108   0.168   2.261   3.714
  737SOL     OW 3109   5.563   2.004   5.609
  737SOL    HW1 3110   5.514   2.055   5.538
  737SOL    HW2 3111   5.561   2.055   5.695
  738SOL     OW 3112   2.376   3.866   1.406
  738SOL    HW1 3113   2.321   3.914   1.338
  738SOL    HW2 3114   2.463   3.838   1.365
  739SOL     OW 3115   5.200   0.944   4.606
  739SOL    HW1 3116   5.149   1.002   4.670
  739SOL    HW2 3117   5.280   0.994   4.572
  740SOL     OW 3118   5.768   1.342   1.621
  740SOL    HW1 3119   5.849   1.350   1.562
  740SOL    HW2 3120   5.795   1.304   1.709
  741SOL     OW 3121   1.999   0.033   2.994
  741SOL    HW1 3122   1.995   7.001   3.079
  741SOL    HW2 3123   2.027   0.127   3.014
  742SOL     OW 3124   2.282   6.638   2.241
  742SOL    HW1 3125   2.319   6.647   2.333
  742SOL    HW2 3126   2.189   6.600   2.245
  743SOL     OW 3127   0.960   5.142   3.578
  743SOL    HW1 3128   0.873   5.140   3.627
  743SOL    HW2 3129   0.962   5.222   3.518
  744SOL     OW 3130   5.832   0.543   0.933
  744SOL    HW1 3131   5.734   0.524   0.939
  744SOL    HW2 3132   5.862   0.591   1.015
  745SOL     OW 3133   1.762   5.399   5.315
  745SOL    HW1 3134   1.841   5.456   5.334
  745SOL    HW2 3135   1.679   5.455   5.311
  746SOL     OW 3136   6.172   4.301   6.160
  746SOL    HW1 3137   6.148   4.398   6.156
  746SOL    HW2 3138   6.167   4.269   6.255
  747SOL     OW 3139   3.787   6.644   4.174
  747SOL    HW1 3140   3.843   6.680   4.099
  747SOL    HW2 3141   3.846   6.600   4.241
  748SOL     OW 3142   3.946   5.134   2.368
  748SOL    HW1 3143   3.914   5.040   2.357
  748SOL    HW2 3144   4.020   5.153   2.304
  749SOL     OW 3145   6.180   3.518   3.869
  749SOL    HW1 3146   6.200   3.614   3.888
  749SOL    HW2 3147   6.154   3.472   3.954
  750SOL     OW 3148   2.515   1.244   1.328
  750SOL    HW1 3149   2.420   1.231   1.300
  750SOL    HW2 3150   2.568   1.162   1.306
  751SOL     OW 3151   4.355   1.721   6.768
  751SOL    HW1 3152   4.375   1.802   6.712
  751SOL    HW2 3153   4.376   1.742   6.864
  752SOL     OW 3154   2.743   1.859   1.149
  752SOL    HW1 3155   2.669   1.905   1.198
  752SOL    HW2 3156   2.754   1.898   1.058
  753SOL     OW 3157   1.204   3.756   6.444
  753SOL    HW1 3158   1.127   3.800   6.397
  753SOL    HW2 3159   1.277   3.823   6.458
  754SOL     OW 3160   4.656   2.016   5.856
  754SOL    HW1 3161   4.717   1.944   5.889
  754SOL    HW2 3162   4.709   2.097   5.831
  755SOL     OW 3163   1.626   4.125   5.040
  755SOL    HW1 3164   1.723   4.121   5.062
  755SOL    HW2 3165   1.614   4.154   4.945
  756SOL     OW 3166   2.676   6.278   6.727
  756SOL    HW1 3167   2.677   6.324   6.816
  756SOL    HW2 3168   2.770   6.255   6.701
  757SOL     OW 3169   0.478   6.900   4.274
  757SOL    HW1 3170   0.558   6.937   4.227
  757SOL    HW2 3171   0.507   6.833   4.342
  758SOL     OW 3172   3.836   0.723   3.322
  758SOL    HW1 3173   3.743   0.700   3.351
  758SOL    HW2 3174   3.897   0.718   3.401
  759SOL     OW 3175   0.643   2.830   1.888
  759SOL    HW1 3176   0.661   2.747   1.835
  759SOL    HW2 3177   0.549   2.828   1.923
  760SOL     OW 3178   6.294   6.747   4.183
  760SOL    HW1 3179   6.227   6.698   4.239
  760SOL    HW2 3180   6.375   6.766   4.238
  761SOL     OW 3181   5.625   3.602   6.109
  761SOL    HW1 3182   5.672   3.653   6.181
  761SOL    HW2 3183   5.570   3.529   6.150
  762SOL     OW 3184   2.571   0.325   5.177
  762SOL    HW1 3185   2.645   0.260   5.194
  762SOL    HW2 3186   2.534   0.311   5.086
  763SOL     OW 3187   3.844   5.571   6.459
  763SOL    HW1 3188   3.852   5.584   6.360
  763SOL    HW2 3189   3.832   5.474   6.480
  764SOL     OW 3190   5.449   0.883   5.756
  764SOL    HW1 3191   5.513   0.870   5.681
  764SOL    HW2 3192   5.413   0.795   5.785
  765SOL     OW 3193   1.553   5.728   1.739
  765SOL    HW1 3194   1.494   5.690   1.668
  765SOL    HW2 3195   1.557   5.828   1.730
  766SOL     OW 3196   2.387   2.028   6.030
  766SOL    HW1 3197   2.482   2.001   6.010
  766SOL    HW2 3198   2.331   1.946   6.037
  767SOL     OW 3199   6.647   5.911   3.548
  767SOL    HW1 3200   6.630   5.913   3.647
  767SOL    HW2 3201   6.659   6.004   3.514
  768SOL     OW 3202   2.099   4.876   2.692
  768SOL    HW1 3203   2.107   4.860   2.791
  768SOL    HW2 3204   2.025   4.941   2.675
  769SOL     OW 3205   2.447   1.295   5.653
  769SOL    HW1 3206   2.422   1.391   5.638
  769SOL    HW2 3207   2.541   1.291   5.688
  770SOL     OW 3208   1.743   5.216   3.422
  770SOL    HW1 3209   1.723   5.145   3.489
  770SOL    HW2 3210   1.702   5.192   3.334
  771SOL     OW 3211   1.037   4.993   2.798
  771SOL    HW1 3212   0.961   5.041   2.840
  771SOL    HW2 3213   1.110   4.980   2.865
  772SOL     OW 3214   5.465   4.824   6.196
  772SOL    HW1 3215   5.375   4.866   6.189
  772SOL    HW2 3216   5.502   4.807   6.105
  773SOL     OW 3217   0.392   4.588   3.536
  773SOL    HW1 3218   0.412   4.591   3.438
  773SOL    HW2 3219   0.431   4.504   3.575
  774SOL     OW 3220   1.518   0.930   1.417
  774SOL    HW1 3221   1.479   0.902   1.504
  774SOL    HW2 3222   1.491   0.865   1.346
  775SOL     OW 3223   2.434   2.138   4.270
  775SOL    HW1 3224   2.436   2.184   4.358
  775SOL    HW2 3225   2.526   2.134   4.232
  776SOL     OW 3226   0.173   0.326   5.418
  776SOL    HW1 3227   0.208   0.286   5.334
  776SOL    HW2 3228   0.076   0.304   5.427
  777SOL     OW 3229   1.509   4.911   0.916
  777SOL    HW1 3230   1.428   4.857   0.893
  777SOL    HW2 3231   1.582   4.890   0.851
  778SOL     OW 3232   2.090   0.554   1.725
  778SOL    HW1 3233   2.051   0.637   1.686
  778SOL    HW2 3234   2.176   0.576   1.771
  779SOL     OW 3235   0.200   2.647   2.315
  779SOL    HW1 3236   0.181   2.711   2.241
  779SOL    HW2 3237   0.293   2.611   2.306
  780SOL     OW 3238   0.951   2.893   4.359
  780SOL    HW1 3239   0.923   2.817   4.300
  780SOL    HW2 3240   0.878   2.961   4.362
  781SOL     OW 3241   6.030   6.597   0.443
  781SOL    HW1 3242   6.015   6.680   0.390
  781SOL    HW2 3243   6.005   6.517   0.388
  782SOL     OW 3244   0.987   3.445   6.133
  782SOL    HW1 3245   0.968   3.351   6.161
  782SOL    HW2 3246   1.063   3.482   6.188
  783SOL     OW 3247   5.067   4.665   1.981
  783SOL    HW1 3248   5.007   4.699   1.908
  783SOL    HW2 3249   5.162   4.674   1.953
  784SOL     OW 3250   4.280   4.736   0.461
  784SOL    HW1 3251   4.235   4.693   0.383
  784SOL    HW2 3252   4.333   4.668   0.511
  785SOL     OW 3253   0.183   2.085   3.242
  785SOL    HW1 3254   0.121   2.095   3.164
  785SOL    HW2 3255   0.179   2.169   3.298
  786SOL     OW 3256   0.513   6.931   3.092
  786SOL    HW1 3257   0.609   6.957   3.102
  786SOL    HW2 3258   0.461   6.961   3.173
  787SOL     OW 3259   1.088   0.695   0.074
  787SOL    HW1 3260   1.139   0.639   0.139
  787SOL    HW2 3261   1.151   0.757   0.027
  788SOL     OW 3262   3.796   1.235   0.815
  788SOL    HW1 3263   3.838   1.314   0.770
  788SOL    HW2 3264   3.789   1.159   0.750
  789SOL     OW 3265   4.267   4.374   1.679
  789SOL    HW1 3266   4.258   4.358   1.580
  789SOL    HW2 3267   4.299   4.291   1.724
  790SOL     OW 3268   1.586   1.812   3.077
  790SOL    HW1 3269   1.674   1.784   3.116
  790SOL    HW2 3270   1.534   1.730   3.052
  791SOL     OW 3271   1.717   6.059   4.863
  791SOL    HW1 3272   1.775   6.140   4.868
  791SOL    HW2 3273   1.637   6.078   4.805
  792SOL     OW 3274   0.833   0.950   1.665
  792SOL    HW1 3275   0.787   0.861   1.673
  792SOL    HW2 3276   0.875   0.973   1.752
  793SOL     OW 3277   5.049   5.384   4.223
  793SOL    HW1 3278   4.975   5.318   4.209
  793SOL    HW2 3279   5.075   5.383   4.320
  794SOL     OW 3280   2.835   3.908   5.808
  794SOL    HW1 3281   2.821   3.809   5.819
  794SOL    HW2 3282   2.916   3.924   5.752
  795SOL     OW 3283   4.056   0.321   4.613
  795SOL    HW1 3284   4.125   0.392   4.601
  795SOL    HW2 3285   3.986   0.354   4.677
  796SOL     OW 3286   1.226   2.461   6.421
  796SOL    HW1 3287   1.236   2.460   6.322
  796SOL    HW2 3288   1.276   2.383   6.461
  797SOL     OW 3289   5.137   0.857   1.019
  797SOL    HW1 3290   5.092   0.946   1.027
  797SOL    HW2 3291   5.183   0.835   1.105
  798SOL     OW 3292   3.408   6.501   1.941
  798SOL    HW1 3293   3.437   6.548   1.857
  798SOL    HW2 3294   3.331   6.551   1.982
  799SOL     OW 3295   0.145   0.098   6.111
  799SOL    HW1 3296   0.081   0.039   6.061
  799SOL    HW2 3297   0.094   0.163   6.167
  800SOL     OW 3298   5.638   0.989   2.286
  800SOL    HW1 3299   5.603   0.978   2.193
  800SOL    HW2 3300   5.736   0.967   2.287
  801SOL     OW 3301   2.454   4.427   4.526
  801SOL    HW1 3302   2.405   4.513   4.533
  801SOL    HW2 3303   2.482   4.412   4.431
  802SOL     OW 3304   2.772   1.759   0.835
  802SOL    HW1 3305   2.824   1.693   0.889
  802SOL    HW2 3306   2.834   1.829   0.799
  803SOL     OW 3307   1.603   0.368   6.053
  803SOL    HW1 3308   1.579   0.272   6.044
  803SOL    HW2 3309   1.520   0.424   6.048
  804SOL     OW 3310   6.057   6.510   0.733
  804SOL    HW1 3311   6.045   6.544   0.640
  804SOL    HW2 3312   6.115   6.573   0.784
  805SOL     OW 3313   2.716   1.054   4.528
  805SOL    HW1 3314   2.729   1.153   4.526
  805SOL    HW2 3315   2.653   1.030   4.602
  806SOL     OW 3316   5.258   0.936   5.018
  806SOL    HW1 3317   5.282   0.893   4.931
  806SOL    HW2 3318   5.340   0.974   5.060
  807SOL     OW 3319   0.264   0.641   5.181
  807SOL    HW1 3320   0.319   0.619   5.262
  807SOL    HW2 3321   0.179   0.589   5.183
  808SOL     OW 3322   3.913   4.179   6.606
  808SOL    HW1 3323   3.851   4.192   6.529
  808SOL    HW2 3324   3.867   4.126   6.677
  809SOL     OW 3325   0.890   4.983   0.932
  809SOL    HW1 3326   0.857   4.965   0.839
  809SOL    HW2 3327   0.815   5.016   0.988
  810SOL     OW 3328   3.609   4.077   0.558
  810SOL    HW1 3329   3.607   4.164   0.508
  810SOL    HW2 3330   3.548   4.011   0.515
  811SOL     OW 3331   5.592   6.004   5.162
  811SOL    HW1 3332   5.611   6.102   5.160
  811SOL    HW2 3333   5.673   5.955   5.195
  812SOL     OW 3334   7.015   0.682   2.982
  812SOL    HW1 3335   7.001   0.774   3.017
  812SOL    HW2 3336   0.089   0.653   2.999
  813SOL     OW 3337   3.906   6.789   3.977
  813SOL    HW1 3338   3.883   6.877   4.019
  813SOL    HW2 3339   3.950   6.805   3.889
  814SOL     OW 3340   6.370   5.942   2.783
  814SOL    HW1 3341   6.383   5.967   2.687
  814SOL    HW2 3342   6.273   5.932   2.803
  815SOL     OW 3343   6.660   3.304   3.585
  815SOL    HW1 3344   6.672   3.365   3.506
  815SOL    HW2 3345   6.674   3.209   3.555
  816SOL     OW 3346   5.878   5.634   0.660
  816SOL    HW1 3347   5.915   5.554   0.707
  816SOL    HW2 3348   5.795   5.609   0.612
  817SOL     OW 3349   1.374   5.641   1.543
  817SOL    HW1 3350   1.388   5.659   1.446
  817SOL    HW2 3351   1.356   5.543   1.557
  818SOL     OW 3352   6.089   2.555   3.819
  818SOL    HW1 3353   6.015   2.489   3.812
  818SOL    HW2 3354   6.111   2.591   3.728
  819SOL     OW 3355   6.072   3.063   1.548
  819SOL    HW1 3356   6.044   3.053   1.644
  819SOL    HW2 3357   5.992   3.060   1.489
  820SOL     OW 3358   3.182   2.089   4.812
  820SOL    HW1 3359   3.215   2.161   4.873
  820SOL    HW2 3360   3.129   2.022   4.865
  821SOL     OW 3361   6.705   3.979   6.821
  821SOL    HW1 3362   6.674   4.063   6.865
  821SOL    HW2 3363   6.643   3.955   6.747
  822SOL     OW 3364   0.498   3.330   3.291
  822SOL    HW1 3365   0.420   3.270   3.277
  822SOL    HW2 3366   0.492   3.373   3.381
  823SOL     OW 3367   6.208   4.167   5.889
  823SOL    HW1 3368   6.175   4.237   5.952
  823SOL    HW2 3369   6.237   4.086   5.940
  824SOL     OW 3370   4.065   0.646   5.858
  824SOL    HW1 3371   4.129   0.675   5.930
  824SOL    HW2 3372   4.102   0.567   5.810
  825SOL     OW 3373   6.633   5.509   1.379
  825SOL    HW1 3374   6.692   5.502   1.298
  825SOL    HW2 3375   6.641   5.601   1.417
  826SOL     OW 3376   4.066   2.062   5.830
  826SOL    HW1 3377   3.990   2.044   5.893
  826SOL    HW2 3378   4.153   2.046   5.877
  827SOL     OW 3379   2.552   4.643   5.284
  827SOL    HW1 3380   2.587   4.697   5.208
  827SOL    HW2 3381   2.481   4.581   5.252
  828SOL     OW 3382   5.062   6.521   6.312
  828SOL    HW1 3383   5.098   6.492   6.224
  828SOL    HW2 3384   5.048   6.620   6.310
  829SOL     OW 3385   4.188   3.505   2.360
  829SOL    HW1 3386   4.146   3.583   2.408
  829SOL    HW2 3387   4.276   3.534   2.320
  830SOL     OW 3388   5.301   5.217   6.720
  830SOL    HW1 3389   5.390   5.230   6.765
  830SOL    HW2 3390   5.302   5.131   6.669
  831SOL     OW 3391   5.870   6.726   0.132
  831SOL    HW1 3392   5.916   6.638   0.120
  831SOL    HW2 3393   5.854   6.767   0.042
  832SOL     OW 3394   4.116   1.374   2.845
  832SOL    HW1 3395   4.144   1.468   2.825
  832SOL    HW2 3396   4.079   1.370   2.938
  833SOL     OW 3397   1.446   3.325   6.371
  833SOL    HW1 3398   1.529   3.373   6.341
  833SOL    HW2 3399   1.470   3.236   6.408
  834SOL     OW 3400   4.652   4.050   0.972
  834SOL    HW1 3401   4.570   4.094   0.936
  834SOL    HW2 3402   4.628   3.966   1.019
  835SOL     OW 3403   3.503   0.581   5.472
  835SOL    HW1 3404   3.544   0.595   5.382
  835SOL    HW2 3405   3.561   0.520   5.526
  836SOL     OW 3406   3.908   0.106   4.610
  836SOL    HW1 3407   3.825   0.154   4.581
  836SOL    HW2 3408   3.988   0.155   4.577
  837SOL     OW 3409   6.761   0.493   1.113
  837SOL    HW1 3410   6.799   0.584   1.092
  837SOL    HW2 3411   6.808   0.424   1.059
  838SOL     OW 3412   2.322   0.061   4.575
  838SOL    HW1 3413   2.308   7.006   4.510
  838SOL    HW2 3414   2.307   0.028   4.668
  839SOL     OW 3415   2.013   1.434   1.918
  839SOL    HW1 3416   2.018   1.410   1.821
  839SOL    HW2 3417   2.022   1.352   1.974
  840SOL     OW 3418   6.396   5.870   7.013
  840SOL    HW1 3419   6.320   5.891   6.951
  840SOL    HW2 3420   6.384   5.779   0.031
  841SOL     OW 3421   3.246   5.199   6.089
  841SOL    HW1 3422   3.245   5.241   5.998
  841SOL    HW2 3423   3.323   5.237   6.142
  842SOL     OW 3424   3.648   0.240   5.241
  842SOL    HW1 3425   3.599   0.320   5.207
  842SOL    HW2 3426   3.599   0.201   5.319
  843SOL     OW 3427   1.046   1.565   1.786
  843SOL    HW1 3428   1.040   1.608   1.696
  843SOL    HW2 3429   1.127   1.506   1.789
  844SOL     OW 3430   6.301   0.032   0.170
  844SOL    HW1 3431   6.397   0.049   0.192
  844SOL    HW2 3432   6.243   0.055   0.248
  845SOL     OW 3433   4.817   3.957   3.987
  845SOL    HW1 3434   4.771   3.915   4.065
  845SOL    HW2 3435   4.894   3.899   3.959
  846SOL     OW 3436   2.010   1.098   6.092
  846SOL    HW1 3437   2.053   1.178   6.051
  846SOL    HW2 3438   1.916   1.089   6.058
  847SOL     OW 3439   1.453   3.628   1.209
  847SOL    HW1 3440   1.464   3.599   1.114
  847SOL    HW2 3441   1.495   3.718   1.222
  848SOL     OW 3442   6.904   6.903   6.107
  848SOL    HW1 3443   6.946   6.814   6.090
  848SOL    HW2 3444   6.910   6.958   6.024
  849SOL     OW 3445   6.490   3.960   6.674
  849SOL    HW1 3446   6.405   3.994   6.716
  849SOL    HW2 3447   6.532   4.033   6.621
  850SOL     OW 3448   5.080   1.349   4.689
  850SOL    HW1 3449   5.105   1.331   4.784
  850SOL    HW2 3450   5.004   1.414   4.686
  851SOL     OW 3451   0.068   2.593   0.999
  851SOL    HW1 3452   0.007   2.514   0.988
  851SOL    HW2 3453   0.088   2.632   0.909
  852SOL     OW 3454   0.655   3.833   0.980
  852SOL    HW1 3455   0.671   3.931   0.991
  852SOL    HW2 3456   0.649   3.810   0.883
  853SOL     OW 3457   0.889   4.760   1.080
  853SOL    HW1 3458   0.839   4.747   1.166
  853SOL    HW2 3459   0.893   4.858   1.058
  854SOL     OW 3460   4.930   5.450   0.576
  854SOL    HW1 3461   4.853   5.426   0.517
  854SOL    HW2 3462   4.981   5.367   0.600
  855SOL     OW 3463   6.817   0.168   1.671
  855SOL    HW1 3464   6.789   0.263   1.676
  855SOL    HW2 3465   6.782   0.118   1.750
  856SOL     OW 3466   1.269   2.044   6.870
  856SOL    HW1 3467   1.294   2.025   6.965
  856SOL    HW2 3468   1.197   2.113   6.868
  857SOL     OW 3469   6.236   4.765   1.881
  857SOL    HW1 3470   6.157   4.704   1.889
  857SOL    HW2 3471   6.312   4.729   1.935
  858SOL     OW 3472   2.907   3.961   1.237
  858SOL    HW1 3473   2.853   4.022   1.180
  858SOL    HW2 3474   2.848   3.891   1.277
  859SOL     OW 3475   5.724   0.157   5.072
  859SOL    HW1 3476   5.762   0.249   5.079
  859SOL    HW2 3477   5.653   0.155   5.002
  860SOL     OW 3478   6.338   2.849   0.466
  860SOL    HW1 3479   6.432   2.839   0.500
  860SOL    HW2 3480   6.300   2.759   0.447
  861SOL     OW 3481   2.544   5.028   4.063
  861SOL    HW1 3482   2.634   4.983   4.062
  861SOL    HW2 3483   2.531   5.074   4.150
  862SOL     OW 3484   1.440   4.220   3.508
  862SOL    HW1 3485   1.461   4.232   3.605
  862SOL    HW2 3486   1.364   4.155   3.498
  863SOL     OW 3487   6.085   0.761   6.633
  863SOL    HW1 3488   6.038   0.845   6.661
  863SOL    HW2 3489   6.035   0.682   6.667
  864SOL     OW 3490   3.720   5.509   4.433
  864SOL    HW1 3491   3.799   5.523   4.372
  864SOL    HW2 3492   3.643   5.563   4.400
  865SOL     OW 3493   1.611   6.851   6.076
  865SOL    HW1 3494   1.610   6.868   6.175
  865SOL    HW2 3495   1.679   6.781   6.054
  866SOL     OW 3496   2.043   1.203   1.035
  866SOL    HW1 3497   2.076   1.258   0.958
  866SOL    HW2 3498   2.034   1.108   1.006
  867SOL     OW 3499   5.252   3.874   0.164
  867SOL    HW1 3500   5.329   3.844   0.221
  867SOL    HW2 3501   5.269   3.967   0.132
  868SOL     OW 3502   6.139   1.365   0.717
  868SOL    HW1 3503   6.218   1.304   0.710
  868SOL    HW2 3504   6.108   1.368   0.812
  869SOL     OW 3505   0.235   4.740   2.968
  869SOL    HW1 3506   0.236   4.658   2.912
  869SOL    HW2 3507   0.296   4.808   2.928
  870SOL     OW 3508   3.694   3.643   0.034
  870SOL    HW1 3509   3.704   3.702   0.114
  870SOL    HW2 3510   3.736   3.687   6.975
  871SOL     OW 3511   5.153   2.495   2.604
  871SOL    HW1 3512   5.131   2.548   2.685
  871SOL    HW2 3513   5.075   2.436   2.581
  872SOL     OW 3514   5.736   3.337   3.981
  872SOL    HW1 3515   5.637   3.324   3.975
  872SOL    HW2 3516   5.781   3.278   3.915
  873SOL     OW 3517   5.552   6.104   5.498
  873SOL    HW1 3518   5.485   6.093   5.571
  873SOL    HW2 3519   5.542   6.194   5.456
  874SOL     OW 3520   0.403   3.889   6.221
  874SOL    HW1 3521   0.311   3.863   6.249
  874SOL    HW2 3522   0.464   3.888   6.300
  875SOL     OW 3523   5.468   4.719   0.448
  875SOL    HW1 3524   5.376   4.751   0.425
  875SOL    HW2 3525   5.465   4.621   0.469
  876SOL     OW 3526   0.955   4.721   2.777
  876SOL    HW1 3527   1.002   4.806   2.799
  876SOL    HW2 3528   0.973   4.696   2.682
  877SOL     OW 3529   3.831   4.685   5.749
  877SOL    HW1 3530   3.791   4.741   5.822
  877SOL    HW2 3531   3.804   4.590   5.762
  878SOL     OW 3532   4.079   6.285   4.615
  878SOL    HW1 3533   4.164   6.233   4.608
  878SOL    HW2 3534   4.073   6.327   4.706
  879SOL     OW 3535   4.358   1.399   1.192
  879SOL    HW1 3536   4.429   1.444   1.246
  879SOL    HW2 3537   4.271   1.402   1.242
  880SOL     OW 3538   2.912   3.729   4.661
  880SOL    HW1 3539   2.850   3.651   4.668
  880SOL    HW2 3540   2.968   3.735   4.743
  881SOL     OW 3541   5.826   3.584   5.704
  881SOL    HW1 3542   5.891   3.514   5.673
  881SOL    HW2 3543   5.774   3.618   5.626
  882SOL     OW 3544   1.024   2.545   3.980
  882SOL    HW1 3545   0.969   2.625   3.958
  882SOL    HW2 3546   0.964   2.469   4.005
  883SOL     OW 3547   3.576   0.713   0.479
  883SOL    HW1 3548   3.598   0.615   0.480
  883SOL    HW2 3549   3.608   0.753   0.393
  884SOL     OW 3550   6.795   4.609   0.241
  884SOL    HW1 3551   6.810   4.522   0.193
  884SOL    HW2 3552   6.737   4.668   0.185
  885SOL     OW 3553   4.487   6.633   5.339
  885SOL    HW1 3554   4.581   6.605   5.317
  885SOL    HW2 3555   4.446   6.677   5.260
  886SOL     OW 3556   4.254   0.651   0.702
  886SOL    HW1 3557   4.235   0.726   0.766
  886SOL    HW2 3558   4.311   0.583   0.747
  887SOL     OW 3559   3.767   5.782   3.955
  887SOL    HW1 3560   3.848   5.724   3.953
  887SOL    HW2 3561   3.706   5.757   3.880
  888SOL     OW 3562   6.954   6.330   3.655
  888SOL    HW1 3563   0.026   6.319   3.618
  888SOL    HW2 3564   6.953   6.403   3.723
  889SOL     OW 3565   6.361   1.172   6.283
  889SOL    HW1 3566   6.342   1.140   6.375
  889SOL    HW2 3567   6.457   1.155   6.260
  890SOL     OW 3568   2.955   5.313   3.128
  890SOL    HW1 3569   2.952   5.331   3.227
  890SOL    HW2 3570   2.907   5.228   3.108
  891SOL     OW 3571   6.671   3.585   0.771
  891SOL    HW1 3572   6.679   3.512   0.839
  891SOL    HW2 3573   6.741   3.655   0.789
  892SOL     OW 3574   3.661   3.079   5.021
  892SOL    HW1 3575   3.595   3.050   5.091
  892SOL    HW2 3576   3.718   3.001   4.995
  893SOL     OW 3577   2.093   6.474   2.859
  893SOL    HW1 3578   2.082   6.517   2.948
  893SOL    HW2 3579   2.069   6.539   2.787
  894SOL     OW 3580   1.085   2.586   2.736
  894SOL    HW1 3581   1.114   2.671   2.781
  894SOL    HW2 3582   1.052   2.522   2.804
  895SOL     OW 3583   1.411   5.299   4.204
  895SOL    HW1 3584   1.397   5.226   4.137
  895SOL    HW2 3585   1.390   5.387   4.161
  896SOL     OW 3586   5.965   5.155   1.406
  896SOL    HW1 3587   5.865   5.154   1.414
  896SOL    HW2 3588   5.990   5.127   1.313
  897SOL     OW 3589   4.002   0.557   6.684
  897SOL    HW1 3590   3.986   0.653   6.707
  897SOL    HW2 3591   3.968   0.537   6.592
  898SOL     OW 3592   3.980   6.394   2.512
  898SOL    HW1 3593   3.969   6.341   2.428
  898SOL    HW2 3594   3.890   6.416   2.549
  899SOL     OW 3595   0.344   5.729   0.254
  899SOL    HW1 3596   0.415   5.754   0.319
  899SOL    HW2 3597   0.386   5.714   0.164
  900SOL     OW 3598   4.824   6.490   6.637
  900SOL    HW1 3599   4.847   6.428   6.712
  900SOL    HW2 3600   4.812   6.436   6.553
  901SOL     OW 3601   1.171   0.801   4.122
  901SOL    HW1 3602   1.165   0.842   4.213
  901SOL    HW2 3603   1.248   0.737   4.119
  902SOL     OW 3604   1.257   3.011   1.201
  902SOL    HW1 3605   1.271   2.942   1.272
  902SOL    HW2 3606   1.270   3.102   1.241
  903SOL     OW 3607   0.387   3.784   0.084
  903SOL    HW1 3608   0.474   3.735   0.073
  903SOL    HW2 3609   0.328   3.765   0.005
  904SOL     OW 3610   2.198   2.963   2.693
  904SOL    HW1 3611   2.250   2.891   2.739
  904SOL    HW2 3612   2.159   2.928   2.608
  905SOL     OW 3613   4.865   4.414   6.213
  905SOL    HW1 3614   4.771   4.419   6.181
  905SOL    HW2 3615   4.909   4.332   6.175
  906SOL     OW 3616   0.714   2.276   6.522
  906SOL    HW1 3617   0.777   2.204   6.553
  906SOL    HW2 3618   0.620   2.248   6.540
  907SOL     OW 3619   4.795   2.369   1.175
  907SOL    HW1 3620   4.748   2.290   1.136
  907SOL    HW2 3621   4.729   2.442   1.193
  908SOL     OW 3622   2.448   4.644   3.075
  908SOL    HW1 3623   2.403   4.695   3.148
  908SOL    HW2 3624   2.548   4.650   3.087
  909SOL     OW 3625   4.079   6.061   1.818
  909SOL    HW1 3626   4.121   6.086   1.905
  909SOL    HW2 3627   4.044   5.968   1.823
  910SOL     OW 3628   3.233   1.392   1.320
  910SOL    HW1 3629   3.248   1.305   1.274
  910SOL    HW2 3630   3.136   1.417   1.314
  911SOL     OW 3631   0.967   5.948   6.713
  911SOL    HW1 3632   1.047   5.899   6.746
  911SOL    HW2 3633   0.976   5.968   6.616
  912SOL     OW 3634   5.072   1.305   3.418
  912SOL    HW1 3635   5.003   1.238   3.389
  912SOL    HW2 3636   5.108   1.279   3.508
  913SOL     OW 3637   2.605   0.711   3.947
  913SOL    HW1 3638   2.540   0.636   3.953
  913SOL    HW2 3639   2.636   0.736   4.039
  914SOL     OW 3640   2.664   6.582   5.170
  914SOL    HW1 3641   2.650   6.498   5.224
  914SOL    HW2 3642   2.588   6.593   5.106
  915SOL     OW 3643   6.741   2.967   0.740
  915SOL    HW1 3644   6.793   3.051   0.726
  915SOL    HW2 3645   6.658   2.986   0.792
  916SOL     OW 3646   2.123   3.257   2.779
  916SOL    HW1 3647   2.190   3.183   2.775
  916SOL    HW2 3648   2.050   3.239   2.713
  917SOL     OW 3649   6.965   6.546   1.740
  917SOL    HW1 3650   6.964   6.502   1.651
  917SOL    HW2 3651   0.021   6.612   1.744
  918SOL     OW 3652   3.319   0.674   1.489
  918SOL    HW1 3653   3.358   0.765   1.506
  918SOL    HW2 3654   3.342   0.613   1.565
  919SOL     OW 3655   6.748   0.041   3.371
  919SOL    HW1 3656   6.715   6.967   3.361
  919SOL    HW2 3657   6.848   0.042   3.363
  920SOL     OW 3658   2.540   4.521   2.705
  920SOL    HW1 3659   2.466   4.581   2.674
  920SOL    HW2 3660   2.625   4.573   2.708
  921SOL     OW 3661   3.861   5.307   3.494
  921SOL    HW1 3662   3.849   5.208   3.487
  921SOL    HW2 3663   3.955   5.328   3.520
  922SOL     OW 3664   2.918   3.444   4.711
  922SOL    HW1 3665   2.969   3.480   4.789
  922SOL    HW2 3666   2.982   3.410   4.642
  923SOL     OW 3667   2.532   4.053   6.085
  923SOL    HW1 3668   2.540   3.955   6.107
  923SOL    HW2 3669   2.567   4.069   5.993
  924SOL     OW 3670   6.603   3.347   2.781
  924SOL    HW1 3671   6.547   3.414   2.731
  924SOL    HW2 3672   6.545   3.271   2.809
  925SOL     OW 3673   6.880   2.436   0.131
  925SOL    HW1 3674   6.888   2.350   0.081
  925SOL    HW2 3675   6.784   2.460   0.143
  926SOL     OW 3676   6.313   0.950   0.857
  926SOL    HW1 3677   6.238   0.895   0.892
  926SOL    HW2 3678   6.381   0.891   0.814
  927SOL     OW 3679   5.562   4.072   3.243
  927SOL    HW1 3680   5.474   4.035   3.211
  927SOL    HW2 3681   5.580   4.159   3.197
  928SOL     OW 3682   1.452   6.365   0.166
  928SOL    HW1 3683   1.432   6.291   0.231
  928SOL    HW2 3684   1.537   6.345   0.118
  929SOL     OW 3685   1.065   0.071   6.891
  929SOL    HW1 3686   1.102   0.117   6.810
  929SOL    HW2 3687   1.043   6.996   6.868
  930SOL     OW 3688   5.065   6.053   4.841
  930SOL    HW1 3689   5.125   6.055   4.921
  930SOL    HW2 3690   5.120   6.037   4.759
  931SOL     OW 3691   6.087   1.576   4.990
  931SOL    HW1 3692   6.179   1.559   5.024
  931SOL    HW2 3693   6.071   1.521   4.908
  932SOL     OW 3694   3.227   0.241   3.775
  932SOL    HW1 3695   3.137   0.227   3.816
  932SOL    HW2 3696   3.296   0.240   3.847
  933SOL     OW 3697   2.130   6.076   3.658
  933SOL    HW1 3698   2.109   6.052   3.563
  933SOL    HW2 3699   2.228   6.064   3.675
  934SOL     OW 3700   1.776   6.776   6.809
  934SOL    HW1 3701   1.861   6.828   6.812
  934SOL    HW2 3702   1.725   6.790   6.894
  935SOL     OW 3703   5.061   4.426   4.104
  935SOL    HW1 3704   4.994   4.353   4.092
  935SOL    HW2 3705   5.024   4.495   4.166
  936SOL     OW 3706   0.251   0.679   6.392
  936SOL    HW1 3707   0.187   0.753   6.371
  936SOL    HW2 3708   0.274   0.682   6.490
  937SOL     OW 3709   5.237   1.590   5.633
  937SOL    HW1 3710   5.186   1.675   5.646
  937SOL    HW2 3711   5.216   1.527   5.707
  938SOL     OW 3712   6.022   5.133   5.858
  938SOL    HW1 3713   5.986   5.106   5.947
  938SOL    HW2 3714   6.049   5.052   5.807
  939SOL     OW 3715   7.003   6.768   4.715
  939SOL    HW1 3716   6.939   6.835   4.753
  939SOL    HW2 3717   0.033   6.808   4.639
  940SOL     OW 3718   1.379   3.569   1.601
  940SOL    HW1 3719   1.449   3.534   1.539
  940SOL    HW2 3720   1.402   3.663   1.628
  941SOL     OW 3721   5.700   1.247   6.366
  941SOL    HW1 3722   5.680   1.208   6.455
  941SOL    HW2 3723   5.798   1.238   6.347
  942SOL     OW 3724   5.829   0.359   3.085
  942SOL    HW1 3725   5.790   0.318   3.168
  942SOL    HW2 3726   5.895   0.295   3.045
  943SOL     OW 3727   1.867   3.332   3.506
  943SOL    HW1 3728   1.862   3.371   3.598
  943SOL    HW2 3729   1.952   3.360   3.463
  944SOL     OW 3730   0.246   4.682   6.237
  944SOL    HW1 3731   0.238   4.774   6.200
  944SOL    HW2 3732   0.166   4.628   6.211
  945SOL     OW 3733   6.614   3.383   5.913
  945SOL    HW1 3734   6.531   3.334   5.890
  945SOL    HW2 3735   6.629   3.457   5.847
  946SOL     OW 3736   5.055   4.003   5.569
  946SOL    HW1 3737   5.033   4.062   5.491
  946SOL    HW2 3738   4.981   3.937   5.582
  947SOL     OW 3739   3.867   3.032   3.525
  947SOL    HW1 3740   3.941   3.055   3.588
  947SOL    HW2 3741   3.789   3.093   3.542
  948SOL     OW 3742   4.795   0.617   2.997
  948SOL    HW1 3743   4.704   0.596   2.962
  948SOL    HW2 3744   4.863   0.598   2.927
  949SOL     OW 3745   1.824   5.652   0.444
  949SOL    HW1 3746   1.799   5.559   0.471
  949SOL    HW2 3747   1.750   5.715   0.466
  950SOL     OW 3748   5.022   5.751   2.273
  950SOL    HW1 3749   4.998   5.681   2.206
  950SOL    HW2 3750   5.035   5.839   2.227
  951SOL     OW 3751   1.459   0.531   4.386
  951SOL    HW1 3752   1.441   0.571   4.475
  951SOL    HW2 3753   1.444   0.600   4.315
  952SOL     OW 3754   4.539   2.212   3.125
  952SOL    HW1 3755   4.634   2.218   3.095
  952SOL    HW2 3756   4.484   2.278   3.073
  953SOL     OW 3757   5.479   5.212   4.445
  953SOL    HW1 3758   5.398   5.192   4.499
  953SOL    HW2 3759   5.489   5.144   4.372
  954SOL     OW 3760   3.986   5.682   1.352
  954SOL    HW1 3761   3.985   5.656   1.449
  954SOL    HW2 3762   3.955   5.776   1.342
  955SOL     OW 3763   0.130   3.938   1.966
  955SOL    HW1 3764   0.222   3.897   1.972
  955SOL    HW2 3765   0.091   3.918   1.876
  956SOL     OW 3766   6.256   0.130   2.027
  956SOL    HW1 3767   6.295   0.192   1.960
  956SOL    HW2 3768   6.285   0.157   2.119
  957SOL     OW 3769   5.823   3.154   3.760
  957SOL    HW1 3770   5.750   3.121   3.700
  957SOL    HW2 3771   5.895   3.196   3.705
  958SOL     OW 3772   3.874   1.264   1.699
  958SOL    HW1 3773   3.837   1.262   1.792
  958SOL    HW2 3774   3.918   1.177   1.679
  959SOL     OW 3775   3.817   6.017   4.130
  959SOL    HW1 3776   3.778   5.959   4.057
  959SOL    HW2 3777   3.911   6.042   4.106
  960SOL     OW 3778   0.501   6.758   2.427
  960SOL    HW1 3779   0.402   6.760   2.412
  960SOL    HW2 3780   0.524   6.678   2.483
  961SOL     OW 3781   4.372   6.301   3.594
  961SOL    HW1 3782   4.396   6.236   3.666
  961SOL    HW2 3783   4.380   6.256   3.505
  962SOL     OW 3784   0.456   1.554   5.504
  962SOL    HW1 3785   0.443   1.457   5.524
  962SOL    HW2 3786   0.448   1.607   5.589
  963SOL     OW 3787   5.278   1.342   6.496
  963SOL    HW1 3788   5.201   1.298   6.543
  963SOL    HW2 3789   5.250   1.367   6.403
  964SOL     OW 3790   5.618   5.053   0.191
  964SOL    HW1 3791   5.688   5.025   0.125
  964SOL    HW2 3792   5.630   5.001   0.276
  965SOL     OW 3793   5.496   2.207   1.655
  965SOL    HW1 3794   5.514   2.198   1.753
  965SOL    HW2 3795   5.405   2.171   1.635
  966SOL     OW 3796   5.809   3.405   1.995
  966SOL    HW1 3797   5.730   3.442   2.043
  966SOL    HW2 3798   5.887   3.401   2.058
  967SOL     OW 3799   2.638   4.226   1.323
  967SOL    HW1 3800   2.601   4.134   1.333
  967SOL    HW2 3801   2.578   4.280   1.264
  968SOL     OW 3802   3.839   0.530   2.108
  968SOL    HW1 3803   3.893   0.447   2.108
  968SOL    HW2 3804   3.886   0.601   2.160
  969SOL     OW 3805   2.210   5.040   5.593
  969SOL    HW1 3806   2.173   5.118   5.542
  969SOL    HW2 3807   2.273   4.989   5.535
  970SOL     OW 3808   5.863   0.920   6.562
  970SOL    HW1 3809   5.812   0.915   6.647
  970SOL    HW2 3810   5.809   0.880   6.488
  971SOL     OW 3811   0.439   2.874   2.437
  971SOL    HW1 3812   0.491   2.813   2.498
  971SOL    HW2 3813   0.342   2.866   2.456
  972SOL     OW 3814   5.724   2.359   1.331
  972SOL    HW1 3815   5.652   2.335   1.266
  972SOL    HW2 3816   5.807   2.382   1.281
  973SOL     OW 3817   0.496   5.042   6.582
  973SOL    HW1 3818   0.486   5.001   6.491
  973SOL    HW2 3819   0.409   5.081   6.610
  974SOL     OW 3820   5.452   6.753   2.700
  974SOL    HW1 3821   5.549   6.735   2.719
  974SOL    HW2 3822   5.396   6.718   2.775
  975SOL     OW 3823   1.919   0.896   6.580
  975SOL    HW1 3824   1.884   0.962   6.514
  975SOL    HW2 3825   1.985   0.835   6.535
  976SOL     OW 3826   6.852   3.738   2.315
  976SOL    HW1 3827   6.918   3.803   2.275
  976SOL    HW2 3828   6.761   3.779   2.315
  977SOL     OW 3829   0.631   0.120   1.825
  977SOL    HW1 3830   0.608   0.144   1.731
  977SOL    HW2 3831   0.648   0.021   1.831
  978SOL     OW 3832   5.552   2.969   5.486
  978SOL    HW1 3833   5.481   2.904   5.511
  978SOL    HW2 3834   5.618   2.924   5.425
  979SOL     OW 3835   0.112   2.467   0.207
  979SOL    HW1 3836   0.014   2.449   0.197
  979SOL    HW2 3837   0.156   2.466   0.117
  980SOL     OW 3838   4.955   1.983   3.615
  980SOL    HW1 3839   4.873   1.933   3.587
  980SOL    HW2 3840   5.036   1.930   3.589
  981SOL     OW 3841   0.366   1.837   4.899
  981SOL    HW1 3842   0.320   1.781   4.830
  981SOL    HW2 3843   0.434   1.895   4.854
  982SOL     OW 3844   1.553   1.998   4.934
  982SOL    HW1 3845   1.523   2.092   4.916
  982SOL    HW2 3846   1.498   1.934   4.880
  983SOL     OW 3847   6.037   2.760   3.478
  983SOL    HW1 3848   5.969   2.814   3.528
  983SOL    HW2 3849   6.121   2.755   3.532
  984SOL     OW 3850   2.803   2.316   4.408
  984SOL    HW1 3851   2.743   2.361   4.474
  984SOL    HW2 3852   2.748   2.260   4.346
  985SOL     OW 3853   6.160   3.018   5.357
  985SOL    HW1 3854   6.129   2.931   5.318
  985SOL    HW2 3855   6.259   3.016   5.368
  986SOL     OW 3856   4.498   4.988   1.356
  986SOL    HW1 3857   4.451   4.975   1.443
  986SOL    HW2 3858   4.514   5.086   1.341
  987SOL     OW 3859   4.677   6.582   2.808
  987SOL    HW1 3860   4.616   6.649   2.766
  987SOL    HW2 3861   4.761   6.627   2.839
  988SOL     OW 3862   3.653   3.945   2.166
  988SOL    HW1 3863   3.707   3.904   2.239
  988SOL    HW2 3864   3.588   4.010   2.205
  989SOL     OW 3865   6.555   2.061   6.655
  989SOL    HW1 3866   6.548   2.121   6.576
  989SOL    HW2 3867   6.651   2.035   6.670
  990SOL     OW 3868   3.968   1.379   2.289
  990SOL    HW1 3869   4.054   1.334   2.312
  990SOL    HW2 3870   3.963   1.468   2.334
  991SOL     OW 3871   1.011   4.010   4.462
  991SOL    HW1 3872   0.942   3.940   4.442
  991SOL    HW2 3873   1.099   3.983   4.422
  992SOL     OW 3874   0.072   3.299   1.248
  992SOL    HW1 3875   0.132   3.223   1.274
  992SOL    HW2 3876   0.088   3.377   1.308
  993SOL     OW 3877   6.761   4.480   0.498
  993SOL    HW1 3878   6.849   4.484   0.544
  993SOL    HW2 3879   6.772   4.507   0.402
  994SOL     OW 3880   3.817   5.018   1.829
  994SOL    HW1 3881   3.870   5.060   1.756
  994SOL    HW2 3882   3.736   4.973   1.789
  995SOL     OW 3883   4.103   2.863   5.982
  995SOL    HW1 3884   4.177   2.925   5.954
  995SOL    HW2 3885   4.142   2.778   6.017
  996SOL     OW 3886   3.104   5.382   4.729
  996SOL    HW1 3887   3.113   5.395   4.827
  996SOL    HW2 3888   3.155   5.300   4.701
  997SOL     OW 3889   1.114   0.167   3.396
  997SOL    HW1 3890   1.096   0.105   3.472
  997SOL    HW2 3891   1.028   0.186   3.348
  998SOL     OW 3892   5.613   0.891   5.526
  998SOL    HW1 3893   5.555   0.958   5.479
  998SOL    HW2 3894   5.576   0.799   5.513
  999SOL     OW 3895   5.252   4.241   2.608
  999SOL    HW1 3896   5.347   4.259   2.581
  999SOL    HW2 3897   5.247   4.233   2.708
 1000SOL     OW 3898   3.802   1.249   1.405
 1000SOL    HW1 3899   3.762   1.271   1.316
 1000SOL    HW2 3900   3.879   1.310   1.423
 1001SOL     OW 3901   5.085   5.907   1.185
 1001SOL    HW1 3902   4.993   5.889   1.150
 1001SOL    HW2 3903   5.083   5.982   1.250
 1002SOL     OW 3904   5.620   1.814   1.364
 1002SOL    HW1 3905   5.547   1.838   1.427
 1002SOL    HW2 3906   5.644   1.894   1.309
 1003SOL     OW 3907   2.330   6.563   2.717
 1003SOL    HW1 3908   2.344   6.636   2.650
 1003SOL    HW2 3909   2.233   6.541   2.723
 1004SOL     OW 3910   0.556   0.993   1.975
 1004SOL    HW1 3911   0.508   1.061   1.920
 1004SOL    HW2 3912   0.554   0.905   1.927
 1005SOL     OW 3913   2.327   2.092   4.029
 1005SOL    HW1 3914   2.340   2.121   4.124
 1005SOL    HW2 3915   2.366   2.001   4.016
 1006SOL     OW 3916   1.312   4.662   0.242
 1006SOL    HW1 3917   1.362   4.672   0.156
 1006SOL    HW2 3918   1.348   4.584   0.293
 1007SOL     OW 3919   4.613   0.665   5.179
 1007SOL    HW1 3920   4.668   0.607   5.238
 1007SOL    HW2 3921   4.520   0.671   5.216
 1008SOL     OW 3922   0.766   2.867   6.061
 1008SOL    HW1 3923   0.706   2.812   6.119
 1008SOL    HW2 3924   0.718   2.949   6.031
 1009SOL     OW 3925   0.339   4.955   4.922
 1009SOL    HW1 3926   0.387   4.870   4.900
 1009SOL    HW2 3927   0.405   5.031   4.922
 1010SOL     OW 3928   2.844   1.749   6.921
 1010SOL    HW1 3929   2.784   1.814   6.873
 1010SOL    HW2 3930   2.925   1.798   6.955
 1011SOL     OW 3931   1.604   5.527   2.996
 1011SOL    HW1 3932   1.578   5.611   2.948
 1011SOL    HW2 3933   1.664   5.550   3.073
 1012SOL     OW 3934   6.868   6.914   3.045
 1012SOL    HW1 3935   6.867   6.931   2.947
 1012SOL    HW2 3936   6.907   6.824   3.063
 1013SOL     OW 3937   0.980   1.967   6.557
 1013SOL    HW1 3938   1.056   1.912   6.591
 1013SOL    HW2 3939   0.940   2.019   6.632
 1014SOL     OW 3940   6.904   4.579   5.620
 1014SOL    HW1 3941   6.980   4.641   5.601
 1014SOL    HW2 3942   6.934   4.485   5.604
 1015SOL     OW 3943   3.116   7.002   6.179
 1015SOL    HW1 3944   3.020   7.010   6.152
 1015SOL    HW2 3945   3.161   0.070   6.166
 1016SOL     OW 3946   4.327   3.841   6.879
 1016SOL    HW1 3947   4.369   3.752   6.898
 1016SOL    HW2 3948   4.316   3.891   6.965
 1017SOL     OW 3949   4.621   2.974   1.132
 1017SOL    HW1 3950   4.535   3.021   1.152
 1017SOL    HW2 3951   4.656   3.005   1.044
 1018SOL     OW 3952   1.004   4.595   4.492
 1018SOL    HW1 3953   1.004   4.507   4.540
 1018SOL    HW2 3954   1.084   4.601   4.433
 1019SOL     OW 3955   6.762   6.706   1.166
 1019SOL    HW1 3956   6.713   6.649   1.232
 1019SOL    HW2 3957   6.780   6.796   1.206
 1020SOL     OW 3958   6.452   0.905   1.096
 1020SOL    HW1 3959   6.419   0.813   1.073
 1020SOL    HW2 3960   6.448   0.963   1.015
 1021SOL     OW 3961   5.593   6.550   1.316
 1021SOL    HW1 3962   5.629   6.641   1.335
 1021SOL    HW2 3963   5.609   6.527   1.220
 1022SOL     OW 3964   2.793   4.580   5.382
 1022SOL    HW1 3965   2.699   4.596   5.351
 1022SOL    HW2 3966   2.849   4.552   5.304
 1023SOL     OW 3967   7.012   1.005   2.641
 1023SOL    HW1 3968   6.955   1.009   2.559
 1023SOL    HW2 3969   0.088   0.999   2.615
 1024SOL     OW 3970   0.589   2.639   4.398
 1024SOL    HW1 3971   0.622   2.705   4.465
 1024SOL    HW2 3972   0.496   2.663   4.370
 1025SOL     OW 3973   3.620   3.576   1.608
 1025SOL    HW1 3974   3.532   3.554   1.567
 1025SOL    HW2 3975   3.688   3.508   1.580
 1026SOL     OW 3976   2.427   2.537   1.744
 1026SOL    HW1 3977   2.507   2.501   1.791
 1026SOL    HW2 3978   2.409   2.631   1.776
 1027SOL     OW 3979   3.408   6.888   2.101
 1027SOL    HW1 3980   3.314   6.860   2.080
 1027SOL    HW2 3981   3.450   6.821   2.163
 1028SOL     OW 3982   1.520   0.136   2.591
 1028SOL    HW1 3983   1.459   0.135   2.512
 1028SOL    HW2 3984   1.582   0.057   2.587
 1029SOL     OW 3985   1.510   1.079   6.321
 1029SOL    HW1 3986   1.525   1.128   6.407
 1029SOL    HW2 3987   1.511   1.143   6.245
 1030SOL     OW 3988   3.353   3.308   2.143
 1030SOL    HW1 3989   3.398   3.223   2.117
 1030SOL    HW2 3990   3.276   3.288   2.203
 1031SOL     OW 3991   4.622   4.075   1.318
 1031SOL    HW1 3992   4.603   3.984   1.283
 1031SOL    HW2 3993   4.587   4.084   1.411
 1032SOL     OW 3994   1.541   1.693   5.902
 1032SOL    HW1 3995   1.540   1.789   5.873
 1032SOL    HW2 3996   1.470   1.679   5.972
 1033SOL     OW 3997   1.180   5.820   1.345
 1033SOL    HW1 3998   1.205   5.750   1.278
 1033SOL    HW2 3999   1.161   5.906   1.297
 1034SOL     OW 4000   0.950   5.181   4.476
 1034SOL    HW1 4001   0.979   5.112   4.409
 1034SOL    HW2 4002   1.029   5.211   4.529
 1035SOL     OW 4003   0.227   0.910   5.126
 1035SOL    HW1 4004   0.230   0.811   5.136
 1035SOL    HW2 4005   0.319   0.948   5.142
 1036SOL     OW 4006   3.543   0.464   2.105
 1036SOL    HW1 4007   3.637   0.497   2.094
 1036SOL    HW2 4008   3.541   0.390   2.173
 1037SOL     OW 4009   1.218   1.373   2.715
 1037SOL    HW1 4010   1.230   1.437   2.791
 1037SOL    HW2 4011   1.143   1.310   2.735
 1038SOL     OW 4012   2.133   1.016   5.597
 1038SOL    HW1 4013   2.132   1.100   5.652
 1038SOL    HW2 4014   2.224   0.974   5.603
 1039SOL     OW 4015   3.593   3.602   4.766
 1039SOL    HW1 4016   3.628   3.677   4.709
 1039SOL    HW2 4017   3.601   3.516   4.715
 1040SOL     OW 4018   5.000   1.501   2.338
 1040SOL    HW1 4019   4.934   1.498   2.412
 1040SOL    HW2 4020   5.085   1.456   2.367
 1041SOL     OW 4021   0.313   6.726   3.708
 1041SOL    HW1 4022   0.284   6.801   3.768
 1041SOL    HW2 4023   0.267   6.642   3.735
 1042SOL     OW 4024   3.929   5.335   2.579
 1042SOL    HW1 4025   3.988   5.311   2.656
 1042SOL    HW2 4026   3.933   5.263   2.510
 1043SOL     OW 4027   3.642   2.120   3.528
 1043SOL    HW1 4028   3.577   2.103   3.454
 1043SOL    HW2 4029   3.735   2.099   3.498
 1044SOL     OW 4030   5.799   4.899   2.204
 1044SOL    HW1 4031   5.831   4.888   2.298
 1044SOL    HW2 4032   5.852   4.838   2.144
 1045SOL     OW 4033   3.738   0.226   2.456
 1045SOL    HW1 4034   3.800   0.284   2.509
 1045SOL    HW2 4035   3.791   0.156   2.409
 1046SOL     OW 4036   1.547   1.334   0.512
 1046SOL    HW1 4037   1.533   1.432   0.499
 1046SOL    HW2 4038   1.517   1.285   0.430
 1047SOL     OW 4039   1.873   0.199   4.271
 1047SOL    HW1 4040   1.964   0.223   4.240
 1047SOL    HW2 4041   1.805   0.245   4.214
 1048SOL     OW 4042   4.396   6.183   3.339
 1048SOL    HW1 4043   4.433   6.206   3.249
 1048SOL    HW2 4044   4.296   6.193   3.338
 1049SOL     OW 4045   6.588   6.601   4.046
 1049SOL    HW1 4046   6.535   6.525   4.084
 1049SOL    HW2 4047   6.571   6.609   3.948
 1050SOL     OW 4048   3.274   5.127   1.874
 1050SOL    HW1 4049   3.320   5.041   1.852
 1050SOL    HW2 4050   3.230   5.120   1.964
 1051SOL     OW 4051   0.742   5.260   0.721
 1051SOL    HW1 4052   0.645   5.266   0.745
 1051SOL    HW2 4053   0.771   5.345   0.678
 1052SOL     OW 4054   4.348   0.673   5.245
 1052SOL    HW1 4055   4.329   0.575   5.254
 1052SOL    HW2 4056   4.313   0.722   5.324
 1053SOL     OW 4057   5.718   4.544   3.318
 1053SOL    HW1 4058   5.723   4.626   3.261
 1053SOL    HW2 4059   5.771   4.471   3.277
 1054SOL     OW 4060   3.137   3.654   0.605
 1054SOL    HW1 4061   3.092   3.588   0.667
 1054SOL    HW2 4062   3.213   3.609   0.559
 1055SOL     OW 4063   4.389   6.663   5.076
 1055SOL    HW1 4064   4.461   6.650   5.007
 1055SOL    HW2 4065   4.309   6.607   5.052
 1056SOL     OW 4066   2.288   3.814   0.229
 1056SOL    HW1 4067   2.301   3.722   0.266
 1056SOL    HW2 4068   2.190   3.832   0.217
 1057SOL     OW 4069   3.482   3.459   1.866
 1057SOL    HW1 4070   3.451   3.423   1.954
 1057SOL    HW2 4071   3.405   3.500   1.818
 1058SOL     OW 4072   5.361   2.362   3.445
 1058SOL    HW1 4073   5.377   2.269   3.478
 1058SOL    HW2 4074   5.420   2.380   3.367
 1059SOL     OW 4075   2.674   0.783   1.707
 1059SOL    HW1 4076   2.677   0.869   1.656
 1059SOL    HW2 4077   2.656   0.803   1.804
 1060SOL     OW 4078   0.180   5.001   4.332
 1060SOL    HW1 4079   0.176   5.079   4.393
 1060SOL    HW2 4080   0.092   4.990   4.285
 1061SOL     OW 4081   6.519   3.368   0.047
 1061SOL    HW1 4082   6.607   3.326   0.067
 1061SOL    HW2 4083   6.531   3.439   6.998
 1062SOL     OW 4084   5.410   5.237   5.518
 1062SOL    HW1 4085   5.346   5.242   5.441
 1062SOL    HW2 4086   5.504   5.232   5.484
 1063SOL     OW 4087   0.781   5.704   0.927
 1063SOL    HW1 4088   0.746   5.719   1.019
 1063SOL    HW2 4089   0.875   5.738   0.921
 1064SOL     OW 4090   1.772   4.597   3.043
 1064SOL    HW1 4091   1.834   4.618   2.967
 1064SOL    HW2 4092   1.723   4.512   3.024
 1065SOL     OW 4093   4.671   0.404   3.759
 1065SOL    HW1 4094   4.592   0.408   3.697
 1065SOL    HW2 4095   4.726   0.487   3.748
 1066SOL     OW 4096   4.963   6.629   2.744
 1066SOL    HW1 4097   4.953   6.728   2.755
 1066SOL    HW2 4098   5.051   6.609   2.700
 1067SOL     OW 4099   0.732   2.833   0.657
 1067SOL    HW1 4100   0.698   2.738   0.652
 1067SOL    HW2 4101   0.803   2.839   0.727
 1068SOL     OW 4102   6.104   5.066   2.246
 1068SOL    HW1 4103   6.136   4.973   2.231
 1068SOL    HW2 4104   6.011   5.075   2.211
 1069SOL     OW 4105   4.392   5.818   1.013
 1069SOL    HW1 4106   4.319   5.763   0.973
 1069SOL    HW2 4107   4.385   5.912   0.978
 1070SOL     OW 4108   0.406   0.441   1.624
 1070SOL    HW1 4109   0.470   0.476   1.692
 1070SOL    HW2 4110   0.385   0.345   1.644
 1071SOL     OW 4111   1.106   1.071   4.143
 1071SOL    HW1 4112   1.132   0.980   4.111
 1071SOL    HW2 4113   1.009   1.072   4.167
 1072SOL     OW 4114   1.693   0.585   1.131
 1072SOL    HW1 4115   1.703   0.486   1.139
 1072SOL    HW2 4116   1.618   0.615   1.190
 1073SOL     OW 4117   5.216   0.201   3.319
 1073SOL    HW1 4118   5.272   0.284   3.314
 1073SOL    HW2 4119   5.199   0.179   3.415
 1074SOL     OW 4120   2.479   5.574   1.770
 1074SOL    HW1 4121   2.452   5.641   1.701
 1074SOL    HW2 4122   2.531   5.500   1.726
 1075SOL     OW 4123   5.662   0.023   3.717
 1075SOL    HW1 4124   5.711   6.996   3.790
 1075SOL    HW2 4125   5.681   6.998   3.630
 1076SOL     OW 4126   0.733   2.648   5.531
 1076SOL    HW1 4127   0.797   2.634   5.606
 1076SOL    HW2 4128   0.770   2.608   5.447
 1077SOL     OW 4129   6.070   0.215   0.608
 1077SOL    HW1 4130   6.135   0.249   0.676
 1077SOL    HW2 4131   5.982   0.200   0.652
 1078SOL     OW 4132   0.286   0.538   2.440
 1078SOL    HW1 4133   0.295   0.527   2.341
 1078SOL    HW2 4134   0.376   0.532   2.483
 1079SOL     OW 4135   1.264   6.103   2.215
 1079SOL    HW1 4136   1.239   6.125   2.121
 1079SOL    HW2 4137   1.290   6.187   2.263
 1080SOL     OW 4138   2.086   5.572   3.299
 1080SOL    HW1 4139   2.031   5.506   3.350
 1080SOL    HW2 4140   2.063   5.568   3.202
 1081SOL     OW 4141   6.688   4.990   5.499
 1081SOL    HW1 4142   6.730   5.012   5.587
 1081SOL    HW2 4143   6.599   4.947   5.515
 1082SOL     OW 4144   5.376   2.343   5.306
 1082SOL    HW1 4145   5.383   2.426   5.362
 1082SOL    HW2 4146   5.464   2.326   5.261
 1083SOL     OW 4147   4.632   4.251   0.150
 1083SOL    HW1 4148   4.554   4.296   0.194
 1083SOL    HW2 4149   4.713   4.309   0.157
 1084SOL     OW 4150   6.066   5.853   6.406
 1084SOL    HW1 4151   6.104   5.855   6.314
 1084SOL    HW2 4152   6.073   5.760   6.443
 1085SOL     OW 4153   1.889   3.568   4.500
 1085SOL    HW1 4154   1.932   3.576   4.590
 1085SOL    HW2 4155   1.908   3.477   4.462
 1086SOL     OW 4156   0.134   4.935   0.543
 1086SOL    HW1 4157   0.136   4.880   0.626
 1086SOL    HW2 4158   0.199   4.897   0.477
 1087SOL     OW 4159   6.694   2.350   5.254
 1087SOL    HW1 4160   6.656   2.416   5.189
 1087SOL    HW2 4161   6.636   2.269   5.257
 1088SOL     OW 4162   0.285   3.627   2.508
 1088SOL    HW1 4163   0.232   3.707   2.480
 1088SOL    HW2 4164   0.237   3.580   2.582
 1089SOL     OW 4165   0.548   5.867   4.681
 1089SOL    HW1 4166   0.510   5.958   4.699
 1089SOL    HW2 4167   0.516   5.803   4.751
 1090SOL     OW 4168   2.897   2.036   3.279
 1090SOL    HW1 4169   2.904   1.942   3.313
 1090SOL    HW2 4170   2.912   2.099   3.355
 1091SOL     OW 4171   3.075   1.898   4.520
 1091SOL    HW1 4172   2.994   1.842   4.504
 1091SOL    HW2 4173   3.055   1.993   4.499
 1092SOL     OW 4174   0.666   4.434   0.839
 1092SOL    HW1 4175   0.706   4.446   0.930
 1092SOL    HW2 4176   0.604   4.510   0.819
 1093SOL     OW 4177   2.445   0.371   1.428
 1093SOL    HW1 4178   2.382   0.392   1.354
 1093SOL    HW2 4179   2.467   0.456   1.477
 1094SOL     OW 4180   0.875   6.825   2.505
 1094SOL    HW1 4181   0.929   6.799   2.425
 1094SOL    HW2 4182   0.900   6.917   2.535
 1095SOL     OW 4183   1.093   3.117   6.014
 1095SOL    HW1 4184   1.075   3.148   6.108
 1095SOL    HW2 4185   1.089   3.017   6.011
 1096SOL     OW 4186   3.278   4.176   1.613
 1096SOL    HW1 4187   3.206   4.239   1.643
 1096SOL    HW2 4188   3.265   4.088   1.658
 1097SOL     OW 4189   2.738   4.770   3.371
 1097SOL    HW1 4190   2.688   4.846   3.412
 1097SOL    HW2 4191   2.685   4.686   3.379
 1098SOL     OW 4192   4.426   3.490   6.642
 1098SOL    HW1 4193   4.331   3.507   6.667
 1098SOL    HW2 4194   4.484   3.565   6.675
 1099SOL     OW 4195   3.444   1.040   5.762
 1099SOL    HW1 4196   3.509   1.085   5.700
 1099SOL    HW2 4197   3.495   0.987   5.829
 1100SOL     OW 4198   4.379   1.697   4.380
 1100SOL    HW1 4199   4.290   1.653   4.380
 1100SOL    HW2 4200   4.451   1.627   4.385
 1101SOL     OW 4201   5.568   2.867   5.841
 1101SOL    HW1 4202   5.590   2.830   5.931
 1101SOL    HW2 4203   5.578   2.967   5.843
 1102SOL     OW 4204   0.894   0.278   4.795
 1102SOL    HW1 4205   0.952   0.259   4.716
 1102SOL    HW2 4206   0.808   0.228   4.787
 1103SOL     OW 4207   3.956   1.391   0.215
 1103SOL    HW1 4208   3.988   1.307   0.260
 1103SOL    HW2 4209   3.967   1.468   0.277
 1104SOL     OW 4210   1.765   3.053   5.519
 1104SOL    HW1 4211   1.861   3.026   5.516
 1104SOL    HW2 4212   1.724   3.040   5.428
 1105SOL     OW 4213   5.819   3.338   4.791
 1105SOL    HW1 4214   5.919   3.340   4.794
 1105SOL    HW2 4215   5.783   3.324   4.883
 1106SOL     OW 4216   0.082   2.288   1.093
 1106SOL    HW1 4217   0.062   2.289   1.191
 1106SOL    HW2 4218   0.110   2.196   1.066
 1107SOL     OW 4219   0.912   0.793   6.911
 1107SOL    HW1 4220   0.996   0.756   6.952
 1107SOL    HW2 4221   0.846   0.720   6.898
 1108SOL     OW 4222   3.381   6.700   5.415
 1108SOL    HW1 4223   3.461   6.713   5.356
 1108SOL    HW2 4224   3.402   6.733   5.507
 1109SOL     OW 4225   5.783   0.820   3.580
 1109SOL    HW1 4226   5.691   0.795   3.549
 1109SOL    HW2 4227   5.801   0.778   3.668
 1110SOL     OW 4228   4.153   2.026   3.057
 1110SOL    HW1 4229   4.093   1.956   3.019
 1110SOL    HW2 4230   4.248   1.994   3.052
 1111SOL     OW 4231   4.164   5.278   6.782
 1111SOL    HW1 4232   4.100   5.226   6.839
 1111SOL    HW2 4233   4.249   5.227   6.771
 1112SOL     OW 4234   5.611   1.077   2.542
 1112SOL    HW1 4235   5.702   1.099   2.577
 1112SOL    HW2 4236   5.620   1.028   2.455
 1113SOL     OW 4237   5.830   4.188   1.745
 1113SOL    HW1 4238   5.857   4.155   1.655
 1113SOL    HW2 4239   5.850   4.286   1.752
 1114SOL     OW 4240   3.260   1.493   5.743
 1114SOL    HW1 4241   3.270   1.479   5.841
 1114SOL    HW2 4242   3.271   1.591   5.722
 1115SOL     OW 4243   3.766   3.540   5.932
 1115SOL    HW1 4244   3.829   3.562   5.857
 1115SOL    HW2 4245   3.814   3.548   6.019
 1116SOL     OW 4246   4.512   6.365   5.670
 1116SOL    HW1 4247   4.595   6.320   5.636
 1116SOL    HW2 4248   4.432   6.318   5.635
 1117SOL     OW 4249   1.914   2.357   2.053
 1117SOL    HW1 4250   1.824   2.400   2.053
 1117SOL    HW2 4251   1.972   2.400   2.122
 1118SOL     OW 4252   3.298   4.714   0.765
 1118SOL    HW1 4253   3.240   4.794   0.750
 1118SOL    HW2 4254   3.313   4.702   0.863
 1119SOL     OW 4255   4.454   4.539   1.859
 1119SOL    HW1 4256   4.479   4.448   1.894
 1119SOL    HW2 4257   4.386   4.529   1.786
 1120SOL     OW 4258   5.827   6.351   0.721
 1120SOL    HW1 4259   5.913   6.400   0.712
 1120SOL    HW2 4260   5.760   6.390   0.657
 1121SOL     OW 4261   6.424   4.579   4.896
 1121SOL    HW1 4262   6.385   4.668   4.916
 1121SOL    HW2 4263   6.516   4.591   4.858
 1122SOL     OW 4264   4.810   2.485   1.554
 1122SOL    HW1 4265   4.859   2.466   1.469
 1122SOL    HW2 4266   4.866   2.545   1.612
 1123SOL     OW 4267   5.118   1.778   2.797
 1123SOL    HW1 4268   5.022   1.808   2.804
 1123SOL    HW2 4269   5.177   1.848   2.838
 1124SOL     OW 4270   6.999   3.527   5.303
 1124SOL    HW1 4271   0.017   3.467   5.373
 1124SOL    HW2 4272   0.054   3.574   5.256
 1125SOL     OW 4273   2.855   1.871   3.721
 1125SOL    HW1 4274   2.950   1.898   3.739
 1125SOL    HW2 4275   2.793   1.942   3.756
 1126SOL     OW 4276   5.551   5.758   6.976
 1126SOL    HW1 4277   5.541   5.806   0.043
 1126SOL    HW2 4278   5.519   5.664   6.985
 1127SOL     OW 4279   5.174   5.973   4.332
 1127SOL    HW1 4280   5.168   5.875   4.312
 1127SOL    HW2 4281   5.102   6.022   4.283
 1128SOL     OW 4282   6.054   1.448   4.727
 1128SOL    HW1 4283   6.061   1.447   4.628
 1128SOL    HW2 4284   6.144   1.431   4.767
 1129SOL     OW 4285   1.319   0.031   0.707
 1129SOL    HW1 4286   1.325   0.037   0.807
 1129SOL    HW2 4287   1.395   6.995   0.673
 1130SOL     OW 4288   2.443   4.750   0.595
 1130SOL    HW1 4289   2.462   4.665   0.546
 1130SOL    HW2 4290   2.406   4.728   0.685
 1131SOL     OW 4291   1.250   5.941   5.865
 1131SOL    HW1 4292   1.303   5.856   5.872
 1131SOL    HW2 4293   1.210   5.963   5.954
 1132SOL     OW 4294   5.371   0.517   2.743
 1132SOL    HW1 4295   5.300   0.492   2.677
 1132SOL    HW2 4296   5.357   0.465   2.828
 1133SOL     OW 4297   0.751   1.118   0.257
 1133SOL    HW1 4298   0.768   1.095   0.161
 1133SOL    HW2 4299   0.687   1.051   0.296
 1134SOL     OW 4300   5.704   6.799   2.560
 1134SOL    HW1 4301   5.619   6.849   2.571
 1134SOL    HW2 4302   5.769   6.855   2.508
 1135SOL     OW 4303   2.877   6.584   3.751
 1135SOL    HW1 4304   2.857   6.620   3.842
 1135SOL    HW2 4305   2.831   6.640   3.682
 1136SOL     OW 4306   4.347   4.771   3.428
 1136SOL    HW1 4307   4.411   4.706   3.385
 1136SOL    HW2 4308   4.352   4.859   3.381
 1137SOL     OW 4309   1.298   5.997   0.025
 1137SOL    HW1 4310   1.285   6.017   6.948
 1137SOL    HW2 4311   1.393   5.971   0.041
 1138SOL     OW 4312   0.307   1.017   5.886
 1138SOL    HW1 4313   0.405   0.998   5.875
 1138SOL    HW2 4314   0.256   0.931   5.884
 1139SOL     OW 4315   3.174   4.972   2.755
 1139SOL    HW1 4316   3.102   4.923   2.706
 1139SOL    HW2 4317   3.141   5.062   2.783
 1140SOL     OW 4318   3.008   1.098   2.174
 1140SOL    HW1 4319   3.080   1.030   2.156
 1140SOL    HW2 4320   3.021   1.177   2.114
 1141SOL     OW 4321   0.876   6.133   6.884
 1141SOL    HW1 4322   0.930   6.054   6.857
 1141SOL    HW2 4323   0.806   6.105   6.950
 1142SOL     OW 4324   3.451   0.287   3.938
 1142SOL    HW1 4325   3.440   0.202   3.990
 1142SOL    HW2 4326   3.493   0.357   3.996
 1143SOL     OW 4327   2.396   2.698   3.402
 1143SOL    HW1 4328   2.421   2.697   3.499
 1143SOL    HW2 4329   2.317   2.756   3.388
 1144SOL     OW 4330   5.977   4.392   3.933
 1144SOL    HW1 4331   5.893   4.438   3.906
 1144SOL    HW2 4332   6.052   4.422   3.874
 1145SOL     OW 4333   6.612   3.740   1.480
 1145SOL    HW1 4334   6.568   3.659   1.442
 1145SOL    HW2 4335   6.604   3.740   1.579
 1146SOL     OW 4336   6.862   0.738   2.541
 1146SOL    HW1 4337   6.793   0.714   2.473
 1146SOL    HW2 4338   6.910   0.821   2.511
 1147SOL     OW 4339   2.934   5.662   1.464
 1147SOL    HW1 4340   2.927   5.753   1.506
 1147SOL    HW2 4341   2.999   5.606   1.515
 1148SOL     OW 4342   4.535   5.949   0.112
 1148SOL    HW1 4343   4.442   5.978   0.088
 1148SOL    HW2 4344   4.600   5.999   0.055
 1149SOL     OW 4345   6.454   3.128   2.777
 1149SOL    HW1 4346   6.471   3.053   2.841
 1149SOL    HW2 4347   6.421   3.091   2.690
 1150SOL     OW 4348   0.746   4.117   0.248
 1150SOL    HW1 4349   0.787   4.075   0.167
 1150SOL    HW2 4350   0.655   4.078   0.263
 1151SOL     OW 4351   5.938   4.092   5.861
 1151SOL    HW1 4352   5.941   4.017   5.795
 1151SOL    HW2 4353   6.022   4.146   5.854
 1152SOL     OW 4354   4.916   5.114   0.186
 1152SOL    HW1 4355   4.985   5.100   0.114
 1152SOL    HW2 4356   4.828   5.081   0.153
 1153SOL     OW 4357   0.320   0.084   1.858
 1153SOL    HW1 4358   0.287   0.104   1.951
 1153SOL    HW2 4359   0.254   0.025   1.812
 1154SOL     OW 4360   0.144   4.434   1.494
 1154SOL    HW1 4361   0.226   4.469   1.449
 1154SOL    HW2 4362   0.170   4.385   1.577
 1155SOL     OW 4363   2.344   4.768   6.155
 1155SOL    HW1 4364   2.365   4.770   6.253
 1155SOL    HW2 4365   2.371   4.679   6.118
 1156SOL     OW 4366   4.411   2.095   4.929
 1156SOL    HW1 4367   4.394   2.094   4.830
 1156SOL    HW2 4368   4.373   2.012   4.970
 1157SOL     OW 4369   5.267   1.120   6.221
 1157SOL    HW1 4370   5.198   1.110   6.292
 1157SOL    HW2 4371   5.355   1.085   6.254
 1158SOL     OW 4372   7.008   5.033   5.239
 1158SOL    HW1 4373   6.936   4.976   5.279
 1158SOL    HW2 4374   0.067   4.976   5.219
 1159SOL     OW 4375   6.552   0.089   3.649
 1159SOL    HW1 4376   6.512   0.006   3.610
 1159SOL    HW2 4377   6.590   0.068   3.739
 1160SOL     OW 4378   5.282   4.711   1.062
 1160SOL    HW1 4379   5.305   4.703   0.965
 1160SOL    HW2 4380   5.266   4.620   1.100
 1161SOL     OW 4381   6.240   5.272   5.464
 1161SOL    HW1 4382   6.209   5.240   5.374
 1161SOL    HW2 4383   6.340   5.261   5.470
 1162SOL     OW 4384   2.242   2.437   6.978
 1162SOL    HW1 4385   2.328   2.479   6.952
 1162SOL    HW2 4386   2.206   2.384   6.901
 1163SOL     OW 4387   6.820   3.848   1.906
 1163SOL    HW1 4388   6.862   3.759   1.923
 1163SOL    HW2 4389   6.820   3.902   1.990
 1164SOL     OW 4390   5.322   2.518   3.743
 1164SOL    HW1 4391   5.246   2.579   3.765
 1164SOL    HW2 4392   5.403   2.545   3.796
 1165SOL     OW 4393   4.064   5.102   3.684
 1165SOL    HW1 4394   4.162   5.119   3.692
 1165SOL    HW2 4395   4.042   5.078   3.589
 1166SOL     OW 4396   3.470   0.010   0.436
 1166SOL    HW1 4397   3.523   6.964   0.489
 1166SOL    HW2 4398   3.457   6.996   0.343
 1167SOL     OW 4399   4.136   6.819   0.713
 1167SOL    HW1 4400   4.182   6.731   0.712
 1167SOL    HW2 4401   4.187   6.885   0.658
 1168SOL     OW 4402   5.298   2.751   1.990
 1168SOL    HW1 4403   5.355   2.833   1.993
 1168SOL    HW2 4404   5.352   2.671   2.016
 1169SOL     OW 4405   4.786   2.602   6.069
 1169SOL    HW1 4406   4.813   2.584   6.163
 1169SOL    HW2 4407   4.778   2.701   6.055
 1170SOL     OW 4408   5.351   6.957   2.874
 1170SOL    HW1 4409   5.287   7.018   2.826
 1170SOL    HW2 4410   5.391   6.894   2.808
 1171SOL     OW 4411   2.455   6.515   6.940
 1171SOL    HW1 4412   2.510   6.598   6.931
 1171SOL    HW2 4413   2.514   6.436   6.955
 1172SOL     OW 4414   3.261   3.801   1.490
 1172SOL    HW1 4415   3.267   3.858   1.409
 1172SOL    HW2 4416   3.184   3.830   1.547
 1173SOL     OW 4417   3.334   1.652   0.839
 1173SOL    HW1 4418   3.326   1.714   0.916
 1173SOL    HW2 4419   3.430   1.647   0.810
 1174SOL     OW 4420   2.464   4.975   2.174
 1174SOL    HW1 4421   2.410   4.895   2.149
 1174SOL    HW2 4422   2.403   5.045   2.211
 1175SOL     OW 4423   4.244   4.517   6.648
 1175SOL    HW1 4424   4.221   4.483   6.557
 1175SOL    HW2 4425   4.327   4.574   6.643
 1176SOL     OW 4426   5.571   3.384   6.419
 1176SOL    HW1 4427   5.646   3.450   6.429
 1176SOL    HW2 4428   5.499   3.405   6.486
 1177SOL     OW 4429   0.126   3.497   4.685
 1177SOL    HW1 4430   0.102   3.547   4.601
 1177SOL    HW2 4431   0.212   3.532   4.721
 1178SOL     OW 4432   3.925   4.241   0.683
 1178SOL    HW1 4433   3.883   4.154   0.708
 1178SOL    HW2 4434   3.856   4.313   0.683
 1179SOL     OW 4435   2.038   5.898   1.209
 1179SOL    HW1 4436   1.974   5.868   1.280
 1179SOL    HW2 4437   2.042   5.998   1.208
 1180SOL     OW 4438   3.074   5.617   4.451
 1180SOL    HW1 4439   3.120   5.529   4.439
 1180SOL    HW2 4440   2.976   5.603   4.455
 1181SOL     OW 4441   0.328   4.960   5.402
 1181SOL    HW1 4442   0.282   4.920   5.323
 1181SOL    HW2 4443   0.416   4.998   5.375
 1182SOL     OW 4444   4.435   5.182   3.735
 1182SOL    HW1 4445   4.393   5.252   3.792
 1182SOL    HW2 4446   4.505   5.224   3.677
 1183SOL     OW 4447   2.627   4.335   1.599
 1183SOL    HW1 4448   2.682   4.274   1.656
 1183SOL    HW2 4449   2.616   4.294   1.508
 1184SOL     OW 4450   0.203   1.364   5.299
 1184SOL    HW1 4451   0.158   1.280   5.326
 1184SOL    HW2 4452   0.148   1.443   5.329
 1185SOL     OW 4453   1.075   1.047   0.517
 1185SOL    HW1 4454   1.099   1.004   0.604
 1185SOL    HW2 4455   1.051   0.977   0.450
 1186SOL     OW 4456   4.928   6.077   5.425
 1186SOL    HW1 4457   4.833   6.046   5.421
 1186SOL    HW2 4458   4.950   6.128   5.342
 1187SOL     OW 4459   5.070   0.465   4.886
 1187SOL    HW1 4460   5.007   0.533   4.848
 1187SOL    HW2 4461   5.119   0.419   4.811
 1188SOL     OW 4462   3.031   5.509   6.008
 1188SOL    HW1 4463   2.945   5.462   6.024
 1188SOL    HW2 4464   3.104   5.442   5.993
 1189SOL     OW 4465   6.102   2.330   1.432
 1189SOL    HW1 4466   6.177   2.361   1.489
 1189SOL    HW2 4467   6.139   2.295   1.345
 1190SOL     OW 4468   3.626   6.086   3.100
 1190SOL    HW1 4469   3.645   6.054   3.007
 1190SOL    HW2 4470   3.528   6.077   3.118
 1191SOL     OW 4471   4.476   5.071   4.565
 1191SOL    HW1 4472   4.402   5.133   4.539
 1191SOL    HW2 4473   4.471   4.987   4.510
 1192SOL     OW 4474   5.164   4.830   3.061
 1192SOL    HW1 4475   5.087   4.772   3.087
 1192SOL    HW2 4476   5.133   4.895   2.991
 1193SOL     OW 4477   0.409   2.402   5.688
 1193SOL    HW1 4478   0.379   2.338   5.759
 1193SOL    HW2 4479   0.490   2.366   5.643
 1194SOL     OW 4480   5.981   0.935   1.306
 1194SOL    HW1 4481   5.999   0.882   1.389
 1194SOL    HW2 4482   5.913   1.005   1.325
 1195SOL     OW 4483   0.086   3.837   0.685
 1195SOL    HW1 4484   0.094   3.937   0.689
 1195SOL    HW2 4485   0.130   3.797   0.765
 1196SOL     OW 4486   6.355   4.859   3.753
 1196SOL    HW1 4487   6.419   4.802   3.702
 1196SOL    HW2 4488   6.394   4.884   3.841
 1197SOL     OW 4489   4.636   6.964   4.612
 1197SOL    HW1 4490   4.605   6.950   4.518
 1197SOL    HW2 4491   4.571   6.921   4.675
 1198SOL     OW 4492   1.745   3.663   2.774
 1198SOL    HW1 4493   1.795   3.649   2.689
 1198SOL    HW2 4494   1.735   3.576   2.822
 1199SOL     OW 4495   3.781   3.730   2.452
 1199SOL    HW1 4496   3.793   3.828   2.465
 1199SOL    HW2 4497   3.691   3.712   2.412
 1200SOL     OW 4498   3.028   4.007   4.610
 1200SOL    HW1 4499   3.102   3.943   4.592
 1200SOL    HW2 4500   2.940   3.961   4.596
 1201SOL     OW 4501   1.237   1.518   4.473
 1201SOL    HW1 4502   1.239   1.565   4.385
 1201SOL    HW2 4503   1.155   1.461   4.479
 1202SOL     OW 4504   0.371   5.299   5.182
 1202SOL    HW1 4505   0.374   5.307   5.282
 1202SOL    HW2 4506   0.319   5.376   5.144
 1203SOL     OW 4507   0.303   5.465   0.207
 1203SOL    HW1 4508   0.380   5.407   0.233
 1203SOL    HW2 4509   0.320   5.558   0.241
 1204SOL     OW 4510   4.448   0.965   1.689
 1204SOL    HW1 4511   4.464   0.895   1.620
 1204SOL    HW2 4512   4.373   1.024   1.660
 1205SOL     OW 4513   3.918   3.542   0.417
 1205SOL    HW1 4514   3.862   3.462   0.393
 1205SOL    HW2 4515   4.009   3.511   0.446
 1206SOL     OW 4516   2.449   2.580   5.437
 1206SOL    HW1 4517   2.414   2.630   5.516
 1206SOL    HW2 4518   2.438   2.636   5.355
 1207SOL     OW 4519   1.354   0.028   0.998
 1207SOL    HW1 4520   1.261   0.041   1.034
 1207SOL    HW2 4521   1.389   6.959   1.028
 1208SOL     OW 4522   3.351   3.337   1.299
 1208SOL    HW1 4523   3.411   3.259   1.319
 1208SOL    HW2 4524   3.368   3.411   1.364
 1209SOL     OW 4525   5.600   0.280   3.646
 1209SOL    HW1 4526   5.522   0.276   3.583
 1209SOL    HW2 4527   5.626   0.188   3.673
 1210SOL     OW 4528   4.389   6.825   3.851
 1210SOL    HW1 4529   4.299   6.781   3.853
 1210SOL    HW2 4530   4.388   6.905   3.911
 1211SOL     OW 4531   1.182   2.843   2.826
 1211SOL    HW1 4532   1.110   2.883   2.882
 1211SOL    HW2 4533   1.175   2.877   2.732
 1212SOL     OW 4534   6.439   0.374   6.299
 1212SOL    HW1 4535   6.409   0.470   6.305
 1212SOL    HW2 4536   6.442   0.335   6.391
 1213SOL     OW 4537   6.172   2.991   0.668
 1213SOL    HW1 4538   6.078   2.997   0.703
 1213SOL    HW2 4539   6.170   2.979   0.569
 1214SOL     OW 4540   0.819   3.977   0.038
 1214SOL    HW1 4541   0.795   3.980   6.961
 1214SOL    HW2 4542   0.916   3.998   0.049
 1215SOL     OW 4543   1.004   4.333   3.505
 1215SOL    HW1 4544   0.925   4.395   3.510
 1215SOL    HW2 4545   1.007   4.277   3.587
 1216SOL     OW 4546   5.036   0.420   0.641
 1216SOL    HW1 4547   4.940   0.443   0.651
 1216SOL    HW2 4548   5.084   0.494   0.595
 1217SOL     OW 4549   2.690   4.420   0.680
 1217SOL    HW1 4550   2.607   4.476   0.688
 1217SOL    HW2 4551   2.674   4.332   0.726
 1218SOL     OW 4552   1.288   3.281   4.718
 1218SOL    HW1 4553   1.295   3.352   4.787
 1218SOL    HW2 4554   1.365   3.218   4.726
 1219SOL     OW 4555   5.473   6.208   1.864
 1219SOL    HW1 4556   5.412   6.144   1.817
 1219SOL    HW2 4557   5.568   6.182   1.846
 1220SOL     OW 4558   1.167   4.589   3.178
 1220SOL    HW1 4559   1.099   4.635   3.235
 1220SOL    HW2 4560   1.130   4.575   3.087
 1221SOL     OW 4561   4.150   4.472   6.369
 1221SOL    HW1 4562   4.199   4.532   6.305
 1221SOL    HW2 4563   4.124   4.388   6.322
 1222SOL     OW 4564   6.748   1.174   6.962
 1222SOL    HW1 4565   6.798   1.113   6.901
 1222SOL    HW2 4566   6.784   1.268   6.953
 1223SOL     OW 4567   3.894   2.071   0.385
 1223SOL    HW1 4568   3.861   2.165   0.378
 1223SOL    HW2 4569   3.851   2.015   0.314
 1224SOL     OW 4570   4.044   5.769   0.527
 1224SOL    HW1 4571   3.965   5.723   0.487
 1224SOL    HW2 4572   4.128   5.735   0.485
 1225SOL     OW 4573   3.040   2.988   6.643
 1225SOL    HW1 4574   2.995   3.009   6.556
 1225SOL    HW2 4575   2.974   2.945   6.705
 1226SOL     OW 4576   2.198   6.582   1.353
 1226SOL    HW1 4577   2.201   6.483   1.340
 1226SOL    HW2 4578   2.120   6.620   1.304
 1227SOL     OW 4579   5.949   4.373   5.855
 1227SOL    HW1 4580   5.928   4.287   5.901
 1227SOL    HW2 4581   5.903   4.376   5.766
 1228SOL     OW 4582   3.141   1.601   6.008
 1228SOL    HW1 4583   3.212   1.667   6.033
 1228SOL    HW2 4584   3.093   1.634   5.927
 1229SOL     OW 4585   3.587   4.985   6.408
 1229SOL    HW1 4586   3.606   4.984   6.310
 1229SOL    HW2 4587   3.672   5.003   6.458
 1230SOL     OW 4588   4.984   6.686   2.394
 1230SOL    HW1 4589   4.908   6.749   2.376
 1230SOL    HW2 4590   4.954   6.592   2.378
 1231SOL     OW 4591   1.812   2.455   4.537
 1231SOL    HW1 4592   1.746   2.386   4.509
 1231SOL    HW2 4593   1.828   2.448   4.635
 1232SOL     OW 4594   0.082   2.366   5.665
 1232SOL    HW1 4595   0.161   2.400   5.718
 1232SOL    HW2 4596   0.012   2.333   5.728
 1233SOL     OW 4597   1.002   5.277   5.211
 1233SOL    HW1 4598   0.972   5.363   5.252
 1233SOL    HW2 4599   1.095   5.256   5.242
 1234SOL     OW 4600   6.341   2.921   5.928
 1234SOL    HW1 4601   6.370   2.827   5.948
 1234SOL    HW2 4602   6.402   2.985   5.974
 1235SOL     OW 4603   6.566   5.488   2.992
 1235SOL    HW1 4604   6.650   5.542   2.991
 1235SOL    HW2 4605   6.488   5.547   2.975
 1236SOL     OW 4606   4.959   1.149   7.016
 1236SOL    HW1 4607   4.938   1.188   0.086
 1236SOL    HW2 4608   5.044   1.188   6.982
 1237SOL     OW 4609   2.080   4.682   6.382
 1237SOL    HW1 4610   2.117   4.625   6.308
 1237SOL    HW2 4611   2.049   4.769   6.345
 1238SOL     OW 4612   1.269   1.472   1.037
 1238SOL    HW1 4613   1.171   1.458   1.020
 1238SOL    HW2 4614   1.312   1.510   0.956
 1239SOL     OW 4615   6.901   6.554   6.295
 1239SOL    HW1 4616   6.882   6.456   6.301
 1239SOL    HW2 4617   6.850   6.602   6.366
 1240SOL     OW 4618   5.320   6.200   1.419
 1240SOL    HW1 4619   5.410   6.158   1.407
 1240SOL    HW2 4620   5.331   6.300   1.427
 1241SOL     OW 4621   5.497   2.849   4.260
 1241SOL    HW1 4622   5.475   2.901   4.343
 1241SOL    HW2 4623   5.580   2.886   4.219
 1242SOL     OW 4624   0.729   3.637   1.507
 1242SOL    HW1 4625   0.648   3.695   1.496
 1242SOL    HW2 4626   0.781   3.635   1.421
 1243SOL     OW 4627   0.240   6.386   5.051
 1243SOL    HW1 4628   0.153   6.412   5.093
 1243SOL    HW2 4629   0.302   6.465   5.049
 1244SOL     OW 4630   5.875   6.958   4.816
 1244SOL    HW1 4631   5.845   0.030   4.791
 1244SOL    HW2 4632   5.891   6.904   4.733
 1245SOL     OW 4633   5.638   4.929   0.446
 1245SOL    HW1 4634   5.594   4.844   0.416
 1245SOL    HW2 4635   5.570   4.988   0.490
 1246SOL     OW 4636   2.786   7.000   0.985
 1246SOL    HW1 4637   2.694   0.014   1.003
 1246SOL    HW2 4638   2.783   6.936   0.908
 1247SOL     OW 4639   1.230   6.527   6.530
 1247SOL    HW1 4640   1.307   6.549   6.470
 1247SOL    HW2 4641   1.263   6.512   6.623
 1248SOL     OW 4642   1.958   0.044   5.155
 1248SOL    HW1 4643   1.966   0.140   5.185
 1248SOL    HW2 4644   2.030   0.024   5.089
 1249SOL     OW 4645   6.328   2.052   2.364
 1249SOL    HW1 4646   6.388   2.078   2.288
 1249SOL    HW2 4647   6.233   2.048   2.332
 1250SOL     OW 4648   5.723   5.302   4.031
 1250SOL    HW1 4649   5.786   5.250   4.088
 1250SOL    HW2 4650   5.765   5.389   4.005
 1251SOL     OW 4651   2.896   0.707   3.497
 1251SOL    HW1 4652   2.947   0.638   3.446
 1251SOL    HW2 4653   2.874   0.671   3.587
 1252SOL     OW 4654   4.355   3.614   6.355
 1252SOL    HW1 4655   4.418   3.640   6.428
 1252SOL    HW2 4656   4.348   3.514   6.351
 1253SOL     OW 4657   3.121   5.798   2.742
 1253SOL    HW1 4658   3.038   5.777   2.793
 1253SOL    HW2 4659   3.098   5.855   2.663
 1254SOL     OW 4660   0.885   2.758   2.494
 1254SOL    HW1 4661   0.820   2.805   2.434
 1254SOL    HW2 4662   0.835   2.702   2.560
 1255SOL     OW 4663   6.206   1.931   5.489
 1255SOL    HW1 4664   6.294   1.937   5.536
 1255SOL    HW2 4665   6.200   1.844   5.441
 1256SOL     OW 4666   6.930   6.703   3.476
 1256SOL    HW1 4667   0.009   6.712   3.467
 1256SOL    HW2 4668   6.901   6.739   3.564
 1257SOL     OW 4669   6.992   5.969   5.328
 1257SOL    HW1 4670   6.958   5.992   5.419
 1257SOL    HW2 4671   6.941   6.022   5.260
 1258SOL     OW 4672   1.923   5.073   2.629
 1258SOL    HW1 4673   1.850   5.046   2.692
 1258SOL    HW2 4674   1.896   5.050   2.536
 1259SOL     OW 4675   4.494   0.569   3.993
 1259SOL    HW1 4676   4.415   0.510   4.007
 1259SOL    HW2 4677   4.496   0.601   3.899
 1260SOL     OW 4678   1.792   1.451   0.537
 1260SOL    HW1 4679   1.830   1.480   0.448
 1260SOL    HW2 4680   1.721   1.383   0.522
 1261SOL     OW 4681   0.185   5.963   6.379
 1261SOL    HW1 4682   0.232   6.043   6.416
 1261SOL    HW2 4683   0.252   5.902   6.337
 1262SOL     OW 4684   5.384   4.954   1.108
 1262SOL    HW1 4685   5.338   4.865   1.101
 1262SOL    HW2 4686   5.376   4.988   1.201
 1263SOL     OW 4687   0.267   2.086   1.881
 1263SOL    HW1 4688   0.342   2.029   1.916
 1263SOL    HW2 4689   0.221   2.131   1.957
 1264SOL     OW 4690   6.354   4.428   0.619
 1264SOL    HW1 4691   6.417   4.495   0.658
 1264SOL    HW2 4692   6.273   4.421   0.677
 1265SOL     OW 4693   5.712   5.556   4.656
 1265SOL    HW1 4694   5.664   5.515   4.734
 1265SOL    HW2 4695   5.659   5.542   4.573
 1266SOL     OW 4696   0.495   1.356   3.985
 1266SOL    HW1 4697   0.531   1.409   3.908
 1266SOL    HW2 4698   0.527   1.261   3.977
 1267SOL     OW 4699   5.017   1.120   1.092
 1267SOL    HW1 4700   4.918   1.133   1.099
 1267SOL    HW2 4701   5.057   1.121   1.184
 1268SOL     OW 4702   2.707   2.528   0.030
 1268SOL    HW1 4703   2.775   2.494   6.985
 1268SOL    HW2 4704   2.706   2.470   0.112
 1269SOL     OW 4705   6.095   3.777   4.224
 1269SOL    HW1 4706   6.104   3.807   4.130
 1269SOL    HW2 4707   6.128   3.849   4.286
 1270SOL     OW 4708   1.626   3.824   3.282
 1270SOL    HW1 4709   1.617   3.777   3.370
 1270SOL    HW2 4710   1.597   3.762   3.209
 1271SOL     OW 4711   2.902   1.998   2.857
 1271SOL    HW1 4712   2.900   1.977   2.759
 1271SOL    HW2 4713   2.904   2.097   2.870
 1272SOL     OW 4714   5.807   4.281   7.017
 1272SOL    HW1 4715   5.807   4.375   6.983
 1272SOL    HW2 4716   5.719   4.239   6.999
 1273SOL     OW 4717   0.480   3.425   6.825
 1273SOL    HW1 4718   0.444   3.400   6.915
 1273SOL    HW2 4719   0.479   3.345   6.765
 1274SOL     OW 4720   6.966   4.618   1.608
 1274SOL    HW1 4721   0.011   4.679   1.653
 1274SOL    HW2 4722   7.015   4.545   1.561
 1275SOL     OW 4723   3.998   1.101   4.049
 1275SOL    HW1 4724   4.034   1.079   4.140
 1275SOL    HW2 4725   4.017   1.197   4.028
 1276SOL     OW 4726   6.805   4.856   5.278
 1276SOL    HW1 4727   6.731   4.809   5.229
 1276SOL    HW2 4728   6.770   4.898   5.361
 1277SOL     OW 4729   1.816   5.609   5.686
 1277SOL    HW1 4730   1.796   5.655   5.599
 1277SOL    HW2 4731   1.874   5.668   5.742
 1278SOL     OW 4732   1.050   0.258   5.028
 1278SOL    HW1 4733   1.136   0.305   5.012
 1278SOL    HW2 4734   0.986   0.279   4.954
 1279SOL     OW 4735   1.779   4.774   0.495
 1279SOL    HW1 4736   1.796   4.679   0.468
 1279SOL    HW2 4737   1.815   4.836   0.425
 1280SOL     OW 4738   4.672   6.554   4.382
 1280SOL    HW1 4739   4.735   6.578   4.308
 1280SOL    HW2 4740   4.611   6.481   4.352
 1281SOL     OW 4741   2.883   6.479   3.075
 1281SOL    HW1 4742   2.951   6.406   3.075
 1281SOL    HW2 4743   2.918   6.558   3.126
 1282SOL     OW 4744   6.507   2.847   0.147
 1282SOL    HW1 4745   6.416   2.840   0.187
 1282SOL    HW2 4746   6.505   2.811   0.053
 1283SOL     OW 4747   6.791   3.697   5.187
 1283SOL    HW1 4748   6.795   3.711   5.088
 1283SOL    HW2 4749   6.843   3.616   5.212
 1284SOL     OW 4750   4.671   1.834   1.844
 1284SOL    HW1 4751   4.770   1.820   1.832
 1284SOL    HW2 4752   4.656   1.905   1.913
 1285SOL     OW 4753   4.423   1.556   6.116
 1285SOL    HW1 4754   4.452   1.645   6.080
 1285SOL    HW2 4755   4.335   1.531   6.074
 1286SOL     OW 4756   4.220   3.856   1.426
 1286SOL    HW1 4757   4.280   3.779   1.403
 1286SOL    HW2 4758   4.171   3.834   1.511
 1287SOL     OW 4759   5.384   4.784   5.308
 1287SOL    HW1 4760   5.459   4.748   5.254
 1287SOL    HW2 4761   5.342   4.711   5.362
 1288SOL     OW 4762   3.573   3.269   6.507
 1288SOL    HW1 4763   3.512   3.267   6.586
 1288SOL    HW2 4764   3.667   3.286   6.538
 1289SOL     OW 4765   0.056   6.672   0.801
 1289SOL    HW1 4766   0.044   6.770   0.811
 1289SOL    HW2 4767   6.996   6.632   0.756
 1290SOL     OW 4768   1.269   6.293   6.992
 1290SOL    HW1 4769   1.294   6.208   6.947
 1290SOL    HW2 4770   1.336   6.315   0.043
 1291SOL     OW 4771   0.718   4.295   3.821
 1291SOL    HW1 4772   0.714   4.212   3.877
 1291SOL    HW2 4773   0.812   4.330   3.821
 1292SOL     OW 4774   0.494   5.809   2.336
 1292SOL    HW1 4775   0.561   5.880   2.313
 1292SOL    HW2 4776   0.474   5.755   2.254
 1293SOL     OW 4777   1.849   2.429   0.008
 1293SOL    HW1 4778   1.886   2.341   6.998
 1293SOL    HW2 4779   1.924   2.492   0.030
 1294SOL     OW 4780   0.363   3.728   5.731
 1294SOL    HW1 4781   0.330   3.769   5.816
 1294SOL    HW2 4782   0.463   3.719   5.735
 1295SOL     OW 4783   6.888   3.434   1.584
 1295SOL    HW1 4784   6.845   3.391   1.505
 1295SOL    HW2 4785   6.908   3.529   1.563
 1296SOL     OW 4786   3.784   6.649   5.012
 1296SOL    HW1 4787   3.699   6.700   5.028
 1296SOL    HW2 4788   3.773   6.555   5.046
 1297SOL     OW 4789   0.555   0.223   1.265
 1297SOL    HW1 4790   0.607   0.295   1.311
 1297SOL    HW2 4791   0.584   0.133   1.299
 1298SOL     OW 4792   4.976   5.508   3.474
 1298SOL    HW1 4793   4.886   5.516   3.430
 1298SOL    HW2 4794   4.964   5.497   3.572
 1299SOL     OW 4795   2.489   2.642   3.755
 1299SOL    HW1 4796   2.404   2.695   3.761
 1299SOL    HW2 4797   2.537   2.647   3.843
 1300SOL     OW 4798   1.422   3.336   0.550
 1300SOL    HW1 4799   1.402   3.351   0.647
 1300SOL    HW2 4800   1.378   3.251   0.520
 1301SOL     OW 4801   0.821   6.160   1.549
 1301SOL    HW1 4802   0.751   6.089   1.554
 1301SOL    HW2 4803   0.897   6.129   1.492
 1302SOL     OW 4804   4.733   6.577   5.203
 1302SOL    HW1 4805   4.785   6.609   5.123
 1302SOL    HW2 4806   4.780   6.499   5.244
 1303SOL     OW 4807   4.102   1.937   1.771
 1303SOL    HW1 4808   4.169   1.912   1.842
 1303SOL    HW2 4809   4.029   1.990   1.813
 1304SOL     OW 4810   1.422   0.723   0.515
 1304SOL    HW1 4811   1.421   0.816   0.477
 1304SOL    HW2 4812   1.495   0.670   0.471
 1305SOL     OW 4813   5.627   3.620   0.180
 1305SOL    HW1 4814   5.722   3.600   0.204
 1305SOL    HW2 4815   5.619   3.630   0.081
 1306SOL     OW 4816   1.117   5.340   3.916
 1306SOL    HW1 4817   1.085   5.264   3.973
 1306SOL    HW2 4818   1.039   5.380   3.867
 1307SOL     OW 4819   1.730   3.902   3.725
 1307SOL    HW1 4820   1.815   3.954   3.731
 1307SOL    HW2 4821   1.700   3.876   3.816
 1308SOL     OW 4822   6.491   0.018   5.657
 1308SOL    HW1 4823   6.518   6.986   5.576
 1308SOL    HW2 4824   6.420   0.084   5.632
 1309SOL     OW 4825   5.781   4.927   4.966
 1309SOL    HW1 4826   5.728   4.979   5.033
 1309SOL    HW2 4827   5.818   4.990   4.897
 1310SOL     OW 4828   6.696   3.664   3.759
 1310SOL    HW1 4829   6.632   3.620   3.822
 1310SOL    HW2 4830   6.744   3.595   3.706
 1311SOL     OW 4831   6.644   5.629   5.706
 1311SOL    HW1 4832   6.696   5.545   5.695
 1311SOL    HW2 4833   6.568   5.630   5.641
 1312SOL     OW 4834   1.435   6.679   6.735
 1312SOL    HW1 4835   1.418   6.777   6.731
 1312SOL    HW2 4836   1.378   6.638   6.806
 1313SOL     OW 4837   0.073   4.754   2.627
 1313SOL    HW1 4838   0.130   4.681   2.665
 1313SOL    HW2 4839   0.129   4.834   2.607
 1314SOL     OW 4840   4.166   1.629   4.674
 1314SOL    HW1 4841   4.150   1.632   4.575
 1314SOL    HW2 4842   4.091   1.580   4.718
 1315SOL     OW 4843   0.588   1.855   2.346
 1315SOL    HW1 4844   0.650   1.793   2.297
 1315SOL    HW2 4845   0.517   1.802   2.391
 1316SOL     OW 4846   3.326   0.022   5.955
 1316SOL    HW1 4847   3.276   6.997   6.029
 1316SOL    HW2 4848   3.343   0.118   5.981
 1317SOL     OW 4849   2.117   4.360   5.644
 1317SOL    HW1 4850   2.109   4.261   5.635
 1317SOL    HW2 4851   2.211   4.388   5.623
 1318SOL     OW 4852   0.632   2.799   1.110
 1318SOL    HW1 4853   0.685   2.873   1.069
 1318SOL    HW2 4854   0.600   2.737   1.039
 1319SOL     OW 4855   6.650   6.184   0.661
 1319SOL    HW1 4856   6.587   6.259   0.641
 1319SOL    HW2 4857   6.613   6.129   0.737
 1320SOL     OW 4858   3.891   4.740   6.704
 1320SOL    HW1 4859   3.904   4.785   6.793
 1320SOL    HW2 4860   3.894   4.641   6.716
 1321SOL     OW 4861   5.124   2.666   6.681
 1321SOL    HW1 4862   5.216   2.658   6.644
 1321SOL    HW2 4863   5.123   2.734   6.754
 1322SOL     OW 4864   4.129   1.728   4.169
 1322SOL    HW1 4865   4.158   1.820   4.141
 1322SOL    HW2 4866   4.196   1.661   4.137
 1323SOL     OW 4867   4.124   6.941   6.202
 1323SOL    HW1 4868   4.187   6.986   6.138
 1323SOL    HW2 4869   4.073   6.870   6.154
 1324SOL     OW 4870   0.289   4.081   6.975
 1324SOL    HW1 4871   0.352   4.043   6.908
 1324SOL    HW2 4872   0.196   4.051   6.953
 1325SOL     OW 4873   2.726   6.655   4.523
 1325SOL    HW1 4874   2.638   6.616   4.494
 1325SOL    HW2 4875   2.713   6.710   4.605
 1326SOL     OW 4876   5.202   3.308   5.598
 1326SOL    HW1 4877   5.269   3.382   5.603
 1326SOL    HW2 4878   5.112   3.347   5.575
 1327SOL     OW 4879   1.249   6.686   0.991
 1327SOL    HW1 4880   1.176   6.623   1.019
 1327SOL    HW2 4881   1.334   6.635   0.981
 1328SOL     OW 4882   2.761   3.150   1.508
 1328SOL    HW1 4883   2.694   3.075   1.511
 1328SOL    HW2 4884   2.831   3.129   1.440
 1329SOL     OW 4885   0.768   2.314   1.908
 1329SOL    HW1 4886   0.780   2.219   1.938
 1329SOL    HW2 4887   0.671   2.331   1.893
 1330SOL     OW 4888   1.268   1.405   2.106
 1330SOL    HW1 4889   1.349   1.368   2.060
 1330SOL    HW2 4890   1.225   1.474   2.047
 1331SOL     OW 4891   4.896   3.340   2.854
 1331SOL    HW1 4892   4.893   3.336   2.754
 1331SOL    HW2 4893   4.954   3.415   2.883
 1332SOL     OW 4894   2.784   6.955   6.832
 1332SOL    HW1 4895   2.850   6.908   6.773
 1332SOL    HW2 4896   2.832   0.004   6.887
 1333SOL     OW 4897   3.184   3.550   3.796
 1333SOL    HW1 4898   3.252   3.524   3.728
 1333SOL    HW2 4899   3.228   3.559   3.886
 1334SOL     OW 4900   6.379   1.611   3.789
 1334SOL    HW1 4901   6.291   1.566   3.776
 1334SOL    HW2 4902   6.442   1.549   3.836
 1335SOL     OW 4903   2.332   2.217   1.738
 1335SOL    HW1 4904   2.405   2.161   1.776
 1335SOL    HW2 4905   2.367   2.273   1.663
 1336SOL     OW 4906   2.484   1.982   5.043
 1336SOL    HW1 4907   2.582   2.002   5.041
 1336SOL    HW2 4908   2.435   2.060   5.080
 1337SOL     OW 4909   1.382   1.049   3.343
 1337SOL    HW1 4910   1.384   0.997   3.428
 1337SOL    HW2 4911   1.340   0.994   3.271
 1338SOL     OW 4912   6.674   2.506   4.785
 1338SOL    HW1 4913   6.665   2.518   4.686
 1338SOL    HW2 4914   6.691   2.409   4.805
 1339SOL     OW 4915   6.123   2.278   6.796
 1339SOL    HW1 4916   6.163   2.287   6.705
 1339SOL    HW2 4917   6.042   2.219   6.791
 1340SOL     OW 4918   5.865   2.176   2.469
 1340SOL    HW1 4919   5.940   2.241   2.453
 1340SOL    HW2 4920   5.863   2.150   2.565
 1341SOL     OW 4921   4.169   6.331   6.825
 1341SOL    HW1 4922   4.124   6.381   6.899
 1341SOL    HW2 4923   4.130   6.240   6.818
 1342SOL     OW 4924   2.746   5.694   6.142
 1342SOL    HW1 4925   2.754   5.781   6.094
 1342SOL    HW2 4926   2.732   5.620   6.076
 1343SOL     OW 4927   5.325   5.519   2.770
 1343SOL    HW1 4928   5.322   5.425   2.805
 1343SOL    HW2 4929   5.232   5.557   2.771
 1344SOL     OW 4930   0.889   5.831   4.702
 1344SOL    HW1 4931   0.789   5.831   4.691
 1344SOL    HW2 4932   0.931   5.811   4.613
 1345SOL     OW 4933   0.720   6.047   2.909
 1345SOL    HW1 4934   0.666   6.088   2.983
 1345SOL    HW2 4935   0.745   5.954   2.935
 1346SOL     OW 4936   1.033   5.600   4.292
 1346SOL    HW1 4937   0.952   5.543   4.276
 1346SOL    HW2 4938   1.093   5.555   4.359
 1347SOL     OW 4939   0.261   6.840   6.091
 1347SOL    HW1 4940   0.253   6.924   6.144
 1347SOL    HW2 4941   0.171   6.797   6.082
 1348SOL     OW 4942   6.145   6.601   4.387
 1348SOL    HW1 4943   6.103   6.511   4.375
 1348SOL    HW2 4944   6.141   6.628   4.483
 1349SOL     OW 4945   4.915   3.093   5.759
 1349SOL    HW1 4946   4.832   3.037   5.749
 1349SOL    HW2 4947   4.889   3.185   5.788
 1350SOL     OW 4948   5.347   5.071   5.761
 1350SOL    HW1 4949   5.407   5.107   5.690
 1350SOL    HW2 4950   5.398   5.007   5.818
 1351SOL     OW 4951   5.891   1.804   2.914
 1351SOL    HW1 4952   5.804   1.829   2.872
 1351SOL    HW2 4953   5.959   1.788   2.842
 1352SOL     OW 4954   6.917   5.837   3.895
 1352SOL    HW1 4955   6.866   5.760   3.857
 1352SOL    HW2 4956   6.986   5.867   3.829
 1353SOL     OW 4957   0.557   2.781   0.361
 1353SOL    HW1 4958   0.610   2.700   0.389
 1353SOL    HW2 4959   0.617   2.860   0.356
 1354SOL     OW 4960   0.787   3.470   1.743
 1354SOL    HW1 4961   0.738   3.527   1.676
 1354SOL    HW2 4962   0.881   3.456   1.713
 1355SOL     OW 4963   5.764   2.787   4.424
 1355SOL    HW1 4964   5.856   2.756   4.399
 1355SOL    HW2 4965   5.733   2.856   4.359
 1356SOL     OW 4966   3.599   3.443   2.287
 1356SOL    HW1 4967   3.609   3.532   2.243
 1356SOL    HW2 4968   3.538   3.385   2.233
 1357SOL     OW 4969   0.193   3.890   6.605
 1357SOL    HW1 4970   0.159   3.983   6.623
 1357SOL    HW2 4971   0.181   3.869   6.509
 1358SOL     OW 4972   4.310   6.570   6.070
 1358SOL    HW1 4973   4.362   6.589   6.153
 1358SOL    HW2 4974   4.371   6.569   5.992
 1359SOL     OW 4975   5.622   4.868   2.555
 1359SOL    HW1 4976   5.670   4.955   2.541
 1359SOL    HW2 4977   5.683   4.792   2.534
 1360SOL     OW 4978   2.697   3.460   0.300
 1360SOL    HW1 4979   2.787   3.416   0.292
 1360SOL    HW2 4980   2.709   3.551   0.341
 1361SOL     OW 4981   6.117   4.412   5.357
 1361SOL    HW1 4982   6.197   4.362   5.324
 1361SOL    HW2 4983   6.034   4.363   5.331
 1362SOL     OW 4984   3.600   3.808   3.907
 1362SOL    HW1 4985   3.615   3.899   3.869
 1362SOL    HW2 4986   3.683   3.753   3.896
 1363SOL     OW 4987   6.277   5.182   3.299
 1363SOL    HW1 4988   6.278   5.085   3.272
 1363SOL    HW2 4989   6.299   5.189   3.396
 1364SOL     OW 4990   5.565   4.539   1.273
 1364SOL    HW1 4991   5.564   4.547   1.173
 1364SOL    HW2 4992   5.658   4.524   1.305
 1365SOL     OW 4993   0.472   4.519   6.114
 1365SOL    HW1 4994   0.397   4.552   6.172
 1365SOL    HW2 4995   0.548   4.490   6.172
 1366SOL     OW 4996   1.470   5.742   0.215
 1366SOL    HW1 4997   1.551   5.770   0.163
 1366SOL    HW2 4998   1.481   5.769   0.311
 1367SOL     OW 4999   1.915   0.280   3.314
 1367SOL    HW1 5000   2.005   0.249   3.345
 1367SOL    HW2 5001   1.916   0.292   3.215
 1368SOL     OW 5002   5.927   0.445   4.059
 1368SOL    HW1 5003   5.988   0.448   3.979
 1368SOL    HW2 5004   5.918   0.350   4.089
 1369SOL     OW 5005   2.382   6.541   2.015
 1369SOL    HW1 5006   2.354   6.607   2.084
 1369SOL    HW2 5007   2.312   6.535   1.944
 1370SOL     OW 5008   3.641   0.730   1.192
 1370SOL    HW1 5009   3.637   0.703   1.289
 1370SOL    HW2 5010   3.737   0.742   1.165
 1371SOL     OW 5011   5.881   1.751   4.329
 1371SOL    HW1 5012   5.975   1.746   4.297
 1371SOL    HW2 5013   5.826   1.804   4.265
 1372SOL     OW 5014   0.993   3.052   0.138
 1372SOL    HW1 5015   1.051   3.061   0.057
 1372SOL    HW2 5016   1.046   3.009   0.212
 1373SOL     OW 5017   5.416   3.894   6.863
 1373SOL    HW1 5018   5.420   3.940   6.774
 1373SOL    HW2 5019   5.328   3.848   6.873
 1374SOL     OW 5020   4.633   2.470   0.209
 1374SOL    HW1 5021   4.686   2.394   0.247
 1374SOL    HW2 5022   4.694   2.549   0.194
 1375SOL     OW 5023   0.009   4.099   6.461
 1375SOL    HW1 5024   7.007   4.014   6.508
 1375SOL    HW2 5025   0.012   4.174   6.527
 1376SOL     OW 5026   4.853   3.755   4.212
 1376SOL    HW1 5027   4.855   3.667   4.259
 1376SOL    HW2 5028   4.915   3.753   4.134
 1377SOL     OW 5029   6.752   4.220   5.448
 1377SOL    HW1 5030   6.703   4.272   5.517
 1377SOL    HW2 5031   6.714   4.128   5.442
 1378SOL     OW 5032   6.612   1.017   5.013
 1378SOL    HW1 5033   6.638   1.029   4.917
 1378SOL    HW2 5034   6.574   0.925   5.026
 1379SOL     OW 5035   3.149   0.041   2.289
 1379SOL    HW1 5036   3.203   0.123   2.309
 1379SOL    HW2 5037   3.054   0.067   2.276
 1380SOL     OW 5038   0.226   0.068   2.187
 1380SOL    HW1 5039   0.127   0.078   2.174
 1380SOL    HW2 5040   0.255   0.119   2.267
 1381SOL     OW 5041   5.370   2.580   6.600
 1381SOL    HW1 5042   5.431   2.559   6.523
 1381SOL    HW2 5043   5.425   2.602   6.681
 1382SOL     OW 5044   4.840   4.589   0.624
 1382SOL    HW1 5045   4.922   4.646   0.628
 1382SOL    HW2 5046   4.838   4.540   0.536
 1383SOL     OW 5047   0.553   0.268   0.732
 1383SOL    HW1 5048   0.628   0.205   0.715
 1383SOL    HW2 5049   0.552   0.293   0.829
 1384SOL     OW 5050   3.857   1.057   2.415
 1384SOL    HW1 5051   3.941   1.105   2.438
 1384SOL    HW2 5052   3.809   1.031   2.499
 1385SOL     OW 5053   0.958   3.113   2.711
 1385SOL    HW1 5054   0.866   3.078   2.728
 1385SOL    HW2 5055   0.999   3.065   2.633
 1386SOL     OW 5056   2.251   1.193   4.465
 1386SOL    HW1 5057   2.172   1.151   4.420
 1386SOL    HW2 5058   2.256   1.162   4.560
 1387SOL     OW 5059   4.239   6.500   3.437
 1387SOL    HW1 5060   4.257   6.423   3.499
 1387SOL    HW2 5061   4.259   6.472   3.343
 1388SOL     OW 5062   0.642   6.263   3.734
 1388SOL    HW1 5063   0.611   6.188   3.675
 1388SOL    HW2 5064   0.574   6.278   3.806
 1389SOL     OW 5065   0.190   1.306   4.020
 1389SOL    HW1 5066   0.161   1.383   3.962
 1389SOL    HW2 5067   0.290   1.306   4.027
 1390SOL     OW 5068   4.410   2.006   6.277
 1390SOL    HW1 5069   4.504   2.031   6.301
 1390SOL    HW2 5070   4.346   2.060   6.333
 1391SOL     OW 5071   6.571   0.749   5.627
 1391SOL    HW1 5072   6.655   0.696   5.616
 1391SOL    HW2 5073   6.594   0.841   5.661
 1392SOL     OW 5074   5.399   5.285   6.141
 1392SOL    HW1 5075   5.479   5.234   6.109
 1392SOL    HW2 5076   5.335   5.222   6.185
 1393SOL     OW 5077   5.800   3.030   6.859
 1393SOL    HW1 5078   5.786   3.126   6.882
 1393SOL    HW2 5079   5.845   3.023   6.771
 1394SOL     OW 5080   3.758   0.348   3.576
 1394SOL    HW1 5081   3.816   0.294   3.516
 1394SOL    HW2 5082   3.812   0.423   3.616
 1395SOL     OW 5083   1.320   3.920   2.847
 1395SOL    HW1 5084   1.326   3.822   2.863
 1395SOL    HW2 5085   1.409   3.956   2.820
 1396SOL     OW 5086   1.799   6.923   3.843
 1396SOL    HW1 5087   1.771   6.894   3.934
 1396SOL    HW2 5088   1.751   6.867   3.774
 1397SOL     OW 5089   0.637   6.472   4.751
 1397SOL    HW1 5090   0.675   6.389   4.791
 1397SOL    HW2 5091   0.538   6.473   4.762
 1398SOL     OW 5092   0.643   1.983   0.256
 1398SOL    HW1 5093   0.681   1.893   0.275
 1398SOL    HW2 5094   0.679   2.017   0.169
 1399SOL     OW 5095   4.410   0.383   0.567
 1399SOL    HW1 5096   4.401   0.386   0.666
 1399SOL    HW2 5097   4.481   0.318   0.541
 1400SOL     OW 5098   6.194   1.025   4.364
 1400SOL    HW1 5099   6.156   1.071   4.444
 1400SOL    HW2 5100   6.291   1.007   4.379
 1401SOL     OW 5101   6.141   6.620   4.665
 1401SOL    HW1 5102   6.074   6.566   4.716
 1401SOL    HW2 5103   6.217   6.645   4.726
 1402SOL     OW 5104   5.522   4.281   6.964
 1402SOL    HW1 5105   5.526   4.334   0.029
 1402SOL    HW2 5106   5.493   4.341   6.889
 1403SOL     OW 5107   2.027   2.717   0.452
 1403SOL    HW1 5108   2.089   2.639   0.457
 1403SOL    HW2 5109   2.029   2.767   0.539
 1404SOL     OW 5110   4.601   0.191   0.538
 1404SOL    HW1 5111   4.618   0.130   0.460
 1404SOL    HW2 5112   4.577   0.137   0.618
 1405SOL     OW 5113   2.264   3.670   0.571
 1405SOL    HW1 5114   2.357   3.636   0.587
 1405SOL    HW2 5115   2.206   3.644   0.648
 1406SOL     OW 5116   2.279   4.723   1.136
 1406SOL    HW1 5117   2.338   4.707   1.216
 1406SOL    HW2 5118   2.189   4.754   1.167
 1407SOL     OW 5119   1.564   3.637   3.081
 1407SOL    HW1 5120   1.656   3.608   3.105
 1407SOL    HW2 5121   1.504   3.557   3.074
 1408SOL     OW 5122   5.174   6.390   6.534
 1408SOL    HW1 5123   5.174   6.453   6.612
 1408SOL    HW2 5124   5.127   6.433   6.457
 1409SOL     OW 5125   6.949   0.712   5.399
 1409SOL    HW1 5126   6.877   0.778   5.378
 1409SOL    HW2 5127   6.908   0.625   5.428
 1410SOL     OW 5128   3.150   3.937   6.884
 1410SOL    HW1 5129   3.059   3.974   6.903
 1410SOL    HW2 5130   3.202   3.932   6.969
 1411SOL     OW 5131   3.662   6.082   6.021
 1411SOL    HW1 5132   3.575   6.130   6.017
 1411SOL    HW2 5133   3.692   6.074   6.116
 1412SOL     OW 5134   0.904   4.443   1.670
 1412SOL    HW1 5135   0.948   4.381   1.735
 1412SOL    HW2 5136   0.939   4.536   1.683
 1413SOL     OW 5137   1.732   2.047   4.348
 1413SOL    HW1 5138   1.655   2.107   4.369
 1413SOL    HW2 5139   1.818   2.098   4.356
 1414SOL     OW 5140   1.563   2.783   1.660
 1414SOL    HW1 5141   1.600   2.822   1.745
 1414SOL    HW2 5142   1.482   2.729   1.682
 1415SOL     OW 5143   3.045   2.201   4.499
 1415SOL    HW1 5144   3.045   2.181   4.597
 1415SOL    HW2 5145   2.967   2.259   4.477
 1416SOL     OW 5146   4.239   0.505   4.614
 1416SOL    HW1 5147   4.286   0.499   4.702
 1416SOL    HW2 5148   4.294   0.558   4.550
 1417SOL     OW 5149   3.374   2.681   6.282
 1417SOL    HW1 5150   3.424   2.683   6.369
 1417SOL    HW2 5151   3.282   2.719   6.295
 1418SOL     OW 5152   2.980   3.652   0.365
 1418SOL    HW1 5153   2.983   3.556   0.336
 1418SOL    HW2 5154   3.058   3.671   0.425
 1419SOL     OW 5155   1.780   5.557   4.028
 1419SOL    HW1 5156   1.725   5.523   3.951
 1419SOL    HW2 5157   1.735   5.638   4.067
 1420SOL     OW 5158   4.436   5.656   3.009
 1420SOL    HW1 5159   4.366   5.623   2.946
 1420SOL    HW2 5160   4.412   5.631   3.102
 1421SOL     OW 5161   1.293   4.522   4.132
 1421SOL    HW1 5162   1.384   4.560   4.148
 1421SOL    HW2 5163   1.268   4.534   4.036
 1422SOL     OW 5164   2.680   4.601   5.648
 1422SOL    HW1 5165   2.721   4.609   5.557
 1422SOL    HW2 5166   2.631   4.686   5.670
 1423SOL     OW 5167   4.108   1.961   4.943
 1423SOL    HW1 5168   4.053   2.020   5.002
 1423SOL    HW2 5169   4.091   1.984   4.847
 1424SOL     OW 5170   5.882   3.598   6.704
 1424SOL    HW1 5171   5.923   3.684   6.674
 1424SOL    HW2 5172   5.953   3.528   6.713
 1425SOL     OW 5173   2.521   6.394   4.679
 1425SOL    HW1 5174   2.567   6.474   4.716
 1425SOL    HW2 5175   2.589   6.327   4.649
 1426SOL     OW 5176   1.780   2.204   6.009
 1426SOL    HW1 5177   1.859   2.144   5.992
 1426SOL    HW2 5178   1.743   2.185   6.100
 1427SOL     OW 5179   0.458   0.768   3.657
 1427SOL    HW1 5180   0.554   0.754   3.629
 1427SOL    HW2 5181   0.440   0.866   3.663
 1428SOL     OW 5182   6.994   2.226   1.358
 1428SOL    HW1 5183   6.906   2.180   1.373
 1428SOL    HW2 5184   6.987   2.321   1.388
 1429SOL     OW 5185   5.646   1.816   0.107
 1429SOL    HW1 5186   5.656   1.899   0.053
 1429SOL    HW2 5187   5.675   1.737   0.053
 1430SOL     OW 5188   2.138   3.935   4.374
 1430SOL    HW1 5189   2.177   3.887   4.296
 1430SOL    HW2 5190   2.194   4.015   4.396
 1431SOL     OW 5191   2.628   2.492   6.043
 1431SOL    HW1 5192   2.684   2.415   6.072
 1431SOL    HW2 5193   2.570   2.522   6.119
 1432SOL     OW 5194   1.937   1.309   1.504
 1432SOL    HW1 5195   1.944   1.269   1.413
 1432SOL    HW2 5196   1.907   1.239   1.569
 1433SOL     OW 5197   3.183   6.780   3.694
 1433SOL    HW1 5198   3.117   6.845   3.730
 1433SOL    HW2 5199   3.276   6.811   3.716
 1434SOL     OW 5200   6.512   1.826   6.572
 1434SOL    HW1 5201   6.592   1.788   6.527
 1434SOL    HW2 5202   6.531   1.919   6.603
 1435SOL     OW 5203   0.116   0.635   3.903
 1435SOL    HW1 5204   0.018   0.625   3.919
 1435SOL    HW2 5205   0.158   0.682   3.980
 1436SOL     OW 5206   5.831   3.312   0.179
 1436SOL    HW1 5207   5.761   3.324   0.249
 1436SOL    HW2 5208   5.901   3.383   0.190
 1437SOL     OW 5209   3.547   1.140   5.061
 1437SOL    HW1 5210   3.474   1.107   5.001
 1437SOL    HW2 5211   3.601   1.209   5.013
 1438SOL     OW 5212   2.918   1.047   1.477
 1438SOL    HW1 5213   2.866   0.965   1.452
 1438SOL    HW2 5214   3.013   1.021   1.494
 1439SOL     OW 5215   0.934   5.445   0.972
 1439SOL    HW1 5216   0.999   5.439   0.897
 1439SOL    HW2 5217   0.873   5.523   0.957
 1440SOL     OW 5218   3.619   3.230   4.773
 1440SOL    HW1 5219   3.532   3.247   4.726
 1440SOL    HW2 5220   3.601   3.190   4.863
 1441SOL     OW 5221   6.096   3.126   3.630
 1441SOL    HW1 5222   6.051   3.069   3.562
 1441SOL    HW2 5223   6.157   3.069   3.686
 1442SOL     OW 5224   5.998   4.551   0.582
 1442SOL    HW1 5225   6.018   4.525   0.488
 1442SOL    HW2 5226   6.029   4.645   0.598
 1443SOL     OW 5227   1.043   1.469   4.091
 1443SOL    HW1 5228   1.020   1.566   4.101
 1443SOL    HW2 5229   1.133   1.452   4.133
 1444SOL     OW 5230   4.603   6.164   1.720
 1444SOL    HW1 5231   4.584   6.262   1.716
 1444SOL    HW2 5232   4.554   6.117   1.647
 1445SOL     OW 5233   0.405   2.768   1.979
 1445SOL    HW1 5234   0.424   2.673   2.004
 1445SOL    HW2 5235   0.333   2.804   2.040
 1446SOL     OW 5236   5.316   3.071   0.148
 1446SOL    HW1 5237   5.353   2.995   0.201
 1446SOL    HW2 5238   5.371   3.153   0.166
 1447SOL     OW 5239   6.622   0.128   5.057
 1447SOL    HW1 5240   6.663   0.169   4.975
 1447SOL    HW2 5241   6.560   0.055   5.030
 1448SOL     OW 5242   5.596   1.463   0.469
 1448SOL    HW1 5243   5.551   1.394   0.526
 1448SOL    HW2 5244   5.547   1.473   0.383
 1449SOL     OW 5245   6.227   6.703   0.006
 1449SOL    HW1 5246   6.306   6.663   0.053
 1449SOL    HW2 5247   6.215   6.797   0.037
 1450SOL     OW 5248   0.182   2.161   2.137
 1450SOL    HW1 5249   0.271   2.156   2.181
 1450SOL    HW2 5250   0.136   2.246   2.163
 1451SOL     OW 5251   3.074   0.852   2.699
 1451SOL    HW1 5252   3.129   0.910   2.760
 1451SOL    HW2 5253   3.133   0.811   2.630
 1452SOL     OW 5254   5.412   1.800   4.586
 1452SOL    HW1 5255   5.458   1.792   4.674
 1452SOL    HW2 5256   5.339   1.868   4.593
 1453SOL     OW 5257   6.139   3.756   5.180
 1453SOL    HW1 5258   6.079   3.790   5.107
 1453SOL    HW2 5259   6.131   3.656   5.186
 1454SOL     OW 5260   6.286   3.189   2.241
 1454SOL    HW1 5261   6.265   3.240   2.157
 1454SOL    HW2 5262   6.219   3.115   2.252
 1455SOL     OW 5263   1.438   0.085   1.901
 1455SOL    HW1 5264   1.511   0.063   1.966
 1455SOL    HW2 5265   1.420   0.183   1.903
 1456SOL     OW 5266   6.916   6.513   5.407
 1456SOL    HW1 5267   6.959   6.582   5.464
 1456SOL    HW2 5268   6.893   6.433   5.462
 1457SOL     OW 5269   1.826   0.383   1.662
 1457SOL    HW1 5270   1.922   0.410   1.667
 1457SOL    HW2 5271   1.806   0.318   1.735
 1458SOL     OW 5272   5.103   6.335   4.374
 1458SOL    HW1 5273   5.145   6.335   4.464
 1458SOL    HW2 5274   5.172   6.355   4.305
 1459SOL     OW 5275   2.767   4.414   6.756
 1459SOL    HW1 5276   2.756   4.472   6.675
 1459SOL    HW2 5277   2.749   4.319   6.731
 1460SOL     OW 5278   6.826   5.382   5.692
 1460SOL    HW1 5279   6.874   5.433   5.764
 1460SOL    HW2 5280   6.888   5.315   5.652
 1461SOL     OW 5281   0.110   4.489   3.284
 1461SOL    HW1 5282   0.126   4.584   3.310
 1461SOL    HW2 5283   0.161   4.469   3.200
 1462SOL     OW 5284   6.048   1.772   6.678
 1462SOL    HW1 5285   6.124   1.708   6.684
 1462SOL    HW2 5286   5.998   1.758   6.593
 1463SOL     OW 5287   7.004   6.121   6.066
 1463SOL    HW1 5288   0.046   6.105   6.143
 1463SOL    HW2 5289   6.911   6.096   6.091
 1464SOL     OW 5290   6.736   0.186   1.063
 1464SOL    HW1 5291   6.756   0.108   1.003
 1464SOL    HW2 5292   6.815   0.246   1.066
 1465SOL     OW 5293   1.468   1.076   2.958
 1465SOL    HW1 5294   1.495   1.139   2.885
 1465SOL    HW2 5295   1.529   0.997   2.958
 1466SOL     OW 5296   0.938   0.030   2.671
 1466SOL    HW1 5297   0.878   0.108   2.652
 1466SOL    HW2 5298   0.929   0.005   2.767
 1467SOL     OW 5299   2.016   0.279   1.906
 1467SOL    HW1 5300   2.029   0.286   1.807
 1467SOL    HW2 5301   2.104   0.295   1.952
 1468SOL     OW 5302   5.781   6.232   2.748
 1468SOL    HW1 5303   5.755   6.202   2.839
 1468SOL    HW2 5304   5.783   6.332   2.745
 1469SOL     OW 5305   0.515   0.669   2.887
 1469SOL    HW1 5306   0.445   0.632   2.948
 1469SOL    HW2 5307   0.605   0.636   2.916
 1470SOL     OW 5308   1.028   0.635   2.612
 1470SOL    HW1 5309   1.020   0.554   2.555
 1470SOL    HW2 5310   1.082   0.704   2.564
 1471SOL     OW 5311   0.758   0.970   0.023
 1471SOL    HW1 5312   0.819   0.914   6.987
 1471SOL    HW2 5313   0.677   0.994   6.988
 1472SOL     OW 5314   4.196   5.294   4.736
 1472SOL    HW1 5315   4.202   5.229   4.660
 1472SOL    HW2 5316   4.286   5.304   4.779
 1473SOL     OW 5317   5.644   6.344   3.849
 1473SOL    HW1 5318   5.739   6.320   3.868
 1473SOL    HW2 5319   5.590   6.261   3.836
 1474SOL     OW 5320   6.719   6.191   3.752
 1474SOL    HW1 5321   6.802   6.236   3.717
 1474SOL    HW2 5322   6.639   6.247   3.730
 1475SOL     OW 5323   6.955   0.501   1.474
 1475SOL    HW1 5324   6.959   0.417   1.420
 1475SOL    HW2 5325   0.029   0.532   1.493
 1476SOL     OW 5326   1.428   1.201   1.545
 1476SOL    HW1 5327   1.362   1.244   1.483
 1476SOL    HW2 5328   1.458   1.114   1.505
 1477SOL     OW 5329   2.477   0.470   6.375
 1477SOL    HW1 5330   2.542   0.516   6.435
 1477SOL    HW2 5331   2.509   0.378   6.354
 1478SOL     OW 5332   5.444   4.188   0.707
 1478SOL    HW1 5333   5.419   4.116   0.641
 1478SOL    HW2 5334   5.404   4.167   0.796
 1479SOL     OW 5335   1.468   3.910   6.848
 1479SOL    HW1 5336   1.373   3.919   6.817
 1479SOL    HW2 5337   1.470   3.874   6.941
 1480SOL     OW 5338   2.380   0.129   0.100
 1480SOL    HW1 5339   2.311   0.086   0.158
 1480SOL    HW2 5340   2.339   0.204   0.049
 1481SOL     OW 5341   6.354   1.721   4.625
 1481SOL    HW1 5342   6.423   1.732   4.553
 1481SOL    HW2 5343   6.263   1.736   4.587
 1482SOL     OW 5344   5.246   1.872   1.027
 1482SOL    HW1 5345   5.166   1.847   0.972
 1482SOL    HW2 5346   5.327   1.827   0.989
 1483SOL     OW 5347   0.318   2.748   6.176
 1483SOL    HW1 5348   0.318   2.742   6.076
 1483SOL    HW2 5349   0.227   2.776   6.207
 1484SOL     OW 5350   6.345   4.048   3.860
 1484SOL    HW1 5351   6.432   4.063   3.814
 1484SOL    HW2 5352   6.336   4.112   3.936
 1485SOL     OW 5353   4.866   2.052   3.052
 1485SOL    HW1 5354   4.842   2.039   3.148
 1485SOL    HW2 5355   4.870   2.150   3.031
 1486SOL     OW 5356   4.747   2.626   3.182
 1486SOL    HW1 5357   4.777   2.709   3.230
 1486SOL    HW2 5358   4.804   2.549   3.209
 1487SOL     OW 5359   5.522   2.326   6.888
 1487SOL    HW1 5360   5.430   2.347   6.855
 1487SOL    HW2 5361   5.545   2.386   6.965
 1488SOL     OW 5362   6.289   2.077   2.642
 1488SOL    HW1 5363   6.253   1.997   2.689
 1488SOL    HW2 5364   6.299   2.056   2.544
 1489SOL     OW 5365   3.840   4.962   4.833
 1489SOL    HW1 5366   3.775   4.974   4.759
 1489SOL    HW2 5367   3.791   4.936   4.917
 1490SOL     OW 5368   1.432   2.767   1.038
 1490SOL    HW1 5369   1.513   2.789   1.093
 1490SOL    HW2 5370   1.357   2.829   1.063
 1491SOL     OW 5371   6.727   3.704   3.452
 1491SOL    HW1 5372   6.784   3.709   3.370
 1491SOL    HW2 5373   6.754   3.775   3.516
 1492SOL     OW 5374   5.902   1.843   1.573
 1492SOL    HW1 5375   5.862   1.873   1.486
 1492SOL    HW2 5376   5.909   1.921   1.635
 1493SOL     OW 5377   5.008   0.941   4.894
 1493SOL    HW1 5378   5.068   0.939   4.974
 1493SOL    HW2 5379   4.933   0.876   4.908
 1494SOL     OW 5380   4.502   2.340   6.151
 1494SOL    HW1 5381   4.404   2.329   6.166
 1494SOL    HW2 5382   4.527   2.303   6.062
 1495SOL     OW 5383   0.938   3.231   3.423
 1495SOL    HW1 5384   0.874   3.292   3.376
 1495SOL    HW2 5385   0.954   3.150   3.368
 1496SOL     OW 5386   0.857   0.748   2.097
 1496SOL    HW1 5387   0.937   0.709   2.053
 1496SOL    HW2 5388   0.841   0.841   2.062
 1497SOL     OW 5389   0.200   4.193   2.906
 1497SOL    HW1 5390   0.203   4.093   2.903
 1497SOL    HW2 5391   0.137   4.227   2.836
 1498SOL     OW 5392   1.375   4.794   6.401
 1498SOL    HW1 5393   1.326   4.762   6.483
 1498SOL    HW2 5394   1.453   4.733   6.384
 1499SOL     OW 5395   1.171   3.488   5.245
 1499SOL    HW1 5396   1.075   3.468   5.227
 1499SOL    HW2 5397   1.203   3.435   5.323
 1500SOL     OW 5398   5.563   6.562   6.923
 1500SOL    HW1 5399   5.497   6.488   6.911
 1500SOL    HW2 5400   5.620   6.570   6.841
 1501SOL     OW 5401   4.242   0.909   6.355
 1501SOL    HW1 5402   4.149   0.884   6.379
 1501SOL    HW2 5403   4.244   0.951   6.264
 1502SOL     OW 5404   6.138   6.773   1.179
 1502SOL    HW1 5405   6.223   6.815   1.210
 1502SOL    HW2 5406   6.139   6.675   1.200
 1503SOL     OW 5407   3.008   1.985   1.289
 1503SOL    HW1 5408   2.991   2.070   1.339
 1503SOL    HW2 5409   2.927   1.960   1.237
 1504SOL     OW 5410   2.022   0.568   5.255
 1504SOL    HW1 5411   2.045   0.603   5.164
 1504SOL    HW2 5412   2.079   0.612   5.323
 1505SOL     OW 5413   5.580   0.623   6.579
 1505SOL    HW1 5414   5.489   0.625   6.620
 1505SOL    HW2 5415   5.642   0.573   6.639
 1506SOL     OW 5416   1.858   5.386   2.479
 1506SOL    HW1 5417   1.839   5.391   2.381
 1506SOL    HW2 5418   1.798   5.318   2.521
 1507SOL     OW 5419   1.921   1.965   5.172
 1507SOL    HW1 5420   1.851   1.895   5.156
 1507SOL    HW2 5421   1.959   1.994   5.084
 1508SOL     OW 5422   5.593   0.538   0.722
 1508SOL    HW1 5423   5.501   0.503   0.702
 1508SOL    HW2 5424   5.659   0.498   0.659
 1509SOL     OW 5425   3.972   2.295   6.208
 1509SOL    HW1 5426   3.948   2.225   6.275
 1509SOL    HW2 5427   3.894   2.312   6.148
 1510SOL     OW 5428   6.171   2.046   3.563
 1510SOL    HW1 5429   6.131   1.956   3.582
 1510SOL    HW2 5430   6.190   2.054   3.466
 1511SOL     OW 5431   2.309   2.925   0.463
 1511SOL    HW1 5432   2.352   2.840   0.434
 1511SOL    HW2 5433   2.324   2.995   0.393
 1512SOL     OW 5434   0.398   6.745   1.824
 1512SOL    HW1 5435   0.443   6.832   1.842
 1512SOL    HW2 5436   0.304   6.762   1.795
 1513SOL     OW 5437   4.741   0.146   3.797
 1513SOL    HW1 5438   4.833   0.155   3.835
 1513SOL    HW2 5439   4.709   0.236   3.767
 1514SOL     OW 5440   5.507   2.138   4.584
 1514SOL    HW1 5441   5.600   2.104   4.568
 1514SOL    HW2 5442   5.449   2.117   4.506
 1515SOL     OW 5443   6.781   3.480   6.125
 1515SOL    HW1 5444   6.872   3.440   6.137
 1515SOL    HW2 5445   6.736   3.437   6.046
 1516SOL     OW 5446   0.371   0.615   0.643
 1516SOL    HW1 5447   0.470   0.629   0.650
 1516SOL    HW2 5448   0.334   0.598   0.734
 1517SOL     OW 5449   4.966   5.911   3.639
 1517SOL    HW1 5450   4.991   5.897   3.543
 1517SOL    HW2 5451   4.998   6.001   3.668
 1518SOL     OW 5452   6.900   3.043   0.132
 1518SOL    HW1 5453   6.841   3.000   0.201
 1518SOL    HW2 5454   6.953   3.117   0.174
 1519SOL     OW 5455   0.040   4.721   2.165
 1519SOL    HW1 5456   7.003   4.748   2.242
 1519SOL    HW2 5457   0.015   4.629   2.135
 1520SOL     OW 5458   1.670   3.394   2.428
 1520SOL    HW1 5459   1.578   3.390   2.467
 1520SOL    HW2 5460   1.699   3.303   2.401
 1521SOL     OW 5461   1.956   3.333   6.764
 1521SOL    HW1 5462   1.870   3.293   6.734
 1521SOL    HW2 5463   1.960   3.335   6.864
 1522SOL     OW 5464   6.668   1.872   5.329
 1522SOL    HW1 5465   6.668   1.797   5.262
 1522SOL    HW2 5466   6.603   1.942   5.300
 1523SOL     OW 5467   5.077   3.875   6.724
 1523SOL    HW1 5468   5.046   3.917   6.809
 1523SOL    HW2 5469   5.056   3.936   6.647
 1524SOL     OW 5470   0.778   1.861   1.699
 1524SOL    HW1 5471   0.803   1.904   1.613
 1524SOL    HW2 5472   0.717   1.784   1.682
 1525SOL     OW 5473   5.103   2.789   6.960
 1525SOL    HW1 5474   5.157   2.869   6.985
 1525SOL    HW2 5475   5.148   2.706   6.995
 1526SOL     OW 5476   1.043   1.665   0.822
 1526SOL    HW1 5477   0.953   1.706   0.808
 1526SOL    HW2 5478   1.075   1.623   0.737
 1527SOL     OW 5479   3.876   0.938   5.127
 1527SOL    HW1 5480   3.777   0.945   5.137
 1527SOL    HW2 5481   3.897   0.878   5.049
 1528SOL     OW 5482   5.347   6.050   3.051
 1528SOL    HW1 5483   5.310   5.993   2.978
 1528SOL    HW2 5484   5.330   6.147   3.029
 1529SOL     OW 5485   3.710   1.637   6.736
 1529SOL    HW1 5486   3.763   1.634   6.651
 1529SOL    HW2 5487   3.634   1.572   6.730
 1530SOL     OW 5488   3.047   0.556   1.387
 1530SOL    HW1 5489   3.112   0.632   1.385
 1530SOL    HW2 5490   3.093   0.472   1.355
 1531SOL     OW 5491   6.206   1.285   5.048
 1531SOL    HW1 5492   6.107   1.284   5.034
 1531SOL    HW2 5493   6.225   1.304   5.145
 1532SOL     OW 5494   2.528   2.296   5.280
 1532SOL    HW1 5495   2.577   2.337   5.356
 1532SOL    HW2 5496   2.442   2.345   5.266
 1533SOL     OW 5497   0.048   3.197   6.542
 1533SOL    HW1 5498   6.975   3.160   6.546
 1533SOL    HW2 5499   0.075   3.208   6.446
 1534SOL     OW 5500   1.688   5.099   0.171
 1534SOL    HW1 5501   1.753   5.086   0.097
 1534SOL    HW2 5502   1.736   5.124   0.255
 1535SOL     OW 5503   5.433   5.918   4.388
 1535SOL    HW1 5504   5.337   5.944   4.376
 1535SOL    HW2 5505   5.441   5.818   4.390
 1536SOL     OW 5506   3.397   4.702   5.265
 1536SOL    HW1 5507   3.338   4.626   5.291
 1536SOL    HW2 5508   3.341   4.774   5.224
 1537SOL     OW 5509   4.425   5.927   3.459
 1537SOL    HW1 5510   4.514   5.923   3.503
 1537SOL    HW2 5511   4.420   6.007   3.399
 1538SOL     OW 5512   3.132   5.452   5.321
 1538SOL    HW1 5513   3.108   5.379   5.384
 1538SOL    HW2 5514   3.229   5.444   5.297
 1539SOL     OW 5515   3.977   4.386   1.492
 1539SOL    HW1 5516   3.918   4.458   1.529
 1539SOL    HW2 5517   3.936   4.349   1.408
 1540SOL     OW 5518   0.790   0.080   5.440
 1540SOL    HW1 5519   0.889   0.069   5.447
 1540SOL    HW2 5520   0.747   0.051   5.527
 1541SOL     OW 5521   3.299   2.681   1.421
 1541SOL    HW1 5522   3.321   2.613   1.351
 1541SOL    HW2 5523   3.241   2.639   1.491
 1542SOL     OW 5524   6.542   5.760   1.476
 1542SOL    HW1 5525   6.562   5.847   1.432
 1542SOL    HW2 5526   6.567   5.765   1.573
 1543SOL     OW 5527   3.093   2.990   3.953
 1543SOL    HW1 5528   3.007   2.948   3.982
 1543SOL    HW2 5529   3.117   3.065   4.015
 1544SOL     OW 5530   3.208   3.935   2.627
 1544SOL    HW1 5531   3.263   4.018   2.633
 1544SOL    HW2 5532   3.176   3.923   2.533
 1545SOL     OW 5533   5.848   0.953   5.659
 1545SOL    HW1 5534   5.757   0.943   5.620
 1545SOL    HW2 5535   5.897   0.866   5.653
 1546SOL     OW 5536   4.861   6.917   5.844
 1546SOL    HW1 5537   4.947   6.869   5.826
 1546SOL    HW2 5538   4.786   6.851   5.846
 1547SOL     OW 5539   2.122   4.048   2.501
 1547SOL    HW1 5540   2.139   4.000   2.588
 1547SOL    HW2 5541   2.164   3.996   2.426
 1548SOL     OW 5542   4.653   4.003   5.440
 1548SOL    HW1 5543   4.669   3.934   5.369
 1548SOL    HW2 5544   4.725   4.071   5.438
 1549SOL     OW 5545   5.522   0.998   2.040
 1549SOL    HW1 5546   5.442   1.008   1.981
 1549SOL    HW2 5547   5.605   1.007   1.985
 1550SOL     OW 5548   2.933   6.746   6.009
 1550SOL    HW1 5549   2.966   6.723   5.917
 1550SOL    HW2 5550   2.964   6.676   6.073
 1551SOL     OW 5551   1.967   3.413   0.710
 1551SOL    HW1 5552   1.941   3.439   0.617
 1551SOL    HW2 5553   1.886   3.414   0.768
 1552SOL     OW 5554   0.750   0.112   1.565
 1552SOL    HW1 5555   0.733   0.063   1.479
 1552SOL    HW2 5556   0.810   0.057   1.623
 1553SOL     OW 5557   6.595   2.267   6.912
 1553SOL    HW1 5558   6.639   2.352   6.943
 1553SOL    HW2 5559   6.534   2.288   6.835
 1554SOL     OW 5560   3.578   2.090   2.565
 1554SOL    HW1 5561   3.618   1.999   2.553
 1554SOL    HW2 5562   3.570   2.135   2.476
 1555SOL     OW 5563   4.185   2.610   6.019
 1555SOL    HW1 5564   4.260   2.601   5.952
 1555SOL    HW2 5565   4.189   2.534   6.083
 1556SOL     OW 5566   4.287   1.018   0.267
 1556SOL    HW1 5567   4.363   0.953   0.272
 1556SOL    HW2 5568   4.227   0.993   0.191
 1557SOL     OW 5569   2.787   1.871   0.419
 1557SOL    HW1 5570   2.794   1.923   0.334
 1557SOL    HW2 5571   2.722   1.915   0.480
 1558SOL     OW 5572   6.086   1.770   4.560
 1558SOL    HW1 5573   6.072   1.680   4.518
 1558SOL    HW2 5574   6.081   1.841   4.490
 1559SOL     OW 5575   0.380   2.638   1.298
 1559SOL    HW1 5576   0.393   2.737   1.300
 1559SOL    HW2 5577   0.356   2.609   1.205
 1560SOL     OW 5578   2.918   1.111   6.801
 1560SOL    HW1 5579   2.836   1.078   6.847
 1560SOL    HW2 5580   2.998   1.060   6.835
 1561SOL     OW 5581   4.783   5.148   3.613
 1561SOL    HW1 5582   4.719   5.212   3.571
 1561SOL    HW2 5583   4.874   5.160   3.572
 1562SOL     OW 5584   4.031   6.569   1.882
 1562SOL    HW1 5585   4.026   6.598   1.977
 1562SOL    HW2 5586   3.978   6.631   1.825
 1563SOL     OW 5587   2.217   1.753   5.657
 1563SOL    HW1 5588   2.168   1.749   5.570
 1563SOL    HW2 5589   2.214   1.846   5.693
 1564SOL     OW 5590   1.576   2.143   2.552
 1564SOL    HW1 5591   1.586   2.180   2.645
 1564SOL    HW2 5592   1.612   2.050   2.550
 1565SOL     OW 5593   4.229   5.012   4.741
 1565SOL    HW1 5594   4.280   4.932   4.773
 1565SOL    HW2 5595   4.178   4.988   4.658
 1566SOL     OW 5596   6.122   5.269   4.440
 1566SOL    HW1 5597   6.112   5.203   4.366
 1566SOL    HW2 5598   6.218   5.274   4.468
 1567SOL     OW 5599   6.303   5.006   6.889
 1567SOL    HW1 5600   6.390   4.968   6.858
 1567SOL    HW2 5601   6.280   4.968   6.978
 1568SOL     OW 5602   2.802   6.197   2.907
 1568SOL    HW1 5603   2.828   6.293   2.922
 1568SOL    HW2 5604   2.830   6.143   2.987
 1569SOL     OW 5605   3.851   6.728   3.203
 1569SOL    HW1 5606   3.918   6.721   3.278
 1569SOL    HW2 5607   3.810   6.819   3.204
 1570SOL     OW 5608   1.706   6.694   6.555
 1570SOL    HW1 5609   1.749   6.741   6.632
 1570SOL    HW2 5610   1.612   6.670   6.579
 1571SOL     OW 5611   0.702   2.578   3.230
 1571SOL    HW1 5612   0.610   2.615   3.242
 1571SOL    HW2 5613   0.697   2.478   3.223
 1572SOL     OW 5614   2.174   5.224   2.682
 1572SOL    HW1 5615   2.162   5.284   2.603
 1572SOL    HW2 5616   2.116   5.143   2.672
 1573SOL     OW 5617   5.431   5.077   2.405
 1573SOL    HW1 5618   5.472   5.007   2.463
 1573SOL    HW2 5619   5.502   5.141   2.373
 1574SOL     OW 5620   6.677   2.858   2.691
 1574SOL    HW1 5621   6.762   2.821   2.729
 1574SOL    HW2 5622   6.698   2.936   2.632
 1575SOL     OW 5623   2.565   0.575   1.580
 1575SOL    HW1 5624   2.606   0.658   1.617
 1575SOL    HW2 5625   2.635   0.521   1.533
 1576SOL     OW 5626   1.122   6.771   3.140
 1576SOL    HW1 5627   1.181   6.748   3.217
 1576SOL    HW2 5628   1.112   6.690   3.081
 1577SOL     OW 5629   2.343   0.807   5.944
 1577SOL    HW1 5630   2.262   0.830   5.998
 1577SOL    HW2 5631   2.357   0.708   5.946
 1578SOL     OW 5632   4.860   1.210   6.041
 1578SOL    HW1 5633   4.878   1.229   6.138
 1578SOL    HW2 5634   4.768   1.242   6.018
 1579SOL     OW 5635   6.546   1.958   1.475
 1579SOL    HW1 5636   6.516   2.008   1.557
 1579SOL    HW2 5637   6.534   1.860   1.490
 1580SOL     OW 5638   3.407   4.023   3.492
 1580SOL    HW1 5639   3.507   4.035   3.498
 1580SOL    HW2 5640   3.386   3.949   3.428
 1581SOL     OW 5641   0.041   4.327   5.560
 1581SOL    HW1 5642   7.020   4.309   5.471
 1581SOL    HW2 5643   0.139   4.307   5.557
 1582SOL     OW 5644   3.542   6.287   4.719
 1582SOL    HW1 5645   3.638   6.310   4.731
 1582SOL    HW2 5646   3.519   6.290   4.622
 1583SOL     OW 5647   1.167   5.874   3.924
 1583SOL    HW1 5648   1.144   5.850   3.830
 1583SOL    HW2 5649   1.163   5.792   3.981
 1584SOL     OW 5650   1.076   5.152   6.383
 1584SOL    HW1 5651   1.037   5.067   6.348
 1584SOL    HW2 5652   1.175   5.152   6.368
 1585SOL     OW 5653   4.515   1.921   2.820
 1585SOL    HW1 5654   4.518   1.822   2.806
 1585SOL    HW2 5655   4.482   1.941   2.912
 1586SOL     OW 5656   3.605   4.900   3.205
 1586SOL    HW1 5657   3.538   4.876   3.135
 1586SOL    HW2 5658   3.684   4.945   3.163
 1587SOL     OW 5659   2.178   4.848   5.249
 1587SOL    HW1 5660   2.088   4.805   5.244
 1587SOL    HW2 5661   2.174   4.929   5.307
 1588SOL     OW 5662   4.604   0.749   2.327
 1588SOL    HW1 5663   4.519   0.750   2.380
 1588SOL    HW2 5664   4.680   0.778   2.385
 1589SOL     OW 5665   0.258   3.367   2.384
 1589SOL    HW1 5666   0.304   3.450   2.415
 1589SOL    HW2 5667   0.234   3.310   2.463
 1590SOL     OW 5668   5.309   0.720   3.841
 1590SOL    HW1 5669   5.309   0.690   3.937
 1590SOL    HW2 5670   5.401   0.751   3.816
 1591SOL     OW 5671   6.940   6.322   1.021
 1591SOL    HW1 5672   6.958   6.351   0.927
 1591SOL    HW2 5673   0.005   6.322   1.073
 1592SOL     OW 5674   1.914   3.601   6.808
 1592SOL    HW1 5675   1.933   3.505   6.786
 1592SOL    HW2 5676   1.998   3.645   6.839
 1593SOL     OW 5677   0.901   0.108   5.900
 1593SOL    HW1 5678   0.838   0.032   5.883
 1593SOL    HW2 5679   0.993   0.083   5.869
 1594SOL     OW 5680   0.455   6.136   2.151
 1594SOL    HW1 5681   0.529   6.088   2.104
 1594SOL    HW2 5682   0.400   6.185   2.083
 1595SOL     OW 5683   1.144   4.515   0.621
 1595SOL    HW1 5684   1.092   4.600   0.628
 1595SOL    HW2 5685   1.082   4.437   0.636
 1596SOL     OW 5686   6.736   3.078   2.509
 1596SOL    HW1 5687   6.785   3.157   2.546
 1596SOL    HW2 5688   6.646   3.107   2.476
 1597SOL     OW 5689   1.517   6.293   0.855
 1597SOL    HW1 5690   1.566   6.312   0.770
 1597SOL    HW2 5691   1.576   6.240   0.916
 1598SOL     OW 5692   1.172   4.901   6.248
 1598SOL    HW1 5693   1.249   4.874   6.306
 1598SOL    HW2 5694   1.086   4.868   6.288
 1599SOL     OW 5695   5.570   4.780   5.532
 1599SOL    HW1 5696   5.527   4.802   5.444
 1599SOL    HW2 5697   5.517   4.710   5.579
 1600SOL     OW 5698   3.032   1.594   2.743
 1600SOL    HW1 5699   3.105   1.606   2.674
 1600SOL    HW2 5700   2.943   1.609   2.699
 1601SOL     OW 5701   0.369   6.921   4.618
 1601SOL    HW1 5702   0.288   6.870   4.588
 1601SOL    HW2 5703   0.425   6.946   4.539
 1602SOL     OW 5704   4.260   5.210   4.444
 1602SOL    HW1 5705   4.234   5.306   4.453
 1602SOL    HW2 5706   4.190   5.161   4.393
 1603SOL     OW 5707   3.394   5.148   3.567
 1603SOL    HW1 5708   3.486   5.182   3.587
 1603SOL    HW2 5709   3.389   5.123   3.470
 1604SOL     OW 5710   4.140   4.848   1.322
 1604SOL    HW1 5711   4.096   4.934   1.347
 1604SOL    HW2 5712   4.200   4.863   1.243
 1605SOL     OW 5713   6.558   5.513   1.835
 1605SOL    HW1 5714   6.486   5.486   1.771
 1605SOL    HW2 5715   6.520   5.521   1.927
 1606SOL     OW 5716   3.762   5.642   5.480
 1606SOL    HW1 5717   3.850   5.602   5.506
 1606SOL    HW2 5718   3.733   5.605   5.392
 1607SOL     OW 5719   4.340   0.414   0.860
 1607SOL    HW1 5720   4.389   0.331   0.887
 1607SOL    HW2 5721   4.298   0.456   0.941
 1608SOL     OW 5722   6.717   0.742   2.773
 1608SOL    HW1 5723   6.770   0.765   2.692
 1608SOL    HW2 5724   6.772   0.687   2.835
 1609SOL     OW 5725   3.240   0.037   0.615
 1609SOL    HW1 5726   3.261   6.981   0.677
 1609SOL    HW2 5727   3.299   0.032   0.535
 1610SOL     OW 5728   4.905   5.976   0.576
 1610SOL    HW1 5729   4.951   5.897   0.618
 1610SOL    HW2 5730   4.909   5.967   0.476
 1611SOL     OW 5731   2.326   3.885   0.970
 1611SOL    HW1 5732   2.300   3.925   0.882
 1611SOL    HW2 5733   2.355   3.791   0.956
 1612SOL     OW 5734   3.899   0.105   1.324
 1612SOL    HW1 5735   3.827   0.095   1.255
 1612SOL    HW2 5736   3.894   0.028   1.388
 1613SOL     OW 5737   1.356   6.207   1.914
 1613SOL    HW1 5738   1.408   6.146   1.974
 1613SOL    HW2 5739   1.418   6.253   1.851
 1614SOL     OW 5740   5.974   1.733   6.384
 1614SOL    HW1 5741   5.883   1.713   6.348
 1614SOL    HW2 5742   6.015   1.807   6.330
 1615SOL     OW 5743   6.611   5.972   0.165
 1615SOL    HW1 5744   6.692   5.919   0.188
 1615SOL    HW2 5745   6.554   5.921   0.101
 1616SOL     OW 5746   4.406   0.214   3.809
 1616SOL    HW1 5747   4.358   0.271   3.876
 1616SOL    HW2 5748   4.504   0.220   3.825
 1617SOL     OW 5749   5.368   6.412   3.143
 1617SOL    HW1 5750   5.445   6.396   3.205
 1617SOL    HW2 5751   5.291   6.448   3.196
 1618SOL     OW 5752   2.106   6.746   3.257
 1618SOL    HW1 5753   2.064   6.684   3.191
 1618SOL    HW2 5754   2.043   6.821   3.277
 1619SOL     OW 5755   0.030   4.980   6.922
 1619SOL    HW1 5756   6.954   4.994   6.948
 1619SOL    HW2 5757   0.089   5.036   6.979
 1620SOL     OW 5758   3.804   4.560   1.598
 1620SOL    HW1 5759   3.733   4.568   1.668
 1620SOL    HW2 5760   3.761   4.542   1.509
 1621SOL     OW 5761   5.801   0.638   1.314
 1621SOL    HW1 5762   5.856   0.684   1.244
 1621SOL    HW2 5763   5.707   0.631   1.283
 1622SOL     OW 5764   0.818   3.601   5.548
 1622SOL    HW1 5765   0.761   3.636   5.623
 1622SOL    HW2 5766   0.871   3.676   5.508
 1623SOL     OW 5767   0.315   2.824   4.781
 1623SOL    HW1 5768   0.249   2.841   4.707
 1623SOL    HW2 5769   0.307   2.896   4.849
 1624SOL     OW 5770   4.359   1.282   5.594
 1624SOL    HW1 5771   4.354   1.352   5.523
 1624SOL    HW2 5772   4.341   1.192   5.554
 1625SOL     OW 5773   1.831   5.011   6.946
 1625SOL    HW1 5774   1.922   4.975   6.926
 1625SOL    HW2 5775   1.763   4.958   6.895
 1626SOL     OW 5776   3.227   1.180   1.152
 1626SOL    HW1 5777   3.131   1.209   1.146
 1626SOL    HW2 5778   3.240   1.099   1.096
 1627SOL     OW 5779   5.416   2.696   3.528
 1627SOL    HW1 5780   5.350   2.643   3.583
 1627SOL    HW2 5781   5.413   2.664   3.434
 1628SOL     OW 5782   4.323   5.427   0.034
 1628SOL    HW1 5783   4.370   5.393   6.973
 1628SOL    HW2 5784   4.227   5.399   0.031
 1629SOL     OW 5785   2.696   1.248   3.755
 1629SOL    HW1 5786   2.650   1.167   3.792
 1629SOL    HW2 5787   2.745   1.224   3.672
 1630SOL     OW 5788   0.297   4.043   5.602
 1630SOL    HW1 5789   0.385   4.005   5.572
 1630SOL    HW2 5790   0.243   4.069   5.523
 1631SOL     OW 5791   0.458   3.238   0.612
 1631SOL    HW1 5792   0.470   3.267   0.707
 1631SOL    HW2 5793   0.369   3.267   0.579
 1632SOL     OW 5794   4.868   3.380   2.573
 1632SOL    HW1 5795   4.815   3.464   2.564
 1632SOL    HW2 5796   4.941   3.379   2.504
 1633SOL     OW 5797   4.982   4.018   4.713
 1633SOL    HW1 5798   4.963   3.957   4.636
 1633SOL    HW2 5799   4.959   3.971   4.799
 1634SOL     OW 5800   4.912   0.078   4.203
 1634SOL    HW1 5801   4.913   0.022   4.285
 1634SOL    HW2 5802   4.899   0.174   4.228
 1635SOL     OW 5803   0.804   4.858   6.600
 1635SOL    HW1 5804   0.811   4.761   6.619
 1635SOL    HW2 5805   0.708   4.884   6.593
 1636SOL     OW 5806   3.107   4.976   1.546
 1636SOL    HW1 5807   3.038   5.019   1.604
 1636SOL    HW2 5808   3.143   4.895   1.593
 1637SOL     OW 5809   0.242   6.831   4.189
 1637SOL    HW1 5810   0.336   6.855   4.214
 1637SOL    HW2 5811   0.191   6.914   4.168
 1638SOL     OW 5812   0.765   3.404   2.363
 1638SOL    HW1 5813   0.700   3.407   2.439
 1638SOL    HW2 5814   0.715   3.398   2.277
 1639SOL     OW 5815   5.319   5.286   1.629
 1639SOL    HW1 5816   5.269   5.308   1.545
 1639SOL    HW2 5817   5.383   5.212   1.611
 1640SOL     OW 5818   6.103   0.806   0.400
 1640SOL    HW1 5819   6.024   0.745   0.403
 1640SOL    HW2 5820   6.078   0.891   0.354
 1641SOL     OW 5821   6.302   1.697   2.981
 1641SOL    HW1 5822   6.344   1.694   3.071
 1641SOL    HW2 5823   6.371   1.724   2.913
 1642SOL     OW 5824   6.563   3.123   6.898
 1642SOL    HW1 5825   6.565   3.173   6.811
 1642SOL    HW2 5826   6.521   3.181   6.968
 1643SOL     OW 5827   3.013   4.845   3.406
 1643SOL    HW1 5828   2.998   4.944   3.409
 1643SOL    HW2 5829   2.927   4.799   3.385
 1644SOL     OW 5830   5.293   3.697   6.558
 1644SOL    HW1 5831   5.260   3.689   6.652
 1644SOL    HW2 5832   5.216   3.701   6.495
 1645SOL     OW 5833   2.781   5.970   6.039
 1645SOL    HW1 5834   2.721   5.975   5.960
 1645SOL    HW2 5835   2.865   6.022   6.021
 1646SOL     OW 5836   2.663   6.816   0.430
 1646SOL    HW1 5837   2.607   6.807   0.347
 1646SOL    HW2 5838   2.648   6.907   0.470
 1647SOL     OW 5839   6.328   2.412   4.170
 1647SOL    HW1 5840   6.391   2.490   4.165
 1647SOL    HW2 5841   6.321   2.382   4.265
 1648SOL     OW 5842   5.386   5.966   6.911
 1648SOL    HW1 5843   5.346   5.891   6.859
 1648SOL    HW2 5844   5.483   5.947   6.929
 1649SOL     OW 5845   3.600   1.969   4.427
 1649SOL    HW1 5846   3.526   1.903   4.417
 1649SOL    HW2 5847   3.592   2.040   4.357
 1650SOL     OW 5848   0.672   5.393   4.438
 1650SOL    HW1 5849   0.657   5.453   4.517
 1650SOL    HW2 5850   0.669   5.298   4.467
 1651SOL     OW 5851   0.508   2.381   1.883
 1651SOL    HW1 5852   0.432   2.413   1.940
 1651SOL    HW2 5853   0.473   2.325   1.808
 1652SOL     OW 5854   1.447   3.342   2.587
 1652SOL    HW1 5855   1.519   3.351   2.656
 1652SOL    HW2 5856   1.377   3.412   2.602
 1653SOL     OW 5857   0.375   6.381   0.628
 1653SOL    HW1 5858   0.471   6.364   0.651
 1653SOL    HW2 5859   0.319   6.306   0.663
 1654SOL     OW 5860   6.543   3.378   1.645
 1654SOL    HW1 5861   6.489   3.451   1.604
 1654SOL    HW2 5862   6.591   3.413   1.725
 1655SOL     OW 5863   0.315   2.120   4.517
 1655SOL    HW1 5864   0.333   2.066   4.599
 1655SOL    HW2 5865   0.268   2.063   4.449
 1656SOL     OW 5866   2.011   5.262   2.916
 1656SOL    HW1 5867   1.998   5.165   2.938
 1656SOL    HW2 5868   2.043   5.270   2.822
 1657SOL     OW 5869   5.924   0.578   4.441
 1657SOL    HW1 5870   5.914   0.479   4.435
 1657SOL    HW2 5871   5.959   0.603   4.531
 1658SOL     OW 5872   6.027   0.953   0.646
 1658SOL    HW1 5873   6.097   0.902   0.595
 1658SOL    HW2 5874   6.036   1.050   0.626
 1659SOL     OW 5875   3.446   0.415   0.182
 1659SOL    HW1 5876   3.512   0.340   0.172
 1659SOL    HW2 5877   3.360   0.378   0.217
 1660SOL     OW 5878   1.700   6.322   2.427
 1660SOL    HW1 5879   1.705   6.253   2.499
 1660SOL    HW2 5880   1.791   6.362   2.413
 1661SOL     OW 5881   1.880   6.216   1.427
 1661SOL    HW1 5882   1.865   6.314   1.423
 1661SOL    HW2 5883   1.865   6.184   1.520
 1662SOL     OW 5884   0.217   0.719   4.150
 1662SOL    HW1 5885   0.258   0.799   4.105
 1662SOL    HW2 5886   0.160   0.749   4.226
 1663SOL     OW 5887   4.595   5.334   3.560
 1663SOL    HW1 5888   4.572   5.340   3.463
 1663SOL    HW2 5889   4.562   5.416   3.607
 1664SOL     OW 5890   2.488   5.910   5.014
 1664SOL    HW1 5891   2.494   5.875   4.920
 1664SOL    HW2 5892   2.524   6.003   5.018
 1665SOL     OW 5893   6.442   3.583   1.827
 1665SOL    HW1 5894   6.356   3.584   1.777
 1665SOL    HW2 5895   6.433   3.524   1.907
 1666SOL     OW 5896   5.936   0.559   6.963
 1666SOL    HW1 5897   5.847   0.520   6.937
 1666SOL    HW2 5898   5.926   0.657   6.978
 1667SOL     OW 5899   0.018   6.104   1.295
 1667SOL    HW1 5900   7.015   6.120   1.391
 1667SOL    HW2 5901   0.115   6.125   1.280
 1668SOL     OW 5902   4.630   4.937   3.446
 1668SOL    HW1 5903   4.726   4.944   3.472
 1668SOL    HW2 5904   4.616   4.982   3.358
 1669SOL     OW 5905   6.448   4.301   6.076
 1669SOL    HW1 5906   6.349   4.293   6.087
 1669SOL    HW2 5907   6.482   4.224   6.022
 1670SOL     OW 5908   0.435   4.593   5.240
 1670SOL    HW1 5909   0.508   4.561   5.180
 1670SOL    HW2 5910   0.473   4.614   5.331
 1671SOL     OW 5911   5.829   1.486   3.550
 1671SOL    HW1 5912   5.870   1.567   3.510
 1671SOL    HW2 5913   5.879   1.405   3.520
 1672SOL     OW 5914   2.547   3.571   1.114
 1672SOL    HW1 5915   2.558   3.472   1.110
 1672SOL    HW2 5916   2.470   3.598   1.056
 1673SOL     OW 5917   1.106   1.767   4.541
 1673SOL    HW1 5918   1.148   1.836   4.483
 1673SOL    HW2 5919   1.140   1.676   4.515
 1674SOL     OW 5920   0.552   3.344   2.148
 1674SOL    HW1 5921   0.592   3.252   2.148
 1674SOL    HW2 5922   0.466   3.342   2.199
 1675SOL     OW 5923   4.308   0.374   0.277
 1675SOL    HW1 5924   4.235   0.437   0.250
 1675SOL    HW2 5925   4.355   0.410   0.357
 1676SOL     OW 5926   2.073   2.552   2.208
 1676SOL    HW1 5927   2.170   2.573   2.194
 1676SOL    HW2 5928   2.017   2.624   2.167
 1677SOL     OW 5929   3.928   3.973   3.869
 1677SOL    HW1 5930   3.960   3.947   3.959
 1677SOL    HW2 5931   4.004   3.972   3.804
 1678SOL     OW 5932   0.075   5.210   2.077
 1678SOL    HW1 5933   0.165   5.245   2.105
 1678SOL    HW2 5934   0.079   5.110   2.070
 1679SOL     OW 5935   2.053   1.417   4.527
 1679SOL    HW1 5936   2.141   1.373   4.545
 1679SOL    HW2 5937   2.034   1.413   4.429
 1680SOL     OW 5938   6.553   3.631   5.636
 1680SOL    HW1 5939   6.605   3.677   5.564
 1680SOL    HW2 5940   6.456   3.634   5.614
 1681SOL     OW 5941   0.904   5.657   6.309
 1681SOL    HW1 5942   0.949   5.746   6.322
 1681SOL    HW2 5943   0.841   5.663   6.231
 1682SOL     OW 5944   1.229   0.501   5.777
 1682SOL    HW1 5945   1.282   0.506   5.861
 1682SOL    HW2 5946   1.229   0.407   5.743
 1683SOL     OW 5947   5.724   5.532   2.978
 1683SOL    HW1 5948   5.723   5.524   2.879
 1683SOL    HW2 5949   5.738   5.627   3.005
 1684SOL     OW 5950   0.238   6.210   1.980
 1684SOL    HW1 5951   0.146   6.171   1.975
 1684SOL    HW2 5952   0.233   6.309   1.973
 1685SOL     OW 5953   1.760   1.356   5.859
 1685SOL    HW1 5954   1.733   1.438   5.809
 1685SOL    HW2 5955   1.774   1.379   5.956
 1686SOL     OW 5956   2.292   6.447   4.219
 1686SOL    HW1 5957   2.213   6.392   4.246
 1686SOL    HW2 5958   2.357   6.391   4.167
 1687SOL     OW 5959   1.579   2.733   2.073
 1687SOL    HW1 5960   1.502   2.696   2.124
 1687SOL    HW2 5961   1.613   2.665   2.008
 1688SOL     OW 5962   2.173   1.894   3.520
 1688SOL    HW1 5963   2.247   1.830   3.501
 1688SOL    HW2 5964   2.100   1.847   3.569
 1689SOL     OW 5965   6.771   1.058   2.834
 1689SOL    HW1 5966   6.817   1.098   2.755
 1689SOL    HW2 5967   6.825   0.981   2.868
 1690SOL     OW 5968   1.284   2.571   4.734
 1690SOL    HW1 5969   1.377   2.549   4.707
 1690SOL    HW2 5970   1.224   2.493   4.716
 1691SOL     OW 5971   5.708   2.990   4.162
 1691SOL    HW1 5972   5.668   3.081   4.153
 1691SOL    HW2 5973   5.729   2.953   4.072
 1692SOL     OW 5974   3.981   6.253   1.288
 1692SOL    HW1 5975   4.036   6.242   1.205
 1692SOL    HW2 5976   3.934   6.168   1.308
 1693SOL     OW 5977   6.633   2.006   3.111
 1693SOL    HW1 5978   6.628   2.064   3.030
 1693SOL    HW2 5979   6.616   1.911   3.085
 1694SOL     OW 5980   6.858   1.680   3.958
 1694SOL    HW1 5981   6.792   1.658   4.029
 1694SOL    HW2 5982   6.845   1.619   3.880
 1695SOL     OW 5983   3.600   0.777   6.108
 1695SOL    HW1 5984   3.506   0.800   6.084
 1695SOL    HW2 5985   3.610   0.678   6.116
 1696SOL     OW 5986   3.407   6.134   1.308
 1696SOL    HW1 5987   3.385   6.101   1.401
 1696SOL    HW2 5988   3.439   6.057   1.253
 1697SOL     OW 5989   6.537   1.597   0.712
 1697SOL    HW1 5990   6.590   1.594   0.797
 1697SOL    HW2 5991   6.529   1.504   0.676
 1698SOL     OW 5992   3.604   0.153   1.139
 1698SOL    HW1 5993   3.642   0.244   1.151
 1698SOL    HW2 5994   3.631   0.117   1.050
 1699SOL     OW 5995   1.786   1.811   6.351
 1699SOL    HW1 5996   1.696   1.849   6.330
 1699SOL    HW2 5997   1.856   1.880   6.336
 1700SOL     OW 5998   6.292   4.423   3.298
 1700SOL    HW1 5999   6.327   4.428   3.205
 1700SOL    HW2 6000   6.311   4.333   3.338
 1701SOL     OW 6001   5.635   5.775   5.865
 1701SOL    HW1 6002   5.563   5.719   5.906
 1701SOL    HW2 6003   5.707   5.791   5.933
 1702SOL     OW 6004   6.430   1.396   1.048
 1702SOL    HW1 6005   6.348   1.454   1.047
 1702SOL    HW2 6006   6.496   1.429   0.981
 1703SOL     OW 6007   3.483   1.438   6.682
 1703SOL    HW1 6008   3.522   1.346   6.678
 1703SOL    HW2 6009   3.389   1.435   6.649
 1704SOL     OW 6010   0.916   2.573   0.320
 1704SOL    HW1 6011   0.976   2.610   0.391
 1704SOL    HW2 6012   0.828   2.547   0.360
 1705SOL     OW 6013   3.187   2.172   1.682
 1705SOL    HW1 6014   3.209   2.104   1.612
 1705SOL    HW2 6015   3.169   2.125   1.769
 1706SOL     OW 6016   4.288   1.506   2.156
 1706SOL    HW1 6017   4.361   1.563   2.117
 1706SOL    HW2 6018   4.258   1.440   2.088
 1707SOL     OW 6019   4.728   2.686   2.732
 1707SOL    HW1 6020   4.750   2.753   2.662
 1707SOL    HW2 6021   4.790   2.698   2.810
 1708SOL     OW 6022   4.388   5.746   1.860
 1708SOL    HW1 6023   4.477   5.718   1.895
 1708SOL    HW2 6024   4.395   5.766   1.762
 1709SOL     OW 6025   3.485   6.230   2.797
 1709SOL    HW1 6026   3.429   6.257   2.876
 1709SOL    HW2 6027   3.547   6.157   2.825
 1710SOL     OW 6028   4.154   4.752   3.216
 1710SOL    HW1 6029   4.209   4.710   3.144
 1710SOL    HW2 6030   4.199   4.739   3.304
 1711SOL     OW 6031   1.718   5.449   4.570
 1711SOL    HW1 6032   1.659   5.509   4.515
 1711SOL    HW2 6033   1.739   5.366   4.518
 1712SOL     OW 6034   6.623   2.165   4.986
 1712SOL    HW1 6035   6.556   2.180   5.058
 1712SOL    HW2 6036   6.709   2.133   5.026
 1713SOL     OW 6037   4.318   1.574   2.409
 1713SOL    HW1 6038   4.323   1.504   2.480
 1713SOL    HW2 6039   4.312   1.530   2.319
 1714SOL     OW 6040   3.995   1.861   5.639
 1714SOL    HW1 6041   3.979   1.794   5.712
 1714SOL    HW2 6042   4.048   1.937   5.675
 1715SOL     OW 6043   2.311   6.423   3.458
 1715SOL    HW1 6044   2.223   6.430   3.506
 1715SOL    HW2 6045   2.307   6.474   3.372
 1716SOL     OW 6046   4.032   0.179   3.791
 1716SOL    HW1 6047   3.934   0.200   3.796
 1716SOL    HW2 6048   4.044   0.090   3.746
 1717SOL     OW 6049   3.385   5.914   4.782
 1717SOL    HW1 6050   3.378   5.841   4.714
 1717SOL    HW2 6051   3.364   5.878   4.872
 1718SOL     OW 6052   2.746   1.533   2.325
 1718SOL    HW1 6053   2.666   1.591   2.341
 1718SOL    HW2 6054   2.770   1.536   2.228
 1719SOL     OW 6055   2.199   3.467   0.881
 1719SOL    HW1 6056   2.161   3.430   0.797
 1719SOL    HW2 6057   2.200   3.397   0.952
 1720SOL     OW 6058   6.871   2.949   6.384
 1720SOL    HW1 6059   6.772   2.944   6.369
 1720SOL    HW2 6060   6.893   2.915   6.475
 1721SOL     OW 6061   1.877   6.655   1.637
 1721SOL    HW1 6062   1.903   6.752   1.631
 1721SOL    HW2 6063   1.954   6.602   1.673
 1722SOL     OW 6064   4.090   1.360   3.941
 1722SOL    HW1 6065   4.030   1.440   3.949
 1722SOL    HW2 6066   4.144   1.368   3.857
 1723SOL     OW 6067   5.162   2.468   7.015
 1723SOL    HW1 6068   5.173   2.437   6.921
 1723SOL    HW2 6069   5.181   2.393   0.058
 1724SOL     OW 6070   0.213   2.972   2.137
 1724SOL    HW1 6071   0.117   2.964   2.110
 1724SOL    HW2 6072   0.248   3.061   2.108
 1725SOL     OW 6073   1.661   4.866   6.800
 1725SOL    HW1 6074   1.690   4.922   6.722
 1725SOL    HW2 6075   1.659   4.770   6.772
 1726SOL     OW 6076   5.214   3.908   4.703
 1726SOL    HW1 6077   5.126   3.954   4.704
 1726SOL    HW2 6078   5.215   3.837   4.632
 1727SOL     OW 6079   3.935   3.721   3.603
 1727SOL    HW1 6080   3.953   3.663   3.524
 1727SOL    HW2 6081   3.838   3.748   3.603
 1728SOL     OW 6082   5.438   4.624   5.712
 1728SOL    HW1 6083   5.473   4.686   5.781
 1728SOL    HW2 6084   5.482   4.534   5.722
 1729SOL     OW 6085   2.010   3.578   3.027
 1729SOL    HW1 6086   2.048   3.665   2.995
 1729SOL    HW2 6087   1.933   3.596   3.088
 1730SOL     OW 6088   2.486   0.307   4.686
 1730SOL    HW1 6089   2.397   0.287   4.645
 1730SOL    HW2 6090   2.558   0.273   4.626
 1731SOL     OW 6091   0.275   4.298   3.433
 1731SOL    HW1 6092   0.234   4.389   3.420
 1731SOL    HW2 6093   0.276   4.250   3.345
 1732SOL     OW 6094   2.157   4.441   6.119
 1732SOL    HW1 6095   2.118   4.481   6.036
 1732SOL    HW2 6096   2.231   4.379   6.094
 1733SOL     OW 6097   1.666   4.078   1.588
 1733SOL    HW1 6098   1.609   4.054   1.509
 1733SOL    HW2 6099   1.613   4.064   1.672
 1734SOL     OW 6100   5.181   3.184   1.364
 1734SOL    HW1 6101   5.273   3.212   1.394
 1734SOL    HW2 6102   5.134   3.137   1.438
 1735SOL     OW 6103   4.862   5.759   6.609
 1735SOL    HW1 6104   4.890   5.723   6.520
 1735SOL    HW2 6105   4.930   5.735   6.678
 1736SOL     OW 6106   4.094   3.992   0.668
 1736SOL    HW1 6107   3.994   3.996   0.673
 1736SOL    HW2 6108   4.131   3.991   0.761
 1737SOL     OW 6109   4.984   6.879   4.825
 1737SOL    HW1 6110   5.078   6.855   4.851
 1737SOL    HW2 6111   4.978   6.977   4.807
 1738SOL     OW 6112   2.328   2.748   4.202
 1738SOL    HW1 6113   2.422   2.766   4.174
 1738SOL    HW2 6114   2.286   2.832   4.236
 1739SOL     OW 6115   0.268   1.368   4.811
 1739SOL    HW1 6116   0.198   1.396   4.878
 1739SOL    HW2 6117   0.225   1.314   4.739
 1740SOL     OW 6118   0.233   2.214   5.474
 1740SOL    HW1 6119   0.185   2.237   5.389
 1740SOL    HW2 6120   0.215   2.285   5.543
 1741SOL     OW 6121   2.541   0.922   4.948
 1741SOL    HW1 6122   2.640   0.910   4.954
 1741SOL    HW2 6123   2.518   1.016   4.973
 1742SOL     OW 6124   5.495   0.593   5.556
 1742SOL    HW1 6125   5.457   0.578   5.648
 1742SOL    HW2 6126   5.594   0.583   5.559
 1743SOL     OW 6127   0.806   1.046   2.438
 1743SOL    HW1 6128   0.722   1.012   2.479
 1743SOL    HW2 6129   0.877   0.976   2.445
 1744SOL     OW 6130   5.980   3.800   3.423
 1744SOL    HW1 6131   6.067   3.751   3.427
 1744SOL    HW2 6132   5.912   3.751   3.477
 1745SOL     OW 6133   5.477   6.351   2.850
 1745SOL    HW1 6134   5.546   6.411   2.891
 1745SOL    HW2 6135   5.486   6.259   2.889
 1746SOL     OW 6136   1.612   4.534   4.425
 1746SOL    HW1 6137   1.596   4.585   4.341
 1746SOL    HW2 6138   1.645   4.596   4.496
 1747SOL     OW 6139   3.684   1.401   2.720
 1747SOL    HW1 6140   3.703   1.474   2.653
 1747SOL    HW2 6141   3.750   1.327   2.708
 1748SOL     OW 6142   6.883   2.034   4.350
 1748SOL    HW1 6143   6.934   1.951   4.374
 1748SOL    HW2 6144   6.789   2.010   4.326
 1749SOL     OW 6145   1.856   0.028   5.884
 1749SOL    HW1 6146   1.914   0.026   5.965
 1749SOL    HW2 6147   1.833   6.955   5.856
 1750SOL     OW 6148   5.671   0.398   3.876
 1750SOL    HW1 6149   5.764   0.432   3.864
 1750SOL    HW2 6150   5.638   0.359   3.790
 1751SOL     OW 6151   5.211   1.666   4.772
 1751SOL    HW1 6152   5.221   1.586   4.712
 1751SOL    HW2 6153   5.286   1.667   4.838
 1752SOL     OW 6154   5.928   0.811   1.602
 1752SOL    HW1 6155   6.010   0.869   1.604
 1752SOL    HW2 6156   5.948   0.727   1.552
 1753SOL     OW 6157   6.755   0.692   1.461
 1753SOL    HW1 6158   6.801   0.604   1.460
 1753SOL    HW2 6159   6.807   0.758   1.406
 1754SOL     OW 6160   2.137   5.181   6.433
 1754SOL    HW1 6161   2.050   5.139   6.459
 1754SOL    HW2 6162   2.138   5.195   6.334
 1755SOL     OW 6163   0.086   5.469   6.413
 1755SOL    HW1 6164   0.146   5.539   6.451
 1755SOL    HW2 6165   0.014   5.448   6.479
 1756SOL     OW 6166   4.197   5.657   6.352
 1756SOL    HW1 6167   4.223   5.588   6.284
 1756SOL    HW2 6168   4.270   5.664   6.421
 1757SOL     OW 6169   3.640   5.804   4.962
 1757SOL    HW1 6170   3.621   5.874   4.893
 1757SOL    HW2 6171   3.554   5.759   4.988
 1758SOL     OW 6172   1.601   1.179   4.410
 1758SOL    HW1 6173   1.518   1.153   4.459
 1758SOL    HW2 6174   1.677   1.119   4.436
 1759SOL     OW 6175   2.752   6.587   5.620
 1759SOL    HW1 6176   2.822   6.630   5.561
 1759SOL    HW2 6177   2.784   6.588   5.715
 1760SOL     OW 6178   6.266   1.153   3.903
 1760SOL    HW1 6179   6.278   1.161   3.804
 1760SOL    HW2 6180   6.355   1.158   3.948
 1761SOL     OW 6181   0.422   1.226   1.867
 1761SOL    HW1 6182   0.326   1.228   1.842
 1761SOL    HW2 6183   0.478   1.258   1.790
 1762SOL     OW 6184   0.252   1.673   4.723
 1762SOL    HW1 6185   0.330   1.696   4.663
 1762SOL    HW2 6186   0.234   1.575   4.717
 1763SOL     OW 6187   1.210   4.963   4.504
 1763SOL    HW1 6188   1.291   4.916   4.470
 1763SOL    HW2 6189   1.137   4.957   4.436
 1764SOL     OW 6190   1.578   3.274   1.918
 1764SOL    HW1 6191   1.549   3.179   1.924
 1764SOL    HW2 6192   1.595   3.310   2.010
 1765SOL     OW 6193   3.331   1.341   1.580
 1765SOL    HW1 6194   3.288   1.353   1.490
 1765SOL    HW2 6195   3.424   1.378   1.578
 1766SOL     OW 6196   5.515   4.257   4.201
 1766SOL    HW1 6197   5.571   4.202   4.139
 1766SOL    HW2 6198   5.543   4.238   4.296
 1767SOL     OW 6199   1.078   4.589   3.590
 1767SOL    HW1 6200   1.019   4.584   3.670
 1767SOL    HW2 6201   1.062   4.510   3.532
 1768SOL     OW 6202   3.582   1.193   6.592
 1768SOL    HW1 6203   3.661   1.151   6.637
 1768SOL    HW2 6204   3.505   1.131   6.593
 1769SOL     OW 6205   6.278   0.886   6.807
 1769SOL    HW1 6206   6.318   0.810   6.859
 1769SOL    HW2 6207   6.216   0.849   6.737
 1770SOL     OW 6208   0.552   4.799   4.925
 1770SOL    HW1 6209   0.613   4.751   4.987
 1770SOL    HW2 6210   0.596   4.882   4.892
 1771SOL     OW 6211   1.412   5.515   0.552
 1771SOL    HW1 6212   1.420   5.481   0.458
 1771SOL    HW2 6213   1.503   5.537   0.587
 1772SOL     OW 6214   3.500   5.553   4.012
 1772SOL    HW1 6215   3.563   5.563   3.935
 1772SOL    HW2 6216   3.519   5.467   4.059
 1773SOL     OW 6217   2.235   2.249   5.921
 1773SOL    HW1 6218   2.257   2.232   5.825
 1773SOL    HW2 6219   2.297   2.196   5.979
 1774SOL     OW 6220   5.337   6.479   1.435
 1774SOL    HW1 6221   5.429   6.490   1.397
 1774SOL    HW2 6222   5.322   6.545   1.508
 1775SOL     OW 6223   2.102   5.661   5.894
 1775SOL    HW1 6224   2.138   5.730   5.831
 1775SOL    HW2 6225   2.132   5.570   5.866
 1776SOL     OW 6226   4.947   0.493   5.991
 1776SOL    HW1 6227   4.913   0.490   6.085
 1776SOL    HW2 6228   5.018   0.424   5.979
 1777SOL     OW 6229   3.341   7.007   6.559
 1777SOL    HW1 6230   3.351   0.073   6.509
 1777SOL    HW2 6231   3.407   7.003   6.634
 1778SOL     OW 6232   4.934   2.085   4.388
 1778SOL    HW1 6233   5.002   2.013   4.372
 1778SOL    HW2 6234   4.881   2.063   4.470
 1779SOL     OW 6235   5.148   0.293   6.019
 1779SOL    HW1 6236   5.121   0.239   6.099
 1779SOL    HW2 6237   5.213   0.241   5.964
 1780SOL     OW 6238   1.823   3.322   5.374
 1780SOL    HW1 6239   1.769   3.243   5.402
 1780SOL    HW2 6240   1.789   3.404   5.421
 1781SOL     OW 6241   5.543   6.556   5.214
 1781SOL    HW1 6242   5.618   6.617   5.240
 1781SOL    HW2 6243   5.575   6.461   5.214
 1782SOL     OW 6244   2.414   1.012   2.637
 1782SOL    HW1 6245   2.470   1.024   2.554
 1782SOL    HW2 6246   2.366   0.925   2.632
 1783SOL     OW 6247   2.923   3.982   6.623
 1783SOL    HW1 6248   2.915   4.043   6.701
 1783SOL    HW2 6249   2.839   3.987   6.569
 1784SOL     OW 6250   2.146   1.434   1.626
 1784SOL    HW1 6251   2.070   1.388   1.580
 1784SOL    HW2 6252   2.182   1.507   1.568
 1785SOL     OW 6253   6.853   0.016   4.468
 1785SOL    HW1 6254   6.756   0.001   4.487
 1785SOL    HW2 6255   6.882   6.974   4.395
 1786SOL     OW 6256   2.055   5.283   0.121
 1786SOL    HW1 6257   2.074   5.379   0.100
 1786SOL    HW2 6258   2.137   5.229   0.102
 1787SOL     OW 6259   1.961   1.848   5.839
 1787SOL    HW1 6260   2.019   1.882   5.766
 1787SOL    HW2 6261   1.922   1.759   5.813
 1788SOL     OW 6262   4.723   4.201   6.442
 1788SOL    HW1 6263   4.793   4.170   6.377
 1788SOL    HW2 6264   4.708   4.131   6.512
 1789SOL     OW 6265   5.547   3.045   1.532
 1789SOL    HW1 6266   5.499   3.119   1.485
 1789SOL    HW2 6267   5.523   3.045   1.629
 1790SOL     OW 6268   2.794   1.380   4.254
 1790SOL    HW1 6269   2.742   1.298   4.229
 1790SOL    HW2 6270   2.816   1.377   4.351
 1791SOL     OW 6271   0.129   1.393   3.590
 1791SOL    HW1 6272   0.227   1.374   3.592
 1791SOL    HW2 6273   0.110   1.462   3.519
 1792SOL     OW 6274   6.990   1.788   4.768
 1792SOL    HW1 6275   6.976   1.886   4.752
 1792SOL    HW2 6276   0.058   1.774   4.814
 1793SOL     OW 6277   6.568   1.776   4.456
 1793SOL    HW1 6278   6.611   1.690   4.483
 1793SOL    HW2 6279   6.633   1.831   4.403
 1794SOL     OW 6280   5.755   6.740   5.254
 1794SOL    HW1 6281   5.783   6.836   5.257
 1794SOL    HW2 6282   5.792   6.691   5.333
 1795SOL     OW 6283   6.413   5.111   1.490
 1795SOL    HW1 6284   6.441   5.016   1.500
 1795SOL    HW2 6285   6.493   5.170   1.494
 1796SOL     OW 6286   2.160   1.536   5.840
 1796SOL    HW1 6287   2.125   1.625   5.809
 1796SOL    HW2 6288   2.255   1.546   5.868
 1797SOL     OW 6289   1.280   6.846   5.720
 1797SOL    HW1 6290   1.224   6.919   5.758
 1797SOL    HW2 6291   1.310   6.872   5.628
 1798SOL     OW 6292   3.303   2.966   4.907
 1798SOL    HW1 6293   3.287   2.898   4.979
 1798SOL    HW2 6294   3.229   3.033   4.908
 1799SOL     OW 6295   4.015   3.016   6.900
 1799SOL    HW1 6296   4.094   2.986   6.846
 1799SOL    HW2 6297   4.047   3.074   6.975
 1800SOL     OW 6298   4.999   4.798   3.683
 1800SOL    HW1 6299   4.916   4.840   3.721
 1800SOL    HW2 6300   4.998   4.805   3.584
 1801SOL     OW 6301   0.787   1.971   1.983
 1801SOL    HW1 6302   0.687   1.970   1.994
 1801SOL    HW2 6303   0.812   1.915   1.904
 1802SOL     OW 6304   6.224   5.828   3.095
 1802SOL    HW1 6305   6.286   5.906   3.098
 1802SOL    HW2 6306   6.199   5.803   3.189
 1803SOL     OW 6307   6.869   6.776   2.492
 1803SOL    HW1 6308   6.937   6.826   2.545
 1803SOL    HW2 6309   6.889   6.787   2.394
 1804SOL     OW 6310   3.832   3.289   5.047
 1804SOL    HW1 6311   3.785   3.203   5.028
 1804SOL    HW2 6312   3.770   3.366   5.028
 1805SOL     OW 6313   1.039   5.241   5.914
 1805SOL    HW1 6314   1.132   5.261   5.886
 1805SOL    HW2 6315   0.977   5.310   5.878
 1806SOL     OW 6316   0.158   2.863   1.763
 1806SOL    HW1 6317   0.252   2.842   1.787
 1806SOL    HW2 6318   0.104   2.779   1.760
 1807SOL     OW 6319   5.552   2.971   7.020
 1807SOL    HW1 6320   5.628   3.014   6.970
 1807SOL    HW2 6321   5.498   3.042   0.044
 1808SOL     OW 6322   5.815   3.770   4.372
 1808SOL    HW1 6323   5.905   3.784   4.332
 1808SOL    HW2 6324   5.773   3.688   4.334
 1809SOL     OW 6325   2.898   1.585   5.094
 1809SOL    HW1 6326   2.969   1.527   5.055
 1809SOL    HW2 6327   2.925   1.615   5.185
 1810SOL     OW 6328   0.791   0.800   5.249
 1810SOL    HW1 6329   0.871   0.757   5.207
 1810SOL    HW2 6330   0.739   0.732   5.301
 1811SOL     OW 6331   5.264   4.555   1.633
 1811SOL    HW1 6332   5.233   4.469   1.673
 1811SOL    HW2 6333   5.188   4.597   1.584
 1812SOL     OW 6334   3.934   6.891   6.673
 1812SOL    HW1 6335   3.976   6.880   6.764
 1812SOL    HW2 6336   4.006   6.897   6.604
 1813SOL     OW 6337   5.109   4.204   2.142
 1813SOL    HW1 6338   5.083   4.229   2.049
 1813SOL    HW2 6339   5.205   4.225   2.157
 1814SOL     OW 6340   6.188   6.960   0.859
 1814SOL    HW1 6341   6.141   6.941   0.773
 1814SOL    HW2 6342   6.260   0.008   0.843
 1815SOL     OW 6343   6.275   6.937   2.592
 1815SOL    HW1 6344   6.221   6.854   2.603
 1815SOL    HW2 6345   6.268   6.970   2.498
 1816SOL     OW 6346   3.734   5.215   6.089
 1816SOL    HW1 6347   3.834   5.205   6.086
 1816SOL    HW2 6348   3.706   5.286   6.025
 1817SOL     OW 6349   3.497   1.331   3.060
 1817SOL    HW1 6350   3.595   1.345   3.045
 1817SOL    HW2 6351   3.446   1.356   2.977
 1818SOL     OW 6352   1.715   6.810   0.045
 1818SOL    HW1 6353   1.745   6.872   0.118
 1818SOL    HW2 6354   1.638   6.756   0.077
 1819SOL     OW 6355   1.616   5.249   2.490
 1819SOL    HW1 6356   1.560   5.311   2.545
 1819SOL    HW2 6357   1.596   5.263   2.393
 1820SOL     OW 6358   3.571   0.451   2.481
 1820SOL    HW1 6359   3.631   0.522   2.517
 1820SOL    HW2 6360   3.625   0.369   2.461
 1821SOL     OW 6361   3.315   1.105   1.907
 1821SOL    HW1 6362   3.299   1.187   1.852
 1821SOL    HW2 6363   3.404   1.112   1.952
 1822SOL     OW 6364   1.038   3.369   1.669
 1822SOL    HW1 6365   1.024   3.287   1.615
 1822SOL    HW2 6366   1.132   3.370   1.705
 1823SOL     OW 6367   3.567   6.007   3.372
 1823SOL    HW1 6368   3.606   6.025   3.282
 1823SOL    HW2 6369   3.631   6.036   3.443
 1824SOL     OW 6370   3.842   3.808   0.430
 1824SOL    HW1 6371   3.861   3.857   0.514
 1824SOL    HW2 6372   3.843   3.709   0.447
 1825SOL     OW 6373   0.337   3.021   4.957
 1825SOL    HW1 6374   0.433   3.033   4.982
 1825SOL    HW2 6375   0.279   3.051   5.033
 1826SOL     OW 6376   3.311   1.294   0.803
 1826SOL    HW1 6377   3.243   1.357   0.840
 1826SOL    HW2 6378   3.385   1.281   0.870
 1827SOL     OW 6379   5.097   5.663   0.988
 1827SOL    HW1 6380   5.120   5.757   1.012
 1827SOL    HW2 6381   5.074   5.612   1.071
 1828SOL     OW 6382   1.820   3.383   6.394
 1828SOL    HW1 6383   1.863   3.463   6.435
 1828SOL    HW2 6384   1.798   3.317   6.466
 1829SOL     OW 6385   3.718   6.917   3.559
 1829SOL    HW1 6386   3.655   6.986   3.593
 1829SOL    HW2 6387   3.674   6.864   3.487
 1830SOL     OW 6388   5.827   6.738   4.974
 1830SOL    HW1 6389   5.859   6.813   4.916
 1830SOL    HW2 6390   5.757   6.772   5.037
 1831SOL     OW 6391   5.217   5.985   2.798
 1831SOL    HW1 6392   5.196   6.081   2.777
 1831SOL    HW2 6393   5.226   5.934   2.713
 1832SOL     OW 6394   3.145   3.218   0.128
 1832SOL    HW1 6395   3.140   3.118   0.126
 1832SOL    HW2 6396   3.095   3.256   0.050
 1833SOL     OW 6397   5.175   0.538   1.087
 1833SOL    HW1 6398   5.169   0.576   1.179
 1833SOL    HW2 6399   5.169   0.611   1.020
 1834SOL     OW 6400   2.449   3.151   1.305
 1834SOL    HW1 6401   2.422   3.207   1.383
 1834SOL    HW2 6402   2.504   3.205   1.242
 1835SOL     OW 6403   0.959   4.757   1.650
 1835SOL    HW1 6404   0.903   4.802   1.581
 1835SOL    HW2 6405   0.928   4.785   1.741
 1836SOL     OW 6406   5.702   2.605   1.918
 1836SOL    HW1 6407   5.683   2.529   1.855
 1836SOL    HW2 6408   5.787   2.650   1.891
 1837SOL     OW 6409   1.867   0.429   5.706
 1837SOL    HW1 6410   1.833   0.505   5.762
 1837SOL    HW2 6411   1.812   0.421   5.623
 1838SOL     OW 6412   6.247   0.556   6.322
 1838SOL    HW1 6413   6.163   0.587   6.279
 1838SOL    HW2 6414   6.274   0.622   6.393
 1839SOL     OW 6415   6.232   1.419   6.552
 1839SOL    HW1 6416   6.145   1.443   6.509
 1839SOL    HW2 6417   6.274   1.501   6.589
 1840SOL     OW 6418   3.867   0.481   2.591
 1840SOL    HW1 6419   3.946   0.517   2.542
 1840SOL    HW2 6420   3.805   0.556   2.614
 1841SOL     OW 6421   2.270   0.652   3.305
 1841SOL    HW1 6422   2.332   0.612   3.238
 1841SOL    HW2 6423   2.313   0.734   3.344
 1842SOL     OW 6424   1.213   5.330   0.588
 1842SOL    HW1 6425   1.213   5.248   0.531
 1842SOL    HW2 6426   1.294   5.385   0.568
 1843SOL     OW 6427   5.225   0.271   3.831
 1843SOL    HW1 6428   5.286   0.284   3.909
 1843SOL    HW2 6429   5.141   0.225   3.862
 1844SOL     OW 6430   4.877   1.680   5.206
 1844SOL    HW1 6431   4.963   1.719   5.172
 1844SOL    HW2 6432   4.864   1.589   5.165
 1845SOL     OW 6433   3.011   0.184   3.938
 1845SOL    HW1 6434   2.990   0.282   3.943
 1845SOL    HW2 6435   2.983   0.140   4.023
 1846SOL     OW 6436   5.345   1.185   3.327
 1846SOL    HW1 6437   5.269   1.201   3.389
 1846SOL    HW2 6438   5.330   1.100   3.276
 1847SOL     OW 6439   1.527   0.140   5.070
 1847SOL    HW1 6440   1.433   0.115   5.095
 1847SOL    HW2 6441   1.550   0.097   4.983
 1848SOL     OW 6442   1.398   6.426   4.158
 1848SOL    HW1 6443   1.495   6.446   4.166
 1848SOL    HW2 6444   1.379   6.334   4.194
 1849SOL     OW 6445   4.806   2.879   1.500
 1849SOL    HW1 6446   4.836   2.809   1.565
 1849SOL    HW2 6447   4.708   2.894   1.510
 1850SOL     OW 6448   5.839   1.806   2.508
 1850SOL    HW1 6449   5.795   1.895   2.523
 1850SOL    HW2 6450   5.790   1.736   2.559
 1851SOL     OW 6451   0.586   3.594   0.126
 1851SOL    HW1 6452   0.535   3.509   0.118
 1851SOL    HW2 6453   0.669   3.589   0.070
 1852SOL     OW 6454   0.242   5.026   1.576
 1852SOL    HW1 6455   0.179   5.091   1.619
 1852SOL    HW2 6456   0.332   5.070   1.566
 1853SOL     OW 6457   0.007   2.321   3.387
 1853SOL    HW1 6458   0.023   2.371   3.472
 1853SOL    HW2 6459   6.957   2.252   3.401
 1854SOL     OW 6460   1.240   5.278   3.024
 1854SOL    HW1 6461   1.251   5.378   3.022
 1854SOL    HW2 6462   1.178   5.249   2.951
 1855SOL     OW 6463   5.126   3.441   5.242
 1855SOL    HW1 6464   5.147   3.360   5.187
 1855SOL    HW2 6465   5.041   3.425   5.293
 1856SOL     OW 6466   3.945   3.550   6.598
 1856SOL    HW1 6467   3.846   3.556   6.590
 1856SOL    HW2 6468   3.978   3.468   6.551
 1857SOL     OW 6469   4.881   1.072   0.479
 1857SOL    HW1 6470   4.973   1.105   0.498
 1857SOL    HW2 6471   4.827   1.073   0.563
 1858SOL     OW 6472   5.525   3.038   3.302
 1858SOL    HW1 6473   5.438   3.081   3.328
 1858SOL    HW2 6474   5.552   2.972   3.373
 1859SOL     OW 6475   4.858   2.068   3.885
 1859SOL    HW1 6476   4.851   2.168   3.882
 1859SOL    HW2 6477   4.893   2.034   3.798
 1860SOL     OW 6478   0.720   2.030   5.258
 1860SOL    HW1 6479   0.622   2.047   5.269
 1860SOL    HW2 6480   0.755   2.084   5.181
 1861SOL     OW 6481   5.461   0.727   2.903
 1861SOL    HW1 6482   5.439   0.720   3.001
 1861SOL    HW2 6483   5.446   0.638   2.859
 1862SOL     OW 6484   1.381   6.978   6.981
 1862SOL    HW1 6485   1.396   6.949   6.886
 1862SOL    HW2 6486   1.437   0.038   7.001
 1863SOL     OW 6487   6.498   3.118   1.632
 1863SOL    HW1 6488   6.596   3.096   1.625
 1863SOL    HW2 6489   6.487   3.218   1.633
 1864SOL     OW 6490   3.505   5.625   4.291
 1864SOL    HW1 6491   3.431   5.558   4.294
 1864SOL    HW2 6492   3.516   5.660   4.198
 1865SOL     OW 6493   3.416   0.958   1.409
 1865SOL    HW1 6494   3.367   0.931   1.325
 1865SOL    HW2 6495   3.353   1.003   1.471
 1866SOL     OW 6496   6.198   4.492   3.763
 1866SOL    HW1 6497   6.201   4.542   3.676
 1866SOL    HW2 6498   6.277   4.517   3.818
 1867SOL     OW 6499   2.092   3.292   1.348
 1867SOL    HW1 6500   2.110   3.381   1.305
 1867SOL    HW2 6501   2.110   3.219   1.281
 1868SOL     OW 6502   4.828   3.341   5.840
 1868SOL    HW1 6503   4.738   3.298   5.832
 1868SOL    HW2 6504   4.820   3.438   5.820
 1869SOL     OW 6505   5.573   2.741   3.841
 1869SOL    HW1 6506   5.649   2.729   3.776
 1869SOL    HW2 6507   5.552   2.654   3.884
 1870SOL     OW 6508   0.676   3.478   4.625
 1870SOL    HW1 6509   0.731   3.401   4.659
 1870SOL    HW2 6510   0.579   3.456   4.634
 1871SOL     OW 6511   0.058   6.672   0.294
 1871SOL    HW1 6512   0.092   6.672   0.200
 1871SOL    HW2 6513   0.117   6.614   0.351
 1872SOL     OW 6514   3.452   2.242   0.489
 1872SOL    HW1 6515   3.534   2.266   0.542
 1872SOL    HW2 6516   3.414   2.157   0.525
 1873SOL     OW 6517   6.186   1.071   5.586
 1873SOL    HW1 6518   6.185   1.026   5.497
 1873SOL    HW2 6519   6.094   1.072   5.624
 1874SOL     OW 6520   0.827   1.157   6.832
 1874SOL    HW1 6521   0.768   1.211   6.891
 1874SOL    HW2 6522   0.772   1.094   6.778
 1875SOL     OW 6523   6.623   6.374   0.408
 1875SOL    HW1 6524   6.691   6.446   0.424
 1875SOL    HW2 6525   6.663   6.303   0.350
 1876SOL     OW 6526   5.127   6.756   6.071
 1876SOL    HW1 6527   5.214   6.707   6.062
 1876SOL    HW2 6528   5.108   6.805   5.986
 1877SOL     OW 6529   0.001   1.776   3.117
 1877SOL    HW1 6530   6.988   1.735   3.032
 1877SOL    HW2 6531   0.089   1.736   3.141
 1878SOL     OW 6532   0.240   4.129   3.213
 1878SOL    HW1 6533   0.336   4.111   3.190
 1878SOL    HW2 6534   0.187   4.139   3.129
 1879SOL     OW 6535   2.609   5.293   3.828
 1879SOL    HW1 6536   2.521   5.306   3.783
 1879SOL    HW2 6537   2.595   5.240   3.912
 1880SOL     OW 6538   1.062   2.517   3.149
 1880SOL    HW1 6539   1.039   2.451   3.077
 1880SOL    HW2 6540   1.162   2.525   3.156
 1881SOL     OW 6541   0.885   1.984   3.483
 1881SOL    HW1 6542   0.960   2.035   3.442
 1881SOL    HW2 6543   0.804   2.042   3.491
 1882SOL     OW 6544   0.702   5.889   6.627
 1882SOL    HW1 6545   0.784   5.901   6.683
 1882SOL    HW2 6546   0.695   5.794   6.598
 1883SOL     OW 6547   1.494   3.393   3.596
 1883SOL    HW1 6548   1.399   3.424   3.602
 1883SOL    HW2 6549   1.498   3.296   3.621
 1884SOL     OW 6550   5.011   1.110   1.705
 1884SOL    HW1 6551   4.936   1.127   1.641
 1884SOL    HW2 6552   5.097   1.105   1.654
 1885SOL     OW 6553   6.556   1.878   0.743
 1885SOL    HW1 6554   6.528   1.892   0.649
 1885SOL    HW2 6555   6.559   1.780   0.762
 1886SOL     OW 6556   1.898   2.151   6.954
 1886SOL    HW1 6557   1.928   2.097   0.013
 1886SOL    HW2 6558   1.945   2.119   6.872
 1887SOL     OW 6559   0.118   4.091   6.016
 1887SOL    HW1 6560   0.061   4.165   5.980
 1887SOL    HW2 6561   0.205   4.089   5.966
 1888SOL     OW 6562   2.371   1.559   6.249
 1888SOL    HW1 6563   2.282   1.549   6.292
 1888SOL    HW2 6564   2.439   1.582   6.318
 1889SOL     OW 6565   4.449   3.996   6.321
 1889SOL    HW1 6566   4.385   3.962   6.252
 1889SOL    HW2 6567   4.427   4.091   6.343
 1890SOL     OW 6568   1.788   5.356   6.024
 1890SOL    HW1 6569   1.768   5.264   6.058
 1890SOL    HW2 6570   1.880   5.357   5.983
 1891SOL     OW 6571   5.023   2.591   4.468
 1891SOL    HW1 6572   5.112   2.575   4.510
 1891SOL    HW2 6573   4.952   2.587   4.539
 1892SOL     OW 6574   3.466   6.743   1.153
 1892SOL    HW1 6575   3.383   6.755   1.098
 1892SOL    HW2 6576   3.462   6.656   1.201
 1893SOL     OW 6577   3.503   2.003   4.842
 1893SOL    HW1 6578   3.440   1.938   4.799
 1893SOL    HW2 6579   3.577   2.024   4.778
 1894SOL     OW 6580   3.997   3.478   1.502
 1894SOL    HW1 6581   4.062   3.403   1.514
 1894SOL    HW2 6582   4.032   3.560   1.547
 1895SOL     OW 6583   6.343   0.175   2.295
 1895SOL    HW1 6584   6.280   0.252   2.304
 1895SOL    HW2 6585   6.292   0.090   2.305
 1896SOL     OW 6586   6.979   0.942   3.044
 1896SOL    HW1 6587   6.990   0.998   2.962
 1896SOL    HW2 6588   6.997   0.998   3.125
 1897SOL     OW 6589   6.457   5.229   3.039
 1897SOL    HW1 6590   6.419   5.227   3.131
 1897SOL    HW2 6591   6.491   5.321   3.019
 1898SOL     OW 6592   3.738   6.539   1.641
 1898SOL    HW1 6593   3.760   6.608   1.572
 1898SOL    HW2 6594   3.823   6.505   1.681
 1899SOL     OW 6595   1.091   2.925   2.565
 1899SOL    HW1 6596   1.034   2.862   2.513
 1899SOL    HW2 6597   1.178   2.939   2.516
 1900SOL     OW 6598   1.357   0.219   5.894
 1900SOL    HW1 6599   1.422   0.145   5.908
 1900SOL    HW2 6600   1.396   0.287   5.832
 1901SOL     OW 6601   1.923   1.508   1.084
 1901SOL    HW1 6602   1.996   1.441   1.074
 1901SOL    HW2 6603   1.937   1.583   1.019
 1902SOL     OW 6604   1.688   2.548   5.143
 1902SOL    HW1 6605   1.714   2.613   5.215
 1902SOL    HW2 6606   1.765   2.486   5.125
 1903SOL     OW 6607   6.981   3.457   3.581
 1903SOL    HW1 6608   6.925   3.414   3.652
 1903SOL    HW2 6609   6.941   3.438   3.491
 1904SOL     OW 6610   6.819   0.037   4.018
 1904SOL    HW1 6611   6.904   0.071   3.979
 1904SOL    HW2 6612   6.786   6.980   3.964
 1905SOL     OW 6613   0.450   2.526   3.955
 1905SOL    HW1 6614   0.466   2.498   4.049
 1905SOL    HW2 6615   0.454   2.626   3.949
 1906SOL     OW 6616   2.725   6.973   5.580
 1906SOL    HW1 6617   2.815   6.951   5.619
 1906SOL    HW2 6618   2.714   6.926   5.493
 1907SOL     OW 6619   3.487   0.032   3.688
 1907SOL    HW1 6620   3.545   0.057   3.766
 1907SOL    HW2 6621   3.413   0.099   3.679
 1908SOL     OW 6622   4.482   1.066   4.998
 1908SOL    HW1 6623   4.531   0.979   4.999
 1908SOL    HW2 6624   4.518   1.124   4.924
 1909SOL     OW 6625   1.926   4.067   3.749
 1909SOL    HW1 6626   1.917   4.148   3.806
 1909SOL    HW2 6627   1.927   4.094   3.653
 1910SOL     OW 6628   5.564   2.556   6.422
 1910SOL    HW1 6629   5.612   2.469   6.423
 1910SOL    HW2 6630   5.517   2.568   6.334
 1911SOL     OW 6631   6.154   1.919   5.864
 1911SOL    HW1 6632   6.097   1.955   5.938
 1911SOL    HW2 6633   6.198   1.995   5.816
 1912SOL     OW 6634   3.872   6.649   2.366
 1912SOL    HW1 6635   3.847   6.675   2.272
 1912SOL    HW2 6636   3.952   6.590   2.363
 1913SOL     OW 6637   2.050   6.319   5.436
 1913SOL    HW1 6638   1.960   6.356   5.414
 1913SOL    HW2 6639   2.120   6.366   5.383
 1914SOL     OW 6640   2.471   2.555   6.921
 1914SOL    HW1 6641   2.476   2.506   6.835
 1914SOL    HW2 6642   2.560   2.551   6.967
 1915SOL     OW 6643   3.276   1.458   5.193
 1915SOL    HW1 6644   3.331   1.391   5.242
 1915SOL    HW2 6645   3.301   1.551   5.222
 1916SOL     OW 6646   3.664   5.533   0.925
 1916SOL    HW1 6647   3.609   5.450   0.932
 1916SOL    HW2 6648   3.610   5.607   0.885
 1917SOL     OW 6649   3.938   3.687   4.631
 1917SOL    HW1 6650   3.845   3.721   4.620
 1917SOL    HW2 6651   3.992   3.712   4.550
 1918SOL     OW 6652   6.650   6.134   6.496
 1918SOL    HW1 6653   6.616   6.090   6.579
 1918SOL    HW2 6654   6.670   6.065   6.427
 1919SOL     OW 6655   1.182   6.637   2.096
 1919SOL    HW1 6656   1.199   6.583   2.014
 1919SOL    HW2 6657   1.247   6.611   2.168
 1920SOL     OW 6658   0.447   4.980   3.141
 1920SOL    HW1 6659   0.425   5.063   3.091
 1920SOL    HW2 6660   0.393   4.976   3.226
 1921SOL     OW 6661   0.619   4.870   0.410
 1921SOL    HW1 6662   0.617   4.783   0.459
 1921SOL    HW2 6663   0.635   4.853   0.313
 1922SOL     OW 6664   3.610   3.730   1.226
 1922SOL    HW1 6665   3.541   3.787   1.271
 1922SOL    HW2 6666   3.565   3.654   1.179
 1923SOL     OW 6667   2.489   0.534   6.982
 1923SOL    HW1 6668   2.523   0.627   6.997
 1923SOL    HW2 6669   2.550   0.469   0.008
 1924SOL     OW 6670   5.714   5.799   2.731
 1924SOL    HW1 6671   5.716   5.786   2.830
 1924SOL    HW2 6672   5.754   5.719   2.686
 1925SOL     OW 6673   2.898   3.636   2.143
 1925SOL    HW1 6674   2.923   3.684   2.059
 1925SOL    HW2 6675   2.888   3.702   2.218
 1926SOL     OW 6676   1.066   0.045   4.100
 1926SOL    HW1 6677   1.144   0.012   4.154
 1926SOL    HW2 6678   1.099   0.078   4.011
 1927SOL     OW 6679   3.318   4.936   6.617
 1927SOL    HW1 6680   3.385   4.966   6.685
 1927SOL    HW2 6681   3.366   4.887   6.543
 1928SOL     OW 6682   6.572   3.645   6.217
 1928SOL    HW1 6683   6.630   3.726   6.226
 1928SOL    HW2 6684   6.629   3.565   6.199
 1929SOL     OW 6685   0.596   5.660   1.358
 1929SOL    HW1 6686   0.696   5.651   1.350
 1929SOL    HW2 6687   0.555   5.568   1.360
 1930SOL     OW 6688   4.781   4.214   6.859
 1930SOL    HW1 6689   4.850   4.280   6.831
 1930SOL    HW2 6690   4.690   4.248   6.836
 1931SOL     OW 6691   0.068   3.210   3.708
 1931SOL    HW1 6692   0.046   3.153   3.629
 1931SOL    HW2 6693   0.168   3.215   3.719
 1932SOL     OW 6694   4.902   4.273   2.618
 1932SOL    HW1 6695   4.883   4.350   2.556
 1932SOL    HW2 6696   4.968   4.212   2.576
 1933SOL     OW 6697   2.922   4.504   0.546
 1933SOL    HW1 6698   2.990   4.438   0.579
 1933SOL    HW2 6699   2.830   4.466   0.559
 1934SOL     OW 6700   0.361   0.558   5.438
 1934SOL    HW1 6701   0.360   0.576   5.536
 1934SOL    HW2 6702   0.319   0.469   5.421
 1935SOL     OW 6703   3.277   0.326   5.233
 1935SOL    HW1 6704   3.217   0.340   5.154
 1935SOL    HW2 6705   3.364   0.372   5.218
 1936SOL     OW 6706   5.800   4.143   4.006
 1936SOL    HW1 6707   5.838   4.234   4.025
 1936SOL    HW2 6708   5.857   4.097   3.938
 1937SOL     OW 6709   4.437   6.150   1.490
 1937SOL    HW1 6710   4.465   6.121   1.398
 1937SOL    HW2 6711   4.340   6.133   1.502
 1938SOL     OW 6712   4.171   1.148   3.069
 1938SOL    HW1 6713   4.191   1.050   3.073
 1938SOL    HW2 6714   4.256   1.199   3.058
 1939SOL     OW 6715   0.241   6.495   4.507
 1939SOL    HW1 6716   0.293   6.489   4.421
 1939SOL    HW2 6717   0.302   6.477   4.584
 1940SOL     OW 6718   4.949   5.182   5.742
 1940SOL    HW1 6719   4.850   5.170   5.752
 1940SOL    HW2 6720   4.989   5.098   5.707
 1941SOL     OW 6721   0.031   3.757   3.199
 1941SOL    HW1 6722   6.989   3.717   3.132
 1941SOL    HW2 6723   0.106   3.692   3.217
 1942SOL     OW 6724   6.545   0.700   3.107
 1942SOL    HW1 6725   6.500   0.703   3.197
 1942SOL    HW2 6726   6.643   0.715   3.119
 1943SOL     OW 6727   3.126   6.419   2.414
 1943SOL    HW1 6728   3.186   6.381   2.485
 1943SOL    HW2 6729   3.031   6.400   2.438
 1944SOL     OW 6730   5.060   2.381   6.534
 1944SOL    HW1 6731   5.041   2.452   6.601
 1944SOL    HW2 6732   5.012   2.297   6.560
 1945SOL     OW 6733   3.666   5.845   2.289
 1945SOL    HW1 6734   3.611   5.817   2.368
 1945SOL    HW2 6735   3.614   5.910   2.233
 1946SOL     OW 6736   6.788   0.875   0.820
 1946SOL    HW1 6737   6.769   0.814   0.743
 1946SOL    HW2 6738   6.723   0.950   0.820
 1947SOL     OW 6739   5.071   6.478   3.785
 1947SOL    HW1 6740   5.157   6.505   3.829
 1947SOL    HW2 6741   5.089   6.454   3.689
 1948SOL     OW 6742   6.118   5.843   3.406
 1948SOL    HW1 6743   6.032   5.828   3.456
 1948SOL    HW2 6744   6.195   5.817   3.464
 1949SOL     OW 6745   4.443   4.967   6.019
 1949SOL    HW1 6746   4.485   5.057   6.006
 1949SOL    HW2 6747   4.397   4.940   5.934
 1950SOL     OW 6748   3.790   3.848   0.939
 1950SOL    HW1 6749   3.710   3.794   0.914
 1950SOL    HW2 6750   3.822   3.820   1.030
 1951SOL     OW 6751   6.073   3.801   0.484
 1951SOL    HW1 6752   6.050   3.718   0.534
 1951SOL    HW2 6753   6.172   3.816   0.488
 1952SOL     OW 6754   3.485   2.546   6.922
 1952SOL    HW1 6755   3.397   2.520   6.884
 1952SOL    HW2 6756   3.505   2.641   6.897
 1953SOL     OW 6757   5.930   2.471   0.258
 1953SOL    HW1 6758   5.997   2.522   0.312
 1953SOL    HW2 6759   5.850   2.528   0.243
 1954SOL     OW 6760   5.854   1.135   4.188
 1954SOL    HW1 6761   5.793   1.189   4.129
 1954SOL    HW2 6762   5.932   1.103   4.134
 1955SOL     OW 6763   1.296   0.496   2.482
 1955SOL    HW1 6764   1.319   0.446   2.565
 1955SOL    HW2 6765   1.203   0.473   2.453
 1956SOL     OW 6766   6.137   0.663   2.302
 1956SOL    HW1 6767   6.171   0.644   2.394
 1956SOL    HW2 6768   6.037   0.669   2.305
 1957SOL     OW 6769   6.660   5.283   4.710
 1957SOL    HW1 6770   6.673   5.208   4.775
 1957SOL    HW2 6771   6.749   5.322   4.686
 1958SOL     OW 6772   5.804   2.521   3.762
 1958SOL    HW1 6773   5.794   2.508   3.861
 1958SOL    HW2 6774   5.724   2.486   3.715
 1959SOL     OW 6775   0.175   1.821   6.226
 1959SOL    HW1 6776   0.253   1.775   6.268
 1959SOL    HW2 6777   0.095   1.761   6.231
 1960SOL     OW 6778   6.595   4.072   0.359
 1960SOL    HW1 6779   6.604   3.985   0.408
 1960SOL    HW2 6780   6.581   4.146   0.425
 1961SOL     OW 6781   5.916   4.347   4.325
 1961SOL    HW1 6782   5.994   4.357   4.386
 1961SOL    HW2 6783   5.891   4.436   4.286
 1962SOL     OW 6784   3.168   6.569   2.859
 1962SOL    HW1 6785   3.095   6.502   2.849
 1962SOL    HW2 6786   3.131   6.654   2.897
 1963SOL     OW 6787   0.796   0.624   1.063
 1963SOL    HW1 6788   0.770   0.691   1.133
 1963SOL    HW2 6789   0.869   0.566   1.099
 1964SOL     OW 6790   4.223   2.987   1.423
 1964SOL    HW1 6791   4.240   2.929   1.502
 1964SOL    HW2 6792   4.169   3.067   1.450
 1965SOL     OW 6793   1.239   3.279   3.326
 1965SOL    HW1 6794   1.156   3.253   3.376
 1965SOL    HW2 6795   1.221   3.360   3.271
 1966SOL     OW 6796   0.175   5.502   5.167
 1966SOL    HW1 6797   0.197   5.589   5.212
 1966SOL    HW2 6798   0.076   5.494   5.156
 1967SOL     OW 6799   4.921   2.292   4.860
 1967SOL    HW1 6800   4.837   2.238   4.867
 1967SOL    HW2 6801   4.905   2.384   4.896
 1968SOL     OW 6802   3.401   5.482   0.683
 1968SOL    HW1 6803   3.422   5.562   0.740
 1968SOL    HW2 6804   3.344   5.418   0.735
 1969SOL     OW 6805   0.494   1.548   1.262
 1969SOL    HW1 6806   0.422   1.520   1.198
 1969SOL    HW2 6807   0.474   1.510   1.352
 1970SOL     OW 6808   2.257   0.017   6.424
 1970SOL    HW1 6809   2.237   0.084   6.352
 1970SOL    HW2 6810   2.235   6.945   6.392
 1971SOL     OW 6811   6.429   0.065   6.335
 1971SOL    HW1 6812   6.333   0.055   6.359
 1971SOL    HW2 6813   6.438   0.115   6.249
 1972SOL     OW 6814   5.878   2.626   2.815
 1972SOL    HW1 6815   5.880   2.668   2.724
 1972SOL    HW2 6816   5.818   2.679   2.875
 1973SOL     OW 6817   2.404   3.648   0.889
 1973SOL    HW1 6818   2.459   3.645   0.806
 1973SOL    HW2 6819   2.333   3.578   0.885
 1974SOL     OW 6820   6.244   6.293   3.836
 1974SOL    HW1 6821   6.232   6.203   3.794
 1974SOL    HW2 6822   6.203   6.293   3.927
 1975SOL     OW 6823   2.590   1.429   2.891
 1975SOL    HW1 6824   2.604   1.491   2.968
 1975SOL    HW2 6825   2.636   1.464   2.810
 1976SOL     OW 6826   0.480   5.386   6.880
 1976SOL    HW1 6827   0.454   5.409   6.786
 1976SOL    HW2 6828   0.575   5.413   6.896
 1977SOL     OW 6829   1.364   2.964   3.267
 1977SOL    HW1 6830   1.383   2.907   3.187
 1977SOL    HW2 6831   1.269   2.996   3.263
 1978SOL     OW 6832   0.863   1.099   3.882
 1978SOL    HW1 6833   0.939   1.161   3.865
 1978SOL    HW2 6834   0.846   1.044   3.801
 1979SOL     OW 6835   6.683   4.236   5.011
 1979SOL    HW1 6836   6.683   4.313   5.075
 1979SOL    HW2 6837   6.641   4.157   5.055
 1980SOL     OW 6838   2.748   0.780   6.369
 1980SOL    HW1 6839   2.714   0.775   6.275
 1980SOL    HW2 6840   2.712   0.862   6.413
 1981SOL     OW 6841   6.471   2.165   2.138
 1981SOL    HW1 6842   6.554   2.172   2.082
 1981SOL    HW2 6843   6.398   2.218   2.096
 1982SOL     OW 6844   0.513   4.227   5.058
 1982SOL    HW1 6845   0.514   4.238   5.158
 1982SOL    HW2 6846   0.602   4.253   5.021
 1983SOL     OW 6847   0.759   1.899   3.102
 1983SOL    HW1 6848   0.780   1.828   3.035
 1983SOL    HW2 6849   0.712   1.859   3.181
 1984SOL     OW 6850   5.952   1.359   4.333
 1984SOL    HW1 6851   5.934   1.261   4.323
 1984SOL    HW2 6852   5.866   1.409   4.331
 1985SOL     OW 6853   0.732   0.228   2.653
 1985SOL    HW1 6854   0.770   0.304   2.600
 1985SOL    HW2 6855   0.641   0.206   2.620
 1986SOL     OW 6856   1.223   0.581   0.257
 1986SOL    HW1 6857   1.173   0.558   0.340
 1986SOL    HW2 6858   1.318   0.549   0.264
 1987SOL     OW 6859   1.209   2.935   0.833
 1987SOL    HW1 6860   1.129   2.888   0.795
 1987SOL    HW2 6861   1.185   2.969   0.924
 1988SOL     OW 6862   5.022   4.787   1.081
 1988SOL    HW1 6863   4.982   4.801   0.990
 1988SOL    HW2 6864   5.117   4.758   1.072
 1989SOL     OW 6865   2.440   6.658   5.006
 1989SOL    HW1 6866   2.479   6.745   4.977
 1989SOL    HW2 6867   2.421   6.661   5.104
 1990SOL     OW 6868   2.983   6.438   0.855
 1990SOL    HW1 6869   2.926   6.451   0.937
 1990SOL    HW2 6870   2.946   6.494   0.781
 1991SOL     OW 6871   4.494   4.893   6.471
 1991SOL    HW1 6872   4.501   4.797   6.496
 1991SOL    HW2 6873   4.400   4.925   6.486
 1992SOL     OW 6874   0.726   6.821   6.942
 1992SOL    HW1 6875   0.809   6.841   6.889
 1992SOL    HW2 6876   0.744   6.744   7.003
 1993SOL     OW 6877   4.001   3.369   4.765
 1993SOL    HW1 6878   3.980   3.452   4.817
 1993SOL    HW2 6879   4.049   3.394   4.681
 1994SOL     OW 6880   1.228   1.947   0.500
 1994SOL    HW1 6881   1.133   1.920   0.518
 1994SOL    HW2 6882   1.240   1.962   0.402
 1995SOL     OW 6883   6.408   2.418   1.455
 1995SOL    HW1 6884   6.378   2.437   1.549
 1995SOL    HW2 6885   6.505   2.396   1.455
 1996SOL     OW 6886   2.843   3.769   0.885
 1996SOL    HW1 6887   2.874   3.700   0.820
 1996SOL    HW2 6888   2.899   3.765   0.968
 1997SOL     OW 6889   4.872   0.306   5.194
 1997SOL    HW1 6890   4.845   0.298   5.290
 1997SOL    HW2 6891   4.856   0.218   5.148
 1998SOL     OW 6892   2.839   3.736   6.567
 1998SOL    HW1 6893   2.743   3.719   6.587
 1998SOL    HW2 6894   2.865   3.827   6.599
 1999SOL     OW 6895   3.124   6.366   1.381
 1999SOL    HW1 6896   3.130   6.370   1.481
 1999SOL    HW2 6897   3.129   6.458   1.344
 2000SOL     OW 6898   4.035   2.190   5.094
 2000SOL    HW1 6899   4.097   2.268   5.084
 2000SOL    HW2 6900   3.952   2.207   5.042
 2001SOL     OW 6901   3.200   1.701   1.758
 2001SOL    HW1 6902   3.293   1.701   1.794
 2001SOL    HW2 6903   3.201   1.664   1.665
 2002SOL     OW 6904   1.296   5.344   5.880
 2002SOL    HW1 6905   1.322   5.429   5.927
 2002SOL    HW2 6906   1.348   5.337   5.795
 2003SOL     OW 6907   6.092   6.805   3.695
 2003SOL    HW1 6908   6.102   6.826   3.792
 2003SOL    HW2 6909   6.129   6.713   3.677
 2004SOL     OW 6910   5.151   1.456   5.134
 2004SOL    HW1 6911   5.136   1.460   5.233
 2004SOL    HW2 6912   5.158   1.549   5.098
 2005SOL     OW 6913   0.888   4.991   6.825
 2005SOL    HW1 6914   0.988   4.988   6.814
 2005SOL    HW2 6915   0.845   4.933   6.757
 2006SOL     OW 6916   5.386   4.793   4.371
 2006SOL    HW1 6917   5.415   4.803   4.466
 2006SOL    HW2 6918   5.292   4.825   4.361
 2007SOL     OW 6919   3.767   4.954   1.208
 2007SOL    HW1 6920   3.705   5.011   1.262
 2007SOL    HW2 6921   3.808   5.009   1.135
 2008SOL     OW 6922   1.194   5.763   3.090
 2008SOL    HW1 6923   1.166   5.753   3.185
 2008SOL    HW2 6924   1.255   5.841   3.081
 2009SOL     OW 6925   6.167   0.121   1.673
 2009SOL    HW1 6926   6.162   0.155   1.578
 2009SOL    HW2 6927   6.259   0.089   1.691
 2010SOL     OW 6928   1.280   1.422   1.760
 2010SOL    HW1 6929   1.336   1.361   1.816
 2010SOL    HW2 6930   1.338   1.492   1.719
 2011SOL     OW 6931   6.525   1.482   5.101
 2011SOL    HW1 6932   6.494   1.511   5.010
 2011SOL    HW2 6933   6.605   1.536   5.128
 2012SOL     OW 6934   1.062   3.141   1.516
 2012SOL    HW1 6935   1.122   3.141   1.436
 2012SOL    HW2 6936   1.093   3.072   1.581
 2013SOL     OW 6937   6.170   0.687   3.287
 2013SOL    HW1 6938   6.100   0.729   3.344
 2013SOL    HW2 6939   6.174   0.735   3.199
 2014SOL     OW 6940   2.023   5.543   3.035
 2014SOL    HW1 6941   2.013   5.456   2.988
 2014SOL    HW2 6942   2.080   5.605   2.981
 2015SOL     OW 6943   2.119   1.892   0.021
 2015SOL    HW1 6944   2.103   1.887   0.120
 2015SOL    HW2 6945   2.162   1.979   7.019
 2016SOL     OW 6946   1.571   5.186   5.331
 2016SOL    HW1 6947   1.660   5.229   5.316
 2016SOL    HW2 6948   1.584   5.088   5.344
 2017SOL     OW 6949   2.355   6.807   4.490
 2017SOL    HW1 6950   2.389   6.714   4.480
 2017SOL    HW2 6951   2.431   6.871   4.476
 2018SOL     OW 6952   5.957   6.874   6.011
 2018SOL    HW1 6953   5.962   6.800   6.077
 2018SOL    HW2 6954   6.030   6.940   6.028
 2019SOL     OW 6955   4.880   2.339   2.287
 2019SOL    HW1 6956   4.858   2.276   2.362
 2019SOL    HW2 6957   4.903   2.286   2.206
 2020SOL     OW 6958   1.172   5.604   5.376
 2020SOL    HW1 6959   1.165   5.675   5.445
 2020SOL    HW2 6960   1.180   5.645   5.285
 2021SOL     OW 6961   2.338   5.261   3.735
 2021SOL    HW1 6962   2.268   5.271   3.664
 2021SOL    HW2 6963   2.303   5.203   3.809
 2022SOL     OW 6964   1.775   3.144   2.902
 2022SOL    HW1 6965   1.824   3.074   2.850
 2022SOL    HW2 6966   1.684   3.111   2.925
 2023SOL     OW 6967   5.952   1.270   6.559
 2023SOL    HW1 6968   5.861   1.264   6.602
 2023SOL    HW2 6969   5.960   1.356   6.510
 2024SOL     OW 6970   6.942   0.219   2.850
 2024SOL    HW1 6971   6.948   0.179   2.941
 2024SOL    HW2 6972   6.868   0.175   2.799
 2025SOL     OW 6973   2.001   2.983   2.239
 2025SOL    HW1 6974   1.986   2.917   2.166
 2025SOL    HW2 6975   2.063   3.055   2.208
 2026SOL     OW 6976   1.114   2.646   6.189
 2026SOL    HW1 6977   1.165   2.566   6.156
 2026SOL    HW2 6978   1.176   2.707   6.237
 2027SOL     OW 6979   1.014   1.459   0.982
 2027SOL    HW1 6980   1.012   1.374   0.929
 2027SOL    HW2 6981   1.043   1.534   0.922
 2028SOL     OW 6982   3.080   1.077   6.167
 2028SOL    HW1 6983   3.105   1.138   6.092
 2028SOL    HW2 6984   2.999   1.025   6.142
 2029SOL     OW 6985   6.872   0.724   1.035
 2029SOL    HW1 6986   6.965   0.739   1.070
 2029SOL    HW2 6987   6.847   0.800   0.975
 2030SOL     OW 6988   2.603   0.657   3.458
 2030SOL    HW1 6989   2.695   0.685   3.483
 2030SOL    HW2 6990   2.550   0.737   3.431
 2031SOL     OW 6991   5.741   6.194   2.137
 2031SOL    HW1 6992   5.663   6.206   2.198
 2031SOL    HW2 6993   5.708   6.174   2.044
 2032SOL     OW 6994   3.710   6.806   2.173
 2032SOL    HW1 6995   3.677   6.812   2.079
 2032SOL    HW2 6996   3.646   6.852   2.235
 2033SOL     OW 6997   3.565   3.858   6.848
 2033SOL    HW1 6998   3.513   3.774   6.837
 2033SOL    HW2 6999   3.509   3.936   6.819
 2034SOL     OW 7000   3.386   0.034   4.420
 2034SOL    HW1 7001   3.300   7.004   4.427
 2034SOL    HW2 7002   3.457   7.004   4.470
 2035SOL     OW 7003   6.883   0.744   1.973
 2035SOL    HW1 7004   6.921   0.655   1.996
 2035SOL    HW2 7005   6.914   0.771   1.882
 2036SOL     OW 7006   1.015   5.609   2.961
 2036SOL    HW1 7007   1.064   5.544   2.902
 2036SOL    HW2 7008   1.080   5.669   3.006
 2037SOL     OW 7009   0.862   3.177   5.924
 2037SOL    HW1 7010   0.947   3.152   5.972
 2037SOL    HW2 7011   0.849   3.116   5.846
 2038SOL     OW 7012   1.601   2.077   6.520
 2038SOL    HW1 7013   1.603   2.038   6.612
 2038SOL    HW2 7014   1.571   2.008   6.454
 2039SOL     OW 7015   0.019   5.174   2.745
 2039SOL    HW1 7016   0.029   5.112   2.667
 2039SOL    HW2 7017   0.060   5.263   2.722
 2040SOL     OW 7018   3.494   3.474   5.159
 2040SOL    HW1 7019   3.453   3.434   5.078
 2040SOL    HW2 7020   3.590   3.497   5.141
 2041SOL     OW 7021   6.850   5.755   5.191
 2041SOL    HW1 7022   6.919   5.795   5.251
 2041SOL    HW2 7023   6.759   5.777   5.226
 2042SOL     OW 7024   5.496   5.159   6.940
 2042SOL    HW1 7025   5.556   5.142   7.018
 2042SOL    HW2 7026   5.548   5.204   6.867
 2043SOL     OW 7027   6.361   4.491   2.561
 2043SOL    HW1 7028   6.320   4.553   2.628
 2043SOL    HW2 7029   6.459   4.483   2.579
 2044SOL     OW 7030   5.004   0.100   1.931
 2044SOL    HW1 7031   5.096   0.063   1.937
 2044SOL    HW2 7032   5.009   0.199   1.920
 2045SOL     OW 7033   2.682   4.660   4.497
 2045SOL    HW1 7034   2.633   4.617   4.573
 2045SOL    HW2 7035   2.642   4.631   4.411
 2046SOL     OW 7036   0.402   1.305   4.344
 2046SOL    HW1 7037   0.473   1.360   4.300
 2046SOL    HW2 7038   0.441   1.215   4.368
 2047SOL     OW 7039   4.670   1.914   0.374
 2047SOL    HW1 7040   4.703   1.990   0.430
 2047SOL    HW2 7041   4.626   1.951   0.291
 2048SOL     OW 7042   2.149   5.817   0.850
 2048SOL    HW1 7043   2.227   5.807   0.912
 2048SOL    HW2 7044   2.177   5.792   0.758
 2049SOL     OW 7045   4.759   1.752   6.394
 2049SOL    HW1 7046   4.739   1.668   6.343
 2049SOL    HW2 7047   4.673   1.799   6.414
 2050SOL     OW 7048   0.704   3.005   2.824
 2050SOL    HW1 7049   0.736   3.005   2.918
 2050SOL    HW2 7050   0.608   3.036   2.822
 2051SOL     OW 7051   0.789   5.982   1.315
 2051SOL    HW1 7052   0.751   5.962   1.405
 2051SOL    HW2 7053   0.865   5.920   1.297
 2052SOL     OW 7054   0.175   4.456   0.550
 2052SOL    HW1 7055   0.203   4.491   0.460
 2052SOL    HW2 7056   0.222   4.370   0.567
 2053SOL     OW 7057   5.554   0.404   5.370
 2053SOL    HW1 7058   5.535   0.488   5.421
 2053SOL    HW2 7059   5.637   0.361   5.406
 2054SOL     OW 7060   4.034   2.848   1.796
 2054SOL    HW1 7061   4.040   2.760   1.747
 2054SOL    HW2 7062   3.945   2.855   1.841
 2055SOL     OW 7063   6.351   3.373   3.544
 2055SOL    HW1 7064   6.339   3.323   3.459
 2055SOL    HW2 7065   6.346   3.310   3.621
 2056SOL     OW 7066   2.437   0.486   3.149
 2056SOL    HW1 7067   2.436   0.399   3.199
 2056SOL    HW2 7068   2.523   0.494   3.099
 2057SOL     OW 7069   5.480   3.229   3.945
 2057SOL    HW1 7070   5.415   3.276   4.005
 2057SOL    HW2 7071   5.449   3.135   3.931
 2058SOL     OW 7072   1.099   1.861   2.964
 2058SOL    HW1 7073   1.114   1.799   3.041
 2058SOL    HW2 7074   1.004   1.891   2.963
 2059SOL     OW 7075   2.558   6.239   5.975
 2059SOL    HW1 7076   2.503   6.168   5.932
 2059SOL    HW2 7077   2.558   6.226   6.074
 2060SOL     OW 7078   5.694   4.439   0.352
 2060SOL    HW1 7079   5.649   4.450   0.440
 2060SOL    HW2 7080   5.791   4.420   0.367
 2061SOL     OW 7081   0.532   2.059   3.007
 2061SOL    HW1 7082   0.621   2.015   3.019
 2061SOL    HW2 7083   0.519   2.082   2.910
 2062SOL     OW 7084   5.916   6.983   3.915
 2062SOL    HW1 7085   5.995   6.935   3.953
 2062SOL    HW2 7086   5.946   0.048   3.872
 2063SOL     OW 7087   1.854   0.518   6.506
 2063SOL    HW1 7088   1.802   0.591   6.551
 2063SOL    HW2 7089   1.914   0.474   6.574
 2064SOL     OW 7090   1.092   2.441   5.912
 2064SOL    HW1 7091   1.091   2.491   5.825
 2064SOL    HW2 7092   1.155   2.364   5.904
 2065SOL     OW 7093   6.885   3.098   4.224
 2065SOL    HW1 7094   6.873   2.999   4.230
 2065SOL    HW2 7095   6.925   3.132   4.309
 2066SOL     OW 7096   0.435   5.587   3.389
 2066SOL    HW1 7097   0.391   5.613   3.304
 2066SOL    HW2 7098   0.505   5.518   3.371
 2067SOL     OW 7099   6.748   5.502   1.112
 2067SOL    HW1 7100   6.798   5.487   1.027
 2067SOL    HW2 7101   6.664   5.447   1.112
 2068SOL     OW 7102   1.675   1.949   5.764
 2068SOL    HW1 7103   1.766   1.949   5.805
 2068SOL    HW2 7104   1.682   1.952   5.665
 2069SOL     OW 7105   1.029   2.997   3.264
 2069SOL    HW1 7106   0.991   2.905   3.262
 2069SOL    HW2 7107   1.044   3.029   3.170
 2070SOL     OW 7108   1.299   0.770   2.465
 2070SOL    HW1 7109   1.364   0.811   2.529
 2070SOL    HW2 7110   1.298   0.671   2.476
 2071SOL     OW 7111   5.923   5.959   5.217
 2071SOL    HW1 7112   5.962   5.869   5.236
 2071SOL    HW2 7113   5.916   6.011   5.303
 2072SOL     OW 7114   4.185   6.840   2.226
 2072SOL    HW1 7115   4.115   6.877   2.165
 2072SOL    HW2 7116   4.265   6.901   2.226
 2073SOL     OW 7117   4.207   6.791   4.547
 2073SOL    HW1 7118   4.297   6.751   4.532
 2073SOL    HW2 7119   4.138   6.733   4.504
 2074SOL     OW 7120   1.579   3.090   0.258
 2074SOL    HW1 7121   1.599   3.163   0.192
 2074SOL    HW2 7122   1.504   3.120   0.318
 2075SOL     OW 7123   5.171   3.002   1.138
 2075SOL    HW1 7124   5.187   3.069   1.210
 2075SOL    HW2 7125   5.164   3.049   1.050
 2076SOL     OW 7126   5.604   6.657   6.135
 2076SOL    HW1 7127   5.646   6.748   6.131
 2076SOL    HW2 7128   5.581   6.635   6.229
 2077SOL     OW 7129   5.558   2.849   1.953
 2077SOL    HW1 7130   5.603   2.912   1.889
 2077SOL    HW2 7131   5.587   2.755   1.932
 2078SOL     OW 7132   1.506   5.625   6.239
 2078SOL    HW1 7133   1.488   5.530   6.263
 2078SOL    HW2 7134   1.574   5.629   6.166
 2079SOL     OW 7135   5.714   1.741   3.389
 2079SOL    HW1 7136   5.707   1.739   3.289
 2079SOL    HW2 7137   5.764   1.823   3.417
 2080SOL     OW 7138   1.844   0.920   4.888
 2080SOL    HW1 7139   1.767   0.865   4.856
 2080SOL    HW2 7140   1.810   0.990   4.951
 2081SOL     OW 7141   1.595   5.598   4.381
 2081SOL    HW1 7142   1.636   5.638   4.299
 2081SOL    HW2 7143   1.508   5.555   4.357
 2082SOL     OW 7144   0.015   0.040   3.322
 2082SOL    HW1 7145   0.087   0.066   3.386
 2082SOL    HW2 7146   0.053   6.998   3.253
 2083SOL     OW 7147   5.512   5.240   6.466
 2083SOL    HW1 7148   5.417   5.214   6.448
 2083SOL    HW2 7149   5.532   5.326   6.420
 2084SOL     OW 7150   1.201   3.766   4.047
 2084SOL    HW1 7151   1.226   3.690   4.107
 2084SOL    HW2 7152   1.102   3.776   4.045
 2085SOL     OW 7153   4.274   0.515   6.743
 2085SOL    HW1 7154   4.341   0.584   6.714
 2085SOL    HW2 7155   4.187   0.533   6.697
 2086SOL     OW 7156   4.420   6.567   5.822
 2086SOL    HW1 7157   4.346   6.631   5.801
 2086SOL    HW2 7158   4.426   6.499   5.749
 2087SOL     OW 7159   5.190   0.104   1.481
 2087SOL    HW1 7160   5.186   0.203   1.469
 2087SOL    HW2 7161   5.110   0.062   1.438
 2088SOL     OW 7162   3.056   6.164   0.590
 2088SOL    HW1 7163   2.999   6.168   0.672
 2088SOL    HW2 7164   3.002   6.195   0.512
 2089SOL     OW 7165   5.110   2.102   6.221
 2089SOL    HW1 7166   5.188   2.044   6.244
 2089SOL    HW2 7167   5.026   2.048   6.222
 2090SOL     OW 7168   3.510   3.074   5.935
 2090SOL    HW1 7169   3.498   2.982   5.974
 2090SOL    HW2 7170   3.423   3.122   5.937
 2091SOL     OW 7171   6.833   5.505   0.775
 2091SOL    HW1 7172   6.925   5.543   0.763
 2091SOL    HW2 7173   6.765   5.575   0.753
 2092SOL     OW 7174   5.451   4.417   6.724
 2092SOL    HW1 7175   5.394   4.410   6.642
 2092SOL    HW2 7176   5.458   4.513   6.752
 2093SOL     OW 7177   2.451   2.502   1.180
 2093SOL    HW1 7178   2.398   2.530   1.260
 2093SOL    HW2 7179   2.466   2.581   1.121
 2094SOL     OW 7180   5.573   1.624   1.184
 2094SOL    HW1 7181   5.595   1.690   1.256
 2094SOL    HW2 7182   5.633   1.544   1.193
 2095SOL     OW 7183   5.746   0.604   4.992
 2095SOL    HW1 7184   5.707   0.692   4.967
 2095SOL    HW2 7185   5.683   0.556   5.053
 2096SOL     OW 7186   5.161   3.930   3.347
 2096SOL    HW1 7187   5.155   4.004   3.414
 2096SOL    HW2 7188   5.231   3.864   3.375
 2097SOL     OW 7189   2.384   2.838   6.687
 2097SOL    HW1 7190   2.391   2.922   6.632
 2097SOL    HW2 7191   2.320   2.854   6.762
 2098SOL     OW 7192   4.351   5.954   2.727
 2098SOL    HW1 7193   4.264   5.921   2.764
 2098SOL    HW2 7194   4.352   6.054   2.728
 2099SOL     OW 7195   2.895   3.630   5.802
 2099SOL    HW1 7196   2.981   3.651   5.849
 2099SOL    HW2 7197   2.912   3.562   5.731
 2100SOL     OW 7198   4.617   3.040   6.102
 2100SOL    HW1 7199   4.562   2.962   6.074
 2100SOL    HW2 7200   4.573   3.124   6.071
 2101SOL     OW 7201   1.542   6.540   2.439
 2101SOL    HW1 7202   1.603   6.466   2.411
 2101SOL    HW2 7203   1.485   6.509   2.516
 2102SOL     OW 7204   6.218   4.993   1.757
 2102SOL    HW1 7205   6.296   5.053   1.776
 2102SOL    HW2 7206   6.234   4.904   1.801
 2103SOL     OW 7207   3.665   4.474   5.734
 2103SOL    HW1 7208   3.655   4.376   5.720
 2103SOL    HW2 7209   3.676   4.519   5.645
 2104SOL     OW 7210   1.814   3.525   0.942
 2104SOL    HW1 7211   1.876   3.561   1.011
 2104SOL    HW2 7212   1.720   3.551   0.965
 2105SOL     OW 7213   5.354   5.884   5.229
 2105SOL    HW1 7214   5.374   5.843   5.319
 2105SOL    HW2 7215   5.437   5.926   5.193
 2106SOL     OW 7216   4.807   4.184   1.155
 2106SOL    HW1 7217   4.764   4.166   1.066
 2106SOL    HW2 7218   4.761   4.132   1.226
 2107SOL     OW 7219   4.923   2.414   5.356
 2107SOL    HW1 7220   5.003   2.410   5.297
 2107SOL    HW2 7221   4.907   2.508   5.385
 2108SOL     OW 7222   6.438   6.118   5.060
 2108SOL    HW1 7223   6.340   6.101   5.059
 2108SOL    HW2 7224   6.488   6.033   5.042
 2109SOL     OW 7225   4.196   6.436   2.364
 2109SOL    HW1 7226   4.117   6.432   2.424
 2109SOL    HW2 7227   4.226   6.344   2.340
 2110SOL     OW 7228   2.672   1.484   6.966
 2110SOL    HW1 7229   2.754   1.539   6.982
 2110SOL    HW2 7230   2.655   1.426   0.026
 2111SOL     OW 7231   1.018   2.606   6.947
 2111SOL    HW1 7232   1.107   2.648   6.928
 2111SOL    HW2 7233   0.971   2.658   7.017
 2112SOL     OW 7234   4.961   3.304   0.116
 2112SOL    HW1 7235   4.908   3.354   0.183
 2112SOL    HW2 7236   4.933   3.208   0.116
 2113SOL     OW 7237   1.714   1.772   5.089
 2113SOL    HW1 7238   1.664   1.832   5.027
 2113SOL    HW2 7239   1.747   1.692   5.039
 2114SOL     OW 7240   1.486   2.459   0.181
 2114SOL    HW1 7241   1.467   2.414   0.095
 2114SOL    HW2 7242   1.468   2.557   0.173
 2115SOL     OW 7243   2.082   3.499   2.665
 2115SOL    HW1 7244   2.113   3.414   2.707
 2115SOL    HW2 7245   1.995   3.483   2.617
 2116SOL     OW 7246   6.785   4.864   3.127
 2116SOL    HW1 7247   6.717   4.923   3.083
 2116SOL    HW2 7248   6.862   4.849   3.064
 2117SOL     OW 7249   6.790   5.349   1.764
 2117SOL    HW1 7250   6.823   5.306   1.849
 2117SOL    HW2 7251   6.732   5.427   1.786
 2118SOL     OW 7252   5.909   3.741   1.822
 2118SOL    HW1 7253   5.914   3.645   1.794
 2118SOL    HW2 7254   5.860   3.793   1.752
 2119SOL     OW 7255   1.646   6.112   0.991
 2119SOL    HW1 7256   1.689   6.078   1.075
 2119SOL    HW2 7257   1.707   6.094   0.914
 2120SOL     OW 7258   6.942   5.347   3.784
 2120SOL    HW1 7259   0.022   5.359   3.787
 2120SOL    HW2 7260   6.913   5.294   3.864
 2121SOL     OW 7261   1.261   3.828   5.754
 2121SOL    HW1 7262   1.295   3.771   5.829
 2121SOL    HW2 7263   1.215   3.771   5.686
 2122SOL     OW 7264   5.564   4.372   6.087
 2122SOL    HW1 7265   5.474   4.335   6.110
 2122SOL    HW2 7266   5.619   4.302   6.042
 2123SOL     OW 7267   6.703   6.031   2.132
 2123SOL    HW1 7268   6.711   6.067   2.040
 2123SOL    HW2 7269   6.753   6.089   2.196
 2124SOL     OW 7270   2.493   2.029   1.815
 2124SOL    HW1 7271   2.578   2.036   1.866
 2124SOL    HW2 7272   2.434   1.960   1.859
 2125SOL     OW 7273   2.216   0.776   1.895
 2125SOL    HW1 7274   2.295   0.720   1.872
 2125SOL    HW2 7275   2.205   0.848   1.827
 2126SOL     OW 7276   3.484   1.328   6.319
 2126SOL    HW1 7277   3.393   1.297   6.292
 2126SOL    HW2 7278   3.501   1.301   6.414
 2127SOL     OW 7279   0.284   3.219   4.757
 2127SOL    HW1 7280   0.309   3.139   4.810
 2127SOL    HW2 7281   0.192   3.249   4.782
 2128SOL     OW 7282   6.787   3.065   3.743
 2128SOL    HW1 7283   6.840   3.085   3.826
 2128SOL    HW2 7284   6.848   3.060   3.664
 2129SOL     OW 7285   4.012   3.808   5.387
 2129SOL    HW1 7286   3.933   3.843   5.437
 2129SOL    HW2 7287   4.094   3.814   5.445
 2130SOL     OW 7288   3.332   0.865   1.698
 2130SOL    HW1 7289   3.295   0.803   1.767
 2130SOL    HW2 7290   3.400   0.925   1.740
 2131SOL     OW 7291   6.007   0.355   0.948
 2131SOL    HW1 7292   5.949   0.280   0.980
 2131SOL    HW2 7293   5.950   0.434   0.925
 2132SOL     OW 7294   3.196   1.039   1.551
 2132SOL    HW1 7295   3.235   0.978   1.620
 2132SOL    HW2 7296   3.201   1.134   1.583
 2133SOL     OW 7297   3.187   3.185   0.470
 2133SOL    HW1 7298   3.271   3.192   0.416
 2133SOL    HW2 7299   3.125   3.120   0.428
 2134SOL     OW 7300   6.903   2.256   6.804
 2134SOL    HW1 7301   6.887   2.226   6.898
 2134SOL    HW2 7302   6.872   2.184   6.741
 2135SOL     OW 7303   1.059   3.368   4.262
 2135SOL    HW1 7304   0.973   3.415   4.283
 2135SOL    HW2 7305   1.089   3.316   4.342
 2136SOL     OW 7306   1.501   3.416   2.899
 2136SOL    HW1 7307   1.600   3.399   2.893
 2136SOL    HW2 7308   1.463   3.359   2.972
 2137SOL     OW 7309   2.097   5.387   4.884
 2137SOL    HW1 7310   2.144   5.472   4.858
 2137SOL    HW2 7311   2.049   5.350   4.805
 2138SOL     OW 7312   6.652   0.150   3.131
 2138SOL    HW1 7313   6.694   0.119   3.217
 2138SOL    HW2 7314   6.668   0.248   3.120
 2139SOL     OW 7315   4.381   0.581   3.747
 2139SOL    HW1 7316   4.392   0.680   3.736
 2139SOL    HW2 7317   4.406   0.535   3.662
 2140SOL     OW 7318   3.665   6.577   3.690
 2140SOL    HW1 7319   3.728   6.515   3.737
 2140SOL    HW2 7320   3.641   6.539   3.600
 2141SOL     OW 7321   6.434   3.412   2.054
 2141SOL    HW1 7322   6.445   3.487   2.118
 2141SOL    HW2 7323   6.474   3.329   2.092
 2142SOL     OW 7324   1.647   1.359   2.996
 2142SOL    HW1 7325   1.550   1.371   3.015
 2142SOL    HW2 7326   1.700   1.384   3.077
 2143SOL     OW 7327   3.247   4.380   1.315
 2143SOL    HW1 7328   3.155   4.410   1.291
 2143SOL    HW2 7329   3.310   4.458   1.311
 2144SOL     OW 7330   1.105   5.729   3.688
 2144SOL    HW1 7331   1.034   5.681   3.740
 2144SOL    HW2 7332   1.173   5.663   3.657
 2145SOL     OW 7333   4.403   6.106   4.051
 2145SOL    HW1 7334   4.452   6.051   4.118
 2145SOL    HW2 7335   4.394   6.199   4.084
 2146SOL     OW 7336   2.139   3.762   1.464
 2146SOL    HW1 7337   2.128   3.755   1.563
 2146SOL    HW2 7338   2.224   3.811   1.444
 2147SOL     OW 7339   6.841   1.390   5.668
 2147SOL    HW1 7340   6.843   1.489   5.663
 2147SOL    HW2 7341   6.747   1.358   5.680
 2148SOL     OW 7342   6.242   3.256   5.679
 2148SOL    HW1 7343   6.173   3.195   5.718
 2148SOL    HW2 7344   6.333   3.226   5.707
 2149SOL     OW 7345   3.048   1.882   1.013
 2149SOL    HW1 7346   3.017   1.897   0.919
 2149SOL    HW2 7347   3.041   1.967   1.064
 2150SOL     OW 7348   2.333   2.583   2.267
 2150SOL    HW1 7349   2.385   2.574   2.182
 2150SOL    HW2 7350   2.373   2.524   2.337
 2151SOL     OW 7351   1.388   6.951   5.483
 2151SOL    HW1 7352   1.482   6.923   5.503
 2151SOL    HW2 7353   1.387   0.029   5.459
 2152SOL     OW 7354   3.035   5.510   1.966
 2152SOL    HW1 7355   2.972   5.559   2.027
 2152SOL    HW2 7356   3.088   5.444   2.019
 2153SOL     OW 7357   4.486   1.662   3.105
 2153SOL    HW1 7358   4.561   1.600   3.129
 2153SOL    HW2 7359   4.480   1.671   3.006
 2154SOL     OW 7360   5.412   1.392   5.000
 2154SOL    HW1 7361   5.327   1.361   5.044
 2154SOL    HW2 7362   5.436   1.328   4.927
 2155SOL     OW 7363   3.331   6.059   0.681
 2155SOL    HW1 7364   3.248   6.092   0.637
 2155SOL    HW2 7365   3.410   6.081   0.625
 2156SOL     OW 7366   1.460   2.274   4.856
 2156SOL    HW1 7367   1.424   2.330   4.781
 2156SOL    HW2 7368   1.391   2.265   4.928
 2157SOL     OW 7369   6.238   0.234   3.362
 2157SOL    HW1 7370   6.194   0.285   3.288
 2157SOL    HW2 7371   6.206   0.139   3.361
 2158SOL     OW 7372   3.639   6.030   0.841
 2158SOL    HW1 7373   3.619   5.994   0.750
 2158SOL    HW2 7374   3.599   6.122   0.850
 2159SOL     OW 7375   1.344   6.801   5.267
 2159SOL    HW1 7376   1.359   6.870   5.337
 2159SOL    HW2 7377   1.249   6.770   5.269
 2160SOL     OW 7378   4.473   3.997   6.614
 2160SOL    HW1 7379   4.491   3.951   6.528
 2160SOL    HW2 7380   4.388   3.962   6.653
 2161SOL     OW 7381   5.351   4.865   2.250
 2161SOL    HW1 7382   5.353   4.957   2.290
 2161SOL    HW2 7383   5.416   4.862   2.173
 2162SOL     OW 7384   2.889   0.076   2.228
 2162SOL    HW1 7385   2.826   0.094   2.152
 2162SOL    HW2 7386   2.838   0.068   2.313
 2163SOL     OW 7387   1.521   4.586   6.300
 2163SOL    HW1 7388   1.590   4.544   6.358
 2163SOL    HW2 7389   1.540   4.565   6.204
 2164SOL     OW 7390   1.634   2.500   6.182
 2164SOL    HW1 7391   1.622   2.470   6.087
 2164SOL    HW2 7392   1.669   2.424   6.237
 2165SOL     OW 7393   0.146   2.403   2.950
 2165SOL    HW1 7394   0.155   2.484   2.891
 2165SOL    HW2 7395   0.165   2.321   2.896
 2166SOL     OW 7396   1.020   2.397   5.032
 2166SOL    HW1 7397   1.089   2.325   5.023
 2166SOL    HW2 7398   1.058   2.474   5.084
 2167SOL     OW 7399   1.275   2.246   3.208
 2167SOL    HW1 7400   1.252   2.183   3.134
 2167SOL    HW2 7401   1.295   2.336   3.170
 2168SOL     OW 7402   0.556   2.394   3.742
 2168SOL    HW1 7403   0.514   2.457   3.807
 2168SOL    HW2 7404   0.648   2.427   3.720
 2169SOL     OW 7405   5.358   1.781   0.115
 2169SOL    HW1 7406   5.338   1.801   0.211
 2169SOL    HW2 7407   5.451   1.811   0.094
 2170SOL     OW 7408   6.870   3.961   5.215
 2170SOL    HW1 7409   6.780   4.006   5.207
 2170SOL    HW2 7410   6.857   3.862   5.220
 2171SOL     OW 7411   6.933   5.174   1.494
 2171SOL    HW1 7412   6.974   5.234   1.425
 2171SOL    HW2 7413   6.916   5.084   1.453
 2172SOL     OW 7414   1.666   2.296   6.376
 2172SOL    HW1 7415   1.669   2.364   6.448
 2172SOL    HW2 7416   1.639   2.208   6.414
 2173SOL     OW 7417   4.096   1.052   5.246
 2173SOL    HW1 7418   4.018   1.005   5.206
 2173SOL    HW2 7419   4.066   1.136   5.292
 2174SOL     OW 7420   5.495   6.035   4.882
 2174SOL    HW1 7421   5.542   5.992   4.805
 2174SOL    HW2 7422   5.507   5.978   4.964
 2175SOL     OW 7423   1.986   2.686   4.857
 2175SOL    HW1 7424   1.951   2.750   4.926
 2175SOL    HW2 7425   2.085   2.696   4.850
 2176SOL     OW 7426   5.960   1.939   0.472
 2176SOL    HW1 7427   5.876   1.903   0.431
 2176SOL    HW2 7428   5.952   2.038   0.481
 2177SOL     OW 7429   6.950   1.938   3.911
 2177SOL    HW1 7430   7.016   1.927   3.837
 2177SOL    HW2 7431   6.929   1.849   3.950
 2178SOL     OW 7432   2.115   2.066   1.782
 2178SOL    HW1 7433   2.131   1.980   1.830
 2178SOL    HW2 7434   2.203   2.108   1.758
 2179SOL     OW 7435   1.959   5.091   5.142
 2179SOL    HW1 7436   1.920   5.084   5.050
 2179SOL    HW2 7437   2.028   5.164   5.143
 2180SOL     OW 7438   1.705   1.988   2.171
 2180SOL    HW1 7439   1.611   2.023   2.165
 2180SOL    HW2 7440   1.759   2.024   2.094
 2181SOL     OW 7441   5.061   4.643   4.644
 2181SOL    HW1 7442   4.990   4.692   4.593
 2181SOL    HW2 7443   5.115   4.708   4.697
 2182SOL     OW 7444   1.657   3.985   4.320
 2182SOL    HW1 7445   1.628   4.023   4.232
 2182SOL    HW2 7446   1.665   3.886   4.312
 2183SOL     OW 7447   2.424   4.561   5.995
 2183SOL    HW1 7448   2.399   4.464   6.002
 2183SOL    HW2 7449   2.395   4.597   5.907
 2184SOL     OW 7450   3.727   1.233   5.928
 2184SOL    HW1 7451   3.717   1.134   5.931
 2184SOL    HW2 7452   3.683   1.269   5.846
 2185SOL     OW 7453   0.438   0.620   1.404
 2185SOL    HW1 7454   0.465   0.601   1.310
 2185SOL    HW2 7455   0.427   0.534   1.453
 2186SOL     OW 7456   0.028   5.974   1.601
 2186SOL    HW1 7457   0.001   5.951   1.695
 2186SOL    HW2 7458   6.978   6.032   1.560
 2187SOL     OW 7459   6.311   6.084   3.169
 2187SOL    HW1 7460   6.236   6.128   3.217
 2187SOL    HW2 7461   6.346   6.145   3.098
 2188SOL     OW 7462   7.000   5.822   4.165
 2188SOL    HW1 7463   6.962   5.828   4.073
 2188SOL    HW2 7464   0.009   5.727   4.183
 2189SOL     OW 7465   1.992   6.475   0.520
 2189SOL    HW1 7466   2.089   6.479   0.545
 2189SOL    HW2 7467   1.937   6.473   0.603
 2190SOL     OW 7468   0.510   3.543   1.964
 2190SOL    HW1 7469   0.548   3.473   1.904
 2190SOL    HW2 7470   0.523   3.515   2.059
 2191SOL     OW 7471   2.714   1.948   6.762
 2191SOL    HW1 7472   2.797   2.003   6.755
 2191SOL    HW2 7473   2.672   1.939   6.672
 2192SOL     OW 7474   4.782   0.789   2.554
 2192SOL    HW1 7475   4.864   0.794   2.611
 2192SOL    HW2 7476   4.773   0.697   2.516
 2193SOL     OW 7477   5.555   6.065   0.171
 2193SOL    HW1 7478   5.465   6.025   0.191
 2193SOL    HW2 7479   5.546   6.165   0.169
 2194SOL     OW 7480   2.610   4.868   5.621
 2194SOL    HW1 7481   2.602   4.905   5.714
 2194SOL    HW2 7482   2.520   4.836   5.591
 2195SOL     OW 7483   0.088   0.127   4.854
 2195SOL    HW1 7484   0.050   0.084   4.772
 2195SOL    HW2 7485   0.063   0.224   4.856
 2196SOL     OW 7486   3.544   0.082   4.998
 2196SOL    HW1 7487   3.525   0.156   5.062
 2196SOL    HW2 7488   3.641   0.083   4.974
 2197SOL     OW 7489   2.734   3.682   0.471
 2197SOL    HW1 7490   2.695   3.764   0.513
 2197SOL    HW2 7491   2.831   3.696   0.453
 2198SOL     OW 7492   5.351   0.464   0.433
 2198SOL    HW1 7493   5.347   0.438   0.530
 2198SOL    HW2 7494   5.366   0.383   0.377
 2199SOL     OW 7495   5.118   0.265   3.059
 2199SOL    HW1 7496   5.094   0.361   3.074
 2199SOL    HW2 7497   5.141   0.222   3.146
 2200SOL     OW 7498   2.715   1.986   4.536
 2200SOL    HW1 7499   2.766   2.071   4.517
 2200SOL    HW2 7500   2.763   1.909   4.494
 2201SOL     OW 7501   6.991   2.912   2.953
 2201SOL    HW1 7502   6.963   2.845   2.885
 2201SOL    HW2 7503   0.016   2.865   3.030
 2202SOL     OW 7504   2.875   5.564   2.505
 2202SOL    HW1 7505   2.857   5.659   2.479
 2202SOL    HW2 7506   2.917   5.516   2.428
 2203SOL     OW 7507   1.940   2.543   0.655
 2203SOL    HW1 7508   1.963   2.531   0.558
 2203SOL    HW2 7509   1.841   2.547   0.665
 2204SOL     OW 7510   4.426   1.701   1.500
 2204SOL    HW1 7511   4.462   1.613   1.468
 2204SOL    HW2 7512   4.340   1.721   1.453
 2205SOL     OW 7513   0.883   0.125   6.192
 2205SOL    HW1 7514   0.920   0.129   6.099
 2205SOL    HW2 7515   0.784   0.114   6.188
 2206SOL     OW 7516   3.033   5.051   6.146
 2206SOL    HW1 7517   3.119   5.098   6.126
 2206SOL    HW2 7518   3.051   4.973   6.206
 2207SOL     OW 7519   3.210   4.436   6.501
 2207SOL    HW1 7520   3.140   4.506   6.486
 2207SOL    HW2 7521   3.166   4.348   6.517
 2208SOL     OW 7522   1.690   5.893   3.033
 2208SOL    HW1 7523   1.760   5.953   2.993
 2208SOL    HW2 7524   1.733   5.810   3.068
 2209SOL     OW 7525   1.824   6.468   5.387
 2209SOL    HW1 7526   1.787   6.472   5.480
 2209SOL    HW2 7527   1.851   6.559   5.357
 2210SOL     OW 7528   6.937   4.961   4.645
 2210SOL    HW1 7529   6.972   4.971   4.738
 2210SOL    HW2 7530   7.009   4.922   4.587
 2211SOL     OW 7531   6.240   0.306   0.811
 2211SOL    HW1 7532   6.165   0.334   0.871
 2211SOL    HW2 7533   6.323   0.295   0.865
 2212SOL     OW 7534   2.320   5.657   6.677
 2212SOL    HW1 7535   2.308   5.717   6.756
 2212SOL    HW2 7536   2.277   5.698   6.597
 2213SOL     OW 7537   3.119   2.012   5.458
 2213SOL    HW1 7538   3.215   1.996   5.481
 2213SOL    HW2 7539   3.113   2.088   5.393
 2214SOL     OW 7540   3.755   3.463   5.476
 2214SOL    HW1 7541   3.789   3.412   5.397
 2214SOL    HW2 7542   3.655   3.460   5.477
 2215SOL     OW 7543   6.364   0.906   0.203
 2215SOL    HW1 7544   6.281   0.955   0.179
 2215SOL    HW2 7545   6.443   0.955   0.167
 2216SOL     OW 7546   1.930   1.280   6.359
 2216SOL    HW1 7547   1.928   1.324   6.269
 2216SOL    HW2 7548   1.905   1.347   6.429
 2217SOL     OW 7549   3.929   6.790   1.771
 2217SOL    HW1 7550   3.895   6.826   1.684
 2217SOL    HW2 7551   3.945   6.866   1.835
 2218SOL     OW 7552   6.588   5.512   6.717
 2218SOL    HW1 7553   6.683   5.530   6.692
 2218SOL    HW2 7554   6.528   5.576   6.669
 2219SOL     OW 7555   4.979   1.805   1.316
 2219SOL    HW1 7556   4.953   1.792   1.411
 2219SOL    HW2 7557   4.956   1.898   1.288
 2220SOL     OW 7558   1.683   0.366   5.129
 2220SOL    HW1 7559   1.631   0.283   5.149
 2220SOL    HW2 7560   1.687   0.381   5.030
 2221SOL     OW 7561   6.580   1.293   5.746
 2221SOL    HW1 7562   6.540   1.318   5.834
 2221SOL    HW2 7563   6.527   1.218   5.705
 2222SOL     OW 7564   4.673   1.004   0.066
 2222SOL    HW1 7565   4.742   1.071   0.093
 2222SOL    HW2 7566   4.713   0.912   0.069
 2223SOL     OW 7567   5.916   1.257   5.084
 2223SOL    HW1 7568   5.848   1.325   5.058
 2223SOL    HW2 7569   5.915   1.246   5.184
 2224SOL     OW 7570   0.060   3.229   0.983
 2224SOL    HW1 7571   0.073   3.253   1.080
 2224SOL    HW2 7572   0.126   3.159   0.957
 2225SOL     OW 7573   6.578   6.615   3.743
 2225SOL    HW1 7574   6.564   6.517   3.727
 2225SOL    HW2 7575   6.555   6.666   3.660
 2226SOL     OW 7576   3.528   4.788   1.214
 2226SOL    HW1 7577   3.619   4.829   1.227
 2226SOL    HW2 7578   3.461   4.841   1.267
 2227SOL     OW 7579   4.903   3.648   6.838
 2227SOL    HW1 7580   4.883   3.720   6.771
 2227SOL    HW2 7581   4.986   3.672   6.888
 2228SOL     OW 7582   3.562   4.563   1.373
 2228SOL    HW1 7583   3.557   4.601   1.281
 2228SOL    HW2 7584   3.523   4.629   1.438
 2229SOL     OW 7585   4.368   2.975   5.820
 2229SOL    HW1 7586   4.448   2.924   5.789
 2229SOL    HW2 7587   4.301   2.979   5.746
 2230SOL     OW 7588   5.240   6.734   6.939
 2230SOL    HW1 7589   5.210   6.653   6.888
 2230SOL    HW2 7590   5.327   6.766   6.903
 2231SOL     OW 7591   0.617   0.774   1.540
 2231SOL    HW1 7592   0.573   0.691   1.505
 2231SOL    HW2 7593   0.559   0.853   1.519
 2232SOL     OW 7594   0.828   2.751   5.108
 2232SOL    HW1 7595   0.875   2.818   5.050
 2232SOL    HW2 7596   0.810   2.668   5.055
 2233SOL     OW 7597   2.017   3.987   6.994
 2233SOL    HW1 7598   2.025   4.087   6.992
 2233SOL    HW2 7599   2.009   3.957   0.069
 2234SOL     OW 7600   4.193   1.817   1.363
 2234SOL    HW1 7601   4.151   1.890   1.418
 2234SOL    HW2 7602   4.126   1.745   1.346
 2235SOL     OW 7603   2.536   6.978   1.612
 2235SOL    HW1 7604   2.561   6.967   1.516
 2235SOL    HW2 7605   2.480   0.040   1.622
 2236SOL     OW 7606   1.468   4.219   6.469
 2236SOL    HW1 7607   1.490   4.281   6.545
 2236SOL    HW2 7608   1.369   4.209   6.462
 2237SOL     OW 7609   5.755   4.571   4.234
 2237SOL    HW1 7610   5.666   4.566   4.188
 2237SOL    HW2 7611   5.745   4.622   4.320
 2238SOL     OW 7612   4.643   4.614   1.562
 2238SOL    HW1 7613   4.687   4.662   1.486
 2238SOL    HW2 7614   4.621   4.679   1.635
 2239SOL     OW 7615   3.796   5.209   4.234
 2239SOL    HW1 7616   3.842   5.294   4.258
 2239SOL    HW2 7617   3.710   5.229   4.187
 2240SOL     OW 7618   4.325   5.758   3.729
 2240SOL    HW1 7619   4.259   5.808   3.785
 2240SOL    HW2 7620   4.328   5.798   3.637
 2241SOL     OW 7621   0.416   5.387   3.139
 2241SOL    HW1 7622   0.335   5.339   3.173
 2241SOL    HW2 7623   0.491   5.377   3.205
 2242SOL     OW 7624   5.504   3.129   2.760
 2242SOL    HW1 7625   5.571   3.203   2.760
 2242SOL    HW2 7626   5.417   3.163   2.725
 2243SOL     OW 7627   1.940   6.854   6.404
 2243SOL    HW1 7628   1.982   6.764   6.422
 2243SOL    HW2 7629   1.924   6.901   6.491
 2244SOL     OW 7630   1.697   6.414   2.020
 2244SOL    HW1 7631   1.679   6.343   2.089
 2244SOL    HW2 7632   1.727   6.371   1.935
 2245SOL     OW 7633   0.575   2.582   0.940
 2245SOL    HW1 7634   0.486   2.552   0.974
 2245SOL    HW2 7635   0.647   2.524   0.979
 2246SOL     OW 7636   1.129   1.657   4.821
 2246SOL    HW1 7637   1.097   1.701   4.737
 2246SOL    HW2 7638   1.079   1.572   4.835
 2247SOL     OW 7639   3.321   2.894   4.221
 2247SOL    HW1 7640   3.365   2.866   4.306
 2247SOL    HW2 7641   3.390   2.934   4.160
 2248SOL     OW 7642   5.728   3.732   5.495
 2248SOL    HW1 7643   5.634   3.741   5.462
 2248SOL    HW2 7644   5.778   3.669   5.436
 2249SOL     OW 7645   5.659   6.538   3.008
 2249SOL    HW1 7646   5.570   6.577   3.032
 2249SOL    HW2 7647   5.722   6.546   3.085
 2250SOL     OW 7648   4.037   3.940   6.249
 2250SOL    HW1 7649   4.034   3.877   6.327
 2250SOL    HW2 7650   3.944   3.961   6.219
 2251SOL     OW 7651   5.259   0.321   6.377
 2251SOL    HW1 7652   5.346   0.314   6.330
 2251SOL    HW2 7653   5.187   0.279   6.321
 2252SOL     OW 7654   4.787   2.773   2.006
 2252SOL    HW1 7655   4.735   2.732   1.931
 2252SOL    HW2 7656   4.769   2.872   2.009
 2253SOL     OW 7657   0.613   3.665   6.822
 2253SOL    HW1 7658   0.586   3.570   6.809
 2253SOL    HW2 7659   0.684   3.670   6.893
 2254SOL     OW 7660   3.608   2.696   5.861
 2254SOL    HW1 7661   3.595   2.660   5.769
 2254SOL    HW2 7662   3.678   2.769   5.859
 2255SOL     OW 7663   4.523   3.141   6.354
 2255SOL    HW1 7664   4.570   3.224   6.384
 2255SOL    HW2 7665   4.547   3.121   6.259
 2256SOL     OW 7666   5.215   5.857   1.968
 2256SOL    HW1 7667   5.146   5.926   1.946
 2256SOL    HW2 7668   5.256   5.878   2.057
 2257SOL     OW 7669   6.894   2.068   4.763
 2257SOL    HW1 7670   6.910   2.107   4.854
 2257SOL    HW2 7671   6.887   2.142   4.697
 2258SOL     OW 7672   1.409   5.515   5.032
 2258SOL    HW1 7673   1.443   5.503   5.125
 2258SOL    HW2 7674   1.487   5.514   4.968
 2259SOL     OW 7675   5.464   4.040   6.370
 2259SOL    HW1 7676   5.389   4.022   6.306
 2259SOL    HW2 7677   5.516   3.955   6.385
 2260SOL     OW 7678   6.241   4.225   1.793
 2260SOL    HW1 7679   6.202   4.215   1.702
 2260SOL    HW2 7680   6.314   4.158   1.807
 2261SOL     OW 7681   6.499   5.522   0.249
 2261SOL    HW1 7682   6.481   5.427   0.278
 2261SOL    HW2 7683   6.598   5.536   0.244
 2262SOL     OW 7684   5.829   1.096   2.889
 2262SOL    HW1 7685   5.909   1.155   2.884
 2262SOL    HW2 7686   5.846   1.024   2.956
 2263SOL     OW 7687   2.961   6.018   6.892
 2263SOL    HW1 7688   3.058   5.996   6.899
 2263SOL    HW2 7689   2.928   5.996   6.800
 2264SOL     OW 7690   2.336   4.337   0.551
 2264SOL    HW1 7691   2.378   4.421   0.518
 2264SOL    HW2 7692   2.244   4.356   0.584
 2265SOL     OW 7693   0.548   0.696   4.331
 2265SOL    HW1 7694   0.539   0.617   4.270
 2265SOL    HW2 7695   0.470   0.756   4.320
 2266SOL     OW 7696   5.183   1.610   6.948
 2266SOL    HW1 7697   5.237   1.658   7.018
 2266SOL    HW2 7698   5.085   1.624   6.967
 2267SOL     OW 7699   5.093   2.297   4.615
 2267SOL    HW1 7700   5.016   2.360   4.612
 2267SOL    HW2 7701   5.120   2.282   4.710
 2268SOL     OW 7702   6.271   3.384   0.166
 2268SOL    HW1 7703   6.212   3.352   0.092
 2268SOL    HW2 7704   6.357   3.416   0.128
 2269SOL     OW 7705   5.938   5.174   4.990
 2269SOL    HW1 7706   5.902   5.156   5.082
 2269SOL    HW2 7707   5.943   5.272   4.975
 2270SOL     OW 7708   2.999   2.276   6.205
 2270SOL    HW1 7709   3.080   2.219   6.191
 2270SOL    HW2 7710   2.974   2.276   6.302
 2271SOL     OW 7711   5.584   3.636   1.028
 2271SOL    HW1 7712   5.513   3.702   1.004
 2271SOL    HW2 7713   5.552   3.578   1.103
 2272SOL     OW 7714   5.889   3.052   6.570
 2272SOL    HW1 7715   5.808   3.088   6.524
 2272SOL    HW2 7716   5.937   2.989   6.509
 2273SOL     OW 7717   1.664   0.735   2.336
 2273SOL    HW1 7718   1.618   0.824   2.334
 2273SOL    HW2 7719   1.721   0.726   2.254
 2274SOL     OW 7720   6.896   2.430   6.493
 2274SOL    HW1 7721   6.973   2.423   6.556
 2274SOL    HW2 7722   6.844   2.514   6.512
 2275SOL     OW 7723   6.134   0.020   4.288
 2275SOL    HW1 7724   6.153   7.003   4.379
 2275SOL    HW2 7725   6.204   7.007   4.224
 2276SOL     OW 7726   2.423   5.220   0.959
 2276SOL    HW1 7727   2.460   5.244   0.869
 2276SOL    HW2 7728   2.350   5.152   0.948
 2277SOL     OW 7729   3.774   4.124   4.340
 2277SOL    HW1 7730   3.831   4.058   4.391
 2277SOL    HW2 7731   3.702   4.159   4.400
 2278SOL     OW 7732   6.481   4.732   4.490
 2278SOL    HW1 7733   6.427   4.651   4.515
 2278SOL    HW2 7734   6.577   4.707   4.487
 2279SOL     OW 7735   5.416   6.939   5.144
 2279SOL    HW1 7736   5.504   6.894   5.157
 2279SOL    HW2 7737   5.428   0.018   5.150
 2280SOL     OW 7738   6.416   6.912   5.124
 2280SOL    HW1 7739   6.484   6.855   5.170
 2280SOL    HW2 7740   6.348   6.853   5.080
 2281SOL     OW 7741   3.537   1.345   2.428
 2281SOL    HW1 7742   3.546   1.445   2.431
 2281SOL    HW2 7743   3.583   1.310   2.346
 2282SOL     OW 7744   5.349   0.704   4.645
 2282SOL    HW1 7745   5.408   0.707   4.564
 2282SOL    HW2 7746   5.275   0.770   4.635
 2283SOL     OW 7747   0.500   4.726   1.454
 2283SOL    HW1 7748   0.574   4.740   1.388
 2283SOL    HW2 7749   0.530   4.755   1.545
 2284SOL     OW 7750   0.859   2.522   6.733
 2284SOL    HW1 7751   0.923   2.558   6.801
 2284SOL    HW2 7752   0.812   2.598   6.688
 2285SOL     OW 7753   2.449   2.294   0.923
 2285SOL    HW1 7754   2.494   2.382   0.911
 2285SOL    HW2 7755   2.411   2.288   1.015
 2286SOL     OW 7756   0.120   0.039   4.134
 2286SOL    HW1 7757   0.031   0.028   4.179
 2286SOL    HW2 7758   0.173   0.108   4.184
 2287SOL     OW 7759   1.241   0.666   3.460
 2287SOL    HW1 7760   1.171   0.691   3.393
 2287SOL    HW2 7761   1.231   0.570   3.485
 2288SOL     OW 7762   6.094   5.281   4.724
 2288SOL    HW1 7763   6.020   5.224   4.759
 2288SOL    HW2 7764   6.107   5.262   4.626
 2289SOL     OW 7765   0.878   4.888   1.876
 2289SOL    HW1 7766   0.861   4.892   1.974
 2289SOL    HW2 7767   0.793   4.904   1.827
 2290SOL     OW 7768   0.972   4.314   1.145
 2290SOL    HW1 7769   1.006   4.362   1.064
 2290SOL    HW2 7770   1.041   4.319   1.218
 2291SOL     OW 7771   2.774   2.496   6.303
 2291SOL    HW1 7772   2.859   2.490   6.252
 2291SOL    HW2 7773   2.780   2.570   6.370
 2292SOL     OW 7774   6.407   1.911   5.159
 2292SOL    HW1 7775   6.383   1.821   5.196
 2292SOL    HW2 7776   6.369   1.921   5.068
 2293SOL     OW 7777   5.086   6.501   1.243
 2293SOL    HW1 7778   5.051   6.416   1.203
 2293SOL    HW2 7779   5.185   6.493   1.256
 2294SOL     OW 7780   3.077   0.857   6.458
 2294SOL    HW1 7781   3.132   0.878   6.377
 2294SOL    HW2 7782   3.023   0.937   6.483
 2295SOL     OW 7783   0.350   2.632   3.032
 2295SOL    HW1 7784   0.382   2.538   3.043
 2295SOL    HW2 7785   0.368   2.662   2.939
 2296SOL     OW 7786   3.795   5.535   1.170
 2296SOL    HW1 7787   3.854   5.614   1.155
 2296SOL    HW2 7788   3.725   5.531   1.098
 2297SOL     OW 7789   4.375   4.875   5.749
 2297SOL    HW1 7790   4.287   4.849   5.709
 2297SOL    HW2 7791   4.427   4.929   5.683
 2298SOL     OW 7792   3.978   3.127   1.753
 2298SOL    HW1 7793   3.884   3.158   1.766
 2298SOL    HW2 7794   3.981   3.027   1.750
 2299SOL     OW 7795   4.262   5.318   5.661
 2299SOL    HW1 7796   4.258   5.296   5.758
 2299SOL    HW2 7797   4.191   5.267   5.612
 2300SOL     OW 7798   2.334   5.913   1.845
 2300SOL    HW1 7799   2.421   5.901   1.894
 2300SOL    HW2 7800   2.331   5.850   1.767
 2301SOL     OW 7801   3.421   2.879   2.650
 2301SOL    HW1 7802   3.331   2.912   2.679
 2301SOL    HW2 7803   3.435   2.786   2.685
 2302SOL     OW 7804   3.994   0.456   0.995
 2302SOL    HW1 7805   4.083   0.456   1.041
 2302SOL    HW2 7806   4.004   0.493   0.903
 2303SOL     OW 7807   2.720   3.410   6.466
 2303SOL    HW1 7808   2.781   3.445   6.395
 2303SOL    HW2 7809   2.685   3.320   6.438
 2304SOL     OW 7810   4.635   6.635   3.454
 2304SOL    HW1 7811   4.647   6.537   3.469
 2304SOL    HW2 7812   4.584   6.675   3.530
 2305SOL     OW 7813   2.589   6.347   2.550
 2305SOL    HW1 7814   2.544   6.303   2.628
 2305SOL    HW2 7815   2.647   6.281   2.504
 2306SOL     OW 7816   3.055   4.890   2.314
 2306SOL    HW1 7817   3.006   4.858   2.233
 2306SOL    HW2 7818   3.153   4.897   2.292
 2307SOL     OW 7819   6.568   4.180   2.560
 2307SOL    HW1 7820   6.606   4.267   2.592
 2307SOL    HW2 7821   6.636   4.133   2.503
 2308SOL     OW 7822   1.111   5.228   1.572
 2308SOL    HW1 7823   1.042   5.268   1.633
 2308SOL    HW2 7824   1.066   5.188   1.492
 2309SOL     OW 7825   1.734   1.083   6.777
 2309SOL    HW1 7826   1.796   1.122   6.709
 2309SOL    HW2 7827   1.773   1.096   6.868
 2310SOL     OW 7828   5.112   6.559   0.705
 2310SOL    HW1 7829   5.208   6.583   0.691
 2310SOL    HW2 7830   5.087   6.484   0.644
 2311SOL     OW 7831   1.819   6.524   1.414
 2311SOL    HW1 7832   1.882   6.556   1.343
 2311SOL    HW2 7833   1.835   6.576   1.498
 2312SOL     OW 7834   4.237   6.414   3.175
 2312SOL    HW1 7835   4.318   6.436   3.120
 2312SOL    HW2 7836   4.175   6.356   3.122
 2313SOL     OW 7837   5.927   5.834   1.269
 2313SOL    HW1 7838   5.977   5.917   1.243
 2313SOL    HW2 7839   5.957   5.758   1.210
 2314SOL     OW 7840   5.937   0.080   4.549
 2314SOL    HW1 7841   5.852   0.096   4.598
 2314SOL    HW2 7842   5.945   7.002   4.527
 2315SOL     OW 7843   4.837   3.303   6.144
 2315SOL    HW1 7844   4.895   3.235   6.099
 2315SOL    HW2 7845   4.790   3.357   6.074
 2316SOL     OW 7846   3.646   1.031   3.976
 2316SOL    HW1 7847   3.626   1.020   4.074
 2316SOL    HW2 7848   3.664   1.127   3.956
 2317SOL     OW 7849   0.429   5.832   3.556
 2317SOL    HW1 7850   0.425   5.756   3.491
 2317SOL    HW2 7851   0.409   5.799   3.648
 2318SOL     OW 7852   1.793   2.744   4.486
 2318SOL    HW1 7853   1.833   2.802   4.557
 2318SOL    HW2 7854   1.778   2.653   4.522
 2319SOL     OW 7855   1.939   4.728   4.203
 2319SOL    HW1 7856   1.842   4.719   4.181
 2319SOL    HW2 7857   1.950   4.752   4.300
 2320SOL     OW 7858   0.719   2.575   4.771
 2320SOL    HW1 7859   0.746   2.669   4.749
 2320SOL    HW2 7860   0.724   2.519   4.689
 2321SOL     OW 7861   2.167   0.029   0.215
 2321SOL    HW1 7862   2.147   0.083   0.296
 2321SOL    HW2 7863   2.082   7.016   0.174
 2322SOL     OW 7864   2.537   1.683   3.763
 2322SOL    HW1 7865   2.471   1.608   3.751
 2322SOL    HW2 7866   2.629   1.645   3.774
 2323SOL     OW 7867   2.933   5.148   2.033
 2323SOL    HW1 7868   3.019   5.160   2.081
 2323SOL    HW2 7869   2.881   5.074   2.076
 2324SOL     OW 7870   6.515   0.014   0.813
 2324SOL    HW1 7871   6.510   6.990   0.902
 2324SOL    HW2 7872   6.611   0.020   0.784
 2325SOL     OW 7873   1.268   4.799   1.720
 2325SOL    HW1 7874   1.288   4.887   1.677
 2325SOL    HW2 7875   1.169   4.784   1.722
 2326SOL     OW 7876   3.478   5.323   6.285
 2326SOL    HW1 7877   3.437   5.413   6.272
 2326SOL    HW2 7878   3.548   5.308   6.215
 2327SOL     OW 7879   6.801   2.142   3.816
 2327SOL    HW1 7880   6.819   2.233   3.852
 2327SOL    HW2 7881   6.857   2.075   3.865
 2328SOL     OW 7882   2.925   2.187   2.490
 2328SOL    HW1 7883   2.893   2.268   2.541
 2328SOL    HW2 7884   2.886   2.105   2.531
 2329SOL     OW 7885   1.720   3.734   5.339
 2329SOL    HW1 7886   1.771   3.678   5.275
 2329SOL    HW2 7887   1.776   3.812   5.368
 2330SOL     OW 7888   0.683   4.001   1.304
 2330SOL    HW1 7889   0.782   4.011   1.291
 2330SOL    HW2 7890   0.635   4.042   1.227
 2331SOL     OW 7891   5.067   5.237   0.711
 2331SOL    HW1 7892   5.160   5.216   0.743
 2331SOL    HW2 7893   5.007   5.251   0.790
 2332SOL     OW 7894   4.704   2.102   4.877
 2332SOL    HW1 7895   4.746   2.057   4.956
 2332SOL    HW2 7896   4.605   2.085   4.878
 2333SOL     OW 7897   0.668   5.086   2.997
 2333SOL    HW1 7898   0.573   5.055   3.009
 2333SOL    HW2 7899   0.724   5.009   2.965
 2334SOL     OW 7900   2.375   0.319   6.880
 2334SOL    HW1 7901   2.278   0.305   6.899
 2334SOL    HW2 7902   2.408   0.397   6.933
 2335SOL     OW 7903   6.152   0.892   2.831
 2335SOL    HW1 7904   6.245   0.856   2.832
 2335SOL    HW2 7905   6.111   0.874   2.742
 2336SOL     OW 7906   4.494   2.381   4.910
 2336SOL    HW1 7907   4.531   2.296   4.947
 2336SOL    HW2 7908   4.401   2.395   4.943
 2337SOL     OW 7909   4.723   1.047   2.654
 2337SOL    HW1 7910   4.785   1.125   2.659
 2337SOL    HW2 7911   4.773   0.964   2.678
 2338SOL     OW 7912   1.547   2.229   5.560
 2338SOL    HW1 7913   1.595   2.261   5.642
 2338SOL    HW2 7914   1.595   2.150   5.522
 2339SOL     OW 7915   3.998   4.067   5.115
 2339SOL    HW1 7916   4.052   3.983   5.111
 2339SOL    HW2 7917   3.911   4.052   5.067
 2340SOL     OW 7918   5.714   4.625   0.138
 2340SOL    HW1 7919   5.774   4.674   0.201
 2340SOL    HW2 7920   5.683   4.540   0.181
 2341SOL     OW 7921   4.651   4.766   1.298
 2341SOL    HW1 7922   4.598   4.850   1.307
 2341SOL    HW2 7923   4.595   4.696   1.254
 2342SOL     OW 7924   0.647   6.998   5.013
 2342SOL    HW1 7925   0.701   6.932   4.960
 2342SOL    HW2 7926   0.704   0.056   5.037
 2343SOL     OW 7927   2.701   5.839   2.713
 2343SOL    HW1 7928   2.731   5.934   2.702
 2343SOL    HW2 7929   2.766   5.791   2.771
 2344SOL     OW 7930   1.692   0.303   0.846
 2344SOL    HW1 7931   1.753   0.332   0.919
 2344SOL    HW2 7932   1.627   0.236   0.882
 2345SOL     OW 7933   3.610   5.305   5.203
 2345SOL    HW1 7934   3.570   5.257   5.125
 2345SOL    HW2 7935   3.629   5.240   5.276
 2346SOL     OW 7936   4.830   2.575   4.648
 2346SOL    HW1 7937   4.770   2.495   4.652
 2346SOL    HW2 7938   4.775   2.657   4.635
 2347SOL     OW 7939   2.546   3.266   1.730
 2347SOL    HW1 7940   2.517   3.233   1.640
 2347SOL    HW2 7941   2.478   3.330   1.765
 2348SOL     OW 7942   3.779   6.406   3.267
 2348SOL    HW1 7943   3.795   6.504   3.278
 2348SOL    HW2 7944   3.716   6.391   3.191
 2349SOL     OW 7945   0.686   4.465   6.263
 2349SOL    HW1 7946   0.703   4.472   6.361
 2349SOL    HW2 7947   0.763   4.506   6.214
 2350SOL     OW 7948   5.043   6.922   6.476
 2350SOL    HW1 7949   5.081   7.007   6.514
 2350SOL    HW2 7950   4.950   6.910   6.510
 2351SOL     OW 7951   3.628   5.231   2.774
 2351SOL    HW1 7952   3.719   5.231   2.815
 2351SOL    HW2 7953   3.559   5.244   2.845
 2352SOL     OW 7954   1.039   4.481   2.240
 2352SOL    HW1 7955   1.020   4.387   2.270
 2352SOL    HW2 7956   1.046   4.484   2.140
 2353SOL     OW 7957   3.241   4.479   5.306
 2353SOL    HW1 7958   3.242   4.383   5.278
 2353SOL    HW2 7959   3.152   4.520   5.285
 2354SOL     OW 7960   2.343   1.700   6.019
 2354SOL    HW1 7961   2.365   1.644   6.098
 2354SOL    HW2 7962   2.409   1.682   5.946
 2355SOL     OW 7963   1.562   5.884   6.950
 2355SOL    HW1 7964   1.535   5.801   6.902
 2355SOL    HW2 7965   1.552   5.963   6.890
 2356SOL     OW 7966   2.030   3.982   0.583
 2356SOL    HW1 7967   2.106   3.982   0.518
 2356SOL    HW2 7968   1.979   3.897   0.575
 2357SOL     OW 7969   4.555   5.385   4.230
 2357SOL    HW1 7970   4.544   5.286   4.240
 2357SOL    HW2 7971   4.469   5.425   4.198
 2358SOL     OW 7972   2.808   5.311   5.304
 2358SOL    HW1 7973   2.827   5.372   5.227
 2358SOL    HW2 7974   2.820   5.216   5.276
 2359SOL     OW 7975   0.013   1.141   6.202
 2359SOL    HW1 7976   6.962   1.071   6.213
 2359SOL    HW2 7977   0.095   1.114   6.252
 2360SOL     OW 7978   5.059   6.152   6.320
 2360SOL    HW1 7979   4.999   6.207   6.262
 2360SOL    HW2 7980   5.016   6.140   6.409
 2361SOL     OW 7981   2.674   1.249   5.286
 2361SOL    HW1 7982   2.653   1.317   5.215
 2361SOL    HW2 7983   2.588   1.219   5.329
 2362SOL     OW 7984   2.785   1.041   5.179
 2362SOL    HW1 7985   2.762   1.124   5.229
 2362SOL    HW2 7986   2.819   1.065   5.088
 2363SOL     OW 7987   4.309   2.733   5.627
 2363SOL    HW1 7988   4.242   2.705   5.558
 2363SOL    HW2 7989   4.331   2.829   5.615
 2364SOL     OW 7990   0.920   2.120   2.773
 2364SOL    HW1 7991   0.945   2.036   2.725
 2364SOL    HW2 7992   0.841   2.162   2.729
 2365SOL     OW 7993   5.786   2.285   6.797
 2365SOL    HW1 7994   5.687   2.283   6.806
 2365SOL    HW2 7995   5.828   2.296   6.887
 2366SOL     OW 7996   1.682   4.404   6.073
 2366SOL    HW1 7997   1.779   4.404   6.095
 2366SOL    HW2 7998   1.670   4.386   5.976
 2367SOL     OW 7999   3.434   3.633   6.737
 2367SOL    HW1 8000   3.358   3.601   6.793
 2367SOL    HW2 8001   3.405   3.640   6.641
 2368SOL     OW 8002   4.922   6.862   2.950
 2368SOL    HW1 8003   4.950   6.842   3.044
 2368SOL    HW2 8004   4.879   6.953   2.947
 2369SOL     OW 8005   1.792   2.761   5.307
 2369SOL    HW1 8006   1.731   2.841   5.303
 2369SOL    HW2 8007   1.834   2.755   5.397
 2370SOL     OW 8008   5.074   4.329   6.496
 2370SOL    HW1 8009   4.980   4.333   6.462
 2370SOL    HW2 8010   5.076   4.359   6.592
 2371SOL     OW 8011   0.259   6.152   1.538
 2371SOL    HW1 8012   0.199   6.079   1.572
 2371SOL    HW2 8013   0.327   6.175   1.608
 2372SOL     OW 8014   0.382   2.267   1.183
 2372SOL    HW1 8015   0.299   2.237   1.230
 2372SOL    HW2 8016   0.432   2.331   1.241
 2373SOL     OW 8017   0.232   7.014   0.162
 2373SOL    HW1 8018   0.260   0.077   0.113
 2373SOL    HW2 8019   0.133   7.002   0.151
 2374SOL     OW 8020   6.202   0.628   4.080
 2374SOL    HW1 8021   6.217   0.667   4.171
 2374SOL    HW2 8022   6.109   0.648   4.050
 2375SOL     OW 8023   1.860   6.626   3.780
 2375SOL    HW1 8024   1.814   6.557   3.725
 2375SOL    HW2 8025   1.840   6.610   3.877
 2376SOL     OW 8026   5.871   2.296   4.234
 2376SOL    HW1 8027   5.937   2.226   4.206
 2376SOL    HW2 8028   5.873   2.305   4.334
 2377SOL     OW 8029   3.435   4.157   3.170
 2377SOL    HW1 8030   3.342   4.122   3.155
 2377SOL    HW2 8031   3.453   4.159   3.269
 2378SOL     OW 8032   4.675   2.098   0.155
 2378SOL    HW1 8033   4.630   2.047   0.081
 2378SOL    HW2 8034   4.614   2.169   0.188
 2379SOL     OW 8035   6.343   1.647   6.639
 2379SOL    HW1 8036   6.349   1.629   6.737
 2379SOL    HW2 8037   6.400   1.726   6.616
 2380SOL     OW 8038   0.150   6.981   5.682
 2380SOL    HW1 8039   0.095   6.923   5.621
 2380SOL    HW2 8040   0.168   6.931   5.767
 2381SOL     OW 8041   2.159   4.143   4.152
 2381SOL    HW1 8042   2.156   4.043   4.156
 2381SOL    HW2 8043   2.169   4.180   4.245
 2382SOL     OW 8044   2.533   5.034   3.678
 2382SOL    HW1 8045   2.499   5.128   3.681
 2382SOL    HW2 8046   2.542   5.004   3.583
 2383SOL     OW 8047   5.746   6.362   0.107
 2383SOL    HW1 8048   5.798   6.419   0.042
 2383SOL    HW2 8049   5.650   6.360   0.080
 2384SOL     OW 8050   6.753   6.233   2.361
 2384SOL    HW1 8051   6.824   6.288   2.317
 2384SOL    HW2 8052   6.669   6.287   2.367
 2385SOL     OW 8053   6.493   6.812   1.079
 2385SOL    HW1 8054   6.580   6.778   1.115
 2385SOL    HW2 8055   6.435   6.842   1.155
 2386SOL     OW 8056   5.227   5.154   4.578
 2386SOL    HW1 8057   5.245   5.089   4.651
 2386SOL    HW2 8058   5.145   5.125   4.527
 2387SOL     OW 8059   0.532   2.122   3.693
 2387SOL    HW1 8060   0.613   2.082   3.736
 2387SOL    HW2 8061   0.513   2.212   3.733
 2388SOL     OW 8062   1.332   1.908   3.650
 2388SOL    HW1 8063   1.345   1.994   3.599
 2388SOL    HW2 8064   1.234   1.888   3.656
 2389SOL     OW 8065   5.281   3.380   3.519
 2389SOL    HW1 8066   5.228   3.465   3.519
 2389SOL    HW2 8067   5.353   3.386   3.589
 2390SOL     OW 8068   3.215   4.115   4.014
 2390SOL    HW1 8069   3.270   4.126   3.932
 2390SOL    HW2 8070   3.170   4.026   4.013
 2391SOL     OW 8071   4.607   4.522   5.721
 2391SOL    HW1 8072   4.531   4.550   5.780
 2391SOL    HW2 8073   4.581   4.439   5.671
 2392SOL     OW 8074   3.812   0.103   4.890
 2392SOL    HW1 8075   3.835   0.107   4.793
 2392SOL    HW2 8076   3.881   0.152   4.943
 2393SOL     OW 8077   4.178   4.883   6.482
 2393SOL    HW1 8078   4.105   4.937   6.440
 2393SOL    HW2 8079   4.218   4.821   6.414
 2394SOL     OW 8080   2.167   3.315   4.280
 2394SOL    HW1 8081   2.191   3.342   4.187
 2394SOL    HW2 8082   2.157   3.215   4.284
 2395SOL     OW 8083   6.141   2.623   0.384
 2395SOL    HW1 8084   6.219   2.561   0.387
 2395SOL    HW2 8085   6.098   2.627   0.474
 2396SOL     OW 8086   4.135   5.177   0.895
 2396SOL    HW1 8087   4.117   5.275   0.893
 2396SOL    HW2 8088   4.230   5.160   0.869
 2397SOL     OW 8089   0.032   3.906   6.996
 2397SOL    HW1 8090   6.979   3.842   6.969
 2397SOL    HW2 8091   0.007   3.998   6.967
 2398SOL     OW 8092   3.052   4.213   6.516
 2398SOL    HW1 8093   3.013   4.266   6.440
 2398SOL    HW2 8094   2.996   4.132   6.532
 2399SOL     OW 8095   5.195   1.348   2.424
 2399SOL    HW1 8096   5.172   1.251   2.435
 2399SOL    HW2 8097   5.266   1.373   2.489
 2400SOL     OW 8098   3.621   5.638   0.249
 2400SOL    HW1 8099   3.636   5.603   0.157
 2400SOL    HW2 8100   3.541   5.593   0.289
 2401SOL     OW 8101   4.349   0.161   6.660
 2401SOL    HW1 8102   4.353   0.175   6.561
 2401SOL    HW2 8103   4.345   0.250   6.705
 2402SOL     OW 8104   0.826   1.530   4.630
 2402SOL    HW1 8105   0.869   1.474   4.700
 2402SOL    HW2 8106   0.749   1.480   4.589
 2403SOL     OW 8107   2.412   2.679   0.407
 2403SOL    HW1 8108   2.496   2.630   0.380
 2403SOL    HW2 8109   2.361   2.624   0.473
 2404SOL     OW 8110   5.801   1.078   1.491
 2404SOL    HW1 8111   5.845   1.050   1.577
 2404SOL    HW2 8112   5.765   1.171   1.501
 2405SOL     OW 8113   3.394   3.381   3.694
 2405SOL    HW1 8114   3.423   3.328   3.774
 2405SOL    HW2 8115   3.420   3.332   3.611
 2406SOL     OW 8116   2.166   0.204   3.363
 2406SOL    HW1 8117   2.245   0.176   3.307
 2406SOL    HW2 8118   2.134   0.127   3.417
 2407SOL     OW 8119   5.331   2.829   2.745
 2407SOL    HW1 8120   5.275   2.912   2.755
 2407SOL    HW2 8121   5.416   2.839   2.796
 2408SOL     OW 8122   3.821   4.946   3.928
 2408SOL    HW1 8123   3.756   4.938   3.852
 2408SOL    HW2 8124   3.913   4.925   3.896
 2409SOL     OW 8125   1.653   2.876   1.201
 2409SOL    HW1 8126   1.647   2.797   1.261
 2409SOL    HW2 8127   1.664   2.959   1.257
 2410SOL     OW 8128   4.659   2.309   6.652
 2410SOL    HW1 8129   4.586   2.284   6.588
 2410SOL    HW2 8130   4.683   2.405   6.640
 2411SOL     OW 8131   4.679   5.523   5.674
 2411SOL    HW1 8132   4.612   5.489   5.609
 2411SOL    HW2 8133   4.644   5.606   5.718
 2412SOL     OW 8134   3.883   4.512   0.297
 2412SOL    HW1 8135   3.820   4.435   0.302
 2412SOL    HW2 8136   3.865   4.564   0.213
 2413SOL     OW 8137   6.415   2.282   0.231
 2413SOL    HW1 8138   6.341   2.238   0.181
 2413SOL    HW2 8139   6.482   2.213   0.259
 2414SOL     OW 8140   4.985   3.715   1.924
 2414SOL    HW1 8141   4.950   3.708   1.831
 2414SOL    HW2 8142   5.082   3.738   1.922
 2415SOL     OW 8143   0.980   6.535   1.568
 2415SOL    HW1 8144   0.946   6.595   1.640
 2415SOL    HW2 8145   0.923   6.545   1.487
 2416SOL     OW 8146   3.461   2.133   5.077
 2416SOL    HW1 8147   3.395   2.206   5.063
 2416SOL    HW2 8148   3.475   2.084   4.991
 2417SOL     OW 8149   4.277   3.094   6.251
 2417SOL    HW1 8150   4.371   3.097   6.286
 2417SOL    HW2 8151   4.234   3.008   6.278
 2418SOL     OW 8152   3.000   3.699   3.641
 2418SOL    HW1 8153   3.056   3.659   3.714
 2418SOL    HW2 8154   2.998   3.798   3.652
 2419SOL     OW 8155   0.907   6.171   3.715
 2419SOL    HW1 8156   0.989   6.228   3.703
 2419SOL    HW2 8157   0.826   6.229   3.705
 2420SOL     OW 8158   3.745   1.645   1.342
 2420SOL    HW1 8159   3.732   1.730   1.292
 2420SOL    HW2 8160   3.666   1.586   1.329
 2421SOL     OW 8161   2.774   1.111   4.915
 2421SOL    HW1 8162   2.815   1.193   4.876
 2421SOL    HW2 8163   2.808   1.031   4.865
 2422SOL     OW 8164   6.020   0.351   1.940
 2422SOL    HW1 8165   6.111   0.319   1.912
 2422SOL    HW2 8166   6.012   0.449   1.923
 2423SOL     OW 8167   1.609   6.163   3.459
 2423SOL    HW1 8168   1.568   6.188   3.371
 2423SOL    HW2 8169   1.545   6.106   3.511
 2424SOL     OW 8170   5.887   6.271   6.211
 2424SOL    HW1 8171   5.971   6.315   6.180
 2424SOL    HW2 8172   5.853   6.211   6.139
 2425SOL     OW 8173   6.177   0.218   4.568
 2425SOL    HW1 8174   6.227   0.251   4.489
 2425SOL    HW2 8175   6.088   0.184   4.539
 2426SOL     OW 8176   0.789   4.765   4.308
 2426SOL    HW1 8177   0.809   4.668   4.295
 2426SOL    HW2 8178   0.698   4.776   4.347
 2427SOL     OW 8179   5.755   5.485   6.815
 2427SOL    HW1 8180   5.767   5.492   6.914
 2427SOL    HW2 8181   5.748   5.577   6.775
 2428SOL     OW 8182   0.222   0.018   3.531
 2428SOL    HW1 8183   0.214   6.956   3.588
 2428SOL    HW2 8184   0.176   0.094   3.577
 2429SOL     OW 8185   6.662   5.713   4.811
 2429SOL    HW1 8186   6.675   5.759   4.724
 2429SOL    HW2 8187   6.596   5.639   4.800
 2430SOL     OW 8188   6.207   1.581   0.993
 2430SOL    HW1 8189   6.116   1.607   1.024
 2430SOL    HW2 8190   6.249   1.657   0.944
 2431SOL     OW 8191   3.556   0.158   2.152
 2431SOL    HW1 8192   3.558   0.100   2.234
 2431SOL    HW2 8193   3.472   0.140   2.101
 2432SOL     OW 8194   3.398   6.800   3.205
 2432SOL    HW1 8195   3.413   6.898   3.188
 2432SOL    HW2 8196   3.310   6.787   3.249
 2433SOL     OW 8197   3.225   6.559   0.740
 2433SOL    HW1 8198   3.147   6.508   0.774
 2433SOL    HW2 8199   3.228   6.649   0.783
 2434SOL     OW 8200   4.965   1.252   4.123
 2434SOL    HW1 8201   5.053   1.297   4.135
 2434SOL    HW2 8202   4.891   1.316   4.145
 2435SOL     OW 8203   4.684   5.503   6.089
 2435SOL    HW1 8204   4.699   5.584   6.032
 2435SOL    HW2 8205   4.770   5.454   6.100
 2436SOL     OW 8206   2.244   6.294   1.370
 2436SOL    HW1 8207   2.343   6.288   1.359
 2436SOL    HW2 8208   2.222   6.302   1.467
 2437SOL     OW 8209   3.701   6.409   0.874
 2437SOL    HW1 8210   3.613   6.374   0.843
 2437SOL    HW2 8211   3.771   6.338   0.865
 2438SOL     OW 8212   3.660   1.605   5.443
 2438SOL    HW1 8213   3.640   1.559   5.356
 2438SOL    HW2 8214   3.591   1.676   5.460
 2439SOL     OW 8215   1.024   4.215   6.983
 2439SOL    HW1 8216   1.079   4.272   0.024
 2439SOL    HW2 8217   1.078   4.136   6.954
 2440SOL     OW 8218   4.595   6.619   4.907
 2440SOL    HW1 8219   4.618   6.562   4.828
 2440SOL    HW2 8220   4.678   6.662   4.943
 2441SOL     OW 8221   6.903   0.571   6.764
 2441SOL    HW1 8222   6.882   0.493   6.705
 2441SOL    HW2 8223   6.840   0.572   6.841
 2442SOL     OW 8224   6.405   5.688   4.149
 2442SOL    HW1 8225   6.459   5.743   4.214
 2442SOL    HW2 8226   6.321   5.658   4.193
 2443SOL     OW 8227   3.433   6.846   5.750
 2443SOL    HW1 8228   3.411   6.922   5.811
 2443SOL    HW2 8229   3.522   6.807   5.776
 2444SOL     OW 8230   3.664   4.787   5.948
 2444SOL    HW1 8231   3.624   4.851   6.015
 2444SOL    HW2 8232   3.634   4.694   5.970
 2445SOL     OW 8233   0.556   0.511   1.875
 2445SOL    HW1 8234   0.636   0.463   1.838
 2445SOL    HW2 8235   0.582   0.562   1.957
 2446SOL     OW 8236   6.979   3.655   3.973
 2446SOL    HW1 8237   6.937   3.731   3.925
 2446SOL    HW2 8238   0.006   3.596   3.906
 2447SOL     OW 8239   2.511   1.256   0.739
 2447SOL    HW1 8240   2.437   1.202   0.699
 2447SOL    HW2 8241   2.550   1.317   0.670
 2448SOL     OW 8242   0.849   0.496   5.286
 2448SOL    HW1 8243   0.777   0.438   5.326
 2448SOL    HW2 8244   0.838   0.500   5.187
 2449SOL     OW 8245   0.228   4.713   1.929
 2449SOL    HW1 8246   0.145   4.713   1.986
 2449SOL    HW2 8247   0.307   4.694   1.987
 2450SOL     OW 8248   2.860   4.838   4.425
 2450SOL    HW1 8249   2.952   4.800   4.436
 2450SOL    HW2 8250   2.794   4.773   4.463
 2451SOL     OW 8251   0.924   0.180   3.739
 2451SOL    HW1 8252   0.914   0.266   3.688
 2451SOL    HW2 8253   0.879   0.188   3.827
 2452SOL     OW 8254   2.218   2.283   2.984
 2452SOL    HW1 8255   2.164   2.296   2.901
 2452SOL    HW2 8256   2.310   2.321   2.971
 2453SOL     OW 8257   6.850   4.222   1.452
 2453SOL    HW1 8258   6.808   4.306   1.418
 2453SOL    HW2 8259   6.892   4.172   1.377
 2454SOL     OW 8260   3.351   1.293   0.143
 2454SOL    HW1 8261   3.386   1.220   0.084
 2454SOL    HW2 8262   3.314   1.253   0.227
 2455SOL     OW 8263   5.796   6.749   0.707
 2455SOL    HW1 8264   5.730   6.709   0.770
 2455SOL    HW2 8265   5.778   6.717   0.614
 2456SOL     OW 8266   6.006   0.462   0.474
 2456SOL    HW1 8267   6.071   0.404   0.523
 2456SOL    HW2 8268   6.035   0.472   0.379
 2457SOL     OW 8269   6.452   6.311   0.053
 2457SOL    HW1 8270   6.452   6.396   0.105
 2457SOL    HW2 8271   6.539   6.302   0.004
 2458SOL     OW 8272   2.504   5.599   3.898
 2458SOL    HW1 8273   2.545   5.510   3.878
 2458SOL    HW2 8274   2.546   5.670   3.841
 2459SOL     OW 8275   2.686   6.591   0.558
 2459SOL    HW1 8276   2.662   6.683   0.528
 2459SOL    HW2 8277   2.655   6.525   0.491
 2460SOL     OW 8278   2.339   0.657   1.193
 2460SOL    HW1 8279   2.417   0.694   1.143
 2460SOL    HW2 8280   2.316   0.718   1.269
 2461SOL     OW 8281   4.121   0.202   2.845
 2461SOL    HW1 8282   4.108   0.103   2.844
 2461SOL    HW2 8283   4.191   0.225   2.913
 2462SOL     OW 8284   2.310   5.160   0.160
 2462SOL    HW1 8285   2.376   5.203   0.099
 2462SOL    HW2 8286   2.280   5.073   0.122
 2463SOL     OW 8287   6.086   2.389   3.569
 2463SOL    HW1 8288   6.109   2.363   3.475
 2463SOL    HW2 8289   6.053   2.309   3.618
 2464SOL     OW 8290   1.515   4.462   1.559
 2464SOL    HW1 8291   1.487   4.545   1.608
 2464SOL    HW2 8292   1.572   4.406   1.619
 2465SOL     OW 8293   6.853   6.130   1.518
 2465SOL    HW1 8294   6.836   6.180   1.603
 2465SOL    HW2 8295   6.818   6.182   1.440
 2466SOL     OW 8296   3.504   1.451   1.972
 2466SOL    HW1 8297   3.511   1.351   1.979
 2466SOL    HW2 8298   3.592   1.488   1.943
 2467SOL     OW 8299   5.549   1.713   5.305
 2467SOL    HW1 8300   5.591   1.629   5.339
 2467SOL    HW2 8301   5.463   1.730   5.354
 2468SOL     OW 8302   5.482   6.429   2.580
 2468SOL    HW1 8303   5.572   6.416   2.538
 2468SOL    HW2 8304   5.487   6.405   2.677
 2469SOL     OW 8305   3.524   4.548   5.496
 2469SOL    HW1 8306   3.459   4.490   5.545
 2469SOL    HW2 8307   3.476   4.628   5.459
 2470SOL     OW 8308   3.372   4.194   5.774
 2470SOL    HW1 8309   3.337   4.108   5.812
 2470SOL    HW2 8310   3.360   4.267   5.841
 2471SOL     OW 8311   2.257   6.000   1.428
 2471SOL    HW1 8312   2.249   6.099   1.442
 2471SOL    HW2 8313   2.170   5.957   1.448
 2472SOL     OW 8314   4.860   1.658   3.868
 2472SOL    HW1 8315   4.897   1.747   3.896
 2472SOL    HW2 8316   4.935   1.592   3.861
 2473SOL     OW 8317   1.824   3.954   5.379
 2473SOL    HW1 8318   1.915   3.997   5.380
 2473SOL    HW2 8319   1.756   4.021   5.348
 2474SOL     OW 8320   0.093   5.757   0.322
 2474SOL    HW1 8321   0.188   5.747   0.295
 2474SOL    HW2 8322   0.085   5.827   0.393
 2475SOL     OW 8323   4.046   1.218   0.432
 2475SOL    HW1 8324   3.958   1.174   0.452
 2475SOL    HW2 8325   4.118   1.172   0.484
 2476SOL     OW 8326   0.773   2.753   3.932
 2476SOL    HW1 8327   0.837   2.830   3.938
 2476SOL    HW2 8328   0.704   2.773   3.863
 2477SOL     OW 8329   6.517   0.349   2.445
 2477SOL    HW1 8330   6.454   0.277   2.415
 2477SOL    HW2 8331   6.479   0.439   2.420
 2478SOL     OW 8332   5.561   0.082   2.607
 2478SOL    HW1 8333   5.464   0.103   2.617
 2478SOL    HW2 8334   5.605   0.155   2.553
 2479SOL     OW 8335   1.132   3.603   1.475
 2479SOL    HW1 8336   1.043   3.559   1.487
 2479SOL    HW2 8337   1.194   3.574   1.548
 2480SOL     OW 8338   5.673   4.121   1.110
 2480SOL    HW1 8339   5.699   4.026   1.125
 2480SOL    HW2 8340   5.721   4.157   1.030
 2481SOL     OW 8341   2.638   6.570   0.222
 2481SOL    HW1 8342   2.643   6.473   0.198
 2481SOL    HW2 8343   2.645   6.625   0.140
 2482SOL     OW 8344   5.430   2.745   5.609
 2482SOL    HW1 8345   5.334   2.763   5.629
 2482SOL    HW2 8346   5.487   2.785   5.680
 2483SOL     OW 8347   2.321   1.014   6.685
 2483SOL    HW1 8348   2.262   0.939   6.714
 2483SOL    HW2 8349   2.412   0.978   6.663
 2484SOL     OW 8350   1.958   0.690   0.336
 2484SOL    HW1 8351   2.026   0.758   0.309
 2484SOL    HW2 8352   1.906   0.725   0.414
 2485SOL     OW 8353   4.398   4.623   2.115
 2485SOL    HW1 8354   4.412   4.586   2.023
 2485SOL    HW2 8355   4.321   4.686   2.115
 2486SOL     OW 8356   3.532   5.625   2.877
 2486SOL    HW1 8357   3.471   5.701   2.900
 2486SOL    HW2 8358   3.496   5.541   2.915
 2487SOL     OW 8359   3.849   5.184   6.553
 2487SOL    HW1 8360   3.904   5.214   6.631
 2487SOL    HW2 8361   3.907   5.133   6.489
 2488SOL     OW 8362   2.228   4.074   1.735
 2488SOL    HW1 8363   2.181   4.162   1.746
 2488SOL    HW2 8364   2.309   4.087   1.678
 2489SOL     OW 8365   2.283   5.033   3.924
 2489SOL    HW1 8366   2.372   5.040   3.970
 2489SOL    HW2 8367   2.292   4.976   3.842
 2490SOL     OW 8368   6.649   5.227   0.864
 2490SOL    HW1 8369   6.606   5.280   0.938
 2490SOL    HW2 8370   6.599   5.142   0.851
 2491SOL     OW 8371   2.299   5.909   2.717
 2491SOL    HW1 8372   2.225   5.875   2.774
 2491SOL    HW2 8373   2.290   6.008   2.707
 2492SOL     OW 8374   3.732   2.784   6.975
 2492SOL    HW1 8375   3.641   2.812   6.945
 2492SOL    HW2 8376   3.772   2.855   0.013
 2493SOL     OW 8377   5.859   0.627   3.039
 2493SOL    HW1 8378   5.819   0.535   3.038
 2493SOL    HW2 8379   5.948   0.625   2.993
 2494SOL     OW 8380   6.019   3.590   2.652
 2494SOL    HW1 8381   5.943   3.583   2.587
 2494SOL    HW2 8382   6.106   3.590   2.601
 2495SOL     OW 8383   5.425   0.446   4.745
 2495SOL    HW1 8384   5.374   0.532   4.732
 2495SOL    HW2 8385   5.514   0.466   4.786
 2496SOL     OW 8386   1.157   5.055   6.747
 2496SOL    HW1 8387   1.199   5.078   6.835
 2496SOL    HW2 8388   1.158   5.135   6.688
 2497SOL     OW 8389   6.939   1.435   0.752
 2497SOL    HW1 8390   6.900   1.407   0.664
 2497SOL    HW2 8391   6.900   1.380   0.825
 2498SOL     OW 8392   3.453   2.035   3.355
 2498SOL    HW1 8393   3.429   1.962   3.418
 2498SOL    HW2 8394   3.375   2.054   3.295
 2499SOL     OW 8395   5.688   1.330   4.483
 2499SOL    HW1 8396   5.715   1.234   4.478
 2499SOL    HW2 8397   5.609   1.345   4.423
 2500SOL     OW 8398   4.521   3.287   6.009
 2500SOL    HW1 8399   4.579   3.360   6.046
 2500SOL    HW2 8400   4.543   3.273   5.913
 2501SOL     OW 8401   6.824   5.622   6.932
 2501SOL    HW1 8402   6.884   5.630   7.012
 2501SOL    HW2 8403   6.834   5.703   6.874
 2502SOL     OW 8404   2.803   6.147   3.697
 2502SOL    HW1 8405   2.844   6.059   3.721
 2502SOL    HW2 8406   2.850   6.185   3.617
 2503SOL     OW 8407   3.641   5.890   5.400
 2503SOL    HW1 8408   3.663   5.949   5.478
 2503SOL    HW2 8409   3.685   5.801   5.412
 2504SOL     OW 8410   2.956   6.047   4.922
 2504SOL    HW1 8411   2.859   6.031   4.906
 2504SOL    HW2 8412   2.995   6.096   4.843
 2505SOL     OW 8413   1.952   6.539   4.535
 2505SOL    HW1 8414   1.983   6.471   4.602
 2505SOL    HW2 8415   1.923   6.491   4.451
 2506SOL     OW 8416   0.033   2.866   6.189
 2506SOL    HW1 8417   0.018   2.767   6.188
 2506SOL    HW2 8418   6.990   2.908   6.255
 2507SOL     OW 8419   6.433   4.112   0.142
 2507SOL    HW1 8420   6.477   4.058   0.071
 2507SOL    HW2 8421   6.474   4.092   0.231
 2508SOL     OW 8422   2.562   1.727   2.301
 2508SOL    HW1 8423   2.465   1.747   2.305
 2508SOL    HW2 8424   2.599   1.755   2.213
 2509SOL     OW 8425   5.767   3.146   2.564
 2509SOL    HW1 8426   5.755   3.056   2.608
 2509SOL    HW2 8427   5.833   3.199   2.617
 2510SOL     OW 8428   3.266   4.138   0.426
 2510SOL    HW1 8429   3.204   4.189   0.486
 2510SOL    HW2 8430   3.310   4.202   0.362
 2511SOL     OW 8431   1.827   1.690   4.782
 2511SOL    HW1 8432   1.852   1.600   4.746
 2511SOL    HW2 8433   1.815   1.754   4.706
 2512SOL     OW 8434   5.619   4.689   5.160
 2512SOL    HW1 8435   5.670   4.759   5.110
 2512SOL    HW2 8436   5.648   4.599   5.129
 2513SOL     OW 8437   1.393   2.761   6.251
 2513SOL    HW1 8438   1.458   2.761   6.327
 2513SOL    HW2 8439   1.408   2.679   6.195
 2514SOL     OW 8440   0.179   3.302   4.072
 2514SOL    HW1 8441   0.265   3.251   4.072
 2514SOL    HW2 8442   0.163   3.340   4.163
 2515SOL     OW 8443   1.343   6.648   0.695
 2515SOL    HW1 8444   1.270   6.715   0.689
 2515SOL    HW2 8445   1.376   6.642   0.789
 2516SOL     OW 8446   6.620   5.856   2.507
 2516SOL    HW1 8447   6.540   5.822   2.458
 2516SOL    HW2 8448   6.612   5.955   2.521
 2517SOL     OW 8449   2.202   5.414   5.795
 2517SOL    HW1 8450   2.239   5.397   5.703
 2517SOL    HW2 8451   2.156   5.332   5.829
 2518SOL     OW 8452   1.830   3.272   0.282
 2518SOL    HW1 8453   1.749   3.301   0.231
 2518SOL    HW2 8454   1.803   3.216   0.360
 2519SOL     OW 8455   4.830   5.221   4.188
 2519SOL    HW1 8456   4.736   5.208   4.154
 2519SOL    HW2 8457   4.834   5.197   4.285
 2520SOL     OW 8458   0.772   3.006   1.012
 2520SOL    HW1 8459   0.858   2.993   1.061
 2520SOL    HW2 8460   0.780   3.085   0.951
 2521SOL     OW 8461   1.506   6.540   5.324
 2521SOL    HW1 8462   1.491   6.592   5.240
 2521SOL    HW2 8463   1.430   6.555   5.387
 2522SOL     OW 8464   0.860   2.900   5.336
 2522SOL    HW1 8465   0.833   2.849   5.254
 2522SOL    HW2 8466   0.779   2.921   5.391
 2523SOL     OW 8467   0.172   2.842   1.123
 2523SOL    HW1 8468   0.159   2.757   1.074
 2523SOL    HW2 8469   0.094   2.859   1.183
 2524SOL     OW 8470   0.815   6.046   4.383
 2524SOL    HW1 8471   0.884   6.111   4.351
 2524SOL    HW2 8472   0.861   5.964   4.418
 2525SOL     OW 8473   1.617   2.632   4.306
 2525SOL    HW1 8474   1.548   2.702   4.287
 2525SOL    HW2 8475   1.693   2.673   4.357
 2526SOL     OW 8476   0.756   3.794   5.969
 2526SOL    HW1 8477   0.758   3.712   6.027
 2526SOL    HW2 8478   0.843   3.802   5.920
 2527SOL     OW 8479   5.221   0.134   4.933
 2527SOL    HW1 8480   5.221   0.207   5.001
 2527SOL    HW2 8481   5.133   0.133   4.886
 2528SOL     OW 8482   5.999   4.723   1.295
 2528SOL    HW1 8483   6.015   4.785   1.372
 2528SOL    HW2 8484   5.918   4.667   1.315
 2529SOL     OW 8485   5.716   4.807   6.276
 2529SOL    HW1 8486   5.620   4.822   6.254
 2529SOL    HW2 8487   5.724   4.751   6.359
 2530SOL     OW 8488   1.279   6.438   5.040
 2530SOL    HW1 8489   1.307   6.415   5.133
 2530SOL    HW2 8490   1.238   6.357   4.997
 2531SOL     OW 8491   5.476   5.666   4.835
 2531SOL    HW1 8492   5.543   5.723   4.786
 2531SOL    HW2 8493   5.421   5.615   4.769
 2532SOL     OW 8494   0.457   5.886   0.496
 2532SOL    HW1 8495   0.543   5.867   0.544
 2532SOL    HW2 8496   0.466   5.972   0.445
 2533SOL     OW 8497   5.346   6.501   4.867
 2533SOL    HW1 8498   5.350   6.403   4.886
 2533SOL    HW2 8499   5.317   6.551   4.948
 2534SOL     OW 8500   2.468   1.035   2.891
 2534SOL    HW1 8501   2.536   1.095   2.933
 2534SOL    HW2 8502   2.474   1.042   2.792
 2535SOL     OW 8503   2.093   2.091   6.494
 2535SOL    HW1 8504   2.092   2.190   6.489
 2535SOL    HW2 8505   2.038   2.052   6.420
 2536SOL     OW 8506   0.648   2.116   3.435
 2536SOL    HW1 8507   0.609   2.119   3.527
 2536SOL    HW2 8508   0.580   2.082   3.371
 2537SOL     OW 8509   5.038   6.296   0.634
 2537SOL    HW1 8510   4.965   6.282   0.567
 2537SOL    HW2 8511   5.002   6.279   0.726
 2538SOL     OW 8512   2.058   4.115   5.321
 2538SOL    HW1 8513   2.154   4.133   5.302
 2538SOL    HW2 8514   2.001   4.156   5.250
 2539SOL     OW 8515   3.834   7.013   5.533
 2539SOL    HW1 8516   3.829   6.913   5.535
 2539SOL    HW2 8517   3.840   0.024   5.439
 2540SOL     OW 8518   5.171   0.381   1.487
 2540SOL    HW1 8519   5.247   0.433   1.448
 2540SOL    HW2 8520   5.106   0.444   1.531
 2541SOL     OW 8521   1.396   0.546   6.027
 2541SOL    HW1 8522   1.326   0.532   6.098
 2541SOL    HW2 8523   1.429   0.640   6.031
 2542SOL     OW 8524   3.699   2.106   4.661
 2542SOL    HW1 8525   3.668   2.064   4.575
 2542SOL    HW2 8526   3.791   2.143   4.648
 2543SOL     OW 8527   2.061   0.354   2.839
 2543SOL    HW1 8528   2.125   0.313   2.903
 2543SOL    HW2 8529   2.092   0.337   2.745
 2544SOL     OW 8530   0.334   5.294   2.147
 2544SOL    HW1 8531   0.309   5.391   2.152
 2544SOL    HW2 8532   0.429   5.282   2.175
 2545SOL     OW 8533   1.741   0.903   1.829
 2545SOL    HW1 8534   1.666   0.879   1.769
 2545SOL    HW2 8535   1.719   0.877   1.923
 2546SOL     OW 8536   6.017   3.267   1.320
 2546SOL    HW1 8537   6.045   3.197   1.253
 2546SOL    HW2 8538   5.958   3.225   1.388
 2547SOL     OW 8539   5.319   5.991   0.263
 2547SOL    HW1 8540   5.274   6.078   0.240
 2547SOL    HW2 8541   5.291   5.962   0.355
 2548SOL     OW 8542   2.435   0.283   4.938
 2548SOL    HW1 8543   2.338   0.301   4.951
 2548SOL    HW2 8544   2.461   0.301   4.843
 2549SOL     OW 8545   2.208   2.351   1.966
 2549SOL    HW1 8546   2.197   2.298   1.881
 2549SOL    HW2 8547   2.148   2.431   1.964
 2550SOL     OW 8548   5.726   0.921   6.793
 2550SOL    HW1 8549   5.782   0.896   6.871
 2550SOL    HW2 8550   5.632   0.891   6.808
 2551SOL     OW 8551   3.171   5.419   0.047
 2551SOL    HW1 8552   3.104   5.364   7.017
 2551SOL    HW2 8553   3.193   5.374   0.134
 2552SOL     OW 8554   1.898   5.031   6.537
 2552SOL    HW1 8555   1.949   4.951   6.506
 2552SOL    HW2 8556   1.813   5.040   6.485
 2553SOL     OW 8557   3.137   2.949   6.079
 2553SOL    HW1 8558   3.158   2.872   6.019
 2553SOL    HW2 8559   3.222   2.996   6.103
 2554SOL     OW 8560   2.082   6.004   6.604
 2554SOL    HW1 8561   2.069   5.952   6.520
 2554SOL    HW2 8562   2.080   5.943   6.683
 2555SOL     OW 8563   5.935   6.426   6.430
 2555SOL    HW1 8564   5.908   6.377   6.513
 2555SOL    HW2 8565   5.889   6.386   6.351
 2556SOL     OW 8566   4.159   6.145   1.074
 2556SOL    HW1 8567   4.217   6.224   1.092
 2556SOL    HW2 8568   4.179   6.108   0.983
 2557SOL     OW 8569   2.593   0.922   6.699
 2557SOL    HW1 8570   2.574   0.824   6.701
 2557SOL    HW2 8571   2.609   0.952   6.605
 2558SOL     OW 8572   4.087   3.822   5.119
 2558SOL    HW1 8573   4.065   3.818   5.217
 2558SOL    HW2 8574   4.157   3.755   5.098
 2559SOL     OW 8575   5.827   2.858   3.688
 2559SOL    HW1 8576   5.858   2.777   3.737
 2559SOL    HW2 8577   5.844   2.939   3.743
 2560SOL     OW 8578   4.893   3.395   3.672
 2560SOL    HW1 8579   4.929   3.428   3.584
 2560SOL    HW2 8580   4.796   3.372   3.661
 2561SOL     OW 8581   3.770   1.202   3.507
 2561SOL    HW1 8582   3.810   1.285   3.468
 2561SOL    HW2 8583   3.839   1.154   3.562
 2562SOL     OW 8584   2.995   5.387   3.719
 2562SOL    HW1 8585   3.050   5.342   3.649
 2562SOL    HW2 8586   2.899   5.385   3.692
 2563SOL     OW 8587   3.728   1.525   5.687
 2563SOL    HW1 8588   3.824   1.521   5.713
 2563SOL    HW2 8589   3.721   1.562   5.594
 2564SOL     OW 8590   1.656   6.520   6.786
 2564SOL    HW1 8591   1.558   6.512   6.768
 2564SOL    HW2 8592   1.677   6.614   6.812
 2565SOL     OW 8593   0.434   0.246   0.274
 2565SOL    HW1 8594   0.380   0.216   0.195
 2565SOL    HW2 8595   0.403   0.337   0.302
 2566SOL     OW 8596   1.728   6.825   0.950
 2566SOL    HW1 8597   1.807   6.860   1.001
 2566SOL    HW2 8598   1.758   6.790   0.861
 2567SOL     OW 8599   1.467   1.316   1.932
 2567SOL    HW1 8600   1.525   1.250   1.979
 2567SOL    HW2 8601   1.523   1.380   1.880
 2568SOL     OW 8602   3.113   0.247   0.744
 2568SOL    HW1 8603   3.099   0.236   0.842
 2568SOL    HW2 8604   3.172   0.173   0.710
 2569SOL     OW 8605   2.163   1.537   2.300
 2569SOL    HW1 8606   2.145   1.533   2.398
 2569SOL    HW2 8607   2.228   1.611   2.281
 2570SOL     OW 8608   4.464   6.571   6.291
 2570SOL    HW1 8609   4.485   6.477   6.316
 2570SOL    HW2 8610   4.443   6.624   6.374
 2571SOL     OW 8611   3.565   2.863   4.817
 2571SOL    HW1 8612   3.537   2.943   4.870
 2571SOL    HW2 8613   3.507   2.786   4.840
 2572SOL     OW 8614   1.825   6.401   0.750
 2572SOL    HW1 8615   1.790   6.338   0.681
 2572SOL    HW2 8616   1.852   6.350   0.832
 2573SOL     OW 8617   6.206   0.980   2.401
 2573SOL    HW1 8618   6.154   1.005   2.320
 2573SOL    HW2 8619   6.278   0.915   2.376
 2574SOL     OW 8620   5.889   3.566   0.006
 2574SOL    HW1 8621   5.811   3.599   6.972
 2574SOL    HW2 8622   5.884   3.602   0.098
 2575SOL     OW 8623   5.214   3.530   1.597
 2575SOL    HW1 8624   5.247   3.552   1.689
 2575SOL    HW2 8625   5.162   3.445   1.599
 2576SOL     OW 8626   3.920   6.702   3.686
 2576SOL    HW1 8627   3.821   6.683   3.685
 2576SOL    HW2 8628   3.934   6.801   3.681
 2577SOL     OW 8629   5.303   0.666   3.418
 2577SOL    HW1 8630   5.248   0.749   3.424
 2577SOL    HW2 8631   5.282   0.607   3.495
 2578SOL     OW 8632   4.597   2.939   5.643
 2578SOL    HW1 8633   4.592   2.901   5.551
 2578SOL    HW2 8634   4.652   2.879   5.701
 2579SOL     OW 8635   1.030   1.084   5.065
 2579SOL    HW1 8636   0.969   1.106   5.141
 2579SOL    HW2 8637   1.085   1.003   5.089
 2580SOL     OW 8638   1.645   2.823   6.421
 2580SOL    HW1 8639   1.697   2.771   6.489
 2580SOL    HW2 8640   1.703   2.840   6.342
 2581SOL     OW 8641   6.018   4.573   1.752
 2581SOL    HW1 8642   6.089   4.578   1.681
 2581SOL    HW2 8643   6.046   4.508   1.822
 2582SOL     OW 8644   2.200   4.643   2.933
 2582SOL    HW1 8645   2.238   4.726   2.973
 2582SOL    HW2 8646   2.272   4.591   2.888
 2583SOL     OW 8647   1.549   1.198   1.230
 2583SOL    HW1 8648   1.586   1.125   1.288
 2583SOL    HW2 8649   1.621   1.264   1.208
 2584SOL     OW 8650   4.084   5.629   0.218
 2584SOL    HW1 8651   4.089   5.686   0.136
 2584SOL    HW2 8652   4.067   5.686   0.298
 2585SOL     OW 8653   3.626   0.461   0.505
 2585SOL    HW1 8654   3.549   0.405   0.536
 2585SOL    HW2 8655   3.708   0.436   0.556
 2586SOL     OW 8656   4.919   1.496   4.502
 2586SOL    HW1 8657   4.830   1.516   4.541
 2586SOL    HW2 8658   4.979   1.576   4.514
 2587SOL     OW 8659   0.212   1.160   4.644
 2587SOL    HW1 8660   0.178   1.154   4.550
 2587SOL    HW2 8661   0.135   1.152   4.707
 2588SOL     OW 8662   4.598   0.277   0.256
 2588SOL    HW1 8663   4.507   0.315   0.240
 2588SOL    HW2 8664   4.591   0.179   0.271
 2589SOL     OW 8665   0.863   6.617   5.933
 2589SOL    HW1 8666   0.795   6.622   5.859
 2589SOL    HW2 8667   0.821   6.575   6.014
 2590SOL     OW 8668   3.750   6.430   2.692
 2590SOL    HW1 8669   3.657   6.404   2.719
 2590SOL    HW2 8670   3.767   6.525   2.718
 2591SOL     OW 8671   5.724   6.229   2.467
 2591SOL    HW1 8672   5.736   6.235   2.567
 2591SOL    HW2 8673   5.646   6.171   2.447
 2592SOL     OW 8674   2.405   6.990   1.276
 2592SOL    HW1 8675   2.498   7.002   1.313
 2592SOL    HW2 8676   2.395   6.897   1.242
 2593SOL     OW 8677   3.260   6.550   2.236
 2593SOL    HW1 8678   3.199   6.504   2.301
 2593SOL    HW2 8679   3.335   6.593   2.286
 2594SOL     OW 8680   0.047   6.220   5.802
 2594SOL    HW1 8681   0.038   6.319   5.790
 2594SOL    HW2 8682   7.015   6.192   5.883
 2595SOL     OW 8683   6.371   1.694   5.812
 2595SOL    HW1 8684   6.338   1.755   5.884
 2595SOL    HW2 8685   6.293   1.658   5.761
 2596SOL     OW 8686   3.912   2.111   1.880
 2596SOL    HW1 8687   3.893   2.070   1.969
 2596SOL    HW2 8688   3.852   2.189   1.866
 2597SOL     OW 8689   1.694   4.221   0.480
 2597SOL    HW1 8690   1.792   4.233   0.496
 2597SOL    HW2 8691   1.654   4.167   0.553
 2598SOL     OW 8692   6.146   1.500   4.467
 2598SOL    HW1 8693   6.090   1.442   4.408
 2598SOL    HW2 8694   6.236   1.458   4.479
 2599SOL     OW 8695   3.549   5.843   0.383
 2599SOL    HW1 8696   3.476   5.789   0.425
 2599SOL    HW2 8697   3.611   5.782   0.334
 2600SOL     OW 8698   4.894   3.885   4.958
 2600SOL    HW1 8699   4.831   3.961   4.974
 2600SOL    HW2 8700   4.847   3.798   4.972
 2601SOL     OW 8701   3.199   1.722   6.885
 2601SOL    HW1 8702   3.287   1.755   6.852
 2601SOL    HW2 8703   3.196   1.622   6.878
 2602SOL     OW 8704   6.754   4.710   4.123
 2602SOL    HW1 8705   6.835   4.730   4.068
 2602SOL    HW2 8706   6.710   4.627   4.088
 2603SOL     OW 8707   2.324   2.893   1.293
 2603SOL    HW1 8708   2.336   2.824   1.365
 2603SOL    HW2 8709   2.368   2.978   1.320
 2604SOL     OW 8710   5.148   1.210   2.741
 2604SOL    HW1 8711   5.155   1.306   2.717
 2604SOL    HW2 8712   5.238   1.167   2.736
 2605SOL     OW 8713   3.693   5.219   3.730
 2605SOL    HW1 8714   3.781   5.256   3.699
 2605SOL    HW2 8715   3.638   5.292   3.768
 2606SOL     OW 8716   6.286   4.209   0.440
 2606SOL    HW1 8717   6.295   4.243   0.346
 2606SOL    HW2 8718   6.285   4.287   0.503
 2607SOL     OW 8719   0.531   1.951   6.160
 2607SOL    HW1 8720   0.581   1.869   6.131
 2607SOL    HW2 8721   0.495   1.937   6.252
 2608SOL     OW 8722   3.813   5.996   2.594
 2608SOL    HW1 8723   3.764   6.082   2.577
 2608SOL    HW2 8724   3.907   6.003   2.562
 2609SOL     OW 8725   0.199   2.633   1.492
 2609SOL    HW1 8726   0.269   2.618   1.422
 2609SOL    HW2 8727   0.139   2.707   1.463
 2610SOL     OW 8728   6.539   5.487   4.000
 2610SOL    HW1 8729   6.462   5.423   3.995
 2610SOL    HW2 8730   6.516   5.561   4.064
 2611SOL     OW 8731   5.879   6.790   1.063
 2611SOL    HW1 8732   5.902   6.826   0.973
 2611SOL    HW2 8733   5.955   6.804   1.126
 2612SOL     OW 8734   0.024   6.661   6.108
 2612SOL    HW1 8735   0.093   6.593   6.083
 2612SOL    HW2 8736   6.991   6.628   6.187
 2613SOL     OW 8737   2.847   6.404   1.493
 2613SOL    HW1 8738   2.817   6.308   1.495
 2613SOL    HW2 8739   2.947   6.408   1.491
 2614SOL     OW 8740   6.554   6.594   6.109
 2614SOL    HW1 8741   6.590   6.686   6.120
 2614SOL    HW2 8742   6.514   6.584   6.018
 2615SOL     OW 8743   5.773   4.637   2.770
 2615SOL    HW1 8744   5.804   4.732   2.761
 2615SOL    HW2 8745   5.852   4.578   2.787
 2616SOL     OW 8746   3.735   3.395   4.101
 2616SOL    HW1 8747   3.747   3.369   4.197
 2616SOL    HW2 8748   3.743   3.313   4.043
 2617SOL     OW 8749   3.400   6.465   1.173
 2617SOL    HW1 8750   3.489   6.423   1.156
 2617SOL    HW2 8751   3.329   6.413   1.125
 2618SOL     OW 8752   0.660   6.565   3.915
 2618SOL    HW1 8753   0.629   6.599   3.826
 2618SOL    HW2 8754   0.604   6.488   3.943
 2619SOL     OW 8755   3.004   1.518   3.626
 2619SOL    HW1 8756   3.064   1.598   3.630
 2619SOL    HW2 8757   3.046   1.448   3.567
 2620SOL     OW 8758   0.845   5.728   3.272
 2620SOL    HW1 8759   0.893   5.688   3.351
 2620SOL    HW2 8760   0.809   5.655   3.214
 2621SOL     OW 8761   2.383   6.178   3.052
 2621SOL    HW1 8762   2.284   6.187   3.063
 2621SOL    HW2 8763   2.416   6.250   2.991
 2622SOL     OW 8764   2.569   1.922   6.527
 2622SOL    HW1 8765   2.530   1.853   6.588
 2622SOL    HW2 8766   2.502   1.947   6.457
 2623SOL     OW 8767   3.216   1.643   4.835
 2623SOL    HW1 8768   3.302   1.666   4.790
 2623SOL    HW2 8769   3.186   1.720   4.891
 2624SOL     OW 8770   6.729   3.490   4.509
 2624SOL    HW1 8771   6.652   3.456   4.563
 2624SOL    HW2 8772   6.696   3.529   4.424
 2625SOL     OW 8773   2.631   2.848   5.873
 2625SOL    HW1 8774   2.680   2.807   5.949
 2625SOL    HW2 8775   2.652   2.946   5.868
 2626SOL     OW 8776   0.687   0.063   4.440
 2626SOL    HW1 8777   0.777   0.091   4.407
 2626SOL    HW2 8778   0.617   0.125   4.404
 2627SOL     OW 8779   0.698   0.448   4.631
 2627SOL    HW1 8780   0.615   0.407   4.592
 2627SOL    HW2 8781   0.699   0.433   4.730
 2628SOL     OW 8782   3.104   5.495   6.718
 2628SOL    HW1 8783   3.151   5.544   6.645
 2628SOL    HW2 8784   3.150   5.407   6.734
 2629SOL     OW 8785   3.078   4.052   1.944
 2629SOL    HW1 8786   3.126   4.056   2.032
 2629SOL    HW2 8787   3.036   4.140   1.925
 2630SOL     OW 8788   3.225   1.594   3.398
 2630SOL    HW1 8789   3.301   1.535   3.370
 2630SOL    HW2 8790   3.229   1.680   3.348
 2631SOL     OW 8791   4.759   0.594   4.400
 2631SOL    HW1 8792   4.742   0.604   4.498
 2631SOL    HW2 8793   4.857   0.602   4.381
 2632SOL     OW 8794   2.905   1.909   6.251
 2632SOL    HW1 8795   2.921   1.877   6.344
 2632SOL    HW2 8796   2.988   1.951   6.214
 2633SOL     OW 8797   6.344   2.203   6.035
 2633SOL    HW1 8798   6.321   2.253   6.118
 2633SOL    HW2 8799   6.424   2.244   5.992
 2634SOL     OW 8800   2.032   4.363   2.830
 2634SOL    HW1 8801   1.979   4.359   2.914
 2634SOL    HW2 8802   1.983   4.315   2.757
 2635SOL     OW 8803   5.815   6.233   4.654
 2635SOL    HW1 8804   5.773   6.246   4.743
 2635SOL    HW2 8805   5.907   6.195   4.666
 2636SOL     OW 8806   4.545   0.742   6.042
 2636SOL    HW1 8807   4.582   0.651   6.058
 2636SOL    HW2 8808   4.545   0.761   5.944
 2637SOL     OW 8809   6.530   1.208   4.000
 2637SOL    HW1 8810   6.547   1.298   3.959
 2637SOL    HW2 8811   6.591   1.141   3.959
 2638SOL     OW 8812   0.093   6.882   3.104
 2638SOL    HW1 8813   0.007   6.931   3.088
 2638SOL    HW2 8814   0.114   6.824   3.026
 2639SOL     OW 8815   0.502   0.214   2.189
 2639SOL    HW1 8816   0.463   0.164   2.112
 2639SOL    HW2 8817   0.464   0.179   2.275
 2640SOL     OW 8818   6.753   6.082   5.153
 2640SOL    HW1 8819   6.690   6.012   5.118
 2640SOL    HW2 8820   6.722   6.113   5.242
 2641SOL     OW 8821   5.244   3.010   1.675
 2641SOL    HW1 8822   5.258   2.911   1.667
 2641SOL    HW2 8823   5.147   3.030   1.667
 2642SOL     OW 8824   5.213   6.866   4.533
 2642SOL    HW1 8825   5.261   6.921   4.464
 2642SOL    HW2 8826   5.246   6.890   4.624
 2643SOL     OW 8827   1.767   4.761   3.279
 2643SOL    HW1 8828   1.770   4.706   3.195
 2643SOL    HW2 8829   1.677   4.750   3.322
 2644SOL     OW 8830   6.443   4.735   5.503
 2644SOL    HW1 8831   6.467   4.786   5.586
 2644SOL    HW2 8832   6.362   4.680   5.520
 2645SOL     OW 8833   4.428   5.814   4.328
 2645SOL    HW1 8834   4.459   5.768   4.411
 2645SOL    HW2 8835   4.418   5.747   4.255
 2646SOL     OW 8836   5.902   6.912   6.544
 2646SOL    HW1 8837   5.957   6.897   6.627
 2646SOL    HW2 8838   5.896   6.827   6.492
 2647SOL     OW 8839   5.921   0.497   1.588
 2647SOL    HW1 8840   5.906   0.415   1.643
 2647SOL    HW2 8841   5.857   0.497   1.511
 2648SOL     OW 8842   0.366   0.467   3.826
 2648SOL    HW1 8843   0.306   0.464   3.746
 2648SOL    HW2 8844   0.337   0.540   3.887
 2649SOL     OW 8845   5.091   3.037   5.956
 2649SOL    HW1 8846   5.019   3.022   5.888
 2649SOL    HW2 8847   5.167   3.086   5.914
 2650SOL     OW 8848   0.894   3.722   4.036
 2650SOL    HW1 8849   0.898   3.770   3.948
 2650SOL    HW2 8850   0.798   3.703   4.058
 2651SOL     OW 8851   0.187   2.180   0.093
 2651SOL    HW1 8852   0.229   2.128   0.168
 2651SOL    HW2 8853   0.255   2.195   0.021
 2652SOL     OW 8854   2.993   3.354   3.846
 2652SOL    HW1 8855   2.982   3.350   3.945
 2652SOL    HW2 8856   3.057   3.427   3.822
 2653SOL     OW 8857   5.091   6.726   5.279
 2653SOL    HW1 8858   5.019   6.739   5.210
 2653SOL    HW2 8859   5.107   6.812   5.327
 2654SOL     OW 8860   4.484   4.239   1.144
 2654SOL    HW1 8861   4.542   4.183   1.204
 2654SOL    HW2 8862   4.407   4.275   1.197
 2655SOL     OW 8863   5.520   4.887   4.605
 2655SOL    HW1 8864   5.443   4.907   4.665
 2655SOL    HW2 8865   5.599   4.943   4.632
 2656SOL     OW 8866   4.017   4.862   4.603
 2656SOL    HW1 8867   3.996   4.844   4.699
 2656SOL    HW2 8868   3.954   4.931   4.567
 2657SOL     OW 8869   2.347   4.496   6.533
 2657SOL    HW1 8870   2.370   4.530   6.624
 2657SOL    HW2 8871   2.333   4.572   6.471
 2658SOL     OW 8872   5.023   3.847   0.293
 2658SOL    HW1 8873   5.110   3.844   0.243
 2658SOL    HW2 8874   4.983   3.938   0.285
 2659SOL     OW 8875   6.456   2.496   4.435
 2659SOL    HW1 8876   6.419   2.589   4.443
 2659SOL    HW2 8877   6.426   2.442   4.513
 2660SOL     OW 8878   0.808   1.279   1.112
 2660SOL    HW1 8879   0.846   1.337   1.041
 2660SOL    HW2 8880   0.845   1.307   1.201
 2661SOL     OW 8881   2.392   6.635   1.541
 2661SOL    HW1 8882   2.491   6.630   1.552
 2661SOL    HW2 8883   2.363   6.579   1.463
 2662SOL     OW 8884   4.425   0.393   5.680
 2662SOL    HW1 8885   4.483   0.328   5.729
 2662SOL    HW2 8886   4.481   0.447   5.617
 2663SOL     OW 8887   2.801   3.740   1.366
 2663SOL    HW1 8888   2.801   3.649   1.324
 2663SOL    HW2 8889   2.756   3.735   1.455
 2664SOL     OW 8890   3.687   3.820   4.563
 2664SOL    HW1 8891   3.742   3.890   4.607
 2664SOL    HW2 8892   3.606   3.862   4.522
 2665SOL     OW 8893   2.841   2.541   5.319
 2665SOL    HW1 8894   2.818   2.488   5.238
 2665SOL    HW2 8895   2.830   2.484   5.400
 2666SOL     OW 8896   4.851   3.764   1.677
 2666SOL    HW1 8897   4.795   3.838   1.641
 2666SOL    HW2 8898   4.928   3.747   1.615
 2667SOL     OW 8899   1.739   6.227   4.222
 2667SOL    HW1 8900   1.759   6.177   4.138
 2667SOL    HW2 8901   1.655   6.191   4.262
 2668SOL     OW 8902   6.319   3.094   3.078
 2668SOL    HW1 8903   6.308   3.078   3.176
 2668SOL    HW2 8904   6.391   3.034   3.043
 2669SOL     OW 8905   3.077   4.768   5.214
 2669SOL    HW1 8906   3.004   4.834   5.232
 2669SOL    HW2 8907   3.038   4.676   5.210
 2670SOL     OW 8908   5.694   1.696   6.301
 2670SOL    HW1 8909   5.697   1.708   6.202
 2670SOL    HW2 8910   5.645   1.612   6.323
 2671SOL     OW 8911   3.215   5.086   0.001
 2671SOL    HW1 8912   3.225   5.156   6.951
 2671SOL    HW2 8913   3.301   5.073   0.049
 2672SOL     OW 8914   6.809   5.340   6.956
 2672SOL    HW1 8915   6.767   5.429   6.940
 2672SOL    HW2 8916   6.817   5.291   6.869
 2673SOL     OW 8917   6.209   1.973   3.278
 2673SOL    HW1 8918   6.151   1.897   3.248
 2673SOL    HW2 8919   6.251   2.016   3.198
 2674SOL     OW 8920   2.166   3.881   4.111
 2674SOL    HW1 8921   2.165   3.788   4.146
 2674SOL    HW2 8922   2.170   3.879   4.011
 2675SOL     OW 8923   6.761   5.059   4.421
 2675SOL    HW1 8924   6.714   5.137   4.463
 2675SOL    HW2 8925   6.814   5.011   4.491
 2676SOL     OW 8926   4.300   1.236   2.030
 2676SOL    HW1 8927   4.378   1.269   2.084
 2676SOL    HW2 8928   4.316   1.141   2.004
 2677SOL     OW 8929   3.331   4.576   0.079
 2677SOL    HW1 8930   3.357   4.661   0.033
 2677SOL    HW2 8931   3.311   4.505   0.011
 2678SOL     OW 8932   0.103   4.545   1.178
 2678SOL    HW1 8933   0.157   4.614   1.226
 2678SOL    HW2 8934   0.108   4.458   1.228
 2679SOL     OW 8935   3.886   5.241   0.688
 2679SOL    HW1 8936   3.843   5.151   0.698
 2679SOL    HW2 8937   3.971   5.243   0.742
 2680SOL     OW 8938   1.092   1.686   1.545
 2680SOL    HW1 8939   1.168   1.657   1.487
 2680SOL    HW2 8940   1.007   1.682   1.493
 2681SOL     OW 8941   1.429   2.457   4.388
 2681SOL    HW1 8942   1.347   2.514   4.384
 2681SOL    HW2 8943   1.506   2.505   4.346
 2682SOL     OW 8944   5.125   3.726   2.816
 2682SOL    HW1 8945   5.142   3.824   2.820
 2682SOL    HW2 8946   5.028   3.709   2.836
 2683SOL     OW 8947   1.321   4.091   0.285
 2683SOL    HW1 8948   1.285   4.114   0.376
 2683SOL    HW2 8949   1.261   4.023   0.242
 2684SOL     OW 8950   4.436   5.492   2.157
 2684SOL    HW1 8951   4.358   5.555   2.156
 2684SOL    HW2 8952   4.421   5.421   2.226
 2685SOL     OW 8953   6.381   5.699   6.329
 2685SOL    HW1 8954   6.386   5.744   6.240
 2685SOL    HW2 8955   6.400   5.601   6.318
 2686SOL     OW 8956   1.629   1.537   5.687
 2686SOL    HW1 8957   1.570   1.456   5.681
 2686SOL    HW2 8958   1.587   1.604   5.748
 2687SOL     OW 8959   4.700   4.266   3.054
 2687SOL    HW1 8960   4.761   4.339   3.024
 2687SOL    HW2 8961   4.702   4.191   2.988
 2688SOL     OW 8962   4.760   5.542   6.974
 2688SOL    HW1 8963   4.812   5.514   6.894
 2688SOL    HW2 8964   4.824   5.566   0.028
 2689SOL     OW 8965   2.449   2.165   3.477
 2689SOL    HW1 8966   2.525   2.104   3.456
 2689SOL    HW2 8967   2.394   2.125   3.551
 2690SOL     OW 8968   3.004   3.517   4.163
 2690SOL    HW1 8969   2.997   3.559   4.254
 2690SOL    HW2 8970   2.932   3.555   4.104
 2691SOL     OW 8971   1.148   5.637   2.460
 2691SOL    HW1 8972   1.135   5.579   2.380
 2691SOL    HW2 8973   1.166   5.731   2.431
 2692SOL     OW 8974   4.260   4.834   3.709
 2692SOL    HW1 8975   4.298   4.861   3.621
 2692SOL    HW2 8976   4.259   4.734   3.717
 2693SOL     OW 8977   1.876   4.304   3.044
 2693SOL    HW1 8978   1.792   4.351   3.015
 2693SOL    HW2 8979   1.865   4.205   3.033
 2694SOL     OW 8980   3.710   0.050   2.870
 2694SOL    HW1 8981   3.642   0.124   2.872
 2694SOL    HW2 8982   3.712   0.010   2.778
 2695SOL     OW 8983   5.380   1.077   2.688
 2695SOL    HW1 8984   5.334   0.995   2.652
 2695SOL    HW2 8985   5.472   1.084   2.648
 2696SOL     OW 8986   3.740   3.745   5.237
 2696SOL    HW1 8987   3.717   3.661   5.187
 2696SOL    HW2 8988   3.834   3.740   5.270
 2697SOL     OW 8989   4.161   1.197   3.362
 2697SOL    HW1 8990   4.128   1.107   3.391
 2697SOL    HW2 8991   4.162   1.202   3.262
 2698SOL     OW 8992   2.264   5.758   0.601
 2698SOL    HW1 8993   2.220   5.703   0.530
 2698SOL    HW2 8994   2.362   5.736   0.605
 2699SOL     OW 8995   3.523   5.930   0.062
 2699SOL    HW1 8996   3.561   5.847   0.102
 2699SOL    HW2 8997   3.543   6.008   0.122
 2700SOL     OW 8998   1.947   4.164   1.529
 2700SOL    HW1 8999   1.976   4.114   1.448
 2700SOL    HW2 9000   1.847   4.164   1.534
 2701SOL     OW 9001   3.008   0.325   6.566
 2701SOL    HW1 9002   2.916   0.289   6.582
 2701SOL    HW2 9003   3.001   0.411   6.514
 2702SOL     OW 9004   0.414   2.611   2.746
 2702SOL    HW1 9005   0.395   2.544   2.675
 2702SOL    HW2 9006   0.483   2.676   2.713
 2703SOL     OW 9007   2.156   0.206   2.361
 2703SOL    HW1 9008   2.172   0.112   2.389
 2703SOL    HW2 9009   2.067   0.237   2.396
 2704SOL     OW 9010   0.411   5.867   0.930
 2704SOL    HW1 9011   0.321   5.884   0.970
 2704SOL    HW2 9012   0.478   5.857   1.002
 2705SOL     OW 9013   1.405   5.272   4.816
 2705SOL    HW1 9014   1.458   5.222   4.748
 2705SOL    HW2 9015   1.451   5.357   4.839
 2706SOL     OW 9016   0.493   0.860   0.960
 2706SOL    HW1 9017   0.562   0.854   0.888
 2706SOL    HW2 9018   0.482   0.956   0.987
 2707SOL     OW 9019   2.047   0.906   5.081
 2707SOL    HW1 9020   1.955   0.902   5.042
 2707SOL    HW2 9021   2.041   0.930   5.178
 2708SOL     OW 9022   1.282   1.982   1.371
 2708SOL    HW1 9023   1.202   1.949   1.320
 2708SOL    HW2 9024   1.345   2.026   1.307
 2709SOL     OW 9025   5.675   6.634   0.461
 2709SOL    HW1 9026   5.608   6.688   0.409
 2709SOL    HW2 9027   5.676   6.541   0.427
 2710SOL     OW 9028   0.632   3.392   2.593
 2710SOL    HW1 9029   0.575   3.311   2.579
 2710SOL    HW2 9030   0.642   3.408   2.692
 2711SOL     OW 9031   2.636   1.204   3.090
 2711SOL    HW1 9032   2.735   1.196   3.096
 2711SOL    HW2 9033   2.613   1.281   3.030
 2712SOL     OW 9034   3.279   5.210   1.136
 2712SOL    HW1 9035   3.309   5.123   1.099
 2712SOL    HW2 9036   3.357   5.258   1.177
 2713SOL     OW 9037   1.901   2.383   5.027
 2713SOL    HW1 9038   1.840   2.324   4.974
 2713SOL    HW2 9039   1.913   2.470   4.978
 2714SOL     OW 9040   4.707   2.025   6.838
 2714SOL    HW1 9041   4.791   2.075   6.857
 2714SOL    HW2 9042   4.647   2.030   6.918
 2715SOL     OW 9043   5.419   0.731   0.365
 2715SOL    HW1 9044   5.451   0.641   0.393
 2715SOL    HW2 9045   5.443   0.798   0.435
 2716SOL     OW 9046   5.263   5.078   2.769
 2716SOL    HW1 9047   5.188   5.033   2.817
 2716SOL    HW2 9048   5.336   5.012   2.752
 2717SOL     OW 9049   2.049   5.126   2.181
 2717SOL    HW1 9050   2.010   5.210   2.141
 2717SOL    HW2 9051   2.090   5.071   2.108
 2718SOL     OW 9052   1.912   3.600   5.176
 2718SOL    HW1 9053   1.902   3.512   5.130
 2718SOL    HW2 9054   1.940   3.670   5.110
 2719SOL     OW 9055   6.086   5.504   1.359
 2719SOL    HW1 9056   6.128   5.415   1.345
 2719SOL    HW2 9057   6.135   5.553   1.431
 2720SOL     OW 9058   1.927   6.037   2.936
 2720SOL    HW1 9059   1.998   6.098   2.973
 2720SOL    HW2 9060   1.851   6.093   2.902
 2721SOL     OW 9061   3.343   0.751   3.866
 2721SOL    HW1 9062   3.383   0.833   3.827
 2721SOL    HW2 9063   3.366   0.672   3.809
 2722SOL     OW 9064   6.430   5.609   2.066
 2722SOL    HW1 9065   6.498   5.682   2.073
 2722SOL    HW2 9066   6.421   5.563   2.154
 2723SOL     OW 9067   1.536   6.732   5.845
 2723SOL    HW1 9068   1.450   6.773   5.816
 2723SOL    HW2 9069   1.563   6.770   5.934
 2724SOL     OW 9070   2.523   6.923   6.525
 2724SOL    HW1 9071   2.503   6.826   6.533
 2724SOL    HW2 9072   2.444   6.971   6.487
 2725SOL     OW 9073   6.243   4.812   4.178
 2725SOL    HW1 9074   6.223   4.783   4.084
 2725SOL    HW2 9075   6.334   4.851   4.181
 2726SOL     OW 9076   0.033   4.122   0.873
 2726SOL    HW1 9077   0.011   4.086   0.963
 2726SOL    HW2 9078   0.131   4.110   0.855
 2727SOL     OW 9079   0.772   4.719   3.201
 2727SOL    HW1 9080   0.862   4.741   3.237
 2727SOL    HW2 9081   0.749   4.624   3.223
 2728SOL     OW 9082   3.712   0.194   5.707
 2728SOL    HW1 9083   3.747   0.104   5.679
 2728SOL    HW2 9084   3.675   0.188   5.799
 2729SOL     OW 9085   6.011   5.677   1.060
 2729SOL    HW1 9086   6.009   5.578   1.069
 2729SOL    HW2 9087   6.065   5.702   0.979
 2730SOL     OW 9088   1.354   5.376   1.870
 2730SOL    HW1 9089   1.257   5.378   1.844
 2730SOL    HW2 9090   1.380   5.466   1.906
 2731SOL     OW 9091   3.820   3.272   2.131
 2731SOL    HW1 9092   3.802   3.320   2.045
 2731SOL    HW2 9093   3.912   3.294   2.162
 2732SOL     OW 9094   5.484   3.388   2.087
 2732SOL    HW1 9095   5.397   3.352   2.122
 2732SOL    HW2 9096   5.488   3.487   2.102
 2733SOL     OW 9097   0.143   7.006   5.071
 2733SOL    HW1 9098   0.056   7.008   5.119
 2733SOL    HW2 9099   0.142   0.052   4.996
 2734SOL     OW 9100   2.167   5.619   2.288
 2734SOL    HW1 9101   2.148   5.710   2.324
 2734SOL    HW2 9102   2.082   5.575   2.261
 2735SOL     OW 9103   0.827   3.977   2.953
 2735SOL    HW1 9104   0.780   3.954   2.868
 2735SOL    HW2 9105   0.860   4.072   2.948
 2736SOL     OW 9106   4.617   0.399   4.593
 2736SOL    HW1 9107   4.648   0.483   4.638
 2736SOL    HW2 9108   4.653   0.319   4.641
 2737SOL     OW 9109   3.495   3.437   5.447
 2737SOL    HW1 9110   3.489   3.452   5.349
 2737SOL    HW2 9111   3.429   3.495   5.494
 2738SOL     OW 9112   5.473   5.033   4.245
 2738SOL    HW1 9113   5.444   5.070   4.157
 2738SOL    HW2 9114   5.439   4.940   4.256
 2739SOL     OW 9115   6.339   5.213   0.075
 2739SOL    HW1 9116   6.415   5.277   0.073
 2739SOL    HW2 9117   6.352   5.142   0.005
 2740SOL     OW 9118   6.609   3.855   2.265
 2740SOL    HW1 9119   6.589   3.943   2.308
 2740SOL    HW2 9120   6.551   3.843   2.184
 2741SOL     OW 9121   6.817   0.913   5.682
 2741SOL    HW1 9122   6.775   0.945   5.597
 2741SOL    HW2 9123   6.907   0.876   5.663
 2742SOL     OW 9124   1.420   4.882   6.983
 2742SOL    HW1 9125   1.471   4.920   6.905
 2742SOL    HW2 9126   1.484   4.861   0.037
 2743SOL     OW 9127   6.283   5.216   2.100
 2743SOL    HW1 9128   6.215   5.165   2.152
 2743SOL    HW2 9129   6.355   5.248   2.162
 2744SOL     OW 9130   4.696   1.771   0.127
 2744SOL    HW1 9131   4.683   1.751   0.224
 2744SOL    HW2 9132   4.783   1.731   0.096
 2745SOL     OW 9133   1.097   6.313   6.752
 2745SOL    HW1 9134   1.131   6.365   6.831
 2745SOL    HW2 9135   1.027   6.248   6.783
 2746SOL     OW 9136   2.775   1.609   3.786
 2746SOL    HW1 9137   2.823   1.690   3.752
 2746SOL    HW2 9138   2.830   1.527   3.767
 2747SOL     OW 9139   5.275   3.186   5.843
 2747SOL    HW1 9140   5.354   3.240   5.872
 2747SOL    HW2 9141   5.245   3.217   5.752
 2748SOL     OW 9142   3.808   1.852   0.961
 2748SOL    HW1 9143   3.792   1.823   0.867
 2748SOL    HW2 9144   3.759   1.791   1.023
 2749SOL     OW 9145   5.892   4.703   4.025
 2749SOL    HW1 9146   5.832   4.651   4.086
 2749SOL    HW2 9147   5.863   4.689   3.931
 2750SOL     OW 9148   0.829   5.442   1.328
 2750SOL    HW1 9149   0.794   5.407   1.415
 2750SOL    HW2 9150   0.833   5.367   1.262
 2751SOL     OW 9151   1.046   6.340   0.443
 2751SOL    HW1 9152   0.980   6.266   0.433
 2751SOL    HW2 9153   0.999   6.428   0.438
 2752SOL     OW 9154   4.999   4.852   5.176
 2752SOL    HW1 9155   5.022   4.949   5.183
 2752SOL    HW2 9156   4.901   4.843   5.159
 2753SOL     OW 9157   1.469   0.237   6.307
 2753SOL    HW1 9158   1.468   0.336   6.321
 2753SOL    HW2 9159   1.399   0.212   6.241
 2754SOL     OW 9160   6.498   0.889   4.344
 2754SOL    HW1 9161   6.425   0.845   4.292
 2754SOL    HW2 9162   6.517   0.980   4.307
 2755SOL     OW 9163   3.220   6.745   3.405
 2755SOL    HW1 9164   3.209   6.657   3.452
 2755SOL    HW2 9165   3.207   6.819   3.471
 2756SOL     OW 9166   6.389   3.833   5.246
 2756SOL    HW1 9167   6.449   3.755   5.267
 2756SOL    HW2 9168   6.297   3.799   5.225
 2757SOL     OW 9169   2.400   1.353   6.564
 2757SOL    HW1 9170   2.395   1.305   6.652
 2757SOL    HW2 9171   2.371   1.292   6.491
 2758SOL     OW 9172   5.013   6.175   3.753
 2758SOL    HW1 9173   5.086   6.228   3.796
 2758SOL    HW2 9174   4.939   6.160   3.819
 2759SOL     OW 9175   4.427   5.474   5.540
 2759SOL    HW1 9176   4.406   5.570   5.555
 2759SOL    HW2 9177   4.366   5.417   5.595
 2760SOL     OW 9178   6.771   5.046   2.760
 2760SOL    HW1 9179   6.722   5.102   2.693
 2760SOL    HW2 9180   6.851   5.096   2.794
 2761SOL     OW 9181   1.747   4.283   4.349
 2761SOL    HW1 9182   1.740   4.375   4.388
 2761SOL    HW2 9183   1.668   4.229   4.375
 2762SOL     OW 9184   1.625   1.916   6.754
 2762SOL    HW1 9185   1.722   1.894   6.762
 2762SOL    HW2 9186   1.598   1.975   6.831
 2763SOL     OW 9187   4.745   2.176   5.330
 2763SOL    HW1 9188   4.797   2.259   5.348
 2763SOL    HW2 9189   4.717   2.135   5.417
 2764SOL     OW 9190   0.293   6.022   2.334
 2764SOL    HW1 9191   0.342   6.076   2.266
 2764SOL    HW2 9192   0.351   5.946   2.364
 2765SOL     OW 9193   6.873   0.363   0.687
 2765SOL    HW1 9194   6.969   0.347   0.665
 2765SOL    HW2 9195   6.822   0.278   0.676
 2766SOL     OW 9196   3.658   1.900   6.887
 2766SOL    HW1 9197   3.717   1.822   6.909
 2766SOL    HW2 9198   3.707   1.963   6.827
 2767SOL     OW 9199   6.353   5.384   6.073
 2767SOL    HW1 9200   6.352   5.325   5.992
 2767SOL    HW2 9201   6.262   5.422   6.087
 2768SOL     OW 9202   4.404   1.254   0.279
 2768SOL    HW1 9203   4.356   1.168   0.262
 2768SOL    HW2 9204   4.481   1.263   0.215
 2769SOL     OW 9205   2.500   4.725   6.401
 2769SOL    HW1 9206   2.470   4.763   6.488
 2769SOL    HW2 9207   2.584   4.770   6.371
 2770SOL     OW 9208   3.980   5.446   5.785
 2770SOL    HW1 9209   3.932   5.437   5.872
 2770SOL    HW2 9210   3.914   5.457   5.711
 2771SOL     OW 9211   6.029   1.040   4.875
 2771SOL    HW1 9212   5.990   1.092   4.951
 2771SOL    HW2 9213   6.103   0.982   4.908
 2772SOL     OW 9214   2.976   1.590   1.300
 2772SOL    HW1 9215   2.949   1.563   1.207
 2772SOL    HW2 9216   2.909   1.655   1.336
 2773SOL     OW 9217   6.903   2.714   4.364
 2773SOL    HW1 9218   6.953   2.638   4.322
 2773SOL    HW2 9219   6.850   2.762   4.293
 2774SOL     OW 9220   4.919   3.031   2.850
 2774SOL    HW1 9221   4.985   3.017   2.776
 2774SOL    HW2 9222   4.882   3.125   2.845
 2775SOL     OW 9223   6.193   2.933   4.389
 2775SOL    HW1 9224   6.221   3.018   4.434
 2775SOL    HW2 9225   6.200   2.945   4.290
 2776SOL     OW 9226   5.330   4.338   5.692
 2776SOL    HW1 9227   5.269   4.337   5.613
 2776SOL    HW2 9228   5.425   4.326   5.662
 2777SOL     OW 9229   2.197   1.546   0.641
 2777SOL    HW1 9230   2.131   1.599   0.694
 2777SOL    HW2 9231   2.186   1.567   0.544
 2778SOL     OW 9232   1.398   5.973   6.531
 2778SOL    HW1 9233   1.372   5.880   6.507
 2778SOL    HW2 9234   1.494   5.974   6.559
 2779SOL     OW 9235   5.380   6.657   1.663
 2779SOL    HW1 9236   5.426   6.582   1.710
 2779SOL    HW2 9237   5.414   6.744   1.697
 2780SOL     OW 9238   6.909   6.824   5.743
 2780SOL    HW1 9239   6.809   6.822   5.742
 2780SOL    HW2 9240   6.944   6.795   5.654
 2781SOL     OW 9241   6.112   0.393   3.197
 2781SOL    HW1 9242   6.129   0.477   3.247
 2781SOL    HW2 9243   6.105   0.413   3.099
 2782SOL     OW 9244   4.566   1.389   4.898
 2782SOL    HW1 9245   4.484   1.446   4.888
 2782SOL    HW2 9246   4.549   1.299   4.857
 2783SOL     OW 9247   6.938   3.923   1.682
 2783SOL    HW1 9248   6.879   3.884   1.612
 2783SOL    HW2 9249   6.899   3.906   1.772
 2784SOL     OW 9250   3.252   1.384   1.847
 2784SOL    HW1 9251   3.220   1.398   1.753
 2784SOL    HW2 9252   3.343   1.425   1.858
 2785SOL     OW 9253   4.903   2.183   0.510
 2785SOL    HW1 9254   4.879   2.258   0.448
 2785SOL    HW2 9255   5.001   2.187   0.530
 2786SOL     OW 9256   6.360   6.472   1.373
 2786SOL    HW1 9257   6.434   6.539   1.365
 2786SOL    HW2 9258   6.331   6.444   1.282
 2787SOL     OW 9259   6.277   5.983   5.401
 2787SOL    HW1 9260   6.184   5.945   5.407
 2787SOL    HW2 9261   6.279   6.072   5.447
 2788SOL     OW 9262   2.928   6.513   6.211
 2788SOL    HW1 9263   2.855   6.535   6.276
 2788SOL    HW2 9264   2.894   6.448   6.144
 2789SOL     OW 9265   1.737   1.596   3.530
 2789SOL    HW1 9266   1.658   1.653   3.555
 2789SOL    HW2 9267   1.704   1.513   3.484
 2790SOL     OW 9268   3.254   5.296   0.830
 2790SOL    HW1 9269   3.264   5.319   0.926
 2790SOL    HW2 9270   3.222   5.201   0.821
 2791SOL     OW 9271   0.947   4.202   2.300
 2791SOL    HW1 9272   0.902   4.120   2.335
 2791SOL    HW2 9273   0.880   4.262   2.256
 2792SOL     OW 9274   2.991   0.766   4.400
 2792SOL    HW1 9275   2.908   0.814   4.372
 2792SOL    HW2 9276   3.058   0.833   4.433
 2793SOL     OW 9277   5.223   3.784   2.163
 2793SOL    HW1 9278   5.131   3.803   2.195
 2793SOL    HW2 9279   5.231   3.812   2.067
 2794SOL     OW 9280   6.661   2.149   6.107
 2794SOL    HW1 9281   6.618   2.198   6.031
 2794SOL    HW2 9282   6.657   2.051   6.089
 2795SOL     OW 9283   0.321   4.054   1.246
 2795SOL    HW1 9284   0.348   4.031   1.340
 2795SOL    HW2 9285   0.224   4.031   1.233
 2796SOL     OW 9286   0.555   5.704   3.765
 2796SOL    HW1 9287   0.634   5.691   3.705
 2796SOL    HW2 9288   0.559   5.795   3.806
 2797SOL     OW 9289   5.655   5.185   5.467
 2797SOL    HW1 9290   5.697   5.101   5.502
 2797SOL    HW2 9291   5.725   5.239   5.419
 2798SOL     OW 9292   6.009   5.809   2.750
 2798SOL    HW1 9293   5.914   5.832   2.732
 2798SOL    HW2 9294   6.016   5.715   2.781
 2799SOL     OW 9295   5.377   6.091   5.710
 2799SOL    HW1 9296   5.362   6.060   5.804
 2799SOL    HW2 9297   5.325   6.033   5.647
 2800SOL     OW 9298   5.367   0.185   5.892
 2800SOL    HW1 9299   5.449   0.198   5.836
 2800SOL    HW2 9300   5.354   0.088   5.910
 2801SOL     OW 9301   0.864   5.353   6.196
 2801SOL    HW1 9302   0.924   5.386   6.269
 2801SOL    HW2 9303   0.816   5.271   6.227
 2802SOL     OW 9304   6.694   5.936   5.433
 2802SOL    HW1 9305   6.725   5.912   5.525
 2802SOL    HW2 9306   6.597   5.912   5.424
 2803SOL     OW 9307   3.313   4.668   5.870
 2803SOL    HW1 9308   3.239   4.678   5.804
 2803SOL    HW2 9309   3.389   4.617   5.829
 2804SOL     OW 9310   0.273   3.930   4.365
 2804SOL    HW1 9311   0.260   4.020   4.322
 2804SOL    HW2 9312   0.339   3.938   4.440
 2805SOL     OW 9313   6.153   3.878   2.927
 2805SOL    HW1 9314   6.165   3.848   3.022
 2805SOL    HW2 9315   6.083   3.949   2.924
 2806SOL     OW 9316   1.927   4.362   6.236
 2806SOL    HW1 9317   2.014   4.401   6.208
 2806SOL    HW2 9318   1.942   4.271   6.275
 2807SOL     OW 9319   4.338   0.304   3.025
 2807SOL    HW1 9320   4.342   0.266   3.117
 2807SOL    HW2 9321   4.346   0.404   3.029
 2808SOL     OW 9322   6.466   5.799   0.647
 2808SOL    HW1 9323   6.522   5.839   0.575
 2808SOL    HW2 9324   6.519   5.729   0.696
 2809SOL     OW 9325   5.486   2.286   1.206
 2809SOL    HW1 9326   5.484   2.318   1.111
 2809SOL    HW2 9327   5.433   2.347   1.263
 2810SOL     OW 9328   2.515   5.470   3.175
 2810SOL    HW1 9329   2.537   5.490   3.080
 2810SOL    HW2 9330   2.522   5.372   3.191
 2811SOL     OW 9331   0.681   1.616   2.716
 2811SOL    HW1 9332   0.632   1.530   2.721
 2811SOL    HW2 9333   0.741   1.616   2.636
 2812SOL     OW 9334   6.010   3.539   0.585
 2812SOL    HW1 9335   5.982   3.445   0.569
 2812SOL    HW2 9336   6.028   3.552   0.683
 2813SOL     OW 9337   0.943   1.944   0.536
 2813SOL    HW1 9338   0.898   1.907   0.617
 2813SOL    HW2 9339   0.886   2.017   0.497
 2814SOL     OW 9340   2.961   4.173   5.499
 2814SOL    HW1 9341   2.956   4.206   5.405
 2814SOL    HW2 9342   2.900   4.227   5.557
 2815SOL     OW 9343   6.929   5.216   5.990
 2815SOL    HW1 9344   6.979   5.251   6.070
 2815SOL    HW2 9345   6.848   5.272   5.974
 2816SOL     OW 9346   6.557   5.854   4.329
 2816SOL    HW1 9347   6.641   5.804   4.347
 2816SOL    HW2 9348   6.524   5.896   4.413
 2817SOL     OW 9349   3.694   1.015   2.661
 2817SOL    HW1 9350   3.603   1.055   2.648
 2817SOL    HW2 9351   3.753   1.079   2.710
 2818SOL     OW 9352   6.867   1.339   2.393
 2818SOL    HW1 9353   6.825   1.374   2.310
 2818SOL    HW2 9354   6.952   1.387   2.411
 2819SOL     OW 9355   1.422   0.342   1.950
 2819SOL    HW1 9356   1.506   0.391   1.926
 2819SOL    HW2 9357   1.372   0.394   2.019
 2820SOL     OW 9358   0.911   2.200   2.266
 2820SOL    HW1 9359   0.950   2.164   2.181
 2820SOL    HW2 9360   0.975   2.264   2.308
 2821SOL     OW 9361   2.663   4.945   5.966
 2821SOL    HW1 9362   2.583   4.954   5.907
 2821SOL    HW2 9363   2.721   5.026   5.955
 2822SOL     OW 9364   4.161   2.100   0.029
 2822SOL    HW1 9365   4.135   2.004   0.024
 2822SOL    HW2 9366   4.148   2.143   6.960
 2823SOL     OW 9367   6.296   0.649   0.257
 2823SOL    HW1 9368   6.210   0.678   0.299
 2823SOL    HW2 9369   6.353   0.728   0.239
 2824SOL     OW 9370   1.565   2.703   5.574
 2824SOL    HW1 9371   1.567   2.758   5.490
 2824SOL    HW2 9372   1.625   2.624   5.563
 2825SOL     OW 9373   5.259   0.563   6.028
 2825SOL    HW1 9374   5.354   0.575   6.057
 2825SOL    HW2 9375   5.225   0.475   6.059
 2826SOL     OW 9376   2.570   3.470   6.707
 2826SOL    HW1 9377   2.622   3.447   6.625
 2826SOL    HW2 9378   2.537   3.386   6.750
 2827SOL     OW 9379   0.418   0.969   6.475
 2827SOL    HW1 9380   0.456   0.878   6.495
 2827SOL    HW2 9381   0.379   0.969   6.383
 2828SOL     OW 9382   2.129   3.555   1.286
 2828SOL    HW1 9383   2.146   3.624   1.357
 2828SOL    HW2 9384   2.115   3.600   1.198
 2829SOL     OW 9385   3.091   3.082   3.415
 2829SOL    HW1 9386   3.037   3.164   3.395
 2829SOL    HW2 9387   3.084   3.060   3.512
 2830SOL     OW 9388   3.265   4.199   5.203
 2830SOL    HW1 9389   3.282   4.105   5.173
 2830SOL    HW2 9390   3.166   4.216   5.204
 2831SOL     OW 9391   0.712   2.989   3.100
 2831SOL    HW1 9392   0.719   2.894   3.129
 2831SOL    HW2 9393   0.620   3.024   3.119
 2832SOL     OW 9394   1.122   3.012   1.914
 2832SOL    HW1 9395   1.201   2.951   1.912
 2832SOL    HW2 9396   1.147   3.098   1.958
 2833SOL     OW 9397   2.775   1.533   1.905
 2833SOL    HW1 9398   2.852   1.541   1.969
 2833SOL    HW2 9399   2.799   1.577   1.819
 2834SOL     OW 9400   4.415   6.375   4.559
 2834SOL    HW1 9401   4.463   6.354   4.474
 2834SOL    HW2 9402   4.334   6.431   4.538
 2835SOL     OW 9403   0.858   6.567   0.541
 2835SOL    HW1 9404   0.912   6.651   0.533
 2835SOL    HW2 9405   0.820   6.543   0.452
 2836SOL     OW 9406   1.791   6.290   1.805
 2836SOL    HW1 9407   1.768   6.196   1.778
 2836SOL    HW2 9408   1.882   6.292   1.846
 2837SOL     OW 9409   5.499   4.511   2.707
 2837SOL    HW1 9410   5.466   4.553   2.792
 2837SOL    HW2 9411   5.591   4.546   2.687
 2838SOL     OW 9412   4.930   3.634   0.446
 2838SOL    HW1 9413   4.986   3.602   0.523
 2838SOL    HW2 9414   4.967   3.720   0.411
 2839SOL     OW 9415   0.449   3.114   2.292
 2839SOL    HW1 9416   0.442   3.158   2.381
 2839SOL    HW2 9417   0.441   3.015   2.303
 2840SOL     OW 9418   1.731   5.683   2.650
 2840SOL    HW1 9419   1.828   5.670   2.670
 2840SOL    HW2 9420   1.681   5.691   2.737
 2841SOL     OW 9421   6.219   2.200   0.041
 2841SOL    HW1 9422   6.204   2.241   6.971
 2841SOL    HW2 9423   6.152   2.128   0.056
 2842SOL     OW 9424   1.338   5.658   4.744
 2842SOL    HW1 9425   1.238   5.656   4.749
 2842SOL    HW2 9426   1.375   5.607   4.821
 2843SOL     OW 9427   2.471   1.367   2.347
 2843SOL    HW1 9428   2.465   1.447   2.288
 2843SOL    HW2 9429   2.563   1.362   2.387
 2844SOL     OW 9430   5.699   5.265   1.397
 2844SOL    HW1 9431   5.659   5.282   1.307
 2844SOL    HW2 9432   5.638   5.208   1.451
 2845SOL     OW 9433   5.437   3.304   2.395
 2845SOL    HW1 9434   5.387   3.383   2.359
 2845SOL    HW2 9435   5.433   3.229   2.329
 2846SOL     OW 9436   2.934   0.684   0.486
 2846SOL    HW1 9437   2.881   0.731   0.416
 2846SOL    HW2 9438   2.979   0.604   0.446
 2847SOL     OW 9439   4.906   3.816   2.169
 2847SOL    HW1 9440   4.918   3.779   2.077
 2847SOL    HW2 9441   4.878   3.912   2.164
 2848SOL     OW 9442   2.632   2.615   5.646
 2848SOL    HW1 9443   2.591   2.586   5.559
 2848SOL    HW2 9444   2.560   2.638   5.711
 2849SOL     OW 9445   3.696   1.003   1.461
 2849SOL    HW1 9446   3.600   1.007   1.431
 2849SOL    HW2 9447   3.750   1.066   1.407
 2850SOL     OW 9448   2.643   6.884   3.423
 2850SOL    HW1 9449   2.603   6.823   3.355
 2850SOL    HW2 9450   2.722   6.931   3.383
 2851SOL     OW 9451   4.244   3.218   6.696
 2851SOL    HW1 9452   4.258   3.255   6.788
 2851SOL    HW2 9453   4.333   3.201   6.653
 2852SOL     OW 9454   5.912   4.181   0.260
 2852SOL    HW1 9455   5.863   4.220   0.183
 2852SOL    HW2 9456   5.980   4.115   0.228
 2853SOL     OW 9457   0.934   3.699   0.176
 2853SOL    HW1 9458   0.888   3.663   0.096
 2853SOL    HW2 9459   0.931   3.632   0.250
 2854SOL     OW 9460   3.348   0.800   5.990
 2854SOL    HW1 9461   3.265   0.747   6.008
 2854SOL    HW2 9462   3.379   0.783   5.896
 2855SOL     OW 9463   1.057   2.991   4.580
 2855SOL    HW1 9464   1.124   2.942   4.635
 2855SOL    HW2 9465   1.046   2.946   4.492
 2856SOL     OW 9466   1.175   2.885   3.938
 2856SOL    HW1 9467   1.253   2.896   3.876
 2856SOL    HW2 9468   1.199   2.922   4.028
 2857SOL     OW 9469   0.223   3.017   0.882
 2857SOL    HW1 9470   0.220   2.991   0.979
 2857SOL    HW2 9471   0.318   3.014   0.850
 2858SOL     OW 9472   5.237   6.567   2.604
 2858SOL    HW1 9473   5.300   6.549   2.680
 2858SOL    HW2 9474   5.248   6.661   2.573
 2859SOL     OW 9475   5.967   6.402   0.278
 2859SOL    HW1 9476   6.009   6.311   0.284
 2859SOL    HW2 9477   5.888   6.398   0.217
 2860SOL     OW 9478   1.513   6.853   2.218
 2860SOL    HW1 9479   1.552   6.940   2.187
 2860SOL    HW2 9480   1.546   6.779   2.161
 2861SOL     OW 9481   3.556   6.080   5.066
 2861SOL    HW1 9482   3.580   5.984   5.075
 2861SOL    HW2 9483   3.486   6.104   5.134
 2862SOL     OW 9484   4.283   2.387   1.923
 2862SOL    HW1 9485   4.348   2.448   1.968
 2862SOL    HW2 9486   4.300   2.293   1.951
 2863SOL     OW 9487   5.078   1.290   6.707
 2863SOL    HW1 9488   5.044   1.383   6.713
 2863SOL    HW2 9489   5.003   1.228   6.683
 2864SOL     OW 9490   4.358   2.871   0.934
 2864SOL    HW1 9491   4.369   2.961   0.977
 2864SOL    HW2 9492   4.261   2.848   0.930
 2865SOL     OW 9493   4.298   6.760   4.262
 2865SOL    HW1 9494   4.316   6.834   4.327
 2865SOL    HW2 9495   4.313   6.793   4.169
 2866SOL     OW 9496   5.867   3.889   0.001
 2866SOL    HW1 9497   5.777   3.931   0.016
 2866SOL    HW2 9498   5.915   3.882   0.089
 2867SOL     OW 9499   6.041   6.272   2.437
 2867SOL    HW1 9500   6.103   6.228   2.501
 2867SOL    HW2 9501   5.966   6.209   2.414
 2868SOL     OW 9502   1.186   1.879   5.353
 2868SOL    HW1 9503   1.247   1.844   5.282
 2868SOL    HW2 9504   1.220   1.851   5.443
 2869SOL     OW 9505   6.274   0.357   3.977
 2869SOL    HW1 9506   6.245   0.429   4.039
 2869SOL    HW2 9507   6.361   0.382   3.935
 2870SOL     OW 9508   0.508   1.896   6.426
 2870SOL    HW1 9509   0.458   1.824   6.475
 2870SOL    HW2 9510   0.606   1.885   6.440
 2871SOL     OW 9511   6.346   0.380   0.183
 2871SOL    HW1 9512   6.297   0.466   0.201
 2871SOL    HW2 9513   6.283   0.312   0.146
 2872SOL     OW 9514   2.600   1.624   1.026
 2872SOL    HW1 9515   2.696   1.645   1.044
 2872SOL    HW2 9516   2.579   1.646   0.930
 2873SOL     OW 9517   6.667   6.516   2.305
 2873SOL    HW1 9518   6.765   6.499   2.297
 2873SOL    HW2 9519   6.651   6.594   2.365
 2874SOL     OW 9520   4.246   6.772   3.145
 2874SOL    HW1 9521   4.174   6.778   3.214
 2874SOL    HW2 9522   4.269   6.677   3.128
 2875SOL     OW 9523   4.119   6.944   2.944
 2875SOL    HW1 9524   4.198   6.895   2.980
 2875SOL    HW2 9525   4.070   6.988   3.020
 2876SOL     OW 9526   1.097   6.523   2.423
 2876SOL    HW1 9527   1.039   6.581   2.365
 2876SOL    HW2 9528   1.167   6.580   2.468
 2877SOL     OW 9529   2.046   0.703   6.423
 2877SOL    HW1 9530   2.116   0.662   6.365
 2877SOL    HW2 9531   1.972   0.637   6.437
 2878SOL     OW 9532   3.343   3.630   4.883
 2878SOL    HW1 9533   3.435   3.606   4.853
 2878SOL    HW2 9534   3.318   3.720   4.847
 2879SOL     OW 9535   4.672   5.175   5.772
 2879SOL    HW1 9536   4.598   5.120   5.733
 2879SOL    HW2 9537   4.654   5.191   5.869
 2880SOL     OW 9538   0.163   1.895   3.768
 2880SOL    HW1 9539   0.173   1.983   3.722
 2880SOL    HW2 9540   0.166   1.821   3.700
 2881SOL     OW 9541   3.510   6.042   6.661
 2881SOL    HW1 9542   3.439   6.104   6.628
 2881SOL    HW2 9543   3.485   6.008   6.751
 2882SOL     OW 9544   6.368   5.969   1.178
 2882SOL    HW1 9545   6.463   5.987   1.202
 2882SOL    HW2 9546   6.346   5.873   1.195
 2883SOL     OW 9547   5.845   6.763   3.330
 2883SOL    HW1 9548   5.818   6.801   3.242
 2883SOL    HW2 9549   5.852   6.663   3.323
 2884SOL     OW 9550   0.082   6.155   2.294
 2884SOL    HW1 9551   0.162   6.095   2.296
 2884SOL    HW2 9552   0.020   6.130   2.368
 2885SOL     OW 9553   1.115   2.384   4.604
 2885SOL    HW1 9554   1.069   2.465   4.569
 2885SOL    HW2 9555   1.051   2.307   4.607
 2886SOL     OW 9556   1.887   4.196   6.585
 2886SOL    HW1 9557   1.917   4.166   6.495
 2886SOL    HW2 9558   1.956   4.256   6.625
 2887SOL     OW 9559   0.259   5.945   4.508
 2887SOL    HW1 9560   0.231   6.004   4.583
 2887SOL    HW2 9561   0.205   5.860   4.511
 2888SOL     OW 9562   0.121   5.171   0.062
 2888SOL    HW1 9563   0.078   5.146   0.149
 2888SOL    HW2 9564   0.187   5.244   0.077
 2889SOL     OW 9565   3.357   6.634   2.661
 2889SOL    HW1 9566   3.297   6.615   2.738
 2889SOL    HW2 9567   3.432   6.694   2.690
 2890SOL     OW 9568   1.901   5.839   0.949
 2890SOL    HW1 9569   1.992   5.835   0.907
 2890SOL    HW2 9570   1.911   5.851   1.047
 2891SOL     OW 9571   1.343   3.110   3.519
 2891SOL    HW1 9572   1.406   3.046   3.476
 2891SOL    HW2 9573   1.323   3.185   3.456
 2892SOL     OW 9574   5.816   3.133   1.434
 2892SOL    HW1 9575   5.743   3.120   1.501
 2892SOL    HW2 9576   5.777   3.127   1.342
 2893SOL     OW 9577   1.536   5.109   4.634
 2893SOL    HW1 9578   1.620   5.083   4.585
 2893SOL    HW2 9579   1.483   5.026   4.655
 2894SOL     OW 9580   1.540   3.817   1.636
 2894SOL    HW1 9581   1.495   3.838   1.549
 2894SOL    HW2 9582   1.502   3.875   1.708
 2895SOL     OW 9583   4.378   0.494   6.177
 2895SOL    HW1 9584   4.475   0.514   6.162
 2895SOL    HW2 9585   4.364   0.469   6.273
 2896SOL     OW 9586   4.301   0.271   5.325
 2896SOL    HW1 9587   4.310   0.172   5.314
 2896SOL    HW2 9588   4.216   0.291   5.374
 2897SOL     OW 9589   4.201   5.073   2.606
 2897SOL    HW1 9590   4.233   5.087   2.512
 2897SOL    HW2 9591   4.228   4.982   2.637
 2898SOL     OW 9592   5.073   4.047   4.397
 2898SOL    HW1 9593   5.067   3.948   4.407
 2898SOL    HW2 9594   4.982   4.087   4.408
 2899SOL     OW 9595   6.453   1.953   0.495
 2899SOL    HW1 9596   6.426   1.867   0.451
 2899SOL    HW2 9597   6.374   1.993   0.542
 2900SOL     OW 9598   3.861   4.891   6.467
 2900SOL    HW1 9599   3.895   4.831   6.539
 2900SOL    HW2 9600   3.794   4.842   6.411
 2901SOL     OW 9601   2.209   4.618   3.564
 2901SOL    HW1 9602   2.200   4.543   3.629
 2901SOL    HW2 9603   2.129   4.619   3.503
 2902SOL     OW 9604   6.686   5.424   3.669
 2902SOL    HW1 9605   6.717   5.374   3.749
 2902SOL    HW2 9606   6.741   5.396   3.589
 2903SOL     OW 9607   4.372   6.315   0.882
 2903SOL    HW1 9608   4.311   6.391   0.860
 2903SOL    HW2 9609   4.453   6.349   0.931
 2904SOL     OW 9610   3.410   5.462   5.001
 2904SOL    HW1 9611   3.500   5.427   5.024
 2904SOL    HW2 9612   3.342   5.391   5.014
 2905SOL     OW 9613   1.386   4.156   4.343
 2905SOL    HW1 9614   1.450   4.147   4.266
 2905SOL    HW2 9615   1.341   4.068   4.358
 2906SOL     OW 9616   5.518   5.974   2.573
 2906SOL    HW1 9617   5.568   5.933   2.649
 2906SOL    HW2 9618   5.420   5.970   2.592
 2907SOL     OW 9619   0.770   1.805   4.085
 2907SOL    HW1 9620   0.847   1.783   4.026
 2907SOL    HW2 9621   0.798   1.801   4.181
 2908SOL     OW 9622   5.176   6.447   3.501
 2908SOL    HW1 9623   5.109   6.478   3.434
 2908SOL    HW2 9624   5.255   6.508   3.501
 2909SOL     OW 9625   2.079   6.767   3.558
 2909SOL    HW1 9626   1.989   6.776   3.600
 2909SOL    HW2 9627   2.072   6.710   3.476
 2910SOL     OW 9628   6.653   0.710   3.797
 2910SOL    HW1 9629   6.678   0.794   3.750
 2910SOL    HW2 9630   6.564   0.720   3.840
 2911SOL     OW 9631   1.933   5.140   3.782
 2911SOL    HW1 9632   1.836   5.155   3.762
 2911SOL    HW2 9633   1.952   5.163   3.877
 2912SOL     OW 9634   6.591   5.955   6.677
 2912SOL    HW1 9635   6.652   5.901   6.619
 2912SOL    HW2 9636   6.509   5.901   6.696
 2913SOL     OW 9637   3.351   4.977   2.173
 2913SOL    HW1 9638   3.450   4.963   2.182
 2913SOL    HW2 9639   3.315   4.915   2.103
 2914SOL     OW 9640   5.859   5.841   0.826
 2914SOL    HW1 9641   5.841   5.924   0.772
 2914SOL    HW2 9642   5.854   5.761   0.766
 2915SOL     OW 9643   3.484   1.616   3.811
 2915SOL    HW1 9644   3.551   1.674   3.766
 2915SOL    HW2 9645   3.402   1.670   3.832
 2916SOL     OW 9646   1.519   5.386   0.308
 2916SOL    HW1 9647   1.603   5.343   0.343
 2916SOL    HW2 9648   1.538   5.429   0.220
 2917SOL     OW 9649   3.329   0.740   4.359
 2917SOL    HW1 9650   3.297   0.646   4.349
 2917SOL    HW2 9651   3.400   0.743   4.429
 2918SOL     OW 9652   5.726   3.600   6.428
 2918SOL    HW1 9653   5.691   3.687   6.462
 2918SOL    HW2 9654   5.826   3.599   6.437
 2919SOL     OW 9655   6.374   0.431   3.492
 2919SOL    HW1 9656   6.321   0.357   3.450
 2919SOL    HW2 9657   6.312   0.496   3.536
 2920SOL     OW 9658   3.506   0.246   1.658
 2920SOL    HW1 9659   3.478   0.282   1.569
 2920SOL    HW2 9660   3.528   0.321   1.719
 2921SOL     OW 9661   0.732   6.923   5.844
 2921SOL    HW1 9662   0.688   6.838   5.873
 2921SOL    HW2 9663   0.693   6.953   5.757
 2922SOL     OW 9664   4.183   5.977   1.575
 2922SOL    HW1 9665   4.172   6.007   1.669
 2922SOL    HW2 9666   4.092   5.969   1.532
 2923SOL     OW 9667   6.758   5.488   4.359
 2923SOL    HW1 9668   6.837   5.435   4.390
 2923SOL    HW2 9669   6.706   5.434   4.294
 2924SOL     OW 9670   0.542   2.237   4.384
 2924SOL    HW1 9671   0.568   2.178   4.307
 2924SOL    HW2 9672   0.463   2.197   4.431
 2925SOL     OW 9673   5.724   1.869   0.372
 2925SOL    HW1 9674   5.682   1.836   0.287
 2925SOL    HW2 9675   5.711   1.800   0.444
 2926SOL     OW 9676   6.301   2.279   6.571
 2926SOL    HW1 9677   6.359   2.318   6.642
 2926SOL    HW2 9678   6.276   2.350   6.505
 2927SOL     OW 9679   1.626   3.519   0.627
 2927SOL    HW1 9680   1.576   3.439   0.593
 2927SOL    HW2 9681   1.661   3.572   0.549
 2928SOL     OW 9682   6.317   1.148   6.936
 2928SOL    HW1 9683   6.332   1.053   6.907
 2928SOL    HW2 9684   6.226   1.178   6.907
 2929SOL     OW 9685   2.279   2.800   5.585
 2929SOL    HW1 9686   2.285   2.809   5.685
 2929SOL    HW2 9687   2.286   2.891   5.543
 2930SOL     OW 9688   5.213   6.295   5.225
 2930SOL    HW1 9689   5.250   6.372   5.174
 2930SOL    HW2 9690   5.170   6.328   5.309
 2931SOL     OW 9691   4.844   4.843   7.002
 2931SOL    HW1 9692   4.937   4.880   7.003
 2931SOL    HW2 9693   4.780   4.915   0.010
 2932SOL     OW 9694   0.395   5.881   1.787
 2932SOL    HW1 9695   0.386   5.979   1.804
 2932SOL    HW2 9696   0.403   5.865   1.688
 2933SOL     OW 9697   0.801   6.657   1.755
 2933SOL    HW1 9698   0.851   6.587   1.807
 2933SOL    HW2 9699   0.733   6.612   1.697
 2934SOL     OW 9700   5.181   2.762   0.608
 2934SOL    HW1 9701   5.176   2.721   0.699
 2934SOL    HW2 9702   5.187   2.862   0.617
 2935SOL     OW 9703   0.337   2.335   6.395
 2935SOL    HW1 9704   0.271   2.323   6.321
 2935SOL    HW2 9705   0.309   2.411   6.453
 2936SOL     OW 9706   3.896   6.413   0.605
 2936SOL    HW1 9707   3.916   6.372   0.694
 2936SOL    HW2 9708   3.799   6.401   0.584
 2937SOL     OW 9709   4.680   5.526   1.396
 2937SOL    HW1 9710   4.667   5.515   1.494
 2937SOL    HW2 9711   4.711   5.620   1.377
 2938SOL     OW 9712   0.031   5.117   0.307
 2938SOL    HW1 9713   7.013   5.194   0.359
 2938SOL    HW2 9714   0.048   5.040   0.368
 2939SOL     OW 9715   1.889   0.710   1.455
 2939SOL    HW1 9716   1.869   0.789   1.398
 2939SOL    HW2 9717   1.824   0.637   1.433
 2940SOL     OW 9718   6.166   5.178   5.200
 2940SOL    HW1 9719   6.091   5.113   5.197
 2940SOL    HW2 9720   6.156   5.245   5.127
 2941SOL     OW 9721   2.350   1.797   2.815
 2941SOL    HW1 9722   2.368   1.700   2.835
 2941SOL    HW2 9723   2.391   1.854   2.886
 2942SOL     OW 9724   3.861   2.813   0.937
 2942SOL    HW1 9725   3.832   2.773   0.850
 2942SOL    HW2 9726   3.872   2.740   1.005
 2943SOL     OW 9727   5.525   4.476   3.933
 2943SOL    HW1 9728   5.471   4.396   3.905
 2943SOL    HW2 9729   5.516   4.489   4.032
 2944SOL     OW 9730   2.706   6.333   4.023
 2944SOL    HW1 9731   2.795   6.365   3.989
 2944SOL    HW2 9732   2.651   6.301   3.947
 2945SOL     OW 9733   4.652   2.637   1.788
 2945SOL    HW1 9734   4.745   2.660   1.759
 2945SOL    HW2 9735   4.606   2.586   1.715
 2946SOL     OW 9736   2.366   4.164   5.795
 2946SOL    HW1 9737   2.435   4.090   5.792
 2946SOL    HW2 9738   2.282   4.132   5.753
 2947SOL     OW 9739   0.424   5.274   0.780
 2947SOL    HW1 9740   0.339   5.256   0.731
 2947SOL    HW2 9741   0.441   5.372   0.783
 2948SOL     OW 9742   6.835   4.224   3.616
 2948SOL    HW1 9743   6.907   4.273   3.567
 2948SOL    HW2 9744   6.876   4.177   3.695
 2949SOL     OW 9745   0.198   5.455   6.978
 2949SOL    HW1 9746   0.227   5.462   0.054
 2949SOL    HW2 9747   0.271   5.416   6.923
 2950SOL     OW 9748   6.172   6.349   4.109
 2950SOL    HW1 9749   6.085   6.359   4.156
 2950SOL    HW2 9750   6.233   6.291   4.163
 2951SOL     OW 9751   5.659   1.959   2.252
 2951SOL    HW1 9752   5.679   2.037   2.311
 2951SOL    HW2 9753   5.602   1.893   2.301
 2952SOL     OW 9754   0.515   6.879   5.431
 2952SOL    HW1 9755   0.451   6.825   5.376
 2952SOL    HW2 9756   0.608   6.866   5.397
 2953SOL     OW 9757   6.838   4.248   3.090
 2953SOL    HW1 9758   6.751   4.208   3.116
 2953SOL    HW2 9759   6.912   4.197   3.134
 2954SOL     OW 9760   0.049   4.606   0.302
 2954SOL    HW1 9761   6.975   4.615   0.267
 2954SOL    HW2 9762   0.113   4.645   0.236
 2955SOL     OW 9763   0.455   4.449   1.062
 2955SOL    HW1 9764   0.434   4.509   0.985
 2955SOL    HW2 9765   0.546   4.469   1.098
 2956SOL     OW 9766   6.445   5.527   3.595
 2956SOL    HW1 9767   6.532   5.497   3.635
 2956SOL    HW2 9768   6.464   5.572   3.507
 2957SOL     OW 9769   4.551   4.370   1.428
 2957SOL    HW1 9770   4.598   4.441   1.479
 2957SOL    HW2 9771   4.567   4.281   1.471
 2958SOL     OW 9772   2.318   4.738   3.315
 2958SOL    HW1 9773   2.380   4.665   3.344
 2958SOL    HW2 9774   2.230   4.727   3.361
 2959SOL     OW 9775   5.495   2.909   2.262
 2959SOL    HW1 9776   5.533   2.857   2.185
 2959SOL    HW2 9777   5.512   3.007   2.248
 2960SOL     OW 9778   3.740   6.735   6.589
 2960SOL    HW1 9779   3.807   6.786   6.644
 2960SOL    HW2 9780   3.763   6.744   6.492
 2961SOL     OW 9781   5.985   4.752   3.219
 2961SOL    HW1 9782   6.040   4.736   3.137
 2961SOL    HW2 9783   6.023   4.701   3.296
 2962SOL     OW 9784   4.891   6.233   3.505
 2962SOL    HW1 9785   4.940   6.205   3.588
 2962SOL    HW2 9786   4.955   6.238   3.428
 2963SOL     OW 9787   0.498   1.298   6.799
 2963SOL    HW1 9788   0.556   1.306   6.718
 2963SOL    HW2 9789   0.538   1.351   6.874
 2964SOL     OW 9790   0.807   1.907   5.902
 2964SOL    HW1 9791   0.883   1.902   5.837
 2964SOL    HW2 9792   0.726   1.864   5.862
 2965SOL     OW 9793   0.497   1.049   4.389
 2965SOL    HW1 9794   0.479   0.993   4.469
 2965SOL    HW2 9795   0.594   1.072   4.386
 2966SOL     OW 9796   4.742   5.742   3.397
 2966SOL    HW1 9797   4.835   5.721   3.367
 2966SOL    HW2 9798   4.744   5.815   3.466
 2967SOL     OW 9799   6.303   0.823   5.255
 2967SOL    HW1 9800   6.302   0.764   5.336
 2967SOL    HW2 9801   6.245   0.903   5.271
 2968SOL     OW 9802   0.945   2.515   0.733
 2968SOL    HW1 9803   0.912   2.502   0.826
 2968SOL    HW2 9804   1.011   2.443   0.711
 2969SOL     OW 9805   4.624   2.711   4.183
 2969SOL    HW1 9806   4.680   2.783   4.223
 2969SOL    HW2 9807   4.529   2.724   4.210
 2970SOL     OW 9808   2.608   3.169   5.391
 2970SOL    HW1 9809   2.588   3.098   5.459
 2970SOL    HW2 9810   2.567   3.145   5.304
 2971SOL     OW 9811   5.366   3.986   0.512
 2971SOL    HW1 9812   5.390   3.896   0.475
 2971SOL    HW2 9813   5.331   4.044   0.438
 2972SOL     OW 9814   5.736   5.116   6.320
 2972SOL    HW1 9815   5.738   5.016   6.329
 2972SOL    HW2 9816   5.650   5.151   6.358
 2973SOL     OW 9817   4.906   6.696   2.034
 2973SOL    HW1 9818   4.986   6.637   2.018
 2973SOL    HW2 9819   4.862   6.670   2.119
 2974SOL     OW 9820   6.530   4.652   3.647
 2974SOL    HW1 9821   6.616   4.701   3.641
 2974SOL    HW2 9822   6.490   4.643   3.555
 2975SOL     OW 9823   5.308   4.414   4.300
 2975SOL    HW1 9824   5.224   4.417   4.244
 2975SOL    HW2 9825   5.367   4.340   4.267
 2976SOL     OW 9826   5.352   1.784   2.530
 2976SOL    HW1 9827   5.357   1.884   2.537
 2976SOL    HW2 9828   5.335   1.745   2.621
 2977SOL     OW 9829   0.385   0.836   2.460
 2977SOL    HW1 9830   0.391   0.892   2.378
 2977SOL    HW2 9831   0.375   0.740   2.435
 2978SOL     OW 9832   3.955   4.312   6.953
 2978SOL    HW1 9833   3.969   4.225   6.906
 2978SOL    HW2 9834   4.044   4.355   6.968
 2979SOL     OW 9835   3.644   1.540   4.020
 2979SOL    HW1 9836   3.604   1.596   3.948
 2979SOL    HW2 9837   3.697   1.598   4.082
 2980SOL     OW 9838   2.433   5.536   5.891
 2980SOL    HW1 9839   2.356   5.474   5.873
 2980SOL    HW2 9840   2.503   5.487   5.942
 2981SOL     OW 9841   2.090   0.920   0.278
 2981SOL    HW1 9842   2.081   0.960   0.187
 2981SOL    HW2 9843   2.035   0.973   0.343
 2982SOL     OW 9844   2.217   6.232   1.640
 2982SOL    HW1 9845   2.317   6.224   1.646
 2982SOL    HW2 9846   2.175   6.167   1.704
 2983SOL     OW 9847   6.677   2.396   1.485
 2983SOL    HW1 9848   6.760   2.429   1.439
 2983SOL    HW2 9849   6.642   2.468   1.545
 2984SOL     OW 9850   5.485   5.606   5.998
 2984SOL    HW1 9851   5.406   5.577   6.051
 2984SOL    HW2 9852   5.550   5.531   5.990
 2985SOL     OW 9853   1.582   1.914   4.585
 2985SOL    HW1 9854   1.638   1.955   4.513
 2985SOL    HW2 9855   1.520   1.846   4.544
 2986SOL     OW 9856   3.612   3.948   2.558
 2986SOL    HW1 9857   3.548   3.885   2.516
 2986SOL    HW2 9858   3.646   3.909   2.644
 2987SOL     OW 9859   1.714   1.492   4.484
 2987SOL    HW1 9860   1.750   1.491   4.577
 2987SOL    HW2 9861   1.688   1.400   4.457
 2988SOL     OW 9862   1.575   6.679   2.025
 2988SOL    HW1 9863   1.567   6.705   1.928
 2988SOL    HW2 9864   1.618   6.589   2.032
 2989SOL     OW 9865   5.205   4.337   5.460
 2989SOL    HW1 9866   5.107   4.348   5.470
 2989SOL    HW2 9867   5.225   4.248   5.419
 2990SOL     OW 9868   4.567   2.123   4.097
 2990SOL    HW1 9869   4.481   2.173   4.098
 2990SOL    HW2 9870   4.639   2.178   4.140
 2991SOL     OW 9871   6.093   3.061   6.188
 2991SOL    HW1 9872   6.100   3.046   6.089
 2991SOL    HW2 9873   6.012   3.116   6.208
 2992SOL     OW 9874   1.931   4.868   4.877
 2992SOL    HW1 9875   1.875   4.950   4.887
 2992SOL    HW2 9876   1.965   4.839   4.966
 2993SOL     OW 9877   0.598   4.862   0.867
 2993SOL    HW1 9878   0.595   4.913   0.781
 2993SOL    HW2 9879   0.617   4.925   0.942
 2994SOL     OW 9880   3.826   5.992   0.518
 2994SOL    HW1 9881   3.893   5.922   0.547
 2994SOL    HW2 9882   3.875   6.075   0.491
 2995SOL     OW 9883   3.883   0.838   0.013
 2995SOL    HW1 9884   3.816   0.905   0.047
 2995SOL    HW2 9885   3.852   0.746   0.035
 2996SOL     OW 9886   0.828   2.171   5.055
 2996SOL    HW1 9887   0.753   2.196   4.994
 2996SOL    HW2 9888   0.872   2.254   5.089
 2997SOL     OW 9889   5.393   0.431   3.305
 2997SOL    HW1 9890   5.493   0.422   3.303
 2997SOL    HW2 9891   5.368   0.517   3.349
 2998SOL     OW 9892   4.663   6.370   3.538
 2998SOL    HW1 9893   4.750   6.321   3.529
 2998SOL    HW2 9894   4.615   6.337   3.620
 2999SOL     OW 9895   2.649   5.454   5.676
 2999SOL    HW1 9896   2.595   5.380   5.636
 2999SOL    HW2 9897   2.701   5.500   5.604
 3000SOL     OW 9898   2.705   4.013   6.462
 3000SOL    HW1 9899   2.627   3.965   6.422
 3000SOL    HW2 9900   2.752   4.065   6.391
 3001SOL     OW 9901   6.237   1.652   0.208
 3001SOL    HW1 9902   6.304   1.602   0.153
 3001SOL    HW2 9903   6.277   1.676   0.296
 3002SOL     OW 9904   3.246   1.767   0.264
 3002SOL    HW1 9905   3.287   1.855   0.242
 3002SOL    HW2 9906   3.300   1.722   0.335
 3003SOL     OW 9907   0.914   6.741   1.248
 3003SOL    HW1 9908   0.898   6.829   1.203
 3003SOL    HW2 9909   1.011   6.731   1.268
 3004SOL     OW 9910   1.337   4.624   2.789
 3004SOL    HW1 9911   1.256   4.566   2.797
 3004SOL    HW2 9912   1.373   4.618   2.696
 3005SOL     OW 9913   1.323   3.009   6.535
 3005SOL    HW1 9914   1.270   3.090   6.559
 3005SOL    HW2 9915   1.305   2.984   6.440
 3006SOL     OW 9916   5.400   1.656   5.015
 3006SOL    HW1 9917   5.433   1.696   5.101
 3006SOL    HW2 9918   5.412   1.557   5.017
 3007SOL     OW 9919   4.721   4.991   0.586
 3007SOL    HW1 9920   4.676   5.017   0.501
 3007SOL    HW2 9921   4.695   5.055   0.658
 3008SOL     OW 9922   3.146   2.017   6.178
 3008SOL    HW1 9923   3.145   2.028   6.079
 3008SOL    HW2 9924   3.238   1.995   6.208
 3009SOL     OW 9925   6.990   3.157   2.306
 3009SOL    HW1 9926   6.970   3.061   2.323
 3009SOL    HW2 9927   0.066   3.167   2.278
 3010SOL     OW 9928   2.751   5.643   4.113
 3010SOL    HW1 9929   2.737   5.741   4.095
 3010SOL    HW2 9930   2.826   5.610   4.057
 3011SOL     OW 9931   5.728   0.702   1.741
 3011SOL    HW1 9932   5.787   0.750   1.676
 3011SOL    HW2 9933   5.633   0.713   1.714
 3012SOL     OW 9934   2.311   3.105   0.243
 3012SOL    HW1 9935   2.224   3.113   0.193
 3012SOL    HW2 9936   2.374   3.175   0.211
 3013SOL     OW 9937   6.089   4.901   3.635
 3013SOL    HW1 9938   6.181   4.898   3.674
 3013SOL    HW2 9939   6.068   4.813   3.593
 3014SOL     OW 9940   4.679   2.131   6.299
 3014SOL    HW1 9941   4.697   2.229   6.290
 3014SOL    HW2 9942   4.758   2.079   6.266
 3015SOL     OW 9943   1.715   2.061   0.627
 3015SOL    HW1 9944   1.716   2.153   0.664
 3015SOL    HW2 9945   1.715   2.065   0.527
 3016SOL     OW 9946   3.518   0.040   4.125
 3016SOL    HW1 9947   3.463   0.043   4.209
 3016SOL    HW2 9948   3.521   6.966   4.091
 3017SOL     OW 9949   5.544   5.473   2.522
 3017SOL    HW1 9950   5.476   5.488   2.451
 3017SOL    HW2 9951   5.497   5.455   2.609
 3018SOL     OW 9952   3.471   0.369   6.709
 3018SOL    HW1 9953   3.398   0.329   6.764
 3018SOL    HW2 9954   3.554   0.378   6.765
 3019SOL     OW 9955   1.148   0.201   6.674
 3019SOL    HW1 9956   1.130   0.296   6.699
 3019SOL    HW2 9957   1.126   0.187   6.577
 3020SOL     OW 9958   3.934   3.147   0.551
 3020SOL    HW1 9959   4.029   3.161   0.520
 3020SOL    HW2 9960   3.918   3.201   0.633
 3021SOL     OW 9961   2.457   0.206   4.391
 3021SOL    HW1 9962   2.417   0.138   4.453
 3021SOL    HW2 9963   2.404   0.290   4.395
 3022SOL     OW 9964   4.420   5.110   5.185
 3022SOL    HW1 9965   4.433   5.112   5.086
 3022SOL    HW2 9966   4.451   5.197   5.224
 3023SOL     OW 9967   4.304   6.771   3.503
 3023SOL    HW1 9968   4.390   6.779   3.555
 3023SOL    HW2 9969   4.288   6.674   3.482
 3024SOL     OW 9970   5.972   6.454   5.328
 3024SOL    HW1 9971   5.904   6.526   5.342
 3024SOL    HW2 9972   5.934   6.366   5.355
 3025SOL     OW 9973   3.571   5.973   1.746
 3025SOL    HW1 9974   3.657   6.024   1.750
 3025SOL    HW2 9975   3.574   5.895   1.808
 3026SOL     OW 9976   0.462   1.270   6.026
 3026SOL    HW1 9977   0.543   1.230   6.068
 3026SOL    HW2 9978   0.384   1.258   6.086
 3027SOL     OW 9979   3.749   1.599   1.899
 3027SOL    HW1 9980   3.843   1.566   1.897
 3027SOL    HW2 9981   3.733   1.659   1.820
 3028SOL     OW 9982   1.200   4.366   6.041
 3028SOL    HW1 9983   1.205   4.438   6.110
 3028SOL    HW2 9984   1.269   4.296   6.061
 3029SOL     OW 9985   0.936   2.983   3.954
 3029SOL    HW1 9986   0.946   3.083   3.956
 3029SOL    HW2 9987   1.026   2.941   3.947
 3030SOL     OW 9988   1.484   3.939   1.014
 3030SOL    HW1 9989   1.527   3.947   1.104
 3030SOL    HW2 9990   1.555   3.922   0.945
 3031SOL     OW 9991   0.126   4.471   0.921
 3031SOL    HW1 9992   0.210   4.416   0.917
 3031SOL    HW2 9993   0.120   4.516   1.010
 3032SOL     OW 9994   1.972   6.642   1.230
 3032SOL    HW1 9995   1.992   6.605   1.139
 3032SOL    HW2 9996   1.922   6.728   1.220
 3033SOL     OW 9997   6.300   1.151   2.600
 3033SOL    HW1 9998   6.367   1.213   2.560
 3033SOL    HW2 9999   6.273   1.083   2.532
 3034SOL     OW10000   0.347   6.456   3.400
 3034SOL    HW110001   0.328   6.535   3.342
 3034SOL    HW210002   0.391   6.384   3.345
 3035SOL     OW10003   0.738   3.523   6.037
 3035SOL    HW110004   0.694   3.441   6.002
 3035SOL    HW210005   0.809   3.498   6.103
 3036SOL     OW10006   1.452   2.251   5.277
 3036SOL    HW110007   1.394   2.238   5.358
 3036SOL    HW210008   1.424   2.186   5.206
 3037SOL     OW10009   6.555   4.859   5.744
 3037SOL    HW110010   6.655   4.863   5.743
 3037SOL    HW210011   6.521   4.898   5.830
 3038SOL     OW10012   4.769   4.207   5.787
 3038SOL    HW110013   4.853   4.152   5.780
 3038SOL    HW210014   4.793   4.303   5.804
 3039SOL     OW10015   0.167   3.030   0.316
 3039SOL    HW110016   0.114   3.111   0.343
 3039SOL    HW210017   0.263   3.043   0.342
 3040SOL     OW10018   3.108   4.876   5.548
 3040SOL    HW110019   3.030   4.852   5.490
 3040SOL    HW210020   3.127   4.801   5.612
 3041SOL     OW10021   1.000   4.808   5.998
 3041SOL    HW110022   1.059   4.843   6.071
 3041SOL    HW210023   0.958   4.884   5.950
 3042SOL     OW10024   5.757   6.500   2.726
 3042SOL    HW110025   5.752   6.575   2.792
 3042SOL    HW210026   5.823   6.523   2.654
 3043SOL     OW10027   3.010   3.845   1.617
 3043SOL    HW110028   2.982   3.789   1.539
 3043SOL    HW210029   3.009   3.791   1.700
 3044SOL     OW10030   3.378   5.340   5.445
 3044SOL    HW110031   3.446   5.414   5.443
 3044SOL    HW210032   3.425   5.252   5.441
 3045SOL     OW10033   5.015   6.525   2.986
 3045SOL    HW110034   5.018   6.584   2.905
 3045SOL    HW210035   5.070   6.443   2.969
 3046SOL     OW10036   3.457   0.084   6.903
 3046SOL    HW110037   3.395   0.136   6.961
 3046SOL    HW210038   3.428   7.009   6.899
 3047SOL     OW10039   6.091   0.061   1.134
 3047SOL    HW110040   6.099   0.006   1.051
 3047SOL    HW210041   6.182   0.082   1.169
 3048SOL     OW10042   4.765   1.902   0.879
 3048SOL    HW110043   4.729   1.846   0.805
 3048SOL    HW210044   4.704   1.897   0.958
 3049SOL     OW10045   1.639   0.694   3.555
 3049SOL    HW110046   1.648   0.781   3.603
 3049SOL    HW210047   1.656   0.708   3.457
 3050SOL     OW10048   3.238   1.998   1.478
 3050SOL    HW110049   3.156   2.000   1.422
 3050SOL    HW210050   3.289   1.914   1.461
 3051SOL     OW10051   2.118   6.360   6.409
 3051SOL    HW110052   2.205   6.317   6.386
 3051SOL    HW210053   2.083   6.322   6.495
 3052SOL     OW10054   4.968   5.552   2.075
 3052SOL    HW110055   4.880   5.521   2.112
 3052SOL    HW210056   4.984   5.509   1.986
 3053SOL     OW10057   0.141   3.579   1.790
 3053SOL    HW110058   0.152   3.479   1.790
 3053SOL    HW210059   0.208   3.620   1.852
 3054SOL     OW10060   5.533   1.277   2.061
 3054SOL    HW110061   5.456   1.321   2.016
 3054SOL    HW210062   5.531   1.179   2.043
 3055SOL     OW10063   5.203   0.338   5.100
 3055SOL    HW110064   5.148   0.366   5.180
 3055SOL    HW210065   5.163   0.378   5.018
 3056SOL     OW10066   6.690   1.037   5.477
 3056SOL    HW110067   6.733   1.118   5.439
 3056SOL    HW210068   6.693   0.963   5.410
 3057SOL     OW10069   4.815   5.682   4.455
 3057SOL    HW110070   4.849   5.776   4.451
 3057SOL    HW210071   4.837   5.642   4.544
 3058SOL     OW10072   6.050   4.354   0.973
 3058SOL    HW110073   6.004   4.327   0.889
 3058SOL    HW210074   6.148   4.335   0.965
 3059SOL     OW10075   2.671   1.302   3.383
 3059SOL    HW110076   2.764   1.287   3.417
 3059SOL    HW210077   2.659   1.253   3.296
 3060SOL     OW10078   1.965   5.146   0.354
 3060SOL    HW110079   2.032   5.109   0.418
 3060SOL    HW210080   2.012   5.194   0.280
 3061SOL     OW10081   6.264   5.641   5.933
 3061SOL    HW110082   6.202   5.711   5.968
 3061SOL    HW210083   6.210   5.565   5.894
 3062SOL     OW10084   1.927   6.226   0.927
 3062SOL    HW110085   2.009   6.173   0.904
 3062SOL    HW210086   1.922   6.237   1.026
 3063SOL     OW10087   1.417   4.653   1.382
 3063SOL    HW110088   1.440   4.749   1.363
 3063SOL    HW210089   1.490   4.611   1.436
 3064SOL     OW10090   4.427   3.522   0.481
 3064SOL    HW110091   4.429   3.480   0.390
 3064SOL    HW210092   4.444   3.620   0.474
 3065SOL     OW10093   1.236   2.157   6.538
 3065SOL    HW110094   1.267   2.118   6.625
 3065SOL    HW210095   1.154   2.109   6.508
 3066SOL     OW10096   5.440   5.481   7.017
 3066SOL    HW110097   5.344   5.468   0.022
 3066SOL    HW210098   5.496   5.410   0.041
 3067SOL     OW10099   2.861   0.809   6.946
 3067SOL    HW110100   2.839   0.902   6.976
 3067SOL    HW210101   2.811   0.743   7.003
 3068SOL     OW10102   6.836   6.780   1.483
 3068SOL    HW110103   6.896   6.707   1.451
 3068SOL    HW210104   6.880   6.868   1.471
 3069SOL     OW10105   6.404   6.638   3.103
 3069SOL    HW110106   6.413   6.666   3.007
 3069SOL    HW210107   6.344   6.701   3.151
 3070SOL     OW10108   2.135   0.831   6.779
 3070SOL    HW110109   2.131   0.875   6.868
 3070SOL    HW210110   2.044   0.795   6.756
 3071SOL     OW10111   6.392   5.833   3.888
 3071SOL    HW110112   6.474   5.889   3.875
 3071SOL    HW210113   6.415   5.753   3.943
 3072SOL     OW10114   2.408   5.556   6.285
 3072SOL    HW110115   2.465   5.502   6.224
 3072SOL    HW210116   2.314   5.555   6.253
 3073SOL     OW10117   6.947   4.510   2.467
 3073SOL    HW110118   6.885   4.467   2.402
 3073SOL    HW210119   6.915   4.603   2.488
 3074SOL     OW10120   0.323   4.238   0.707
 3074SOL    HW110121   0.422   4.253   0.696
 3074SOL    HW210122   0.298   4.151   0.664
 3075SOL     OW10123   3.124   5.269   3.510
 3075SOL    HW110124   3.058   5.198   3.485
 3075SOL    HW210125   3.213   5.227   3.527
 3076SOL     OW10126   0.122   1.567   4.160
 3076SOL    HW110127   0.105   1.594   4.066
 3076SOL    HW210128   0.196   1.499   4.162
 3077SOL     OW10129   5.953   4.121   1.999
 3077SOL    HW110130   5.867   4.095   2.041
 3077SOL    HW210131   5.937   4.148   1.904
 3078SOL     OW10132   6.530   3.232   2.411
 3078SOL    HW110133   6.539   3.331   2.408
 3078SOL    HW210134   6.450   3.204   2.358
 3079SOL     OW10135   3.266   2.080   3.179
 3079SOL    HW110136   3.194   2.150   3.172
 3079SOL    HW210137   3.298   2.056   3.087
 3080SOL     OW10138   5.442   4.055   1.960
 3080SOL    HW110139   5.541   4.070   1.954
 3080SOL    HW210140   5.407   4.103   2.041
 3081SOL     OW10141   0.263   4.631   5.755
 3081SOL    HW110142   0.300   4.561   5.817
 3081SOL    HW210143   0.240   4.589   5.667
 3082SOL     OW10144   1.629   5.746   4.167
 3082SOL    HW110145   1.724   5.777   4.169
 3082SOL    HW210146   1.568   5.820   4.197
 3083SOL     OW10147   3.320   6.356   2.981
 3083SOL    HW110148   3.243   6.322   3.034
 3083SOL    HW210149   3.287   6.418   2.910
 3084SOL     OW10150   6.513   4.732   3.177
 3084SOL    HW110151   6.609   4.758   3.165
 3084SOL    HW210152   6.479   4.691   3.092
 3085SOL     OW10153   5.756   4.523   0.710
 3085SOL    HW110154   5.842   4.547   0.665
 3085SOL    HW210155   5.772   4.451   0.777
 3086SOL     OW10156   4.924   1.090   6.611
 3086SOL    HW110157   4.829   1.094   6.581
 3086SOL    HW210158   4.929   1.052   6.703
 3087SOL     OW10159   3.103   6.271   3.144
 3087SOL    HW110160   3.043   6.191   3.142
 3087SOL    HW210161   3.158   6.269   3.227
 3088SOL     OW10162   1.802   3.321   5.098
 3088SOL    HW110163   1.833   3.307   5.192
 3088SOL    HW210164   1.751   3.241   5.067
 3089SOL     OW10165   3.973   2.201   4.590
 3089SOL    HW110166   4.034   2.254   4.650
 3089SOL    HW210167   3.986   2.230   4.495
 3090SOL     OW10168   2.137   0.994   2.063
 3090SOL    HW110169   2.209   1.061   2.078
 3090SOL    HW210170   2.171   0.920   2.004
 3091SOL     OW10171   1.203   1.295   0.485
 3091SOL    HW110172   1.159   1.376   0.522
 3091SOL    HW210173   1.145   1.215   0.500
 3092SOL     OW10174   5.372   0.120   0.640
 3092SOL    HW110175   5.419   0.058   0.703
 3092SOL    HW210176   5.274   0.102   0.641
 3093SOL     OW10177   5.348   6.107   6.278
 3093SOL    HW110178   5.266   6.140   6.232
 3093SOL    HW210179   5.415   6.181   6.284
 3094SOL     OW10180   2.621   0.282   4.045
 3094SOL    HW110181   2.559   0.230   4.103
 3094SOL    HW210182   2.630   0.237   3.957
 3095SOL     OW10183   2.514   3.944   5.814
 3095SOL    HW110184   2.496   3.849   5.841
 3095SOL    HW210185   2.539   3.947   5.717
 3096SOL     OW10186   1.254   4.985   5.434
 3096SOL    HW110187   1.182   4.989   5.503
 3096SOL    HW210188   1.254   4.896   5.389
 3097SOL     OW10189   5.425   3.295   6.969
 3097SOL    HW110190   5.380   3.293   6.880
 3097SOL    HW210191   5.367   3.342   0.015
 3098SOL     OW10192   1.699   3.583   1.770
 3098SOL    HW110193   1.791   3.591   1.733
 3098SOL    HW210194   1.643   3.659   1.738
 3099SOL     OW10195   1.083   6.360   4.012
 3099SOL    HW110196   1.137   6.409   4.081
 3099SOL    HW210197   1.142   6.294   3.965
 3100SOL     OW10198   6.444   6.319   3.411
 3100SOL    HW110199   6.417   6.295   3.318
 3100SOL    HW210200   6.534   6.279   3.431
 3101SOL     OW10201   4.956   5.658   6.361
 3101SOL    HW110202   4.969   5.593   6.286
 3101SOL    HW210203   4.975   5.750   6.328
 3102SOL     OW10204   6.560   6.927   1.501
 3102SOL    HW110205   6.477   6.935   1.446
 3102SOL    HW210206   6.631   6.880   1.448
 3103SOL     OW10207   4.272   0.983   1.191
 3103SOL    HW110208   4.239   0.953   1.280
 3103SOL    HW210209   4.193   1.007   1.133
 3104SOL     OW10210   3.775   0.572   5.862
 3104SOL    HW110211   3.870   0.590   5.837
 3104SOL    HW210212   3.772   0.500   5.931
 3105SOL     OW10213   4.754   3.627   1.440
 3105SOL    HW110214   4.780   3.627   1.343
 3105SOL    HW210215   4.803   3.553   1.487
 3106SOL     OW10216   5.456   6.326   5.386
 3106SOL    HW110217   5.376   6.310   5.328
 3106SOL    HW210218   5.433   6.393   5.457
 3107SOL     OW10219   3.864   1.284   4.676
 3107SOL    HW110220   3.869   1.253   4.581
 3107SOL    HW210221   3.931   1.235   4.731
 3108SOL     OW10222   1.813   5.101   4.900
 3108SOL    HW110223   1.753   5.163   4.949
 3108SOL    HW210224   1.848   5.146   4.818
 3109SOL     OW10225   6.307   6.863   4.488
 3109SOL    HW110226   6.238   6.798   4.519
 3109SOL    HW210227   6.393   6.814   4.470
 3110SOL     OW10228   1.877   4.336   3.551
 3110SOL    HW110229   1.973   4.363   3.544
 3110SOL    HW210230   1.848   4.343   3.647
 3111SOL     OW10231   0.546   4.864   3.607
 3111SOL    HW110232   0.477   4.890   3.675
 3111SOL    HW210233   0.510   4.790   3.550
 3112SOL     OW10234   2.861   3.300   0.609
 3112SOL    HW110235   2.872   3.201   0.618
 3112SOL    HW210236   2.764   3.323   0.611
 3113SOL     OW10237   3.036   5.948   2.547
 3113SOL    HW110238   3.113   6.010   2.530
 3113SOL    HW210239   2.967   5.997   2.600
 3114SOL     OW10240   3.800   1.779   0.303
 3114SOL    HW110241   3.720   1.724   0.278
 3114SOL    HW210242   3.846   1.810   0.220
 3115SOL     OW10243   4.069   4.615   5.491
 3115SOL    HW110244   3.973   4.585   5.489
 3115SOL    HW210245   4.128   4.534   5.502
 3116SOL     OW10246   6.765   1.626   0.107
 3116SOL    HW110247   6.786   1.573   0.025
 3116SOL    HW210248   6.733   1.717   0.082
 3117SOL     OW10249   4.274   3.420   5.485
 3117SOL    HW110250   4.204   3.367   5.437
 3117SOL    HW210251   4.324   3.477   5.420
 3118SOL     OW10252   0.869   5.756   2.294
 3118SOL    HW110253   0.902   5.765   2.388
 3118SOL    HW210254   0.931   5.805   2.232
 3119SOL     OW10255   2.224   2.348   6.295
 3119SOL    HW110256   2.318   2.325   6.269
 3119SOL    HW210257   2.182   2.403   6.223
 3120SOL     OW10258   2.507   0.572   5.659
 3120SOL    HW110259   2.416   0.595   5.693
 3120SOL    HW210260   2.568   0.553   5.736
 3121SOL     OW10261   6.012   1.807   4.841
 3121SOL    HW110262   6.060   1.737   4.895
 3121SOL    HW210263   6.016   1.783   4.744
 3122SOL     OW10264   4.837   4.868   4.933
 3122SOL    HW110265   4.790   4.882   4.846
 3122SOL    HW210266   4.770   4.870   5.008
 3123SOL     OW10267   1.836   1.383   2.824
 3123SOL    HW110268   1.906   1.451   2.846
 3123SOL    HW210269   1.769   1.380   2.898
 3124SOL     OW10270   4.645   0.021   4.027
 3124SOL    HW110271   4.734   0.003   4.070
 3124SOL    HW210272   4.660   0.058   3.936
 3125SOL     OW10273   1.624   3.009   5.292
 3125SOL    HW110274   1.585   3.090   5.247
 3125SOL    HW210275   1.553   2.941   5.307
 3126SOL     OW10276   5.282   4.618   5.489
 3126SOL    HW110277   5.318   4.612   5.582
 3126SOL    HW210278   5.271   4.526   5.451
 3127SOL     OW10279   2.073   1.751   6.073
 3127SOL    HW110280   2.169   1.727   6.059
 3127SOL    HW210281   2.030   1.771   5.985
 3128SOL     OW10282   3.287   0.820   0.383
 3128SOL    HW110283   3.344   0.750   0.425
 3128SOL    HW210284   3.281   0.804   0.284
 3129SOL     OW10285   5.375   3.440   0.912
 3129SOL    HW110286   5.296   3.383   0.886
 3129SOL    HW210287   5.458   3.385   0.907
 3130SOL     OW10288   2.132   4.649   1.464
 3130SOL    HW110289   2.151   4.745   1.442
 3130SOL    HW210290   2.196   4.590   1.414
 3131SOL     OW10291   0.567   3.820   2.308
 3131SOL    HW110292   0.626   3.791   2.233
 3131SOL    HW210293   0.557   3.746   2.375
 3132SOL     OW10294   5.074   5.293   6.852
 3132SOL    HW110295   5.101   5.334   6.939
 3132SOL    HW210296   5.152   5.290   6.790
 3133SOL     OW10297   3.813   1.051   3.274
 3133SOL    HW110298   3.781   1.090   3.360
 3133SOL    HW210299   3.741   0.993   3.234
 3134SOL     OW10300   4.296   4.754   0.919
 3134SOL    HW110301   4.318   4.713   0.830
 3134SOL    HW210302   4.279   4.681   0.986
 3135SOL     OW10303   5.150   0.212   5.680
 3135SOL    HW110304   5.222   0.225   5.613
 3135SOL    HW210305   5.188   0.216   5.772
 3136SOL     OW10306   5.610   6.832   2.185
 3136SOL    HW110307   5.708   6.813   2.175
 3136SOL    HW210308   5.559   6.784   2.114
 3137SOL     OW10309   6.872   6.568   3.803
 3137SOL    HW110310   6.898   6.650   3.854
 3137SOL    HW210311   6.778   6.543   3.827
 3138SOL     OW10312   5.645   5.365   3.402
 3138SOL    HW110313   5.579   5.396   3.334
 3138SOL    HW210314   5.737   5.396   3.377
 3139SOL     OW10315   3.684   5.198   1.399
 3139SOL    HW110316   3.622   5.146   1.458
 3139SOL    HW210317   3.748   5.250   1.456
 3140SOL     OW10318   6.458   5.829   5.516
 3140SOL    HW110319   6.433   5.733   5.508
 3140SOL    HW210320   6.392   5.885   5.466
 3141SOL     OW10321   0.610   0.032   6.545
 3141SOL    HW110322   0.572   6.962   6.567
 3141SOL    HW210323   0.709   0.030   6.556
 3142SOL     OW10324   3.004   0.209   2.544
 3142SOL    HW110325   3.001   0.125   2.598
 3142SOL    HW210326   2.942   0.277   2.584
 3143SOL     OW10327   5.859   0.830   6.999
 3143SOL    HW110328   5.813   0.820   0.067
 3143SOL    HW210329   5.921   0.908   7.001
 3144SOL     OW10330   4.319   3.719   0.839
 3144SOL    HW110331   4.278   3.628   0.830
 3144SOL    HW210332   4.254   3.780   0.885
 3145SOL     OW10333   1.937   6.733   2.453
 3145SOL    HW110334   1.842   6.763   2.442
 3145SOL    HW210335   1.943   6.635   2.436
 3146SOL     OW10336   1.181   1.137   4.729
 3146SOL    HW110337   1.086   1.155   4.701
 3146SOL    HW210338   1.199   1.181   4.817
 3147SOL     OW10339   2.847   5.089   0.285
 3147SOL    HW110340   2.903   5.034   0.222
 3147SOL    HW210341   2.763   5.040   0.305
 3148SOL     OW10342   6.930   6.854   4.278
 3148SOL    HW110343   6.870   6.773   4.275
 3148SOL    HW210344   0.003   6.828   4.253
 3149SOL     OW10345   2.924   1.083   6.540
 3149SOL    HW110346   2.914   1.091   6.639
 3149SOL    HW210347   2.838   1.109   6.495
 3150SOL     OW10348   0.104   5.971   4.952
 3150SOL    HW110349   0.134   5.888   4.998
 3150SOL    HW210350   0.008   5.962   4.927
 3151SOL     OW10351   0.346   1.318   5.542
 3151SOL    HW110352   0.294   1.246   5.586
 3151SOL    HW210353   0.312   1.333   5.449
 3152SOL     OW10354   0.628   4.302   0.480
 3152SOL    HW110355   0.669   4.240   0.413
 3152SOL    HW210356   0.647   4.268   0.572
 3153SOL     OW10357   6.227   5.689   0.636
 3153SOL    HW110358   6.312   5.742   0.640
 3153SOL    HW210359   6.248   5.593   0.617
 3154SOL     OW10360   6.845   1.376   0.513
 3154SOL    HW110361   6.768   1.346   0.456
 3154SOL    HW210362   6.890   1.454   0.469
 3155SOL     OW10363   6.384   5.103   0.347
 3155SOL    HW110364   6.478   5.127   0.324
 3155SOL    HW210365   6.321   5.147   0.282
 3156SOL     OW10366   3.401   3.785   1.876
 3156SOL    HW110367   3.465   3.714   1.848
 3156SOL    HW210368   3.424   3.870   1.829
 3157SOL     OW10369   2.054   1.772   5.446
 3157SOL    HW110370   2.037   1.697   5.381
 3157SOL    HW210371   2.024   1.858   5.405
 3158SOL     OW10372   2.429   1.096   4.286
 3158SOL    HW110373   2.385   1.124   4.372
 3158SOL    HW210374   2.407   1.000   4.267
 3159SOL     OW10375   5.698   0.004   6.391
 3159SOL    HW110376   5.786   6.993   6.427
 3159SOL    HW210377   5.627   6.960   6.420
 3160SOL     OW10378   1.862   5.798   5.903
 3160SOL    HW110379   1.863   5.875   5.968
 3160SOL    HW210380   1.949   5.796   5.853
 3161SOL     OW10381   2.338   2.149   2.412
 3161SOL    HW110382   2.429   2.131   2.375
 3161SOL    HW210383   2.278   2.182   2.340
 3162SOL     OW10384   1.005   5.748   1.821
 3162SOL    HW110385   0.945   5.710   1.751
 3162SOL    HW210386   1.080   5.798   1.778
 3163SOL     OW10387   4.090   3.742   6.454
 3163SOL    HW110388   4.041   3.672   6.505
 3163SOL    HW210389   4.161   3.699   6.398
 3164SOL     OW10390   3.402   5.622   1.597
 3164SOL    HW110391   3.342   5.544   1.581
 3164SOL    HW210392   3.430   5.623   1.693
 3165SOL     OW10393   2.169   5.514   1.253
 3165SOL    HW110394   2.176   5.453   1.173
 3165SOL    HW210395   2.230   5.592   1.241
 3166SOL     OW10396   4.374   2.128   3.494
 3166SOL    HW110397   4.341   2.219   3.522
 3166SOL    HW210398   4.468   2.136   3.461
 3167SOL     OW10399   5.377   4.160   0.964
 3167SOL    HW110400   5.402   4.222   1.039
 3167SOL    HW210401   5.366   4.067   0.999
 3168SOL     OW10402   5.208   3.062   6.928
 3168SOL    HW110403   5.281   3.098   6.870
 3168SOL    HW210404   5.234   3.069   0.004
 3169SOL     OW10405   2.282   4.134   3.758
 3169SOL    HW110406   2.338   4.146   3.675
 3169SOL    HW210407   2.264   4.037   3.772
 3170SOL     OW10408   3.993   5.819   1.946
 3170SOL    HW110409   3.909   5.783   1.907
 3170SOL    HW210410   3.985   5.823   2.045
 3171SOL     OW10411   6.740   1.943   2.056
 3171SOL    HW110412   6.742   1.931   2.155
 3171SOL    HW210413   6.725   2.039   2.034
 3172SOL     OW10414   6.870   5.467   6.598
 3172SOL    HW110415   6.934   5.440   6.670
 3172SOL    HW210416   6.831   5.385   6.555
 3173SOL     OW10417   3.119   2.227   6.977
 3173SOL    HW110418   3.097   2.139   7.019
 3173SOL    HW210419   3.215   2.227   6.949
 3174SOL     OW10420   2.890   2.523   6.611
 3174SOL    HW110421   2.985   2.541   6.586
 3174SOL    HW210422   2.831   2.594   6.573
 3175SOL     OW10423   5.320   1.760   1.733
 3175SOL    HW110424   5.334   1.815   1.650
 3175SOL    HW210425   5.397   1.774   1.795
 3176SOL     OW10426   0.956   4.154   5.212
 3176SOL    HW110427   0.979   4.160   5.309
 3176SOL    HW210428   0.966   4.060   5.181
 3177SOL     OW10429   5.317   4.181   4.509
 3177SOL    HW110430   5.250   4.252   4.531
 3177SOL    HW210431   5.269   4.096   4.486
 3178SOL     OW10432   6.326   2.459   0.468
 3178SOL    HW110433   6.357   2.459   0.563
 3178SOL    HW210434   6.368   2.382   0.419
 3179SOL     OW10435   1.245   2.369   2.017
 3179SOL    HW110436   1.154   2.412   2.021
 3179SOL    HW210437   1.268   2.351   1.921
 3180SOL     OW10438   5.671   6.961   0.566
 3180SOL    HW110439   5.696   6.948   0.471
 3180SOL    HW210440   5.714   6.891   0.622
 3181SOL     OW10441   6.432   2.159   3.557
 3181SOL    HW110442   6.449   2.168   3.459
 3181SOL    HW210443   6.335   2.140   3.572
 3182SOL     OW10444   2.499   0.332   6.644
 3182SOL    HW110445   2.468   0.368   6.556
 3182SOL    HW210446   2.429   0.346   6.713
 3183SOL     OW10447   4.709   4.317   2.158
 3183SOL    HW110448   4.640   4.293   2.090
 3183SOL    HW210449   4.664   4.331   2.247
 3184SOL     OW10450   0.125   2.798   3.139
 3184SOL    HW110451   0.125   2.704   3.174
 3184SOL    HW210452   0.219   2.829   3.127
 3185SOL     OW10453   3.981   6.035   6.387
 3185SOL    HW110454   3.946   5.949   6.423
 3185SOL    HW210455   3.980   6.032   6.287
 3186SOL     OW10456   3.117   2.221   0.645
 3186SOL    HW110457   3.203   2.270   0.661
 3186SOL    HW210458   3.051   2.246   0.715
 3187SOL     OW10459   4.411   5.437   0.913
 3187SOL    HW110460   4.337   5.416   0.978
 3187SOL    HW210461   4.374   5.491   0.838
 3188SOL     OW10462   1.233   6.609   4.254
 3188SOL    HW110463   1.294   6.544   4.208
 3188SOL    HW210464   1.281   6.650   4.332
 3189SOL     OW10465   1.407   2.407   1.336
 3189SOL    HW110466   1.474   2.421   1.263
 3189SOL    HW210467   1.449   2.354   1.410
 3190SOL     OW10468   6.694   5.317   0.604
 3190SOL    HW110469   6.744   5.384   0.659
 3190SOL    HW210470   6.678   5.235   0.659
 3191SOL     OW10471   4.726   5.492   1.703
 3191SOL    HW110472   4.711   5.584   1.739
 3191SOL    HW210473   4.681   5.425   1.762
 3192SOL     OW10474   0.829   3.965   1.729
 3192SOL    HW110475   0.870   4.044   1.775
 3192SOL    HW210476   0.780   3.995   1.647
 3193SOL     OW10477   3.980   1.285   5.798
 3193SOL    HW110478   3.895   1.238   5.822
 3193SOL    HW210479   4.024   1.318   5.881
 3194SOL     OW10480   1.841   2.362   5.796
 3194SOL    HW110481   1.898   2.438   5.826
 3194SOL    HW210482   1.816   2.305   5.875
 3195SOL     OW10483   1.715   1.133   2.749
 3195SOL    HW110484   1.757   1.213   2.792
 3195SOL    HW210485   1.646   1.164   2.684
 3196SOL     OW10486   0.085   1.181   6.864
 3196SOL    HW110487   0.169   1.154   6.817
 3196SOL    HW210488   0.015   1.203   6.797
 3197SOL     OW10489   2.966   6.537   4.752
 3197SOL    HW110490   3.053   6.582   4.772
 3197SOL    HW210491   2.964   6.508   4.657
 3198SOL     OW10492   6.237   3.382   3.277
 3198SOL    HW110493   6.216   3.463   3.223
 3198SOL    HW210494   6.240   3.302   3.217
 3199SOL     OW10495   4.850   3.869   2.702
 3199SOL    HW110496   4.827   3.864   2.604
 3199SOL    HW210497   4.933   3.923   2.714
 3200SOL     OW10498   5.985   3.284   2.710
 3200SOL    HW110499   6.011   3.260   2.803
 3200SOL    HW210500   5.965   3.381   2.704
 3201SOL     OW10501   6.828   4.755   3.611
 3201SOL    HW110502   6.868   4.754   3.520
 3201SOL    HW210503   6.866   4.680   3.665
 3202SOL     OW10504   1.235   5.002   1.248
 3202SOL    HW110505   1.207   4.972   1.156
 3202SOL    HW210506   1.335   5.000   1.254
 3203SOL     OW10507   5.707   1.694   0.572
 3203SOL    HW110508   5.668   1.604   0.555
 3203SOL    HW210509   5.803   1.685   0.599
 3204SOL     OW10510   4.193   7.017   3.437
 3204SOL    HW110511   4.229   6.926   3.458
 3204SOL    HW210512   4.132   7.011   3.358
 3205SOL     OW10513   5.101   3.050   6.342
 3205SOL    HW110514   5.122   3.142   6.376
 3205SOL    HW210515   5.006   3.027   6.363
 3206SOL     OW10516   1.773   4.615   0.880
 3206SOL    HW110517   1.787   4.564   0.965
 3206SOL    HW210518   1.860   4.649   0.846
 3207SOL     OW10519   1.280   0.826   6.614
 3207SOL    HW110520   1.251   0.754   6.678
 3207SOL    HW210521   1.351   0.790   6.554
 3208SOL     OW10522   4.806   6.432   6.363
 3208SOL    HW110523   4.757   6.513   6.330
 3208SOL    HW210524   4.901   6.436   6.333
 3209SOL     OW10525   3.531   5.293   4.110
 3209SOL    HW110526   3.454   5.320   4.167
 3209SOL    HW210527   3.527   5.194   4.093
 3210SOL     OW10528   1.336   4.601   1.117
 3210SOL    HW110529   1.330   4.634   1.211
 3210SOL    HW210530   1.410   4.533   1.110
 3211SOL     OW10531   1.584   4.037   0.694
 3211SOL    HW110532   1.490   4.003   0.693
 3211SOL    HW210533   1.647   3.962   0.715
 3212SOL     OW10534   2.714   6.725   1.814
 3212SOL    HW110535   2.694   6.787   1.889
 3212SOL    HW210536   2.806   6.742   1.780
 3213SOL     OW10537   1.504   6.985   0.240
 3213SOL    HW110538   1.518   0.062   0.218
 3213SOL    HW210539   1.479   6.936   0.156
 3214SOL     OW10540   4.518   5.785   1.324
 3214SOL    HW110541   4.454   5.716   1.289
 3214SOL    HW210542   4.506   5.870   1.272
 3215SOL     OW10543   0.258   3.983   0.870
 3215SOL    HW110544   0.337   4.023   0.916
 3215SOL    HW210545   0.263   3.883   0.874
 3216SOL     OW10546   5.677   5.520   0.490
 3216SOL    HW110547   5.608   5.449   0.504
 3216SOL    HW210548   5.659   5.568   0.404
 3217SOL     OW10549   0.089   5.447   2.713
 3217SOL    HW110550   0.189   5.443   2.703
 3217SOL    HW210551   0.063   5.534   2.754
 3218SOL     OW10552   5.132   2.625   2.838
 3218SOL    HW110553   5.181   2.709   2.819
 3218SOL    HW210554   5.122   2.613   2.937
 3219SOL     OW10555   0.526   1.856   3.580
 3219SOL    HW110556   0.479   1.793   3.641
 3219SOL    HW210557   0.488   1.948   3.591
 3220SOL     OW10558   0.138   5.069   5.891
 3220SOL    HW110559   0.163   5.124   5.810
 3220SOL    HW210560   0.053   5.103   5.929
 3221SOL     OW10561   3.728   0.203   1.957
 3221SOL    HW110562   3.663   0.184   2.030
 3221SOL    HW210563   3.696   0.280   1.902
 3222SOL     OW10564   2.744   1.519   2.676
 3222SOL    HW110565   2.732   1.443   2.613
 3222SOL    HW210566   2.699   1.601   2.639
 3223SOL     OW10567   2.720   6.560   6.400
 3223SOL    HW110568   2.653   6.633   6.382
 3223SOL    HW210569   2.673   6.480   6.437
 3224SOL     OW10570   4.740   2.668   5.096
 3224SOL    HW110571   4.739   2.582   5.045
 3224SOL    HW210572   4.833   2.704   5.099
 3225SOL     OW10573   4.996   2.607   5.821
 3225SOL    HW110574   5.042   2.672   5.880
 3225SOL    HW210575   4.966   2.528   5.875
 3226SOL     OW10576   1.850   1.028   2.067
 3226SOL    HW110577   1.943   1.038   2.030
 3226SOL    HW210578   1.846   0.947   2.125
 3227SOL     OW10579   2.999   3.352   6.964
 3227SOL    HW110580   2.911   3.317   6.995
 3227SOL    HW210581   2.987   3.398   6.876
 3228SOL     OW10582   6.816   4.023   1.224
 3228SOL    HW110583   6.728   4.056   1.259
 3228SOL    HW210584   6.800   3.945   1.164
 3229SOL     OW10585   3.816   0.407   5.364
 3229SOL    HW110586   3.767   0.444   5.443
 3229SOL    HW210587   3.766   0.329   5.327
 3230SOL     OW10588   2.045   4.552   5.394
 3230SOL    HW110589   2.035   4.560   5.494
 3230SOL    HW210590   2.142   4.544   5.371
 3231SOL     OW10591   2.705   0.336   1.760
 3231SOL    HW110592   2.611   0.362   1.735
 3231SOL    HW210593   2.769   0.396   1.711
 3232SOL     OW10594   4.470   6.709   4.538
 3232SOL    HW110595   4.505   6.757   4.618
 3232SOL    HW210596   4.547   6.682   4.479
 3233SOL     OW10597   6.405   2.381   0.705
 3233SOL    HW110598   6.439   2.287   0.703
 3233SOL    HW210599   6.461   2.435   0.767
 3234SOL     OW10600   0.654   2.596   0.013
 3234SOL    HW110601   0.722   2.669   0.014
 3234SOL    HW210602   0.564   2.633   0.036
 3235SOL     OW10603   0.070   0.221   1.409
 3235SOL    HW110604   0.089   0.242   1.505
 3235SOL    HW210605   0.153   0.233   1.355
 3236SOL     OW10606   0.940   3.922   0.420
 3236SOL    HW110607   0.929   3.835   0.374
 3236SOL    HW210608   0.882   3.991   0.376
 3237SOL     OW10609   6.180   1.570   2.301
 3237SOL    HW110610   6.186   1.541   2.397
 3237SOL    HW210611   6.184   1.670   2.297
 3238SOL     OW10612   6.775   5.466   0.235
 3238SOL    HW110613   6.819   5.472   0.145
 3238SOL    HW210614   6.836   5.504   0.304
 3239SOL     OW10615   0.047   1.501   2.593
 3239SOL    HW110616   7.011   1.560   2.534
 3239SOL    HW210617   7.007   1.457   2.660
 3240SOL     OW10618   6.553   6.392   6.575
 3240SOL    HW110619   6.545   6.455   6.498
 3240SOL    HW210620   6.588   6.304   6.542
 3241SOL     OW10621   4.649   0.589   5.565
 3241SOL    HW110622   4.686   0.643   5.490
 3241SOL    HW210623   4.719   0.579   5.636
 3242SOL     OW10624   4.733   4.793   6.665
 3242SOL    HW110625   4.822   4.828   6.697
 3242SOL    HW210626   4.741   4.765   6.569
 3243SOL     OW10627   4.333   4.801   0.157
 3243SOL    HW110628   4.407   4.735   0.145
 3243SOL    HW210629   4.344   4.876   0.091
 3244SOL     OW10630   4.953   6.082   0.240
 3244SOL    HW110631   4.979   6.116   0.150
 3244SOL    HW210632   4.998   5.995   0.257
 3245SOL     OW10633   5.344   3.537   4.268
 3245SOL    HW110634   5.302   3.446   4.266
 3245SOL    HW210635   5.440   3.529   4.298
 3246SOL     OW10636   6.689   0.442   3.096
 3246SOL    HW110637   6.626   0.518   3.111
 3246SOL    HW210638   6.745   0.460   3.015
 3247SOL     OW10639   5.948   4.407   2.528
 3247SOL    HW110640   5.941   4.416   2.628
 3247SOL    HW210641   5.964   4.312   2.504
 3248SOL     OW10642   5.445   3.102   1.813
 3248SOL    HW110643   5.418   3.163   1.887
 3248SOL    HW210644   5.365   3.077   1.759
 3249SOL     OW10645   3.683   4.083   3.884
 3249SOL    HW110646   3.672   4.127   3.973
 3249SOL    HW210647   3.774   4.041   3.878
 3250SOL     OW10648   6.076   0.395   2.694
 3250SOL    HW110649   6.093   0.296   2.703
 3250SOL    HW210650   5.982   0.410   2.664
 3251SOL     OW10651   3.645   0.823   3.581
 3251SOL    HW110652   3.646   0.724   3.564
 3251SOL    HW210653   3.730   0.849   3.627
 3252SOL     OW10654   2.834   1.114   2.388
 3252SOL    HW110655   2.905   1.107   2.318
 3252SOL    HW210656   2.776   1.033   2.385
 3253SOL     OW10657   4.622   3.821   1.151
 3253SOL    HW110658   4.550   3.791   1.214
 3253SOL    HW210659   4.680   3.743   1.127
 3254SOL     OW10660   4.445   5.674   6.473
 3254SOL    HW110661   4.407   5.717   6.555
 3254SOL    HW210662   4.500   5.740   6.423
 3255SOL     OW10663   4.301   6.620   0.673
 3255SOL    HW110664   4.362   6.585   0.603
 3255SOL    HW210665   4.353   6.642   0.755
 3256SOL     OW10666   4.032   1.407   1.147
 3256SOL    HW110667   4.068   1.327   1.099
 3256SOL    HW210668   3.933   1.414   1.131
 3257SOL     OW10669   1.124   1.954   2.241
 3257SOL    HW110670   1.093   1.979   2.149
 3257SOL    HW210671   1.121   2.034   2.300
 3258SOL     OW10672   4.764   5.991   2.224
 3258SOL    HW110673   4.763   5.906   2.278
 3258SOL    HW210674   4.710   6.061   2.271
 3259SOL     OW10675   4.664   4.865   5.170
 3259SOL    HW110676   4.695   4.960   5.178
 3259SOL    HW210677   4.565   4.864   5.154
 3260SOL     OW10678   1.610   2.396   1.098
 3260SOL    HW110679   1.650   2.484   1.071
 3260SOL    HW210680   1.673   2.350   1.161
 3261SOL     OW10681   5.407   0.492   1.380
 3261SOL    HW110682   5.440   0.509   1.473
 3261SOL    HW210683   5.464   0.542   1.315
 3262SOL     OW10684   3.202   1.736   2.217
 3262SOL    HW110685   3.156   1.765   2.132
 3262SOL    HW210686   3.282   1.681   2.194
 3263SOL     OW10687   2.773   1.111   2.726
 3263SOL    HW110688   2.758   1.156   2.638
 3263SOL    HW210689   2.752   1.013   2.717
 3264SOL     OW10690   1.435   5.837   0.929
 3264SOL    HW110691   1.463   5.932   0.919
 3264SOL    HW210692   1.413   5.819   1.025
 3265SOL     OW10693   4.496   0.407   6.474
 3265SOL    HW110694   4.588   0.377   6.498
 3265SOL    HW210695   4.490   0.507   6.481
 3266SOL     OW10696   2.089   4.332   0.227
 3266SOL    HW110697   2.052   4.311   0.136
 3266SOL    HW210698   2.185   4.305   0.231
 3267SOL     OW10699   3.041   6.161   1.211
 3267SOL    HW110700   3.049   6.237   1.276
 3267SOL    HW210701   3.055   6.074   1.259
 3268SOL     OW10702   2.185   3.782   1.731
 3268SOL    HW110703   2.199   3.752   1.825
 3268SOL    HW210704   2.178   3.882   1.729
 3269SOL     OW10705   5.243   5.914   2.546
 3269SOL    HW110706   5.176   5.843   2.568
 3269SOL    HW210707   5.195   5.996   2.515
 3270SOL     OW10708   1.269   4.596   6.184
 3270SOL    HW110709   1.331   4.630   6.112
 3270SOL    HW210710   1.319   4.585   6.269
 3271SOL     OW10711   5.689   3.720   2.018
 3271SOL    HW110712   5.614   3.703   1.954
 3271SOL    HW210713   5.775   3.723   1.968
 3272SOL     OW10714   2.968   4.372   6.310
 3272SOL    HW110715   2.966   4.395   6.213
 3272SOL    HW210716   2.965   4.456   6.364
 3273SOL     OW10717   6.201   5.415   0.302
 3273SOL    HW110718   6.251   5.495   0.334
 3273SOL    HW210719   6.103   5.427   0.318
 3274SOL     OW10720   5.052   0.967   0.759
 3274SOL    HW110721   5.018   1.052   0.798
 3274SOL    HW210722   5.089   0.909   0.832
 3275SOL     OW10723   5.496   0.693   0.062
 3275SOL    HW110724   5.401   0.681   0.090
 3275SOL    HW210725   5.537   0.604   0.044
 3276SOL     OW10726   3.627   5.934   6.444
 3276SOL    HW110727   3.666   6.013   6.397
 3276SOL    HW210728   3.575   5.964   6.523
 3277SOL     OW10729   3.566   0.249   0.727
 3277SOL    HW110730   3.625   0.298   0.791
 3277SOL    HW210731   3.553   0.155   0.758
 3278SOL     OW10732   1.031   0.783   5.938
 3278SOL    HW110733   0.948   0.732   5.960
 3278SOL    HW210734   1.042   0.858   6.002
 3279SOL     OW10735   4.880   7.005   0.278
 3279SOL    HW110736   4.884   0.053   0.351
 3279SOL    HW210737   4.917   0.024   0.193
 3280SOL     OW10738   4.942   4.293   4.632
 3280SOL    HW110739   4.963   4.198   4.657
 3280SOL    HW210740   5.013   4.329   4.571
 3281SOL     OW10741   1.516   4.716   1.671
 3281SOL    HW110742   1.569   4.793   1.707
 3281SOL    HW210743   1.419   4.734   1.684
 3282SOL     OW10744   0.372   4.949   4.620
 3282SOL    HW110745   0.352   5.045   4.637
 3282SOL    HW210746   0.322   4.892   4.685
 3283SOL     OW10747   3.419   0.560   1.232
 3283SOL    HW110748   3.504   0.600   1.199
 3283SOL    HW210749   3.385   0.613   1.310
 3284SOL     OW10750   0.749   5.635   6.537
 3284SOL    HW110751   0.665   5.594   6.502
 3284SOL    HW210752   0.813   5.650   6.462
 3285SOL     OW10753   4.116   2.215   3.737
 3285SOL    HW110754   4.201   2.185   3.781
 3285SOL    HW210755   4.138   2.280   3.664
 3286SOL     OW10756   3.522   3.131   2.615
 3286SOL    HW110757   3.613   3.159   2.582
 3286SOL    HW210758   3.525   3.035   2.641
 3287SOL     OW10759   0.867   0.274   6.850
 3287SOL    HW110760   0.881   0.335   6.928
 3287SOL    HW210761   0.917   0.189   6.865
 3288SOL     OW10762   1.910   6.175   6.984
 3288SOL    HW110763   2.002   6.205   7.010
 3288SOL    HW210764   1.893   6.201   6.889
 3289SOL     OW10765   2.881   0.859   5.371
 3289SOL    HW110766   2.842   0.941   5.328
 3289SOL    HW210767   2.810   0.813   5.425
 3290SOL     OW10768   0.134   5.528   1.440
 3290SOL    HW110769   0.096   5.523   1.532
 3290SOL    HW210770   0.155   5.623   1.418
 3291SOL     OW10771   2.025   0.149   6.479
 3291SOL    HW110772   2.070   0.238   6.467
 3291SOL    HW210773   2.089   0.076   6.459
 3292SOL     OW10774   0.185   1.129   0.715
 3292SOL    HW110775   0.138   1.046   0.743
 3292SOL    HW210776   0.166   1.147   0.618
 3293SOL     OW10777   6.651   4.499   1.994
 3293SOL    HW110778   6.732   4.542   1.955
 3293SOL    HW210779   6.625   4.419   1.940
 3294SOL     OW10780   6.062   2.913   6.424
 3294SOL    HW110781   6.102   2.947   6.339
 3294SOL    HW210782   6.131   2.862   6.475
 3295SOL     OW10783   1.379   2.627   2.219
 3295SOL    HW110784   1.421   2.536   2.208
 3295SOL    HW210785   1.280   2.617   2.231
 3296SOL     OW10786   1.076   0.253   2.978
 3296SOL    HW110787   1.161   0.302   2.961
 3296SOL    HW210788   1.096   0.166   3.022
 3297SOL     OW10789   2.952   1.627   5.579
 3297SOL    HW110790   2.940   1.528   5.585
 3297SOL    HW210791   2.993   1.650   5.491
 3298SOL     OW10792   6.028   2.161   5.593
 3298SOL    HW110793   5.937   2.164   5.552
 3298SOL    HW210794   6.074   2.077   5.564
 3299SOL     OW10795   4.075   5.990   2.881
 3299SOL    HW110796   4.020   6.004   2.964
 3299SOL    HW210797   4.087   6.077   2.835
 3300SOL     OW10798   0.402   0.627   5.747
 3300SOL    HW110799   0.486   0.664   5.787
 3300SOL    HW210800   0.376   0.545   5.797
 3301SOL     OW10801   2.210   2.912   3.380
 3301SOL    HW110802   2.191   2.933   3.284
 3301SOL    HW210803   2.132   2.939   3.436
 3302SOL     OW10804   0.570   5.012   5.259
 3302SOL    HW110805   0.657   5.055   5.285
 3302SOL    HW210806   0.546   5.041   5.167
 3303SOL     OW10807   3.269   3.449   0.783
 3303SOL    HW110808   3.220   3.362   0.787
 3303SOL    HW210809   3.365   3.432   0.760
 3304SOL     OW10810   1.613   5.527   4.851
 3304SOL    HW110811   1.629   5.499   4.756
 3304SOL    HW210812   1.631   5.625   4.860
 3305SOL     OW10813   2.419   1.419   2.075
 3305SOL    HW110814   2.337   1.387   2.123
 3305SOL    HW210815   2.410   1.398   1.977
 3306SOL     OW10816   2.396   5.573   4.595
 3306SOL    HW110817   2.370   5.581   4.691
 3306SOL    HW210818   2.490   5.607   4.583
 3307SOL     OW10819   0.369   5.768   6.253
 3307SOL    HW110820   0.434   5.692   6.263
 3307SOL    HW210821   0.293   5.740   6.195
 3308SOL     OW10822   2.789   6.142   1.525
 3308SOL    HW110823   2.866   6.097   1.570
 3308SOL    HW210824   2.710   6.143   1.586
 3309SOL     OW10825   6.122   5.349   3.904
 3309SOL    HW110826   6.093   5.269   3.851
 3309SOL    HW210827   6.044   5.409   3.918
 3310SOL     OW10828   0.228   4.225   5.347
 3310SOL    HW110829   0.178   4.138   5.357
 3310SOL    HW210830   0.194   4.273   5.267
 3311SOL     OW10831   4.071   4.188   0.404
 3311SOL    HW110832   4.008   4.156   0.334
 3311SOL    HW210833   4.037   4.162   0.495
 3312SOL     OW10834   4.218   4.391   5.528
 3312SOL    HW110835   4.192   4.341   5.446
 3312SOL    HW210836   4.239   4.327   5.602
 3313SOL     OW10837   1.079   6.366   3.635
 3313SOL    HW110838   1.054   6.462   3.648
 3313SOL    HW210839   1.176   6.361   3.610
 3314SOL     OW10840   2.066   1.163   2.400
 3314SOL    HW110841   1.981   1.114   2.383
 3314SOL    HW210842   2.073   1.186   2.497
 3315SOL     OW10843   0.072   4.476   4.908
 3315SOL    HW110844   0.041   4.512   4.820
 3315SOL    HW210845   0.146   4.533   4.943
 3316SOL     OW10846   5.183   0.785   5.667
 3316SOL    HW110847   5.198   0.882   5.650
 3316SOL    HW210848   5.103   0.773   5.727
 3317SOL     OW10849   4.890   2.958   1.785
 3317SOL    HW110850   4.799   3.000   1.779
 3317SOL    HW210851   4.944   3.007   1.853
 3318SOL     OW10852   1.954   1.791   1.597
 3318SOL    HW110853   1.936   1.741   1.512
 3318SOL    HW210854   2.048   1.774   1.626
 3319SOL     OW10855   6.182   1.823   3.839
 3319SOL    HW110856   6.275   1.841   3.807
 3319SOL    HW210857   6.174   1.849   3.935
 3320SOL     OW10858   6.684   0.841   5.292
 3320SOL    HW110859   6.591   0.832   5.255
 3320SOL    HW210860   6.745   0.872   5.219
 3321SOL     OW10861   4.606   1.482   0.562
 3321SOL    HW110862   4.506   1.476   0.555
 3321SOL    HW210863   4.642   1.530   0.482
 3322SOL     OW10864   6.558   2.539   0.850
 3322SOL    HW110865   6.651   2.532   0.812
 3322SOL    HW210866   6.533   2.636   0.858
 3323SOL     OW10867   3.206   2.397   0.438
 3323SOL    HW110868   3.157   2.484   0.444
 3323SOL    HW210869   3.155   2.327   0.487
 3324SOL     OW10870   3.995   5.091   6.901
 3324SOL    HW110871   3.919   5.153   6.883
 3324SOL    HW210872   3.962   4.997   6.899
 3325SOL     OW10873   0.259   3.544   6.347
 3325SOL    HW110874   0.240   3.569   6.441
 3325SOL    HW210875   0.210   3.459   6.324
 3326SOL     OW10876   5.032   1.961   2.186
 3326SOL    HW110877   5.089   2.037   2.156
 3326SOL    HW210878   5.056   1.937   2.281
 3327SOL     OW10879   3.023   5.189   1.755
 3327SOL    HW110880   3.103   5.198   1.814
 3327SOL    HW210881   2.953   5.254   1.785
 3328SOL     OW10882   4.549   2.194   0.567
 3328SOL    HW110883   4.612   2.209   0.643
 3328SOL    HW210884   4.457   2.176   0.603
 3329SOL     OW10885   5.758   0.895   4.942
 3329SOL    HW110886   5.814   0.976   4.926
 3329SOL    HW210887   5.699   0.879   4.863
 3330SOL     OW10888   6.550   4.502   1.570
 3330SOL    HW110889   6.563   4.404   1.559
 3330SOL    HW210890   6.635   4.551   1.548
 3331SOL     OW10891   2.137   2.598   1.649
 3331SOL    HW110892   2.230   2.566   1.667
 3331SOL    HW210893   2.136   2.697   1.643
 3332SOL     OW10894   5.676   5.730   6.724
 3332SOL    HW110895   5.640   5.762   6.811
 3332SOL    HW210896   5.651   5.796   6.652
 3333SOL     OW10897   4.546   4.957   6.801
 3333SOL    HW110898   4.620   4.917   6.748
 3333SOL    HW210899   4.459   4.919   6.770
 3334SOL     OW10900   2.660   3.990   1.607
 3334SOL    HW110901   2.668   3.891   1.598
 3334SOL    HW210902   2.742   4.027   1.650
 3335SOL     OW10903   4.877   6.078   5.898
 3335SOL    HW110904   4.927   5.997   5.864
 3335SOL    HW210905   4.791   6.086   5.849
 3336SOL     OW10906   2.700   6.123   4.842
 3336SOL    HW110907   2.719   6.126   4.743
 3336SOL    HW210908   2.722   6.212   4.883
 3337SOL     OW10909   2.995   3.821   2.768
 3337SOL    HW110910   3.015   3.728   2.798
 3337SOL    HW210911   3.075   3.859   2.722
 3338SOL     OW10912   5.694   2.582   1.468
 3338SOL    HW110913   5.620   2.637   1.431
 3338SOL    HW210914   5.706   2.500   1.413
 3339SOL     OW10915   6.614   0.069   6.856
 3339SOL    HW110916   6.591   7.007   6.805
 3339SOL    HW210917   6.671   0.129   6.799
 3340SOL     OW10918   3.766   0.890   2.219
 3340SOL    HW110919   3.667   0.875   2.226
 3340SOL    HW210920   3.794   0.956   2.288
 3341SOL     OW10921   1.064   5.905   3.288
 3341SOL    HW110922   1.051   5.946   3.378
 3341SOL    HW210923   0.993   5.836   3.272
 3342SOL     OW10924   2.571   6.948   4.429
 3342SOL    HW110925   2.564   0.024   4.404
 3342SOL    HW210926   2.657   6.933   4.479
 3343SOL     OW10927   4.601   3.160   0.721
 3343SOL    HW110928   4.607   3.191   0.625
 3343SOL    HW210929   4.590   3.061   0.723
 3344SOL     OW10930   5.715   3.558   4.139
 3344SOL    HW110931   5.708   3.487   4.069
 3344SOL    HW210932   5.664   3.530   4.220
 3345SOL     OW10933   1.510   3.496   6.028
 3345SOL    HW110934   1.577   3.430   6.062
 3345SOL    HW210935   1.429   3.448   5.997
 3346SOL     OW10936   1.660   0.577   0.480
 3346SOL    HW110937   1.672   0.588   0.382
 3346SOL    HW210938   1.703   0.653   0.528
 3347SOL     OW10939   0.798   4.059   4.011
 3347SOL    HW110940   0.874   4.073   4.074
 3347SOL    HW210941   0.717   4.105   4.045
 3348SOL     OW10942   3.077   3.112   3.695
 3348SOL    HW110943   3.063   3.205   3.728
 3348SOL    HW210944   3.097   3.051   3.772
 3349SOL     OW10945   1.421   5.894   3.384
 3349SOL    HW110946   1.379   5.970   3.433
 3349SOL    HW210947   1.391   5.894   3.289
 3350SOL     OW10948   1.397   2.526   5.699
 3350SOL    HW110949   1.387   2.463   5.622
 3350SOL    HW210950   1.471   2.590   5.679
 3351SOL     OW10951   5.164   0.525   2.544
 3351SOL    HW110952   5.226   0.519   2.465
 3351SOL    HW210953   5.096   0.451   2.539
 3352SOL     OW10954   0.318   2.718   0.484
 3352SOL    HW110955   0.310   2.621   0.461
 3352SOL    HW210956   0.372   2.764   0.415
 3353SOL     OW10957   1.419   5.635   1.983
 3353SOL    HW110958   1.450   5.669   2.072
 3353SOL    HW210959   1.458   5.692   1.910
 3354SOL     OW10960   5.126   2.581   5.000
 3354SOL    HW110961   5.107   2.504   5.061
 3354SOL    HW210962   5.221   2.578   4.970
 3355SOL     OW10963   2.029   1.674   0.849
 3355SOL    HW110964   1.930   1.674   0.833
 3355SOL    HW210965   2.057   1.764   0.881
 3356SOL     OW10966   2.245   3.841   6.045
 3356SOL    HW110967   2.212   3.932   6.069
 3356SOL    HW210968   2.335   3.825   6.087
 3357SOL     OW10969   2.601   4.749   1.900
 3357SOL    HW110970   2.697   4.720   1.899
 3357SOL    HW210971   2.562   4.732   1.991
 3358SOL     OW10972   5.150   0.641   0.500
 3358SOL    HW110973   5.171   0.738   0.508
 3358SOL    HW210974   5.233   0.591   0.476
 3359SOL     OW10975   0.046   0.383   3.801
 3359SOL    HW110976   0.077   0.478   3.798
 3359SOL    HW210977   6.970   0.380   3.830
 3360SOL     OW10978   0.370   1.411   6.530
 3360SOL    HW110979   0.286   1.455   6.564
 3360SOL    HW210980   0.417   1.367   6.606
 3361SOL     OW10981   0.515   4.239   2.921
 3361SOL    HW110982   0.584   4.167   2.917
 3361SOL    HW210983   0.425   4.199   2.934
 3362SOL     OW10984   3.737   1.466   3.714
 3362SOL    HW110985   3.690   1.387   3.752
 3362SOL    HW210986   3.796   1.506   3.785
 3363SOL     OW10987   0.126   0.308   0.603
 3363SOL    HW110988   0.165   0.395   0.633
 3363SOL    HW210989   0.188   0.265   0.537
 3364SOL     OW10990   1.385   4.273   3.890
 3364SOL    HW110991   1.401   4.371   3.898
 3364SOL    HW210992   1.469   4.228   3.860
 3365SOL     OW10993   0.570   2.357   5.240
 3365SOL    HW110994   0.485   2.332   5.193
 3365SOL    HW210995   0.626   2.412   5.178
 3366SOL     OW10996   5.695   0.430   6.143
 3366SOL    HW110997   5.652   0.489   6.211
 3366SOL    HW210998   5.730   0.486   6.068
 3367SOL     OW10999   3.528   2.825   1.537
 3367SOL    HW111000   3.572   2.784   1.616
 3367SOL    HW211001   3.437   2.785   1.525
 3368SOL     OW11002   0.580   5.232   5.975
 3368SOL    HW111003   0.620   5.210   6.064
 3368SOL    HW211004   0.648   5.280   5.920
 3369SOL     OW11005   4.163   2.457   5.693
 3369SOL    HW111006   4.083   2.483   5.747
 3369SOL    HW211007   4.219   2.538   5.675
 3370SOL     OW11008   6.524   6.100   5.967
 3370SOL    HW111009   6.534   6.064   5.875
 3370SOL    HW211010   6.470   6.185   5.965
 3371SOL     OW11011   1.578   3.409   2.162
 3371SOL    HW111012   1.511   3.483   2.155
 3371SOL    HW211013   1.607   3.399   2.257
 3372SOL     OW11014   1.259   1.094   1.155
 3372SOL    HW111015   1.215   1.026   1.213
 3372SOL    HW211016   1.328   1.143   1.208
 3373SOL     OW11017   6.883   2.121   2.817
 3373SOL    HW111018   6.795   2.153   2.851
 3373SOL    HW211019   6.951   2.127   2.890
 3374SOL     OW11020   1.932   6.412   4.268
 3374SOL    HW111021   2.008   6.348   4.253
 3374SOL    HW211022   1.845   6.363   4.262
 3375SOL     OW11023   6.093   5.429   6.177
 3375SOL    HW111024   6.045   5.516   6.165
 3375SOL    HW211025   6.044   5.372   6.243
 3376SOL     OW11026   4.070   3.347   3.607
 3376SOL    HW111027   3.990   3.332   3.547
 3376SOL    HW211028   4.093   3.261   3.653
 3377SOL     OW11029   0.348   6.420   4.754
 3377SOL    HW111030   0.302   6.477   4.823
 3377SOL    HW211031   0.312   6.327   4.759
 3378SOL     OW11032   0.017   1.079   0.288
 3378SOL    HW111033   6.990   1.059   0.374
 3378SOL    HW211034   7.010   1.169   0.254
 3379SOL     OW11035   6.930   5.914   6.459
 3379SOL    HW111036   6.942   5.975   6.537
 3379SOL    HW211037   7.002   5.932   6.392
 3380SOL     OW11038   5.717   6.547   5.915
 3380SOL    HW111039   5.799   6.603   5.907
 3380SOL    HW211040   5.678   6.557   6.007
 3381SOL     OW11041   1.282   2.839   1.401
 3381SOL    HW111042   1.245   2.854   1.493
 3381SOL    HW211043   1.345   2.761   1.403
 3382SOL     OW11044   0.771   1.405   0.597
 3382SOL    HW111045   0.804   1.312   0.614
 3382SOL    HW211046   0.712   1.434   0.672
 3383SOL     OW11047   4.313   5.897   2.074
 3383SOL    HW111048   4.317   5.855   1.983
 3383SOL    HW211049   4.351   5.989   2.069
 3384SOL     OW11050   2.232   3.359   5.800
 3384SOL    HW111051   2.278   3.437   5.758
 3384SOL    HW211052   2.271   3.274   5.763
 3385SOL     OW11053   6.993   3.108   3.959
 3385SOL    HW111054   6.985   3.101   4.059
 3385SOL    HW211055   0.016   3.195   3.935
 3386SOL     OW11056   6.546   3.286   6.673
 3386SOL    HW111057   6.485   3.287   6.594
 3386SOL    HW211058   6.515   3.352   6.741
 3387SOL     OW11059   3.347   1.314   3.920
 3387SOL    HW111060   3.258   1.303   3.964
 3387SOL    HW211061   3.354   1.406   3.881
 3388SOL     OW11062   5.179   3.309   1.974
 3388SOL    HW111063   5.084   3.290   1.950
 3388SOL    HW211064   5.215   3.381   1.914
 3389SOL     OW11065   5.070   4.774   5.421
 3389SOL    HW111066   5.141   4.706   5.435
 3389SOL    HW211067   5.061   4.794   5.324
 3390SOL     OW11068   4.863   4.807   5.970
 3390SOL    HW111069   4.835   4.885   6.025
 3390SOL    HW211070   4.809   4.803   5.886
 3391SOL     OW11071   5.223   3.196   5.132
 3391SOL    HW111072   5.189   3.216   5.040
 3391SOL    HW211073   5.260   3.103   5.134
 3392SOL     OW11074   2.801   6.856   3.898
 3392SOL    HW111075   2.758   6.847   3.988
 3392SOL    HW211076   2.732   6.844   3.827
 3393SOL     OW11077   0.378   6.356   0.131
 3393SOL    HW111078   0.447   6.313   0.074
 3393SOL    HW211079   0.417   6.436   0.176
 3394SOL     OW11080   6.138   3.366   1.596
 3394SOL    HW111081   6.203   3.324   1.533
 3394SOL    HW211082   6.135   3.314   1.681
 3395SOL     OW11083   5.724   3.228   3.434
 3395SOL    HW111084   5.635   3.210   3.392
 3395SOL    HW211085   5.797   3.199   3.372
 3396SOL     OW11086   5.243   1.851   3.584
 3396SOL    HW111087   5.285   1.920   3.642
 3396SOL    HW211088   5.285   1.762   3.603
 3397SOL     OW11089   2.500   0.907   5.454
 3397SOL    HW111090   2.564   0.830   5.463
 3397SOL    HW211091   2.431   0.902   5.526
 3398SOL     OW11092   1.068   0.193   4.598
 3398SOL    HW111093   1.075   0.247   4.514
 3398SOL    HW211094   1.121   0.109   4.588
 3399SOL     OW11095   5.679   4.229   4.424
 3399SOL    HW111096   5.768   4.267   4.400
 3399SOL    HW211097   5.673   4.135   4.392
 3400SOL     OW11098   4.646   2.396   5.923
 3400SOL    HW111099   4.716   2.332   5.891
 3400SOL    HW211100   4.689   2.474   5.967
 3401SOL     OW11101   6.866   3.457   1.201
 3401SOL    HW111102   6.806   3.397   1.254
 3401SOL    HW211103   6.954   3.412   1.185
 3402SOL     OW11104   3.583   6.390   6.365
 3402SOL    HW111105   3.610   6.484   6.342
 3402SOL    HW211106   3.512   6.391   6.435
 3403SOL     OW11107   4.237   6.870   4.893
 3403SOL    HW111108   4.217   6.772   4.889
 3403SOL    HW211109   4.152   6.922   4.884
 3404SOL     OW11110   5.178   1.408   0.246
 3404SOL    HW111111   5.088   1.452   0.241
 3404SOL    HW211112   5.187   1.345   0.169
 3405SOL     OW11113   7.011   3.952   4.101
 3405SOL    HW111114   6.929   3.924   4.052
 3405SOL    HW211115   0.071   3.944   4.041
 3406SOL     OW11116   0.861   4.159   2.692
 3406SOL    HW111117   0.804   4.163   2.610
 3406SOL    HW211118   0.921   4.079   2.687
 3407SOL     OW11119   1.646   5.488   0.040
 3407SOL    HW111120   1.730   5.534   0.068
 3407SOL    HW211121   1.622   5.515   6.967
 3408SOL     OW11122   4.856   3.812   5.569
 3408SOL    HW111123   4.874   3.720   5.604
 3408SOL    HW211124   4.816   3.805   5.478
 3409SOL     OW11125   3.287   6.160   6.516
 3409SOL    HW111126   3.309   6.225   6.444
 3409SOL    HW211127   3.224   6.202   6.581
 3410SOL     OW11128   0.170   6.307   6.970
 3410SOL    HW111129   0.243   6.368   7.002
 3410SOL    HW211130   0.189   6.214   7.003
 3411SOL     OW11131   0.218   3.017   1.522
 3411SOL    HW111132   0.261   3.100   1.557
 3411SOL    HW211133   0.209   2.950   1.596
 3412SOL     OW11134   3.849   2.601   6.794
 3412SOL    HW111135   3.906   2.535   6.844
 3412SOL    HW211136   3.798   2.657   6.860
 3413SOL     OW11137   5.885   1.301   1.071
 3413SOL    HW111138   5.846   1.350   0.993
 3413SOL    HW211139   5.829   1.318   1.152
 3414SOL     OW11140   1.806   0.651   6.107
 3414SOL    HW111141   1.757   0.647   6.020
 3414SOL    HW211142   1.838   0.559   6.131
 3415SOL     OW11143   1.719   3.755   4.630
 3415SOL    HW111144   1.744   3.847   4.599
 3415SOL    HW211145   1.776   3.687   4.583
 3416SOL     OW11146   0.035   5.655   0.817
 3416SOL    HW111147   0.119   5.668   0.764
 3416SOL    HW211148   0.005   5.743   0.855
 3417SOL     OW11149   0.623   6.077   3.192
 3417SOL    HW111150   0.608   6.172   3.219
 3417SOL    HW211151   0.632   6.020   3.273
 3418SOL     OW11152   3.519   0.755   4.571
 3418SOL    HW111153   3.483   0.709   4.652
 3418SOL    HW211154   3.614   0.781   4.587
 3419SOL     OW11155   4.385   5.823   5.114
 3419SOL    HW111156   4.438   5.902   5.082
 3419SOL    HW211157   4.339   5.780   5.037
 3420SOL     OW11158   5.436   2.936   3.989
 3420SOL    HW111159   5.485   2.871   3.931
 3420SOL    HW211160   5.405   2.890   4.072
 3421SOL     OW11161   5.719   0.634   5.952
 3421SOL    HW111162   5.630   0.661   5.990
 3421SOL    HW211163   5.790   0.695   5.986
 3422SOL     OW11164   1.898   0.341   1.027
 3422SOL    HW111165   1.852   0.299   1.105
 3422SOL    HW211166   1.975   0.396   1.059
 3423SOL     OW11167   1.994   5.535   6.807
 3423SOL    HW111168   2.067   5.521   6.741
 3423SOL    HW211169   1.927   5.461   6.800
 3424SOL     OW11170   2.615   6.891   2.300
 3424SOL    HW111171   2.580   6.892   2.206
 3424SOL    HW211172   2.620   6.984   2.335
 3425SOL     OW11173   5.055   4.740   2.410
 3425SOL    HW111174   5.101   4.707   2.492
 3425SOL    HW211175   5.093   4.695   2.329
 3426SOL     OW11176   3.721   2.721   0.693
 3426SOL    HW111177   3.760   2.678   0.612
 3426SOL    HW211178   3.701   2.817   0.674
 3427SOL     OW11179   6.550   0.018   0.252
 3427SOL    HW111180   6.509   6.987   0.327
 3427SOL    HW211181   6.631   0.068   0.284
 3428SOL     OW11182   2.935   4.800   0.936
 3428SOL    HW111183   2.948   4.790   0.837
 3428SOL    HW211184   2.930   4.898   0.959
 3429SOL     OW11185   0.524   2.287   0.281
 3429SOL    HW111186   0.569   2.306   0.193
 3429SOL    HW211187   0.469   2.205   0.273
 3430SOL     OW11188   0.263   6.119   5.088
 3430SOL    HW111189   0.194   6.084   5.024
 3430SOL    HW211190   0.264   6.219   5.084
 3431SOL     OW11191   1.185   6.978   1.334
 3431SOL    HW111192   1.156   0.014   1.256
 3431SOL    HW211193   1.262   0.002   1.380
 3432SOL     OW11194   1.704   2.769   0.034
 3432SOL    HW111195   1.606   2.758   0.051
 3432SOL    HW211196   1.751   2.684   0.058
 3433SOL     OW11197   1.070   0.089   6.399
 3433SOL    HW111198   1.037   0.110   6.307
 3433SOL    HW211199   1.138   0.016   6.394
 3434SOL     OW11200   4.375   1.736   0.663
 3434SOL    HW111201   4.344   1.644   0.640
 3434SOL    HW211202   4.373   1.793   0.581
 3435SOL     OW11203   0.888   1.641   1.152
 3435SOL    HW111204   0.792   1.639   1.125
 3435SOL    HW211205   0.941   1.583   1.091
 3436SOL     OW11206   3.553   5.810   6.174
 3436SOL    HW111207   3.528   5.850   6.262
 3436SOL    HW211208   3.557   5.882   6.104
 3437SOL     OW11209   2.102   1.353   6.044
 3437SOL    HW111210   2.195   1.326   6.068
 3437SOL    HW211211   2.105   1.421   5.970
 3438SOL     OW11212   1.144   2.898   0.338
 3438SOL    HW111213   1.154   2.801   0.358
 3438SOL    HW211214   1.071   2.936   0.394
 3439SOL     OW11215   2.221   6.343   5.229
 3439SOL    HW111216   2.276   6.261   5.243
 3439SOL    HW211217   2.233   6.377   5.136
 3440SOL     OW11218   3.696   3.262   1.776
 3440SOL    HW111219   3.636   3.332   1.814
 3440SOL    HW211220   3.650   3.174   1.776
 3441SOL     OW11221   5.341   0.000   4.345
 3441SOL    HW111222   5.421   6.960   4.339
 3441SOL    HW211223   5.271   6.990   4.280
 3442SOL     OW11224   3.357   5.569   1.998
 3442SOL    HW111225   3.448   5.572   2.039
 3442SOL    HW211226   3.304   5.649   2.028
 3443SOL     OW11227   5.154   6.533   1.972
 3443SOL    HW111228   5.168   6.581   2.058
 3443SOL    HW211229   5.192   6.441   1.979
 3444SOL     OW11230   5.360   5.704   0.307
 3444SOL    HW111231   5.308   5.786   0.281
 3444SOL    HW211232   5.349   5.687   0.405
 3445SOL     OW11233   6.143   5.938   4.621
 3445SOL    HW111234   6.089   5.859   4.593
 3445SOL    HW211235   6.181   5.922   4.712
 3446SOL     OW11236   6.135   0.357   2.314
 3446SOL    HW111237   6.145   0.390   2.408
 3446SOL    HW211238   6.115   0.434   2.254
 3447SOL     OW11239   5.328   5.554   0.900
 3447SOL    HW111240   5.238   5.583   0.934
 3447SOL    HW211241   5.391   5.632   0.902
 3448SOL     OW11242   3.001   0.150   0.994
 3448SOL    HW111243   2.930   0.079   0.997
 3448SOL    HW211244   3.086   0.113   1.032
 3449SOL     OW11245   6.628   6.917   4.235
 3449SOL    HW111246   6.575   6.958   4.161
 3449SOL    HW211247   6.726   6.931   4.218
 3450SOL     OW11248   6.849   1.989   6.710
 3450SOL    HW111249   6.866   2.030   6.620
 3450SOL    HW211250   6.923   1.926   6.733
 3451SOL     OW11251   1.984   6.232   2.108
 3451SOL    HW111252   2.028   6.142   2.102
 3451SOL    HW211253   1.890   6.221   2.141
 3452SOL     OW11254   5.949   1.309   6.155
 3452SOL    HW111255   5.994   1.264   6.077
 3452SOL    HW211256   5.882   1.375   6.121
 3453SOL     OW11257   6.808   5.838   5.673
 3453SOL    HW111258   6.780   5.747   5.701
 3453SOL    HW211259   6.908   5.846   5.678
 3454SOL     OW11260   1.234   1.837   6.708
 3454SOL    HW111261   1.305   1.770   6.686
 3454SOL    HW211262   1.269   1.903   6.774
 3455SOL     OW11263   2.320   2.279   4.503
 3455SOL    HW111264   2.257   2.353   4.480
 3455SOL    HW211265   2.292   2.239   4.591
 3456SOL     OW11266   6.022   5.455   2.633
 3456SOL    HW111267   6.095   5.403   2.588
 3456SOL    HW211268   6.039   5.458   2.732
 3457SOL     OW11269   3.347   5.742   3.664
 3457SOL    HW111270   3.366   5.724   3.568
 3457SOL    HW211271   3.249   5.759   3.677
 3458SOL     OW11272   4.741   0.712   1.063
 3458SOL    HW111273   4.674   0.696   0.990
 3458SOL    HW211274   4.793   0.628   1.079
 3459SOL     OW11275   5.726   4.100   2.820
 3459SOL    HW111276   5.769   4.023   2.771
 3459SOL    HW211277   5.656   4.065   2.882
 3460SOL     OW11278   2.478   3.328   0.165
 3460SOL    HW111279   2.560   3.378   0.192
 3460SOL    HW211280   2.447   3.360   0.076
 3461SOL     OW11281   4.846   6.909   5.247
 3461SOL    HW111282   4.877   6.950   5.333
 3461SOL    HW211283   4.755   6.945   5.224
 3462SOL     OW11284   0.678   3.741   2.084
 3462SOL    HW111285   0.641   3.675   2.019
 3462SOL    HW211286   0.778   3.732   2.088
 3463SOL     OW11287   1.040   3.565   3.375
 3463SOL    HW111288   1.115   3.561   3.441
 3463SOL    HW211289   0.970   3.629   3.408
 3464SOL     OW11290   6.784   3.112   6.622
 3464SOL    HW111291   6.795   3.095   6.719
 3464SOL    HW211292   6.702   3.167   6.607
 3465SOL     OW11293   1.528   2.373   2.100
 3465SOL    HW111294   1.429   2.368   2.087
 3465SOL    HW211295   1.552   2.344   2.193
 3466SOL     OW11296   6.706   4.593   6.780
 3466SOL    HW111297   6.791   4.624   6.823
 3466SOL    HW211298   6.658   4.672   6.740
 3467SOL     OW11299   2.070   2.617   0.905
 3467SOL    HW111300   2.076   2.542   0.971
 3467SOL    HW211301   2.044   2.581   0.815
 3468SOL     OW11302   5.817   0.390   2.606
 3468SOL    HW111303   5.839   0.292   2.612
 3468SOL    HW211304   5.718   0.401   2.601
 3469SOL     OW11305   4.561   6.778   3.660
 3469SOL    HW111306   4.491   6.786   3.732
 3469SOL    HW211307   4.593   6.869   3.634
 3470SOL     OW11308   6.646   2.637   1.948
 3470SOL    HW111309   6.575   2.675   2.006
 3470SOL    HW211310   6.697   2.567   1.998
 3471SOL     OW11311   4.966   4.874   4.487
 3471SOL    HW111312   4.881   4.884   4.435
 3471SOL    HW211313   5.040   4.848   4.425
 3472SOL     OW11314   2.931   1.286   3.133
 3472SOL    HW111315   2.937   1.382   3.160
 3472SOL    HW211316   2.956   1.277   3.036
 3473SOL     OW11317   0.017   2.817   1.425
 3473SOL    HW111318   0.079   2.891   1.451
 3473SOL    HW211319   6.951   2.856   1.391
 3474SOL     OW11320   1.048   4.526   2.943
 3474SOL    HW111321   0.984   4.593   2.906
 3474SOL    HW211322   1.027   4.435   2.906
 3475SOL     OW11323   1.185   4.353   4.318
 3475SOL    HW111324   1.258   4.291   4.345
 3475SOL    HW211325   1.219   4.418   4.250
 3476SOL     OW11326   2.003   1.584   2.863
 3476SOL    HW111327   1.978   1.671   2.905
 3476SOL    HW211328   2.102   1.575   2.860
 3477SOL     OW11329   1.780   5.417   0.596
 3477SOL    HW111330   1.800   5.372   0.682
 3477SOL    HW211331   1.743   5.351   0.530
 3478SOL     OW11332   2.487   5.481   5.141
 3478SOL    HW111333   2.488   5.407   5.074
 3478SOL    HW211334   2.574   5.484   5.189
 3479SOL     OW11335   0.962   0.968   3.319
 3479SOL    HW111336   1.008   0.887   3.282
 3479SOL    HW211337   0.863   0.960   3.302
 3480SOL     OW11338   0.474   6.135   4.725
 3480SOL    HW111339   0.529   6.151   4.643
 3480SOL    HW211340   0.383   6.105   4.698
 3481SOL     OW11341   4.774   0.746   0.090
 3481SOL    HW111342   4.698   0.681   0.091
 3481SOL    HW211343   4.848   0.712   0.147
 3482SOL     OW11344   6.439   1.442   1.971
 3482SOL    HW111345   6.390   1.528   1.971
 3482SOL    HW211346   6.420   1.392   2.055
 3483SOL     OW11347   4.560   2.135   1.904
 3483SOL    HW111348   4.553   2.096   1.996
 3483SOL    HW211349   4.471   2.129   1.858
 3484SOL     OW11350   0.951   3.324   0.153
 3484SOL    HW111351   0.963   3.347   0.056
 3484SOL    HW211352   0.989   3.232   0.169
 3485SOL     OW11353   2.055   1.775   3.973
 3485SOL    HW111354   2.119   1.807   4.042
 3485SOL    HW211355   1.969   1.748   4.017
 3486SOL     OW11356   2.894   0.418   3.954
 3486SOL    HW111357   2.805   0.412   3.999
 3486SOL    HW211358   2.933   0.509   3.967
 3487SOL     OW11359   6.041   2.457   6.046
 3487SOL    HW111360   6.101   2.487   5.972
 3487SOL    HW211361   5.979   2.386   6.012
 3488SOL     OW11362   6.569   0.493   4.849
 3488SOL    HW111363   6.571   0.451   4.758
 3488SOL    HW211364   6.484   0.468   4.895
 3489SOL     OW11365   4.209   6.977   1.503
 3489SOL    HW111366   4.194   6.982   1.404
 3489SOL    HW211367   4.266   6.898   1.523
 3490SOL     OW11368   4.313   4.380   0.533
 3490SOL    HW111369   4.217   4.351   0.536
 3490SOL    HW211370   4.340   4.393   0.437
 3491SOL     OW11371   4.407   2.568   5.871
 3491SOL    HW111372   4.459   2.482   5.871
 3491SOL    HW211373   4.409   2.608   5.779
 3492SOL     OW11374   6.754   4.675   1.455
 3492SOL    HW111375   6.789   4.661   1.362
 3492SOL    HW211376   6.827   4.661   1.521
 3493SOL     OW11377   5.160   3.939   5.205
 3493SOL    HW111378   5.115   3.851   5.222
 3493SOL    HW211379   5.210   3.935   5.119
 3494SOL     OW11380   3.619   0.455   1.850
 3494SOL    HW111381   3.570   0.469   1.936
 3494SOL    HW211382   3.612   0.537   1.794
 3495SOL     OW11383   5.507   5.089   1.575
 3495SOL    HW111384   5.461   5.027   1.511
 3495SOL    HW211385   5.591   5.046   1.609
 3496SOL     OW11386   5.919   4.627   1.036
 3496SOL    HW111387   5.947   4.649   1.130
 3496SOL    HW211388   5.967   4.545   1.005
 3497SOL     OW11389   2.647   1.168   4.108
 3497SOL    HW111390   2.587   1.142   4.184
 3497SOL    HW211391   2.632   1.106   4.031
 3498SOL     OW11392   3.035   2.162   1.056
 3498SOL    HW111393   3.080   2.236   1.006
 3498SOL    HW211394   2.960   2.199   1.111
 3499SOL     OW11395   5.047   3.803   3.949
 3499SOL    HW111396   5.012   3.712   3.925
 3499SOL    HW211397   5.128   3.793   4.006
 3500SOL     OW11398   1.869   3.812   4.965
 3500SOL    HW111399   1.780   3.832   5.007
 3500SOL    HW211400   1.883   3.871   4.886
 3501SOL     OW11401   1.658   5.787   4.863
 3501SOL    HW111402   1.644   5.884   4.883
 3501SOL    HW211403   1.735   5.778   4.799
 3502SOL     OW11404   6.595   2.678   2.510
 3502SOL    HW111405   6.629   2.741   2.579
 3502SOL    HW211406   6.506   2.643   2.538
 3503SOL     OW11407   6.337   6.641   5.118
 3503SOL    HW111408   6.354   6.543   5.119
 3503SOL    HW211409   6.239   6.658   5.101
 3504SOL     OW11410   2.496   1.620   1.575
 3504SOL    HW111411   2.512   1.525   1.552
 3504SOL    HW211412   2.506   1.632   1.674
 3505SOL     OW11413   5.664   4.014   5.212
 3505SOL    HW111414   5.616   4.059   5.136
 3505SOL    HW211415   5.645   4.063   5.297
 3506SOL     OW11416   5.179   5.510   5.533
 3506SOL    HW111417   5.129   5.533   5.450
 3506SOL    HW211418   5.116   5.472   5.601
 3507SOL     OW11419   1.929   0.696   1.004
 3507SOL    HW111420   1.835   0.672   1.028
 3507SOL    HW211421   1.955   0.782   1.049
 3508SOL     OW11422   2.485   2.039   5.411
 3508SOL    HW111423   2.472   2.063   5.507
 3508SOL    HW211424   2.521   2.119   5.361
 3509SOL     OW11425   5.344   6.950   5.977
 3509SOL    HW111426   5.381   6.979   6.065
 3509SOL    HW211427   5.372   6.856   5.958
 3510SOL     OW11428   1.316   1.816   2.419
 3510SOL    HW111429   1.309   1.875   2.499
 3510SOL    HW211430   1.278   1.863   2.340
 3511SOL     OW11431   2.635   5.325   0.717
 3511SOL    HW111432   2.704   5.261   0.683
 3511SOL    HW211433   2.681   5.406   0.755
 3512SOL     OW11434   6.894   4.336   0.920
 3512SOL    HW111435   6.956   4.263   0.890
 3512SOL    HW211436   6.946   4.406   0.968
 3513SOL     OW11437   5.487   2.633   0.270
 3513SOL    HW111438   5.460   2.552   0.322
 3513SOL    HW211439   5.417   2.653   0.202
 3514SOL     OW11440   0.354   1.457   1.701
 3514SOL    HW111441   0.302   1.524   1.648
 3514SOL    HW211442   0.292   1.401   1.755
 3515SOL     OW11443   5.284   5.948   3.301
 3515SOL    HW111444   5.278   5.863   3.250
 3515SOL    HW211445   5.338   6.014   3.249
 3516SOL     OW11446   4.846   0.085   0.536
 3516SOL    HW111447   4.765   0.144   0.540
 3516SOL    HW211448   4.818   7.010   0.551
 3517SOL     OW11449   1.657   2.536   0.683
 3517SOL    HW111450   1.570   2.548   0.732
 3517SOL    HW211451   1.638   2.516   0.586
 3518SOL     OW11452   5.926   2.262   3.794
 3518SOL    HW111453   5.853   2.194   3.801
 3518SOL    HW211454   5.903   2.342   3.848
 3519SOL     OW11455   1.705   0.754   6.623
 3519SOL    HW111456   1.701   0.719   6.717
 3519SOL    HW211457   1.781   0.819   6.615
 3520SOL     OW11458   3.149   4.733   6.724
 3520SOL    HW111459   3.215   4.663   6.694
 3520SOL    HW211460   3.169   4.819   6.678
 3521SOL     OW11461   4.958   2.114   6.940
 3521SOL    HW111462   5.049   2.073   6.937
 3521SOL    HW211463   4.950   2.174   0.000
 3522SOL     OW11464   0.456   4.777   1.764
 3522SOL    HW111465   0.473   4.710   1.836
 3522SOL    HW211466   0.358   4.778   1.742
 3523SOL     OW11467   2.011   5.227   5.887
 3523SOL    HW111468   1.942   5.272   5.831
 3523SOL    HW211469   1.982   5.133   5.906
 3524SOL     OW11470   4.536   1.634   2.031
 3524SOL    HW111471   4.539   1.695   1.951
 3524SOL    HW211472   4.629   1.619   2.064
 3525SOL     OW11473   1.551   4.087   3.228
 3525SOL    HW111474   1.583   3.999   3.263
 3525SOL    HW211475   1.567   4.158   3.297
 3526SOL     OW11476   2.423   6.826   4.175
 3526SOL    HW111477   2.370   6.782   4.247
 3526SOL    HW211478   2.445   6.760   4.104
 3527SOL     OW11479   5.899   3.261   6.237
 3527SOL    HW111480   5.909   3.298   6.144
 3527SOL    HW211481   5.963   3.307   6.298
 3528SOL     OW11482   0.945   5.819   5.054
 3528SOL    HW111483   0.932   5.830   4.955
 3528SOL    HW211484   0.856   5.804   5.098
 3529SOL     OW11485   3.805   0.590   0.082
 3529SOL    HW111486   3.783   0.581   0.179
 3529SOL    HW211487   3.870   0.518   0.055
 3530SOL     OW11488   0.229   5.251   2.464
 3530SOL    HW111489   0.278   5.315   2.522
 3530SOL    HW211490   0.267   5.254   2.371
 3531SOL     OW11491   5.083   2.921   0.392
 3531SOL    HW111492   5.136   3.001   0.420
 3531SOL    HW211493   5.124   2.838   0.431
 3532SOL     OW11494   2.808   0.818   1.398
 3532SOL    HW111495   2.772   0.752   1.332
 3532SOL    HW211496   2.882   0.776   1.450
 3533SOL     OW11497   1.844   1.903   2.589
 3533SOL    HW111498   1.920   1.874   2.646
 3533SOL    HW211499   1.760   1.857   2.619
 3534SOL     OW11500   6.085   1.052   6.398
 3534SOL    HW111501   6.024   1.055   6.477
 3534SOL    HW211502   6.069   1.132   6.340
 3535SOL     OW11503   1.739   5.931   0.752
 3535SOL    HW111504   1.810   5.899   0.814
 3535SOL    HW211505   1.657   5.874   0.762
 3536SOL     OW11506   3.041   2.226   3.154
 3536SOL    HW111507   3.029   2.312   3.203
 3536SOL    HW211508   2.983   2.155   3.196
 3537SOL     OW11509   3.055   5.541   1.666
 3537SOL    HW111510   3.123   5.471   1.646
 3537SOL    HW211511   3.037   5.542   1.764
 3538SOL     OW11512   1.443   0.495   6.380
 3538SOL    HW111513   1.365   0.543   6.341
 3538SOL    HW211514   1.521   0.558   6.384
 3539SOL     OW11515   5.607   3.127   5.922
 3539SOL    HW111516   5.575   3.083   6.006
 3539SOL    HW211517   5.575   3.222   5.920
 3540SOL     OW11518   2.650   2.165   5.763
 3540SOL    HW111519   2.696   2.085   5.799
 3540SOL    HW211520   2.557   2.140   5.733
 3541SOL     OW11521   1.733   2.402   6.783
 3541SOL    HW111522   1.762   2.411   6.878
 3541SOL    HW211523   1.809   2.370   6.727
 3542SOL     OW11524   1.326   4.919   2.692
 3542SOL    HW111525   1.360   4.830   2.661
 3542SOL    HW211526   1.256   4.952   2.629
 3543SOL     OW11527   0.582   2.226   4.916
 3543SOL    HW111528   0.509   2.230   4.984
 3543SOL    HW211529   0.583   2.310   4.863
 3544SOL     OW11530   2.821   4.144   6.267
 3544SOL    HW111531   2.839   4.124   6.171
 3544SOL    HW211532   2.846   4.239   6.286
 3545SOL     OW11533   4.179   4.920   0.632
 3545SOL    HW111534   4.205   4.849   0.567
 3545SOL    HW211535   4.261   4.969   0.663
 3546SOL     OW11536   0.861   3.882   3.791
 3546SOL    HW111537   0.836   3.952   3.857
 3546SOL    HW211538   0.784   3.867   3.728
 3547SOL     OW11539   6.714   4.579   4.508
 3547SOL    HW111540   6.729   4.501   4.446
 3547SOL    HW211541   6.798   4.598   4.558
 3548SOL     OW11542   5.871   0.441   5.807
 3548SOL    HW111543   5.831   0.513   5.863
 3548SOL    HW211544   5.929   0.383   5.864
 3549SOL     OW11545   6.556   4.597   5.791
 3549SOL    HW111546   6.625   4.594   5.863
 3549SOL    HW211547   6.546   4.691   5.758
 3550SOL     OW11548   5.967   3.507   3.398
 3550SOL    HW111549   5.887   3.514   3.458
 3550SOL    HW211550   6.050   3.503   3.453
 3551SOL     OW11551   3.931   2.011   2.425
 3551SOL    HW111552   4.001   1.948   2.460
 3551SOL    HW211553   3.927   2.092   2.484
 3552SOL     OW11554   6.142   6.417   1.806
 3552SOL    HW111555   6.157   6.460   1.717
 3552SOL    HW211556   6.046   6.429   1.832
 3553SOL     OW11557   4.490   5.401   1.201
 3553SOL    HW111558   4.510   5.399   1.103
 3553SOL    HW211559   4.570   5.433   1.251
 3554SOL     OW11560   4.446   2.197   1.538
 3554SOL    HW111561   4.438   2.106   1.580
 3554SOL    HW211562   4.374   2.208   1.469
 3555SOL     OW11563   0.741   4.498   3.546
 3555SOL    HW111564   0.786   4.544   3.623
 3555SOL    HW211565   0.656   4.455   3.579
 3556SOL     OW11566   4.119   1.579   4.425
 3556SOL    HW111567   4.140   1.481   4.421
 3556SOL    HW211568   4.095   1.611   4.333
 3557SOL     OW11569   1.498   1.725   4.387
 3557SOL    HW111570   1.552   1.655   4.435
 3557SOL    HW211571   1.449   1.683   4.311
 3558SOL     OW11572   0.900   6.337   2.378
 3558SOL    HW111573   0.951   6.408   2.426
 3558SOL    HW211574   0.860   6.375   2.294
 3559SOL     OW11575   0.716   6.039   5.566
 3559SOL    HW111576   0.649   6.050   5.639
 3559SOL    HW211577   0.807   6.064   5.600
 3560SOL     OW11578   1.149   5.948   2.553
 3560SOL    HW111579   1.080   5.938   2.482
 3560SOL    HW211580   1.106   5.944   2.643
 3561SOL     OW11581   4.316   4.778   4.852
 3561SOL    HW111582   4.229   4.801   4.896
 3561SOL    HW211583   4.359   4.702   4.901
 3562SOL     OW11584   4.608   1.235   3.387
 3562SOL    HW111585   4.613   1.241   3.287
 3562SOL    HW211586   4.533   1.291   3.420
 3563SOL     OW11587   5.877   1.130   7.015
 3563SOL    HW111588   5.783   1.098   0.005
 3563SOL    HW211589   5.885   1.223   0.030
 3564SOL     OW11590   2.126   4.386   3.666
 3564SOL    HW111591   2.107   4.336   3.751
 3564SOL    HW211592   2.176   4.328   3.603
 3565SOL     OW11593   2.572   5.851   4.748
 3565SOL    HW111594   2.621   5.772   4.787
 3565SOL    HW211595   2.627   5.933   4.762
 3566SOL     OW11596   6.772   3.831   6.002
 3566SOL    HW111597   6.829   3.758   6.039
 3566SOL    HW211598   6.684   3.794   5.974
 3567SOL     OW11599   0.250   2.904   0.062
 3567SOL    HW111600   0.188   2.880   7.007
 3567SOL    HW211601   0.198   2.920   0.145
 3568SOL     OW11602   4.551   5.113   4.099
 3568SOL    HW111603   4.526   5.016   4.099
 3568SOL    HW211604   4.586   5.138   4.008
 3569SOL     OW11605   1.881   1.652   5.651
 3569SOL    HW111606   1.794   1.607   5.631
 3569SOL    HW211607   1.920   1.688   5.566
 3570SOL     OW11608   5.464   1.045   5.342
 3570SOL    HW111609   5.437   1.141   5.330
 3570SOL    HW211610   5.509   1.014   5.258
 3571SOL     OW11611   0.812   5.533   5.103
 3571SOL    HW111612   0.846   5.494   5.189
 3571SOL    HW211613   0.875   5.510   5.029
 3572SOL     OW11614   5.915   3.265   3.226
 3572SOL    HW111615   5.977   3.274   3.148
 3572SOL    HW211616   5.917   3.350   3.279
 3573SOL     OW11617   0.054   4.911   3.673
 3573SOL    HW111618   6.987   4.861   3.681
 3573SOL    HW211619   0.036   5.005   3.644
 3574SOL     OW11620   0.419   3.079   0.400
 3574SOL    HW111621   0.513   3.047   0.394
 3574SOL    HW211622   0.407   3.136   0.481
 3575SOL     OW11623   5.769   5.492   2.703
 3575SOL    HW111624   5.690   5.505   2.644
 3575SOL    HW211625   5.846   5.459   2.648
 3576SOL     OW11626   0.629   2.555   6.433
 3576SOL    HW111627   0.662   2.622   6.500
 3576SOL    HW211628   0.593   2.603   6.353
 3577SOL     OW11629   1.556   2.050   7.001
 3577SOL    HW111630   1.471   2.036   0.031
 3577SOL    HW211631   1.559   2.143   6.964
 3578SOL     OW11632   3.649   1.602   0.155
 3578SOL    HW111633   3.566   1.635   0.109
 3578SOL    HW211634   3.725   1.605   0.090
 3579SOL     OW11635   6.933   2.297   3.101
 3579SOL    HW111636   6.964   2.298   3.196
 3579SOL    HW211637   6.951   2.386   3.059
 3580SOL     OW11638   6.252   3.467   1.262
 3580SOL    HW111639   6.200   3.543   1.222
 3580SOL    HW211640   6.195   3.385   1.264
 3581SOL     OW11641   1.460   5.054   3.427
 3581SOL    HW111642   1.457   5.095   3.336
 3581SOL    HW211643   1.413   4.965   3.426
 3582SOL     OW11644   1.207   3.292   6.511
 3582SOL    HW111645   1.110   3.290   6.488
 3582SOL    HW211646   1.260   3.310   6.428
 3583SOL     OW11647   1.182   4.797   6.626
 3583SOL    HW111648   1.181   4.897   6.639
 3583SOL    HW211649   1.119   4.754   6.691
 3584SOL     OW11650   5.822   4.524   6.059
 3584SOL    HW111651   5.869   4.473   5.987
 3584SOL    HW211652   5.724   4.502   6.058
 3585SOL     OW11653   2.980   1.576   4.254
 3585SOL    HW111654   3.052   1.585   4.186
 3585SOL    HW211655   2.915   1.505   4.225
 3586SOL     OW11656   6.411   1.425   4.387
 3586SOL    HW111657   6.510   1.439   4.396
 3586SOL    HW211658   6.377   1.474   4.307
 3587SOL     OW11659   2.329   4.606   5.746
 3587SOL    HW111660   2.354   4.536   5.679
 3587SOL    HW211661   2.321   4.695   5.700
 3588SOL     OW11662   0.871   3.144   4.995
 3588SOL    HW111663   0.940   3.207   5.030
 3588SOL    HW211664   0.915   3.058   4.968
 3589SOL     OW11665   5.246   1.068   5.679
 3589SOL    HW111666   5.329   1.016   5.694
 3589SOL    HW211667   5.269   1.161   5.649
 3590SOL     OW11668   0.586   3.644   0.438
 3590SOL    HW111669   0.643   3.562   0.436
 3590SOL    HW211670   0.570   3.676   0.344
 3591SOL     OW11671   5.230   4.215   6.777
 3591SOL    HW111672   5.263   4.137   6.724
 3591SOL    HW211673   5.306   4.279   6.793
 3592SOL     OW11674   0.499   5.628   1.855
 3592SOL    HW111675   0.560   5.645   1.932
 3592SOL    HW211676   0.472   5.716   1.814
 3593SOL     OW11677   0.938   5.476   5.360
 3593SOL    HW111678   0.872   5.504   5.429
 3593SOL    HW211679   1.024   5.524   5.374
 3594SOL     OW11680   4.784   6.610   3.103
 3594SOL    HW111681   4.811   6.706   3.110
 3594SOL    HW211682   4.855   6.558   3.055
 3595SOL     OW11683   4.390   6.176   6.108
 3595SOL    HW111684   4.372   6.086   6.146
 3595SOL    HW211685   4.339   6.245   6.159
 3596SOL     OW11686   6.189   3.402   2.516
 3596SOL    HW111687   6.143   3.415   2.428
 3596SOL    HW211688   6.143   3.331   2.569
 3597SOL     OW11689   2.123   2.008   5.658
 3597SOL    HW111690   2.116   1.977   5.563
 3597SOL    HW211691   2.096   2.104   5.664
 3598SOL     OW11692   1.098   5.987   6.114
 3598SOL    HW111693   0.999   5.991   6.125
 3598SOL    HW211694   1.140   6.067   6.157
 3599SOL     OW11695   5.231   2.159   6.604
 3599SOL    HW111696   5.263   2.079   6.654
 3599SOL    HW211697   5.256   2.150   6.507
 3600SOL     OW11698   0.673   3.208   1.705
 3600SOL    HW111699   0.695   3.298   1.742
 3600SOL    HW211700   0.741   3.141   1.736
 3601SOL     OW11701   4.807   3.196   6.375
 3601SOL    HW111702   4.804   3.225   6.279
 3601SOL    HW211703   4.763   3.265   6.432
 3602SOL     OW11704   0.912   3.733   0.928
 3602SOL    HW111705   0.823   3.758   0.966
 3602SOL    HW211706   0.936   3.640   0.955
 3603SOL     OW11707   3.641   1.478   4.492
 3603SOL    HW111708   3.692   1.485   4.577
 3603SOL    HW211709   3.631   1.569   4.451
 3604SOL     OW11710   6.717   6.183   3.430
 3604SOL    HW111711   6.733   6.210   3.335
 3604SOL    HW211712   6.802   6.187   3.481
 3605SOL     OW11713   6.895   4.129   3.898
 3605SOL    HW111714   6.806   4.141   3.941
 3605SOL    HW211715   6.907   4.033   3.872
 3606SOL     OW11716   0.583   0.284   4.253
 3606SOL    HW111717   0.527   0.366   4.239
 3606SOL    HW211718   0.679   0.310   4.261
 3607SOL     OW11719   5.371   5.460   1.820
 3607SOL    HW111720   5.359   5.406   1.737
 3607SOL    HW211721   5.432   5.412   1.882
 3608SOL     OW11722   4.577   2.193   4.455
 3608SOL    HW111723   4.538   2.135   4.384
 3608SOL    HW211724   4.646   2.141   4.506
 3609SOL     OW11725   1.294   0.393   4.012
 3609SOL    HW111726   1.324   0.330   3.941
 3609SOL    HW211727   1.311   0.352   4.102
 3610SOL     OW11728   1.587   0.087   6.000
 3610SOL    HW111729   1.682   0.110   5.979
 3610SOL    HW211730   1.581   7.010   6.022
 3611SOL     OW11731   4.718   4.652   4.678
 3611SOL    HW111732   4.651   4.586   4.714
 3611SOL    HW211733   4.678   4.743   4.678
 3612SOL     OW11734   0.248   0.260   0.079
 3612SOL    HW111735   0.258   0.356   0.051
 3612SOL    HW211736   0.157   0.246   0.118
 3613SOL     OW11737   4.809   4.823   2.239
 3613SOL    HW111738   4.900   4.818   2.281
 3613SOL    HW211739   4.787   4.736   2.196
 3614SOL     OW11740   3.538   3.467   0.723
 3614SOL    HW111741   3.579   3.408   0.792
 3614SOL    HW211742   3.569   3.561   0.736
 3615SOL     OW11743   4.827   3.649   6.171
 3615SOL    HW111744   4.862   3.743   6.173
 3615SOL    HW211745   4.898   3.587   6.206
 3616SOL     OW11746   0.097   1.482   6.585
 3616SOL    HW111747   0.073   1.493   6.488
 3616SOL    HW211748   0.013   1.466   6.637
 3617SOL     OW11749   4.642   1.005   6.658
 3617SOL    HW111750   4.551   1.003   6.618
 3617SOL    HW211751   4.644   0.948   6.740
 3618SOL     OW11752   2.299   3.025   5.409
 3618SOL    HW111753   2.370   3.069   5.354
 3618SOL    HW211754   2.219   3.007   5.350
 3619SOL     OW11755   5.895   2.549   4.924
 3619SOL    HW111756   5.881   2.479   4.994
 3619SOL    HW211757   5.971   2.522   4.865
 3620SOL     OW11758   6.422   5.556   5.510
 3620SOL    HW111759   6.322   5.550   5.507
 3620SOL    HW211760   6.461   5.464   5.506
 3621SOL     OW11761   3.399   2.856   5.418
 3621SOL    HW111762   3.463   2.880   5.491
 3621SOL    HW211763   3.364   2.764   5.433
 3622SOL     OW11764   1.054   1.801   6.925
 3622SOL    HW111765   1.056   1.701   6.927
 3622SOL    HW211766   1.086   1.834   6.836
 3623SOL     OW11767   6.799   6.231   4.389
 3623SOL    HW111768   6.880   6.207   4.334
 3623SOL    HW211769   6.799   6.329   4.408
 3624SOL     OW11770   1.340   0.183   2.368
 3624SOL    HW111771   1.412   0.252   2.373
 3624SOL    HW211772   1.312   0.171   2.272
 3625SOL     OW11773   0.313   3.067   6.572
 3625SOL    HW111774   0.329   2.986   6.516
 3625SOL    HW211775   0.217   3.096   6.562
 3626SOL     OW11776   1.108   2.829   5.398
 3626SOL    HW111777   1.097   2.816   5.496
 3626SOL    HW211778   1.022   2.861   5.358
 3627SOL     OW11779   3.701   3.351   1.242
 3627SOL    HW111780   3.737   3.442   1.219
 3627SOL    HW211781   3.682   3.347   1.340
 3628SOL     OW11782   0.832   1.538   2.489
 3628SOL    HW111783   0.926   1.570   2.478
 3628SOL    HW211784   0.828   1.439   2.477
 3629SOL     OW11785   0.708   1.147   5.614
 3629SOL    HW111786   0.739   1.203   5.537
 3629SOL    HW211787   0.622   1.184   5.649
 3630SOL     OW11788   5.187   2.123   4.160
 3630SOL    HW111789   5.147   2.031   4.164
 3630SOL    HW211790   5.119   2.187   4.123
 3631SOL     OW11791   2.107   0.968   3.060
 3631SOL    HW111792   2.122   0.919   2.974
 3631SOL    HW211793   2.009   0.987   3.071
 3632SOL     OW11794   5.236   5.359   1.139
 3632SOL    HW111795   5.156   5.412   1.168
 3632SOL    HW211796   5.254   5.376   1.042
 3633SOL     OW11797   4.304   2.242   5.876
 3633SOL    HW111798   4.238   2.292   5.820
 3633SOL    HW211799   4.291   2.267   5.972
 3634SOL     OW11800   1.863   5.346   5.697
 3634SOL    HW111801   1.853   5.445   5.706
 3634SOL    HW211802   1.776   5.306   5.669
 3635SOL     OW11803   3.204   0.064   1.158
 3635SOL    HW111804   3.190   0.029   1.250
 3635SOL    HW211805   3.257   0.149   1.162
 3636SOL     OW11806   6.506   5.946   0.873
 3636SOL    HW111807   6.521   5.896   0.787
 3636SOL    HW211808   6.537   5.890   0.950
 3637SOL     OW11809   0.302   2.448   2.062
 3637SOL    HW111810   0.344   2.447   2.153
 3637SOL    HW211811   0.217   2.397   2.064
 3638SOL     OW11812   0.197   3.908   2.898
 3638SOL    HW111813   0.125   3.864   2.844
 3638SOL    HW211814   0.233   3.844   2.966
 3639SOL     OW11815   4.135   5.444   0.436
 3639SOL    HW111816   4.042   5.407   0.432
 3639SOL    HW211817   4.158   5.487   0.349
 3640SOL     OW11818   4.466   1.161   6.957
 3640SOL    HW111819   4.545   1.126   7.007
 3640SOL    HW211820   4.389   1.098   6.967
 3641SOL     OW11821   6.118   3.767   2.004
 3641SOL    HW111822   6.042   3.795   1.945
 3641SOL    HW211823   6.101   3.800   2.097
 3642SOL     OW11824   5.193   2.216   0.134
 3642SOL    HW111825   5.200   2.142   0.068
 3642SOL    HW211826   5.100   2.219   0.171
 3643SOL     OW11827   2.432   5.932   4.546
 3643SOL    HW111828   2.337   5.944   4.576
 3643SOL    HW211829   2.484   5.885   4.617
 3644SOL     OW11830   1.868   1.634   2.051
 3644SOL    HW111831   1.913   1.559   2.004
 3644SOL    HW211832   1.771   1.612   2.065
 3645SOL     OW11833   1.771   2.308   3.918
 3645SOL    HW111834   1.794   2.232   3.857
 3645SOL    HW211835   1.781   2.395   3.869
 3646SOL     OW11836   1.353   4.126   5.974
 3646SOL    HW111837   1.389   4.080   5.893
 3646SOL    HW211838   1.420   4.123   6.048
 3647SOL     OW11839   2.321   6.370   6.732
 3647SOL    HW111840   2.392   6.364   6.662
 3647SOL    HW211841   2.358   6.416   6.813
 3648SOL     OW11842   4.437   6.210   2.718
 3648SOL    HW111843   4.510   6.236   2.781
 3648SOL    HW211844   4.378   6.289   2.701
 3649SOL     OW11845   5.788   3.105   1.156
 3649SOL    HW111846   5.758   3.022   1.110
 3649SOL    HW211847   5.888   3.106   1.160
 3650SOL     OW11848   6.447   5.160   1.817
 3650SOL    HW111849   6.432   5.248   1.772
 3650SOL    HW211850   6.404   5.160   1.907
 3651SOL     OW11851   0.967   0.759   3.922
 3651SOL    HW111852   0.962   0.838   3.861
 3651SOL    HW211853   1.046   0.769   3.984
 3652SOL     OW11854   6.223   6.939   3.467
 3652SOL    HW111855   6.175   6.906   3.548
 3652SOL    HW211856   6.322   6.932   3.481
 3653SOL     OW11857   1.303   1.499   3.058
 3653SOL    HW111858   1.232   1.561   3.091
 3653SOL    HW211859   1.369   1.551   3.004
 3654SOL     OW11860   3.863   4.747   0.456
 3654SOL    HW111861   3.763   4.736   0.458
 3654SOL    HW211862   3.904   4.670   0.406
 3655SOL     OW11863   3.415   0.520   3.709
 3655SOL    HW111864   3.385   0.425   3.720
 3655SOL    HW211865   3.398   0.551   3.616
 3656SOL     OW11866   0.466   5.166   1.238
 3656SOL    HW111867   0.413   5.094   1.283
 3656SOL    HW211868   0.418   5.195   1.155
 3657SOL     OW11869   5.081   5.106   5.257
 3657SOL    HW111870   5.174   5.087   5.225
 3657SOL    HW211871   5.084   5.175   5.328
 3658SOL     OW11872   2.989   4.602   6.430
 3658SOL    HW111873   3.050   4.643   6.362
 3658SOL    HW211874   2.953   4.674   6.489
 3659SOL     OW11875   1.897   2.633   5.964
 3659SOL    HW111876   1.865   2.673   6.050
 3659SOL    HW211877   1.853   2.680   5.887
 3660SOL     OW11878   6.153   6.298   4.381
 3660SOL    HW111879   6.108   6.278   4.468
 3660SOL    HW211880   6.252   6.291   4.392
 3661SOL     OW11881   0.202   0.502   4.715
 3661SOL    HW111882   0.300   0.517   4.727
 3661SOL    HW211883   0.161   0.476   4.802
 3662SOL     OW11884   4.205   0.543   4.266
 3662SOL    HW111885   4.172   0.453   4.237
 3662SOL    HW211886   4.282   0.532   4.329
 3663SOL     OW11887   1.794   3.091   0.495
 3663SOL    HW111888   1.737   3.046   0.425
 3663SOL    HW211889   1.806   3.029   0.572
 3664SOL     OW11890   4.484   2.161   2.276
 3664SOL    HW111891   4.487   2.124   2.368
 3664SOL    HW211892   4.467   2.259   2.280
 3665SOL     OW11893   1.204   6.165   4.947
 3665SOL    HW111894   1.135   6.210   5.003
 3665SOL    HW211895   1.161   6.095   4.890
 3666SOL     OW11896   1.105   3.959   3.215
 3666SOL    HW111897   1.174   4.014   3.168
 3666SOL    HW211898   1.033   4.019   3.250
 3667SOL     OW11899   0.305   1.664   3.624
 3667SOL    HW111900   0.308   1.588   3.689
 3667SOL    HW211901   0.283   1.629   3.533
 3668SOL     OW11902   1.141   0.893   1.311
 3668SOL    HW111903   1.110   0.884   1.406
 3668SOL    HW211904   1.095   0.825   1.254
 3669SOL     OW11905   6.097   1.772   3.557
 3669SOL    HW111906   6.120   1.694   3.499
 3669SOL    HW211907   6.131   1.756   3.650
 3670SOL     OW11908   2.368   5.153   6.596
 3670SOL    HW111909   2.445   5.206   6.562
 3670SOL    HW211910   2.288   5.171   6.539
 3671SOL     OW11911   0.186   1.949   4.316
 3671SOL    HW111912   0.204   1.853   4.336
 3671SOL    HW211913   0.188   1.964   4.217
 3672SOL     OW11914   4.628   2.046   2.578
 3672SOL    HW111915   4.582   2.134   2.566
 3672SOL    HW211916   4.573   1.988   2.638
 3673SOL     OW11917   3.845   5.733   0.060
 3673SOL    HW111918   3.857   5.786   0.144
 3673SOL    HW211919   3.814   5.640   0.083
 3674SOL     OW11920   2.058   5.880   5.705
 3674SOL    HW111921   2.045   5.973   5.671
 3674SOL    HW211922   2.145   5.844   5.670
 3675SOL     OW11923   1.618   2.547   4.043
 3675SOL    HW111924   1.623   2.594   4.131
 3675SOL    HW211925   1.593   2.451   4.058
 3676SOL     OW11926   6.035   4.149   2.453
 3676SOL    HW111927   6.000   4.061   2.486
 3676SOL    HW211928   6.132   4.157   2.476
 3677SOL     OW11929   2.931   6.759   4.369
 3677SOL    HW111930   2.936   6.719   4.278
 3677SOL    HW211931   2.859   6.714   4.422
 3678SOL     OW11932   1.432   1.441   4.656
 3678SOL    HW111933   1.381   1.489   4.585
 3678SOL    HW211934   1.486   1.367   4.615
 3679SOL     OW11935   6.980   0.577   3.271
 3679SOL    HW111936   6.958   0.487   3.235
 3679SOL    HW211937   0.052   0.576   3.312
 3680SOL     OW11938   5.178   2.530   3.984
 3680SOL    HW111939   5.128   2.444   3.997
 3680SOL    HW211940   5.275   2.510   3.970
 3681SOL     OW11941   1.065   1.271   6.769
 3681SOL    HW111942   0.973   1.237   6.788
 3681SOL    HW211943   1.127   1.242   6.842
 3682SOL     OW11944   5.642   2.431   0.093
 3682SOL    HW111945   5.562   2.395   0.142
 3682SOL    HW211946   5.718   2.367   0.103
 3683SOL     OW11947   0.603   1.555   4.192
 3683SOL    HW111948   0.608   1.637   4.135
 3683SOL    HW211949   0.613   1.474   4.134
 3684SOL     OW11950   0.868   5.459   0.569
 3684SOL    HW111951   0.947   5.466   0.631
 3684SOL    HW211952   0.879   5.379   0.510
 3685SOL     OW11953   2.296   5.782   5.648
 3685SOL    HW111954   2.357   5.715   5.689
 3685SOL    HW211955   2.333   5.812   5.560
 3686SOL     OW11956   6.400   4.964   4.616
 3686SOL    HW111957   6.327   4.921   4.668
 3686SOL    HW211958   6.434   4.901   4.547
 3687SOL     OW11959   4.299   6.115   4.649
 3687SOL    HW111960   4.338   6.044   4.706
 3687SOL    HW211961   4.372   6.175   4.616
 3688SOL     OW11962   6.831   3.032   6.888
 3688SOL    HW111963   6.871   3.041   6.979
 3688SOL    HW211964   6.735   3.005   6.896
 3689SOL     OW11965   2.068   0.801   6.063
 3689SOL    HW111966   2.059   0.888   6.014
 3689SOL    HW211967   1.982   0.751   6.058
 3690SOL     OW11968   3.800   5.614   0.449
 3690SOL    HW111969   3.826   5.517   0.447
 3690SOL    HW211970   3.733   5.631   0.377
 3691SOL     OW11971   2.514   1.721   0.346
 3691SOL    HW111972   2.611   1.698   0.352
 3691SOL    HW211973   2.499   1.781   0.267
 3692SOL     OW11974   6.436   5.138   5.253
 3692SOL    HW111975   6.337   5.137   5.237
 3692SOL    HW211976   6.483   5.121   5.166
 3693SOL     OW11977   2.512   2.458   3.310
 3693SOL    HW111978   2.472   2.548   3.325
 3693SOL    HW211979   2.441   2.388   3.310
 3694SOL     OW11980   1.697   6.768   2.386
 3694SOL    HW111981   1.628   6.818   2.334
 3694SOL    HW211982   1.669   6.673   2.397
 3695SOL     OW11983   4.991   2.507   1.336
 3695SOL    HW111984   4.950   2.437   1.276
 3695SOL    HW211985   5.089   2.510   1.320
 3696SOL     OW11986   4.215   0.244   4.257
 3696SOL    HW111987   4.309   0.277   4.248
 3696SOL    HW211988   4.210   0.178   4.331
 3697SOL     OW11989   0.146   5.967   2.765
 3697SOL    HW111990   0.136   6.001   2.859
 3697SOL    HW211991   0.220   5.900   2.762
 3698SOL     OW11992   2.576   0.909   3.394
 3698SOL    HW111993   2.524   0.915   3.309
 3698SOL    HW211994   2.650   0.976   3.392
 3699SOL     OW11995   2.100   1.054   3.611
 3699SOL    HW111996   2.068   0.995   3.537
 3699SOL    HW211997   2.157   1.127   3.574
 3700SOL     OW11998   1.654   4.530   5.094
 3700SOL    HW111999   1.554   4.523   5.087
 3700SOL    HW212000   1.694   4.535   5.003
 3701SOL     OW12001   1.606   0.374   3.417
 3701SOL    HW112002   1.690   0.396   3.467
 3701SOL    HW212003   1.623   0.380   3.319
 3702SOL     OW12004   5.574   6.423   3.330
 3702SOL    HW112005   5.671   6.446   3.322
 3702SOL    HW212006   5.546   6.429   3.426
 3703SOL     OW12007   0.301   0.677   6.668
 3703SOL    HW112008   0.310   0.591   6.718
 3703SOL    HW212009   0.230   0.733   6.711
 3704SOL     OW12010   4.062   2.417   1.458
 3704SOL    HW112011   3.987   2.483   1.467
 3704SOL    HW212012   4.074   2.369   1.544
 3705SOL     OW12013   5.721   4.059   4.741
 3705SOL    HW112014   5.625   4.060   4.712
 3705SOL    HW212015   5.746   3.966   4.768
 3706SOL     OW12016   0.427   3.752   6.675
 3706SOL    HW112017   0.484   3.712   6.747
 3706SOL    HW212018   0.341   3.784   6.715
 3707SOL     OW12019   4.998   5.738   4.946
 3707SOL    HW112020   5.043   5.731   5.035
 3707SOL    HW212021   5.065   5.768   4.878
 3708SOL     OW12022   5.437   6.892   0.933
 3708SOL    HW112023   5.426   6.799   0.966
 3708SOL    HW212024   5.366   6.913   0.865
 3709SOL     OW12025   3.421   0.005   1.530
 3709SOL    HW112026   3.472   0.079   1.574
 3709SOL    HW212027   3.468   6.998   1.446
 3710SOL     OW12028   6.536   5.349   5.052
 3710SOL    HW112029   6.581   5.261   5.070
 3710SOL    HW212030   6.589   5.400   4.984
 3711SOL     OW12031   1.512   5.575   5.275
 3711SOL    HW112032   1.434   5.557   5.335
 3711SOL    HW212033   1.518   5.673   5.257
 3712SOL     OW12034   1.244   5.474   6.728
 3712SOL    HW112035   1.173   5.502   6.792
 3712SOL    HW212036   1.251   5.540   6.654
 3713SOL     OW12037   0.243   0.223   5.169
 3713SOL    HW112038   0.204   0.143   5.123
 3713SOL    HW212039   0.343   0.219   5.165
 3714SOL     OW12040   5.621   5.862   6.425
 3714SOL    HW112041   5.689   5.931   6.399
 3714SOL    HW212042   5.530   5.897   6.405
 3715SOL     OW12043   1.169   4.123   2.447
 3715SOL    HW112044   1.218   4.190   2.503
 3715SOL    HW212045   1.095   4.168   2.398
 3716SOL     OW12046   6.079   6.201   4.633
 3716SOL    HW112047   6.105   6.107   4.613
 3716SOL    HW212048   6.157   6.249   4.673
 3717SOL     OW12049   5.553   0.427   0.104
 3717SOL    HW112050   5.583   0.458   0.195
 3717SOL    HW212051   5.489   0.351   0.115
 3718SOL     OW12052   0.083   0.376   0.293
 3718SOL    HW112053   0.111   0.431   0.371
 3718SOL    HW212054   0.021   0.430   0.235
 3719SOL     OW12055   4.595   2.945   0.345
 3719SOL    HW112056   4.499   2.971   0.338
 3719SOL    HW212057   4.624   2.902   0.259
 3720SOL     OW12058   5.389   3.215   0.524
 3720SOL    HW112059   5.298   3.226   0.485
 3720SOL    HW212060   5.395   3.127   0.571
 3721SOL     OW12061   6.838   4.974   0.956
 3721SOL    HW112062   6.917   4.980   1.018
 3721SOL    HW212063   6.838   5.052   0.894
 3722SOL     OW12064   5.495   6.093   1.016
 3722SOL    HW112065   5.524   6.168   0.956
 3722SOL    HW212066   5.573   6.035   1.037
 3723SOL     OW12067   4.536   4.985   0.383
 3723SOL    HW112068   4.525   4.889   0.405
 3723SOL    HW212069   4.452   5.035   0.403
 3724SOL     OW12070   1.856   4.392   5.596
 3724SOL    HW112071   1.956   4.396   5.603
 3724SOL    HW212072   1.830   4.328   5.524
 3725SOL     OW12073   0.403   5.455   6.636
 3725SOL    HW112074   0.434   5.402   6.558
 3725SOL    HW212075   0.409   5.552   6.615
 3726SOL     OW12076   5.344   3.146   6.202
 3726SOL    HW112077   5.265   3.086   6.210
 3726SOL    HW212078   5.428   3.091   6.199
 3727SOL     OW12079   6.781   2.476   5.575
 3727SOL    HW112080   6.789   2.380   5.548
 3727SOL    HW212081   6.861   2.526   5.544
 3728SOL     OW12082   1.243   3.196   6.770
 3728SOL    HW112083   1.325   3.214   6.825
 3728SOL    HW212084   1.247   3.249   6.686
 3729SOL     OW12085   1.821   1.625   4.119
 3729SOL    HW112086   1.765   1.546   4.093
 3729SOL    HW212087   1.761   1.700   4.146
 3730SOL     OW12088   3.770   6.220   5.449
 3730SOL    HW112089   3.832   6.233   5.372
 3730SOL    HW212090   3.796   6.137   5.499
 3731SOL     OW12091   0.180   1.379   0.791
 3731SOL    HW112092   0.185   1.282   0.764
 3731SOL    HW212093   0.089   1.414   0.770
 3732SOL     OW12094   2.263   1.773   0.444
 3732SOL    HW112095   2.254   1.823   0.530
 3732SOL    HW212096   2.357   1.781   0.411
 3733SOL     OW12097   2.031   2.736   3.154
 3733SOL    HW112098   2.048   2.639   3.135
 3733SOL    HW212099   2.117   2.787   3.152
 3734SOL     OW12100   4.982   0.190   1.156
 3734SOL    HW112101   5.078   0.184   1.127
 3734SOL    HW212102   4.978   0.193   1.256
 3735SOL     OW12103   3.216   0.666   2.493
 3735SOL    HW112104   3.125   0.652   2.455
 3735SOL    HW212105   3.221   0.628   2.585
 3736SOL     OW12106   0.497   1.168   1.090
 3736SOL    HW112107   0.495   1.168   1.190
 3736SOL    HW212108   0.505   1.261   1.056
 3737SOL     OW12109   5.749   1.129   3.580
 3737SOL    HW112110   5.846   1.151   3.586
 3737SOL    HW212111   5.735   1.033   3.605
 3738SOL     OW12112   6.114   0.522   1.387
 3738SOL    HW112113   6.133   0.613   1.351
 3738SOL    HW212114   6.051   0.529   1.464
 3739SOL     OW12115   2.495   4.715   1.322
 3739SOL    HW112116   2.445   4.652   1.381
 3739SOL    HW212117   2.594   4.704   1.337
 3740SOL     OW12118   6.578   6.760   0.407
 3740SOL    HW112119   6.520   6.681   0.426
 3740SOL    HW212120   6.538   6.842   0.449
 3741SOL     OW12121   4.918   2.679   6.410
 3741SOL    HW112122   4.870   2.762   6.438
 3741SOL    HW212123   4.870   2.599   6.446
 3742SOL     OW12124   3.689   0.822   0.250
 3742SOL    HW112125   3.680   0.913   0.210
 3742SOL    HW212126   3.773   0.817   0.304
 3743SOL     OW12127   5.620   3.355   0.390
 3743SOL    HW112128   5.531   3.326   0.425
 3743SOL    HW212129   5.629   3.454   0.397
 3744SOL     OW12130   1.113   6.087   1.332
 3744SOL    HW112131   1.069   6.169   1.369
 3744SOL    HW212132   1.193   6.064   1.387
 3745SOL     OW12133   4.918   4.180   3.194
 3745SOL    HW112134   4.822   4.191   3.168
 3745SOL    HW212135   4.952   4.093   3.157
 3746SOL     OW12136   6.947   6.943   3.604
 3746SOL    HW112137   6.963   6.916   3.508
 3746SOL    HW212138   6.958   0.022   3.613
 3747SOL     OW12139   4.504   5.745   5.340
 3747SOL    HW112140   4.434   5.754   5.411
 3747SOL    HW212141   4.464   5.771   5.252
 3748SOL     OW12142   5.307   1.273   1.852
 3748SOL    HW112143   5.262   1.194   1.894
 3748SOL    HW212144   5.238   1.327   1.802
 3749SOL     OW12145   2.727   4.818   2.840
 3749SOL    HW112146   2.713   4.752   2.913
 3749SOL    HW212147   2.639   4.856   2.812
 3750SOL     OW12148   6.402   4.523   0.989
 3750SOL    HW112149   6.425   4.431   1.019
 3750SOL    HW212150   6.347   4.569   1.059
 3751SOL     OW12151   6.727   3.377   0.952
 3751SOL    HW112152   6.799   3.375   1.022
 3751SOL    HW212153   6.638   3.373   0.996
 3752SOL     OW12154   0.391   6.765   0.038
 3752SOL    HW112155   0.476   6.753   0.090
 3752SOL    HW212156   0.326   6.817   0.093
 3753SOL     OW12157   0.018   1.157   4.144
 3753SOL    HW112158   0.047   1.062   4.129
 3753SOL    HW212159   0.079   1.218   4.093
 3754SOL     OW12160   3.994   6.600   1.353
 3754SOL    HW112161   3.944   6.517   1.327
 3754SOL    HW212162   3.931   6.665   1.394
 3755SOL     OW12163   5.736   5.867   4.353
 3755SOL    HW112164   5.637   5.854   4.363
 3755SOL    HW212165   5.754   5.963   4.329
 3756SOL     OW12166   2.545   6.573   5.981
 3756SOL    HW112167   2.570   6.479   5.958
 3756SOL    HW212168   2.464   6.599   5.928
 3757SOL     OW12169   4.057   6.494   6.341
 3757SOL    HW112170   3.968   6.538   6.344
 3757SOL    HW212171   4.100   6.500   6.431
 3758SOL     OW12172   1.831   1.423   4.708
 3758SOL    HW112173   1.775   1.344   4.733
 3758SOL    HW212174   1.911   1.392   4.657
 3759SOL     OW12175   4.522   5.804   6.100
 3759SOL    HW112176   4.562   5.792   6.190
 3759SOL    HW212177   4.428   5.836   6.108
 3760SOL     OW12178   2.034   2.424   4.366
 3760SOL    HW112179   2.110   2.485   4.386
 3760SOL    HW212180   1.959   2.441   4.431
 3761SOL     OW12181   0.755   0.780   5.605
 3761SOL    HW112182   0.713   0.757   5.693
 3761SOL    HW212183   0.687   0.769   5.532
 3762SOL     OW12184   0.989   4.887   0.199
 3762SOL    HW112185   0.909   4.932   0.238
 3762SOL    HW212186   0.962   4.832   0.121
 3763SOL     OW12187   0.019   4.300   0.296
 3763SOL    HW112188   0.095   4.242   0.268
 3763SOL    HW212189   0.048   4.361   0.369
 3764SOL     OW12190   2.027   6.988   4.025
 3764SOL    HW112191   2.114   7.006   3.977
 3764SOL    HW212192   1.961   6.951   3.960
 3765SOL     OW12193   4.746   1.124   1.173
 3765SOL    HW112194   4.661   1.101   1.125
 3765SOL    HW212195   4.736   1.102   1.270
 3766SOL     OW12196   0.863   1.603   3.477
 3766SOL    HW112197   0.962   1.617   3.480
 3766SOL    HW212198   0.816   1.690   3.495
 3767SOL     OW12199   2.123   4.747   0.362
 3767SOL    HW112200   2.127   4.801   0.447
 3767SOL    HW212201   2.177   4.793   0.292
 3768SOL     OW12202   2.010   5.840   4.816
 3768SOL    HW112203   1.968   5.869   4.901
 3768SOL    HW212204   1.944   5.786   4.763
 3769SOL     OW12205   6.026   5.935   5.523
 3769SOL    HW112206   6.071   5.960   5.609
 3769SOL    HW212207   5.934   5.901   5.542
 3770SOL     OW12208   1.828   0.223   6.646
 3770SOL    HW112209   1.866   0.290   6.710
 3770SOL    HW212210   1.899   0.195   6.581
 3771SOL     OW12211   6.127   2.995   6.840
 3771SOL    HW112212   6.144   3.012   6.937
 3771SOL    HW212213   6.094   3.079   6.796
 3772SOL     OW12214   6.970   0.645   0.277
 3772SOL    HW112215   6.889   0.704   0.273
 3772SOL    HW212216   7.011   0.651   0.368
 3773SOL     OW12217   6.554   2.892   6.334
 3773SOL    HW112218   6.576   2.796   6.351
 3773SOL    HW212219   6.489   2.924   6.402
 3774SOL     OW12220   0.197   6.032   0.019
 3774SOL    HW112221   0.106   6.035   0.061
 3774SOL    HW212222   0.236   5.941   0.031
 3775SOL     OW12223   4.936   5.232   2.050
 3775SOL    HW112224   4.924   5.255   1.953
 3775SOL    HW212225   5.008   5.290   2.089
 3776SOL     OW12226   4.013   1.630   1.300
 3776SOL    HW112227   3.917   1.626   1.329
 3776SOL    HW212228   4.037   1.544   1.255
 3777SOL     OW12229   3.315   5.086   4.829
 3777SOL    HW112230   3.242   5.032   4.871
 3777SOL    HW212231   3.323   5.060   4.732
 3778SOL     OW12232   3.379   4.855   2.618
 3778SOL    HW112233   3.351   4.762   2.597
 3778SOL    HW212234   3.315   4.895   2.684
 3779SOL     OW12235   2.206   5.005   0.950
 3779SOL    HW112236   2.246   4.924   0.906
 3779SOL    HW212237   2.172   4.980   1.041
 3780SOL     OW12238   5.023   5.836   5.838
 3780SOL    HW112239   4.989   5.820   5.746
 3780SOL    HW212240   5.084   5.762   5.865
 3781SOL     OW12241   1.317   0.270   4.283
 3781SOL    HW112242   1.363   0.181   4.277
 3781SOL    HW212243   1.375   0.334   4.335
 3782SOL     OW12244   2.794   0.948   4.298
 3782SOL    HW112245   2.849   1.014   4.247
 3782SOL    HW212246   2.744   0.996   4.370
 3783SOL     OW12247   5.405   5.653   4.241
 3783SOL    HW112248   5.307   5.675   4.249
 3783SOL    HW212249   5.444   5.703   4.164
 3784SOL     OW12250   4.754   2.866   2.527
 3784SOL    HW112251   4.760   2.965   2.522
 3784SOL    HW212252   4.731   2.829   2.437
 3785SOL     OW12253   1.097   1.552   6.800
 3785SOL    HW112254   1.190   1.584   6.785
 3785SOL    HW212255   1.096   1.452   6.803
 3786SOL     OW12256   2.349   6.874   3.276
 3786SOL    HW112257   2.403   6.853   3.358
 3786SOL    HW212258   2.273   6.808   3.268
 3787SOL     OW12259   5.870   0.107   2.558
 3787SOL    HW112260   5.883   0.030   2.495
 3787SOL    HW212261   5.922   0.089   2.642
 3788SOL     OW12262   0.954   4.188   4.268
 3788SOL    HW112263   0.978   4.284   4.286
 3788SOL    HW212264   0.992   4.130   4.340
 3789SOL     OW12265   0.117   3.314   5.002
 3789SOL    HW112266   0.026   3.351   4.985
 3789SOL    HW212267   0.180   3.388   5.025
 3790SOL     OW12268   1.702   4.652   5.631
 3790SOL    HW112269   1.738   4.560   5.639
 3790SOL    HW212270   1.620   4.652   5.574
 3791SOL     OW12271   6.215   0.163   0.392
 3791SOL    HW112272   6.158   0.143   0.472
 3791SOL    HW212273   6.252   0.256   0.400
 3792SOL     OW12274   0.926   1.131   4.575
 3792SOL    HW112275   0.962   1.038   4.566
 3792SOL    HW212276   0.831   1.126   4.607
 3793SOL     OW12277   4.578   0.024   2.742
 3793SOL    HW112278   4.569   6.946   2.761
 3793SOL    HW212279   4.588   0.074   2.828
 3794SOL     OW12280   2.353   4.258   1.078
 3794SOL    HW112281   2.431   4.316   1.054
 3794SOL    HW212282   2.286   4.261   1.004
 3795SOL     OW12283   3.586   5.898   5.837
 3795SOL    HW112284   3.491   5.903   5.869
 3795SOL    HW212285   3.640   5.971   5.878
 3796SOL     OW12286   2.445   1.658   0.781
 3796SOL    HW112287   2.506   1.592   0.737
 3796SOL    HW212288   2.356   1.657   0.735
 3797SOL     OW12289   0.023   4.319   2.683
 3797SOL    HW112290   6.961   4.290   2.731
 3797SOL    HW212291   0.003   4.399   2.628
 3798SOL     OW12292   3.694   6.041   2.841
 3798SOL    HW112293   3.783   6.084   2.855
 3798SOL    HW212294   3.702   5.971   2.770
 3799SOL     OW12295   0.853   2.128   4.079
 3799SOL    HW112296   0.887   2.063   4.011
 3799SOL    HW212297   0.838   2.217   4.036
 3800SOL     OW12298   5.792   3.163   4.394
 3800SOL    HW112299   5.745   3.214   4.467
 3800SOL    HW212300   5.725   3.107   4.345
 3801SOL     OW12301   5.817   6.250   3.146
 3801SOL    HW112302   5.908   6.277   3.112
 3801SOL    HW212303   5.827   6.184   3.221
 3802SOL     OW12304   0.961   2.369   2.919
 3802SOL    HW112305   0.866   2.373   2.950
 3802SOL    HW212306   0.972   2.293   2.855
 3803SOL     OW12307   3.732   2.100   1.045
 3803SOL    HW112308   3.755   2.008   1.013
 3803SOL    HW212309   3.805   2.133   1.105
 3804SOL     OW12310   5.529   1.558   3.497
 3804SOL    HW112311   5.587   1.636   3.470
 3804SOL    HW212312   5.582   1.474   3.491
 3805SOL     OW12313   2.925   3.359   2.200
 3805SOL    HW112314   2.856   3.322   2.137
 3805SOL    HW212315   2.931   3.458   2.188
 3806SOL     OW12316   3.456   4.076   6.743
 3806SOL    HW112317   3.371   4.126   6.757
 3806SOL    HW212318   3.507   4.116   6.667
 3807SOL     OW12319   2.299   6.697   3.731
 3807SOL    HW112320   2.336   6.604   3.729
 3807SOL    HW212321   2.240   6.711   3.651
 3808SOL     OW12322   4.734   0.098   1.060
 3808SOL    HW112323   4.696   0.018   1.107
 3808SOL    HW212324   4.822   0.120   1.100
 3809SOL     OW12325   5.483   2.711   0.573
 3809SOL    HW112326   5.383   2.709   0.580
 3809SOL    HW212327   5.515   2.626   0.530
 3810SOL     OW12328   4.783   2.368   5.123
 3810SOL    HW112329   4.742   2.279   5.144
 3810SOL    HW212330   4.826   2.406   5.205
 3811SOL     OW12331   1.152   4.186   3.987
 3811SOL    HW112332   1.231   4.245   3.968
 3811SOL    HW212333   1.103   4.222   4.067
 3812SOL     OW12334   4.980   0.022   5.444
 3812SOL    HW112335   4.974   0.073   5.530
 3812SOL    HW212336   5.075   7.016   5.427
 3813SOL     OW12337   4.534   3.987   0.087
 3813SOL    HW112338   4.562   4.083   0.086
 3813SOL    HW212339   4.468   3.973   0.161
 3814SOL     OW12340   0.029   6.954   0.743
 3814SOL    HW112341   0.128   6.966   0.739
 3814SOL    HW212342   7.012   6.949   0.650
 3815SOL     OW12343   4.324   2.708   0.325
 3815SOL    HW112344   4.302   2.649   0.403
 3815SOL    HW212345   4.373   2.655   0.256
 3816SOL     OW12346   0.374   6.201   0.369
 3816SOL    HW112347   0.313   6.254   0.427
 3816SOL    HW212348   0.365   6.233   0.274
 3817SOL     OW12349   5.357   3.698   3.374
 3817SOL    HW112350   5.395   3.610   3.348
 3817SOL    HW212351   5.430   3.760   3.402
 3818SOL     OW12352   5.424   0.205   0.120
 3818SOL    HW112353   5.331   0.199   0.083
 3818SOL    HW212354   5.424   0.176   0.215
 3819SOL     OW12355   5.014   5.513   1.210
 3819SOL    HW112356   5.004   5.544   1.305
 3819SOL    HW212357   4.925   5.515   1.165
 3820SOL     OW12358   6.600   6.762   2.930
 3820SOL    HW112359   6.650   6.791   3.011
 3820SOL    HW212360   6.601   6.835   2.862
 3821SOL     OW12361   2.647   2.073   0.934
 3821SOL    HW112362   2.588   2.150   0.912
 3821SOL    HW212363   2.695   2.043   0.851
 3822SOL     OW12364   1.686   6.166   2.897
 3822SOL    HW112365   1.614   6.127   2.955
 3822SOL    HW212366   1.666   6.263   2.881
 3823SOL     OW12367   3.216   2.694   5.993
 3823SOL    HW112368   3.175   2.605   6.016
 3823SOL    HW212369   3.183   2.723   5.904
 3824SOL     OW12370   5.632   2.039   6.961
 3824SOL    HW112371   5.728   2.062   6.977
 3824SOL    HW212372   5.624   1.981   6.880
 3825SOL     OW12373   0.238   6.485   0.403
 3825SOL    HW112374   0.317   6.521   0.353
 3825SOL    HW212375   0.264   6.466   0.498
 3826SOL     OW12376   0.383   3.379   0.053
 3826SOL    HW112377   0.383   3.281   0.073
 3826SOL    HW212378   0.292   3.416   0.069
 3827SOL     OW12379   2.976   2.647   1.164
 3827SOL    HW112380   3.023   2.728   1.200
 3827SOL    HW212381   2.943   2.592   1.241
 3828SOL     OW12382   3.634   2.129   1.651
 3828SOL    HW112383   3.610   2.032   1.661
 3828SOL    HW212384   3.640   2.170   1.742
 3829SOL     OW12385   2.092   4.272   4.676
 3829SOL    HW112386   2.138   4.201   4.728
 3829SOL    HW212387   1.997   4.280   4.707
 3830SOL     OW12388   0.682   0.100   4.735
 3830SOL    HW112389   0.696   0.096   4.636
 3830SOL    HW212390   0.585   0.108   4.755
 3831SOL     OW12391   4.844   1.488   2.555
 3831SOL    HW112392   4.751   1.451   2.547
 3831SOL    HW212393   4.839   1.581   2.593
 3832SOL     OW12394   5.844   0.727   2.324
 3832SOL    HW112395   5.825   0.724   2.423
 3832SOL    HW212396   5.843   0.634   2.287
 3833SOL     OW12397   0.504   5.525   6.213
 3833SOL    HW112398   0.575   5.550   6.147
 3833SOL    HW212399   0.443   5.457   6.173
 3834SOL     OW12400   3.875   2.626   1.127
 3834SOL    HW112401   3.957   2.616   1.183
 3834SOL    HW212402   3.795   2.634   1.186
 3835SOL     OW12403   2.800   5.471   5.056
 3835SOL    HW112404   2.896   5.440   5.056
 3835SOL    HW212405   2.755   5.441   4.972
 3836SOL     OW12406   1.467   4.037   5.728
 3836SOL    HW112407   1.565   4.030   5.744
 3836SOL    HW212408   1.424   3.949   5.748
 3837SOL     OW12409   4.756   3.831   7.009
 3837SOL    HW112410   4.795   3.759   0.046
 3837SOL    HW212411   4.679   3.873   0.037
 3838SOL     OW12412   6.952   3.545   4.234
 3838SOL    HW112413   6.977   3.594   4.151
 3838SOL    HW212414   6.860   3.571   4.262
 3839SOL     OW12415   4.048   0.753   4.375
 3839SOL    HW112416   4.074   0.657   4.364
 3839SOL    HW212417   3.987   0.779   4.300
 3840SOL     OW12418   1.989   1.310   5.156
 3840SOL    HW112419   1.996   1.396   5.104
 3840SOL    HW212420   2.080   1.282   5.186
 3841SOL     OW12421   0.195   3.157   5.209
 3841SOL    HW112422   0.166   3.218   5.134
 3841SOL    HW212423   0.210   3.211   5.292
 3842SOL     OW12424   0.837   3.977   6.760
 3842SOL    HW112425   0.866   4.012   6.671
 3842SOL    HW212426   0.738   3.971   6.763
 3843SOL     OW12427   6.873   4.608   1.856
 3843SOL    HW112428   6.871   4.707   1.870
 3843SOL    HW212429   6.907   4.588   1.764
 3844SOL     OW12430   0.176   3.810   6.332
 3844SOL    HW112431   0.220   3.721   6.330
 3844SOL    HW212432   0.077   3.798   6.328
 3845SOL     OW12433   3.902   2.986   2.940
 3845SOL    HW112434   3.830   2.929   2.979
 3845SOL    HW212435   3.934   3.052   3.008
 3846SOL     OW12436   0.527   4.679   3.987
 3846SOL    HW112437   0.553   4.584   4.005
 3846SOL    HW212438   0.437   4.681   3.944
 3847SOL     OW12439   5.843   0.951   5.227
 3847SOL    HW112440   5.767   0.957   5.293
 3847SOL    HW212441   5.817   0.998   5.143
 3848SOL     OW12442   3.229   5.572   2.473
 3848SOL    HW112443   3.209   5.564   2.570
 3848SOL    HW212444   3.210   5.485   2.428
 3849SOL     OW12445   1.006   1.792   5.167
 3849SOL    HW112446   1.069   1.759   5.097
 3849SOL    HW212447   1.059   1.825   5.246
 3850SOL     OW12448   2.772   3.425   1.319
 3850SOL    HW112449   2.798   3.352   1.383
 3850SOL    HW212450   2.692   3.474   1.355
 3851SOL     OW12451   1.333   4.372   3.143
 3851SOL    HW112452   1.311   4.298   3.079
 3851SOL    HW212453   1.253   4.430   3.157
 3852SOL     OW12454   5.121   6.634   4.474
 3852SOL    HW112455   5.166   6.718   4.504
 3852SOL    HW212456   5.031   6.628   4.516
 3853SOL     OW12457   1.640   2.972   2.615
 3853SOL    HW112458   1.572   2.975   2.688
 3853SOL    HW212459   1.727   2.939   2.651
 3854SOL     OW12460   1.374   3.664   2.819
 3854SOL    HW112461   1.424   3.598   2.875
 3854SOL    HW212462   1.297   3.620   2.774
 3855SOL     OW12463   4.424   6.003   6.777
 3855SOL    HW112464   4.506   6.012   6.720
 3855SOL    HW212465   4.378   5.917   6.756
 3856SOL     OW12466   6.990   6.113   5.573
 3856SOL    HW112467   6.893   6.136   5.574
 3856SOL    HW212468   0.014   6.146   5.656
 3857SOL     OW12469   1.015   5.574   5.945
 3857SOL    HW112470   1.051   5.643   6.008
 3857SOL    HW212471   1.031   5.604   5.851
 3858SOL     OW12472   1.491   6.177   5.623
 3858SOL    HW112473   1.522   6.209   5.534
 3858SOL    HW212474   1.536   6.090   5.645
 3859SOL     OW12475   6.635   2.205   2.905
 3859SOL    HW112476   6.576   2.207   2.824
 3859SOL    HW212477   6.648   2.298   2.940
 3860SOL     OW12478   1.186   0.271   5.565
 3860SOL    HW112479   1.284   0.262   5.543
 3860SOL    HW212480   1.155   0.363   5.542
 3861SOL     OW12481   5.232   4.327   1.815
 3861SOL    HW112482   5.146   4.348   1.861
 3861SOL    HW212483   5.292   4.277   1.877
 3862SOL     OW12484   0.661   6.678   5.076
 3862SOL    HW112485   0.713   6.593   5.063
 3862SOL    HW212486   0.620   6.706   4.990
 3863SOL     OW12487   3.694   3.986   6.307
 3863SOL    HW112488   3.691   3.908   6.244
 3863SOL    HW212489   3.663   3.956   6.398
 3864SOL     OW12490   3.978   1.754   5.089
 3864SOL    HW112491   3.978   1.827   5.157
 3864SOL    HW212492   4.012   1.790   5.002
 3865SOL     OW12493   3.929   0.595   1.614
 3865SOL    HW112494   3.943   0.551   1.702
 3865SOL    HW212495   3.899   0.528   1.546
 3866SOL     OW12496   4.188   0.830   0.886
 3866SOL    HW112497   4.284   0.858   0.892
 3866SOL    HW212498   4.130   0.911   0.876
 3867SOL     OW12499   1.444   3.175   3.851
 3867SOL    HW112500   1.384   3.238   3.901
 3867SOL    HW212501   1.399   3.146   3.766
 3868SOL     OW12502   2.140   6.519   1.666
 3868SOL    HW112503   2.213   6.569   1.620
 3868SOL    HW212504   2.166   6.423   1.676
 3869SOL     OW12505   6.760   3.214   4.811
 3869SOL    HW112506   6.698   3.172   4.744
 3869SOL    HW212507   6.826   3.271   4.763
 3870SOL     OW12508   4.597   4.725   0.610
 3870SOL    HW112509   4.618   4.821   0.590
 3870SOL    HW212510   4.682   4.673   0.614
 3871SOL     OW12511   3.492   0.894   2.216
 3871SOL    HW112512   3.462   0.807   2.255
 3871SOL    HW212513   3.424   0.964   2.236
 3872SOL     OW12514   3.199   2.920   2.022
 3872SOL    HW112515   3.275   2.983   2.038
 3872SOL    HW212516   3.157   2.895   2.109
 3873SOL     OW12517   5.961   5.416   1.094
 3873SOL    HW112518   5.872   5.382   1.061
 3873SOL    HW212519   5.958   5.425   1.193
 3874SOL     OW12520   3.851   6.096   6.917
 3874SOL    HW112521   3.912   6.073   6.992
 3874SOL    HW212522   3.809   6.012   6.881
 3875SOL     OW12523   1.310   3.253   2.374
 3875SOL    HW112524   1.353   3.293   2.455
 3875SOL    HW212525   1.322   3.154   2.376
 3876SOL     OW12526   5.840   5.636   6.197
 3876SOL    HW112527   5.839   5.642   6.296
 3876SOL    HW212528   5.804   5.720   6.157
 3877SOL     OW12529   6.621   1.631   0.459
 3877SOL    HW112530   6.594   1.622   0.555
 3877SOL    HW212531   6.710   1.677   0.454
 3878SOL     OW12532   2.711   6.342   5.747
 3878SOL    HW112533   2.690   6.409   5.676
 3878SOL    HW212534   2.633   6.335   5.810
 3879SOL     OW12535   4.098   6.342   1.523
 3879SOL    HW112536   4.061   6.295   1.443
 3879SOL    HW212537   4.163   6.412   1.493
 3880SOL     OW12538   5.851   4.294   3.262
 3880SOL    HW112539   5.825   4.224   3.329
 3880SOL    HW212540   5.786   4.294   3.186
 3881SOL     OW12541   1.272   5.189   0.822
 3881SOL    HW112542   1.263   5.265   0.887
 3881SOL    HW212543   1.267   5.223   0.729
 3882SOL     OW12544   6.302   1.347   4.786
 3882SOL    HW112545   6.279   1.321   4.879
 3882SOL    HW212546   6.317   1.264   4.731
 3883SOL     OW12547   4.561   1.181   4.050
 3883SOL    HW112548   4.468   1.218   4.053
 3883SOL    HW212549   4.559   1.088   4.015
 3884SOL     OW12550   1.323   5.891   4.584
 3884SOL    HW112551   1.343   5.823   4.654
 3884SOL    HW212552   1.404   5.906   4.527
 3885SOL     OW12553   6.613   1.016   4.729
 3885SOL    HW112554   6.692   1.041   4.673
 3885SOL    HW212555   6.529   1.045   4.684
 3886SOL     OW12556   6.346   0.251   5.622
 3886SOL    HW112557   6.307   0.298   5.702
 3886SOL    HW212558   6.272   0.212   5.567
 3887SOL     OW12559   5.482   2.117   5.852
 3887SOL    HW112560   5.477   2.191   5.784
 3887SOL    HW212561   5.394   2.111   5.900
 3888SOL     OW12562   0.267   0.433   6.269
 3888SOL    HW112563   0.239   0.516   6.317
 3888SOL    HW212564   0.186   0.379   6.246
 3889SOL     OW12565   0.020   4.373   0.024
 3889SOL    HW112566   7.012   4.353   0.118
 3889SOL    HW212567   6.960   4.405   6.992
 3890SOL     OW12568   6.558   6.530   3.285
 3890SOL    HW112569   6.509   6.450   3.319
 3890SOL    HW212570   6.504   6.576   3.215
 3891SOL     OW12571   5.655   4.559   4.797
 3891SOL    HW112572   5.609   4.508   4.723
 3891SOL    HW212573   5.656   4.656   4.775
 3892SOL     OW12574   0.879   0.036   2.254
 3892SOL    HW112575   0.940   0.108   2.288
 3892SOL    HW212576   0.932   6.973   2.239
 3893SOL     OW12577   3.722   5.706   2.632
 3893SOL    HW112578   3.667   5.669   2.706
 3893SOL    HW212579   3.780   5.780   2.667
 3894SOL     OW12580   3.423   2.363   0.975
 3894SOL    HW112581   3.397   2.391   1.068
 3894SOL    HW212582   3.438   2.264   0.973
 3895SOL     OW12583   0.905   1.016   5.724
 3895SOL    HW112584   0.833   1.070   5.683
 3895SOL    HW212585   0.885   0.918   5.712
 3896SOL     OW12586   0.860   2.461   6.128
 3896SOL    HW112587   0.913   2.540   6.158
 3896SOL    HW212588   0.847   2.466   6.029
 3897SOL     OW12589   3.038   6.701   2.461
 3897SOL    HW112590   3.076   6.609   2.452
 3897SOL    HW212591   2.976   6.719   2.385
 3898SOL     OW12592   3.234   2.960   3.233
 3898SOL    HW112593   3.211   2.964   3.136
 3898SOL    HW212594   3.170   3.018   3.285
 3899SOL     OW12595   5.116   1.284   4.945
 3899SOL    HW112596   5.100   1.190   4.975
 3899SOL    HW212597   5.117   1.345   5.025
 3900SOL     OW12598   5.818   2.751   3.318
 3900SOL    HW112599   5.743   2.795   3.366
 3900SOL    HW212600   5.902   2.759   3.373
 3901SOL     OW12601   1.691   5.982   5.682
 3901SOL    HW112602   1.743   6.066   5.665
 3901SOL    HW212603   1.732   5.931   5.757
 3902SOL     OW12604   4.785   4.127   2.818
 3902SOL    HW112605   4.804   4.032   2.793
 3902SOL    HW212606   4.824   4.188   2.749
 3903SOL     OW12607   4.183   4.095   6.627
 3903SOL    HW112608   4.252   4.147   6.576
 3903SOL    HW212609   4.096   4.144   6.626
 3904SOL     OW12610   0.985   6.832   6.840
 3904SOL    HW112611   1.028   6.789   6.919
 3904SOL    HW212612   1.003   6.779   6.758
 3905SOL     OW12613   6.192   6.580   6.364
 3905SOL    HW112614   6.289   6.580   6.391
 3905SOL    HW212615   6.147   6.500   6.404
 3906SOL     OW12616   1.804   4.600   4.869
 3906SOL    HW112617   1.854   4.572   4.951
 3906SOL    HW212618   1.818   4.698   4.854
 3907SOL     OW12619   0.715   0.772   4.750
 3907SOL    HW112620   0.795   0.818   4.789
 3907SOL    HW212621   0.633   0.798   4.801
 3908SOL     OW12622   0.830   0.387   5.916
 3908SOL    HW112623   0.820   0.294   5.880
 3908SOL    HW212624   0.744   0.415   5.959
 3909SOL     OW12625   5.034   3.836   6.176
 3909SOL    HW112626   5.089   3.860   6.096
 3909SOL    HW212627   5.082   3.768   6.230
 3910SOL     OW12628   3.743   3.984   1.899
 3910SOL    HW112629   3.813   3.915   1.916
 3910SOL    HW212630   3.715   4.027   1.985
 3911SOL     OW12631   5.356   0.418   0.710
 3911SOL    HW112632   5.336   0.323   0.687
 3911SOL    HW212633   5.289   0.450   0.778
 3912SOL     OW12634   3.165   1.078   5.754
 3912SOL    HW112635   3.263   1.085   5.772
 3912SOL    HW212636   3.144   1.128   5.670
 3913SOL     OW12637   3.710   5.868   6.891
 3913SOL    HW112638   3.769   5.822   6.958
 3913SOL    HW212639   3.620   5.883   6.931
 3914SOL     OW12640   5.377   1.879   1.481
 3914SOL    HW112641   5.392   1.977   1.464
 3914SOL    HW212642   5.318   1.842   1.410
 3915SOL     OW12643   3.217   6.727   0.107
 3915SOL    HW112644   3.130   6.754   0.149
 3915SOL    HW212645   3.254   6.647   0.155
 3916SOL     OW12646   3.103   0.087   3.217
 3916SOL    HW112647   3.151   0.175   3.208
 3916SOL    HW212648   3.119   0.051   3.309
 3917SOL     OW12649   2.758   5.377   0.397
 3917SOL    HW112650   2.793   5.344   0.309
 3917SOL    HW212651   2.804   5.328   0.471
 3918SOL     OW12652   4.473   1.204   0.524
 3918SOL    HW112653   4.444   1.228   0.431
 3918SOL    HW212654   4.537   1.274   0.557
 3919SOL     OW12655   4.043   1.107   1.069
 3919SOL    HW112656   4.089   1.140   0.987
 3919SOL    HW212657   3.961   1.056   1.042
 3920SOL     OW12658   2.378   1.244   6.819
 3920SOL    HW112659   2.329   1.162   6.791
 3920SOL    HW212660   2.425   1.228   6.906
 3921SOL     OW12661   6.509   2.841   6.874
 3921SOL    HW112662   6.518   2.941   6.871
 3921SOL    HW212663   6.418   2.815   6.842
 3922SOL     OW12664   4.587   5.090   2.029
 3922SOL    HW112665   4.649   5.028   1.980
 3922SOL    HW212666   4.493   5.060   2.015
 3923SOL     OW12667   6.129   1.243   0.992
 3923SOL    HW112668   6.034   1.262   1.017
 3923SOL    HW212669   6.141   1.145   0.978
 3924SOL     OW12670   0.249   4.453   3.015
 3924SOL    HW112671   0.340   4.496   3.010
 3924SOL    HW212672   0.258   4.356   2.994
 3925SOL     OW12673   4.620   4.331   0.682
 3925SOL    HW112674   4.556   4.255   0.689
 3925SOL    HW212675   4.685   4.314   0.609
 3926SOL     OW12676   1.155   0.081   5.765
 3926SOL    HW112677   1.131   0.134   5.683
 3926SOL    HW212678   1.223   0.132   5.819
 3927SOL     OW12679   0.734   3.258   4.026
 3927SOL    HW112680   0.721   3.253   4.125
 3927SOL    HW212681   0.827   3.290   4.006
 3928SOL     OW12682   3.059   6.825   2.988
 3928SOL    HW112683   2.979   6.807   3.046
 3928SOL    HW212684   3.103   6.910   3.018
 3929SOL     OW12685   6.778   1.681   6.802
 3929SOL    HW112686   6.822   1.756   6.752
 3929SOL    HW212687   6.699   1.716   6.851
 3930SOL     OW12688   1.090   2.037   3.918
 3930SOL    HW112689   1.166   2.098   3.941
 3930SOL    HW212690   1.099   2.007   3.823
 3931SOL     OW12691   1.638   1.822   1.920
 3931SOL    HW112692   1.662   1.880   1.998
 3931SOL    HW212693   1.591   1.740   1.952
 3932SOL     OW12694   2.301   5.793   3.791
 3932SOL    HW112695   2.386   5.750   3.821
 3932SOL    HW212696   2.254   5.734   3.726
 3933SOL     OW12697   1.077   5.496   0.745
 3933SOL    HW112698   1.126   5.583   0.748
 3933SOL    HW212699   1.134   5.427   0.700
 3934SOL     OW12700   0.243   2.170   2.795
 3934SOL    HW112701   0.324   2.112   2.783
 3934SOL    HW212702   0.167   2.115   2.831
 3935SOL     OW12703   6.223   2.749   6.831
 3935SOL    HW112704   6.176   2.837   6.838
 3935SOL    HW212705   6.183   2.684   6.896
 3936SOL     OW12706   6.874   5.856   4.936
 3936SOL    HW112707   6.803   5.822   4.875
 3936SOL    HW212708   6.864   5.813   5.026
 3937SOL     OW12709   0.353   5.396   2.658
 3937SOL    HW112710   0.364   5.487   2.616
 3937SOL    HW212711   0.436   5.374   2.710
 3938SOL     OW12712   6.973   3.528   4.940
 3938SOL    HW112713   6.913   3.607   4.956
 3938SOL    HW212714   0.020   3.550   4.870
 3939SOL     OW12715   1.184   1.172   2.513
 3939SOL    HW112716   1.123   1.214   2.446
 3939SOL    HW212717   1.201   1.236   2.587
 3940SOL     OW12718   3.068   4.724   1.780
 3940SOL    HW112719   3.021   4.811   1.790
 3940SOL    HW212720   3.003   4.649   1.788
 3941SOL     OW12721   5.943   6.823   4.557
 3941SOL    HW112722   5.856   6.783   4.528
 3941SOL    HW212723   6.012   6.752   4.564
 3942SOL     OW12724   1.488   6.087   6.064
 3942SOL    HW112725   1.449   6.135   6.143
 3942SOL    HW212726   1.569   6.036   6.092
 3943SOL     OW12727   1.254   3.905   1.738
 3943SOL    HW112728   1.326   3.968   1.769
 3943SOL    HW212729   1.255   3.823   1.794
 3944SOL     OW12730   5.168   3.303   6.451
 3944SOL    HW112731   5.128   3.272   6.537
 3944SOL    HW212732   5.268   3.303   6.458
 3945SOL     OW12733   0.939   2.108   3.060
 3945SOL    HW112734   0.938   2.126   2.962
 3945SOL    HW212735   0.869   2.041   3.083
 3946SOL     OW12736   6.799   3.579   0.498
 3946SOL    HW112737   6.752   3.578   0.587
 3946SOL    HW212738   6.892   3.615   0.511
 3947SOL     OW12739   5.898   5.799   0.132
 3947SOL    HW112740   5.825   5.853   0.173
 3947SOL    HW212741   5.982   5.810   0.186
 3948SOL     OW12742   1.914   3.349   0.034
 3948SOL    HW112743   1.887   3.317   0.125
 3948SOL    HW212744   1.992   3.411   0.043
 3949SOL     OW12745   6.547   6.637   2.658
 3949SOL    HW112746   6.536   6.713   2.593
 3949SOL    HW212747   6.538   6.672   2.751
 3950SOL     OW12748   4.110   4.074   1.776
 3950SOL    HW112749   4.092   4.021   1.859
 3950SOL    HW212750   4.209   4.082   1.762
 3951SOL     OW12751   0.558   2.556   5.880
 3951SOL    HW112752   0.652   2.558   5.845
 3951SOL    HW212753   0.500   2.505   5.816
 3952SOL     OW12754   5.733   2.395   4.682
 3952SOL    HW112755   5.675   2.402   4.764
 3952SOL    HW212756   5.697   2.455   4.611
 3953SOL     OW12757   3.189   4.130   6.059
 3953SOL    HW112758   3.090   4.131   6.058
 3953SOL    HW212759   3.224   4.213   6.016
 3954SOL     OW12760   6.595   3.888   5.482
 3954SOL    HW112761   6.500   3.905   5.509
 3954SOL    HW212762   6.598   3.811   5.419
 3955SOL     OW12763   5.035   6.480   0.349
 3955SOL    HW112764   4.949   6.432   0.366
 3955SOL    HW212765   5.024   6.577   0.372
 3956SOL     OW12766   0.820   2.987   5.691
 3956SOL    HW112767   0.726   2.974   5.724
 3956SOL    HW212768   0.818   3.001   5.592
 3957SOL     OW12769   3.089   6.852   4.100
 3957SOL    HW112770   3.117   6.763   4.063
 3957SOL    HW212771   3.163   6.889   4.156
 3958SOL     OW12772   6.432   6.594   0.179
 3958SOL    HW112773   6.525   6.627   0.166
 3958SOL    HW212774   6.399   6.620   0.270
 3959SOL     OW12775   2.907   5.373   0.944
 3959SOL    HW112776   2.983   5.416   0.994
 3959SOL    HW212777   2.825   5.428   0.954
 3960SOL     OW12778   4.434   2.291   6.831
 3960SOL    HW112779   4.523   2.294   6.784
 3960SOL    HW212780   4.441   2.341   6.917
 3961SOL     OW12781   5.283   2.364   2.203
 3961SOL    HW112782   5.214   2.404   2.263
 3961SOL    HW212783   5.371   2.363   2.251
 3962SOL     OW12784   0.664   5.619   0.221
 3962SOL    HW112785   0.584   5.616   0.161
 3962SOL    HW212786   0.741   5.573   0.177
 3963SOL     OW12787   5.457   5.454   3.216
 3963SOL    HW112788   5.361   5.473   3.236
 3963SOL    HW212789   5.475   5.474   3.120
 3964SOL     OW12790   4.855   6.015   5.072
 3964SOL    HW112791   4.944   6.015   5.118
 3964SOL    HW212792   4.862   5.963   4.987
 3965SOL     OW12793   3.450   4.778   6.911
 3965SOL    HW112794   3.378   4.839   6.879
 3965SOL    HW212795   3.467   4.707   6.843
 3966SOL     OW12796   6.464   4.161   6.439
 3966SOL    HW112797   6.560   4.138   6.459
 3966SOL    HW212798   6.458   4.258   6.413
 3967SOL     OW12799   0.693   5.076   3.676
 3967SOL    HW112800   0.696   5.091   3.775
 3967SOL    HW212801   0.614   5.019   3.653
 3968SOL     OW12802   5.369   0.412   2.987
 3968SOL    HW112803   5.342   0.445   3.077
 3968SOL    HW212804   5.407   0.320   2.995
 3969SOL     OW12805   1.461   4.963   2.928
 3969SOL    HW112806   1.424   4.972   2.836
 3969SOL    HW212807   1.440   4.872   2.964
 3970SOL     OW12808   4.764   4.883   4.319
 3970SOL    HW112809   4.752   4.888   4.220
 3970SOL    HW212810   4.678   4.853   4.361
 3971SOL     OW12811   3.225   5.497   3.095
 3971SOL    HW112812   3.294   5.457   3.155
 3971SOL    HW212813   3.151   5.431   3.080
 3972SOL     OW12814   0.273   6.245   0.855
 3972SOL    HW112815   0.309   6.152   0.843
 3972SOL    HW212816   0.333   6.295   0.917
 3973SOL     OW12817   2.978   3.106   5.129
 3973SOL    HW112818   3.058   3.120   5.070
 3973SOL    HW212819   2.991   3.023   5.184
 3974SOL     OW12820   0.402   1.603   6.270
 3974SOL    HW112821   0.359   1.621   6.358
 3974SOL    HW212822   0.497   1.576   6.284
 3975SOL     OW12823   6.587   0.426   5.880
 3975SOL    HW112824   6.490   0.443   5.865
 3975SOL    HW212825   6.619   0.479   5.959
 3976SOL     OW12826   0.495   4.158   1.055
 3976SOL    HW112827   0.478   4.253   1.031
 3976SOL    HW212828   0.453   4.138   1.143
 3977SOL     OW12829   2.820   6.123   5.622
 3977SOL    HW112830   2.781   6.201   5.671
 3977SOL    HW212831   2.824   6.142   5.524
 3978SOL     OW12832   5.788   1.568   5.815
 3978SOL    HW112833   5.741   1.637   5.762
 3978SOL    HW212834   5.886   1.568   5.793
 3979SOL     OW12835   1.972   0.273   1.376
 3979SOL    HW112836   2.017   0.208   1.314
 3979SOL    HW212837   2.030   0.353   1.388
 3980SOL     OW12838   5.617   3.339   4.596
 3980SOL    HW112839   5.535   3.339   4.653
 3980SOL    HW212840   5.698   3.327   4.655
 3981SOL     OW12841   6.899   2.153   6.510
 3981SOL    HW112842   6.984   2.152   6.459
 3981SOL    HW212843   6.854   2.242   6.498
 3982SOL     OW12844   2.211   1.050   4.920
 3982SOL    HW112845   2.130   1.005   4.958
 3982SOL    HW212846   2.289   1.035   4.981
 3983SOL     OW12847   3.773   6.715   4.713
 3983SOL    HW112848   3.859   6.765   4.701
 3983SOL    HW212849   3.765   6.687   4.809
 3984SOL     OW12850   1.878   6.751   1.959
 3984SOL    HW112851   1.782   6.725   1.951
 3984SOL    HW212852   1.892   6.800   2.045
 3985SOL     OW12853   1.730   4.285   6.864
 3985SOL    HW112854   1.655   4.291   6.930
 3985SOL    HW212855   1.715   4.206   6.804
 3986SOL     OW12856   0.480   1.937   1.983
 3986SOL    HW112857   0.458   1.839   1.990
 3986SOL    HW212858   0.494   1.974   2.075
 3987SOL     OW12859   1.581   5.843   5.259
 3987SOL    HW112860   1.500   5.891   5.226
 3987SOL    HW212861   1.654   5.910   5.275
 3988SOL     OW12862   3.726   1.857   6.586
 3988SOL    HW112863   3.806   1.830   6.533
 3988SOL    HW212864   3.687   1.777   6.632
 3989SOL     OW12865   6.205   6.817   6.466
 3989SOL    HW112866   6.148   6.891   6.432
 3989SOL    HW212867   6.169   6.729   6.434
 3990SOL     OW12868   6.626   2.550   5.080
 3990SOL    HW112869   6.552   2.591   5.133
 3990SOL    HW212870   6.612   2.567   4.983
 3991SOL     OW12871   0.221   2.556   3.685
 3991SOL    HW112872   0.274   2.492   3.741
 3991SOL    HW212873   0.260   2.647   3.692
 3992SOL     OW12874   3.847   3.103   6.700
 3992SOL    HW112875   3.886   3.149   6.620
 3992SOL    HW212876   3.918   3.051   6.747
 3993SOL     OW12877   2.682   2.357   2.838
 3993SOL    HW112878   2.669   2.309   2.751
 3993SOL    HW212879   2.775   2.391   2.845
 3994SOL     OW12880   2.215   2.559   5.020
 3994SOL    HW112881   2.163   2.644   5.018
 3994SOL    HW212882   2.309   2.576   4.990
 3995SOL     OW12883   2.240   4.260   3.460
 3995SOL    HW112884   2.316   4.283   3.400
 3995SOL    HW212885   2.175   4.202   3.410
 3996SOL     OW12886   2.040   1.415   4.233
 3996SOL    HW112887   2.117   1.453   4.182
 3996SOL    HW212888   1.966   1.483   4.237
 3997SOL     OW12889   4.920   3.476   3.420
 3997SOL    HW112890   4.890   3.451   3.328
 3997SOL    HW212891   5.016   3.502   3.417
 3998SOL     OW12892   5.955   2.297   1.839
 3998SOL    HW112893   5.886   2.304   1.911
 3998SOL    HW212894   5.910   2.286   1.750
 3999SOL     OW12895   6.402   4.160   3.375
 3999SOL    HW112896   6.456   4.217   3.438
 3999SOL    HW212897   6.417   4.064   3.396
 4000SOL     OW12898   3.371   5.845   2.822
 4000SOL    HW112899   3.273   5.833   2.805
 4000SOL    HW212900   3.408   5.911   2.756
 4001SOL     OW12901   2.359   4.318   6.007
 4001SOL    HW112902   2.396   4.243   6.062
 4001SOL    HW212903   2.348   4.287   5.912
 4002SOL     OW12904   3.673   2.956   4.580
 4002SOL    HW112905   3.643   2.927   4.671
 4002SOL    HW212906   3.771   2.979   4.584
 4003SOL     OW12907   1.838   1.437   6.111
 4003SOL    HW112908   1.923   1.432   6.058
 4003SOL    HW212909   1.854   1.493   6.193
 4004SOL     OW12910   6.585   3.217   3.883
 4004SOL    HW112911   6.637   3.173   3.809
 4004SOL    HW212912   6.644   3.225   3.964
 4005SOL     OW12913   4.018   4.813   0.911
 4005SOL    HW112914   4.116   4.816   0.893
 4005SOL    HW212915   3.970   4.871   0.845
 4006SOL     OW12916   5.315   4.740   1.856
 4006SOL    HW112917   5.379   4.705   1.924
 4006SOL    HW212918   5.316   4.682   1.775
 4007SOL     OW12919   0.406   2.364   3.004
 4007SOL    HW112920   0.449   2.274   2.998
 4007SOL    HW212921   0.308   2.355   2.983
 4008SOL     OW12922   3.419   0.629   6.484
 4008SOL    HW112923   3.368   0.628   6.399
 4008SOL    HW212924   3.361   0.598   6.559
 4009SOL     OW12925   4.674   1.820   1.279
 4009SOL    HW112926   4.634   1.765   1.352
 4009SOL    HW212927   4.758   1.777   1.246
 4010SOL     OW12928   3.170   3.381   1.945
 4010SOL    HW112929   3.113   3.301   1.923
 4010SOL    HW212930   3.218   3.365   2.031
 4011SOL     OW12931   6.737   6.092   1.882
 4011SOL    HW112932   6.657   6.051   1.837
 4011SOL    HW212933   6.759   6.179   1.837
 4012SOL     OW12934   4.526   6.727   2.614
 4012SOL    HW112935   4.438   6.746   2.570
 4012SOL    HW212936   4.580   6.667   2.555
 4013SOL     OW12937   2.109   0.524   1.122
 4013SOL    HW112938   2.031   0.575   1.088
 4013SOL    HW212939   2.187   0.585   1.133
 4014SOL     OW12940   3.163   6.161   4.058
 4014SOL    HW112941   3.142   6.079   4.006
 4014SOL    HW212942   3.136   6.242   4.006
 4015SOL     OW12943   4.789   5.337   6.428
 4015SOL    HW112944   4.715   5.387   6.385
 4015SOL    HW212945   4.758   5.245   6.452
 4016SOL     OW12946   2.854   6.200   0.064
 4016SOL    HW112947   2.897   6.137   7.019
 4016SOL    HW212948   2.902   6.287   0.063
 4017SOL     OW12949   0.313   5.329   5.459
 4017SOL    HW112950   0.248   5.402   5.477
 4017SOL    HW212951   0.302   5.257   5.527
 4018SOL     OW12952   4.473   0.047   1.925
 4018SOL    HW112953   4.508   0.140   1.934
 4018SOL    HW212954   4.373   0.048   1.931
 4019SOL     OW12955   5.503   3.676   2.707
 4019SOL    HW112956   5.524   3.596   2.650
 4019SOL    HW212957   5.459   3.646   2.791
 4020SOL     OW12958   6.509   2.759   5.612
 4020SOL    HW112959   6.604   2.788   5.614
 4020SOL    HW212960   6.495   2.685   5.678
 4021SOL     OW12961   3.540   4.307   5.192
 4021SOL    HW112962   3.528   4.406   5.198
 4021SOL    HW212963   3.452   4.263   5.173
 4022SOL     OW12964   3.352   6.440   6.551
 4022SOL    HW112965   3.266   6.485   6.575
 4022SOL    HW212966   3.397   6.409   6.635
 4023SOL     OW12967   7.013   0.562   5.176
 4023SOL    HW112968   6.936   0.540   5.116
 4023SOL    HW212969   6.981   0.616   5.254
 4024SOL     OW12970   2.433   4.435   4.234
 4024SOL    HW112971   2.341   4.468   4.255
 4024SOL    HW212972   2.430   4.381   4.150
 4025SOL     OW12973   0.595   6.172   4.480
 4025SOL    HW112974   0.619   6.266   4.457
 4025SOL    HW212975   0.670   6.111   4.453
 4026SOL     OW12976   6.433   6.426   4.158
 4026SOL    HW112977   6.341   6.454   4.132
 4026SOL    HW212978   6.443   6.328   4.142
 4027SOL     OW12979   2.570   2.806   0.031
 4027SOL    HW112980   2.594   2.778   0.124
 4027SOL    HW212981   2.517   2.734   7.007
 4028SOL     OW12982   4.604   1.445   3.945
 4028SOL    HW112983   4.678   1.495   3.900
 4028SOL    HW212984   4.635   1.353   3.968
 4029SOL     OW12985   2.691   4.043   5.611
 4029SOL    HW112986   2.686   4.142   5.623
 4029SOL    HW212987   2.734   4.002   5.692
 4030SOL     OW12988   6.664   0.918   2.241
 4030SOL    HW112989   6.702   0.826   2.255
 4030SOL    HW212990   6.611   0.919   2.157
 4031SOL     OW12991   5.549   6.130   3.345
 4031SOL    HW112992   5.487   6.139   3.424
 4031SOL    HW212993   5.576   6.221   3.314
 4032SOL     OW12994   6.881   6.799   2.212
 4032SOL    HW112995   6.967   6.769   2.171
 4032SOL    HW212996   6.812   6.809   2.140
 4033SOL     OW12997   2.345   3.288   1.528
 4033SOL    HW112998   2.255   3.257   1.499
 4033SOL    HW212999   2.338   3.380   1.568
 4034SOL     OW13000   6.032   2.067   4.918
 4034SOL    HW113001   6.024   1.972   4.887
 4034SOL    HW213002   6.040   2.069   5.018
 4035SOL     OW13003   6.018   1.214   0.506
 4035SOL    HW113004   6.036   1.294   0.562
 4035SOL    HW213005   5.922   1.186   0.516
 4036SOL     OW13006   4.086   4.767   2.349
 4036SOL    HW113007   3.992   4.801   2.357
 4036SOL    HW213008   4.105   4.744   2.253
 4037SOL     OW13009   1.897   1.582   0.305
 4037SOL    HW113010   1.816   1.578   0.247
 4037SOL    HW213011   1.942   1.671   0.293
 4038SOL     OW13012   4.014   3.225   1.260
 4038SOL    HW113013   4.095   3.264   1.217
 4038SOL    HW213014   4.025   3.227   1.360
 4039SOL     OW13015   5.830   5.530   1.438
 4039SOL    HW113016   5.796   5.438   1.422
 4039SOL    HW213017   5.929   5.532   1.424
 4040SOL     OW13018   3.554   6.813   5.061
 4040SOL    HW113019   3.517   6.902   5.036
 4040SOL    HW213020   3.563   6.808   5.161
 4041SOL     OW13021   1.147   4.988   0.980
 4041SOL    HW113022   1.047   4.985   0.969
 4041SOL    HW213023   1.184   5.063   0.925
 4042SOL     OW13024   5.950   6.070   4.101
 4042SOL    HW113025   5.976   6.155   4.147
 4042SOL    HW213026   6.032   6.024   4.068
 4043SOL     OW13027   6.798   2.347   6.205
 4043SOL    HW113028   6.797   2.340   6.304
 4043SOL    HW213029   6.745   2.272   6.165
 4044SOL     OW13030   4.599   6.421   3.820
 4044SOL    HW113031   4.659   6.501   3.814
 4044SOL    HW213032   4.507   6.445   3.790
 4045SOL     OW13033   3.974   5.808   5.897
 4045SOL    HW113034   3.880   5.776   5.890
 4045SOL    HW213035   4.004   5.802   5.992
 4046SOL     OW13036   1.489   1.713   3.533
 4046SOL    HW113037   1.478   1.639   3.598
 4046SOL    HW213038   1.434   1.792   3.561
 4047SOL     OW13039   2.245   2.808   0.173
 4047SOL    HW113040   2.252   2.752   0.256
 4047SOL    HW213041   2.263   2.903   0.196
 4048SOL     OW13042   5.125   1.914   1.873
 4048SOL    HW113043   5.197   1.854   1.838
 4048SOL    HW213044   5.144   1.936   1.969
 4049SOL     OW13045   5.261   5.143   6.324
 4049SOL    HW113046   5.189   5.206   6.356
 4049SOL    HW213047   5.224   5.051   6.319
 4050SOL     OW13048   1.287   6.526   1.875
 4050SOL    HW113049   1.376   6.486   1.896
 4050SOL    HW213050   1.292   6.575   1.788
 4051SOL     OW13051   4.077   1.387   6.472
 4051SOL    HW113052   3.980   1.372   6.490
 4051SOL    HW213053   4.094   1.386   6.374
 4052SOL     OW13054   6.280   1.120   2.042
 4052SOL    HW113055   6.296   1.185   2.117
 4052SOL    HW213056   6.243   1.170   1.964
 4053SOL     OW13057   3.183   6.424   4.390
 4053SOL    HW113058   3.208   6.328   4.404
 4053SOL    HW213059   3.261   6.483   4.413
 4054SOL     OW13060   5.723   3.841   1.126
 4054SOL    HW113061   5.679   3.840   1.215
 4054SOL    HW213062   5.706   3.753   1.080
 4055SOL     OW13063   2.953   3.347   0.349
 4055SOL    HW113064   3.035   3.294   0.328
 4055SOL    HW213065   2.928   3.332   0.445
 4056SOL     OW13066   5.188   3.819   0.672
 4056SOL    HW113067   5.231   3.856   0.589
 4056SOL    HW213068   5.132   3.891   0.715
 4057SOL     OW13069   6.570   2.148   0.821
 4057SOL    HW113070   6.641   2.181   0.759
 4057SOL    HW213071   6.566   2.048   0.818
 4058SOL     OW13072   2.343   6.985   5.214
 4058SOL    HW113073   2.263   6.984   5.154
 4058SOL    HW213074   2.350   0.053   5.259
 4059SOL     OW13075   0.823   1.715   2.915
 4059SOL    HW113076   0.759   1.681   2.847
 4059SOL    HW213077   0.846   1.642   2.980
 4060SOL     OW13078   5.451   5.547   5.081
 4060SOL    HW113079   5.499   5.579   5.000
 4060SOL    HW213080   5.361   5.592   5.086
 4061SOL     OW13081   2.567   4.816   2.495
 4061SOL    HW113082   2.662   4.823   2.465
 4061SOL    HW213083   2.544   4.897   2.549
 4062SOL     OW13084   2.492   0.990   1.694
 4062SOL    HW113085   2.453   0.976   1.785
 4062SOL    HW213086   2.492   1.088   1.673
 4063SOL     OW13087   6.028   6.530   7.015
 4063SOL    HW113088   6.034   6.495   6.921
 4063SOL    HW213089   6.098   6.599   0.008
 4064SOL     OW13090   2.499   0.478   3.675
 4064SOL    HW113091   2.434   0.433   3.613
 4064SOL    HW213092   2.558   0.539   3.622
 4065SOL     OW13093   1.646   6.760   1.778
 4065SOL    HW113094   1.729   6.731   1.730
 4065SOL    HW213095   1.591   6.817   1.718
 4066SOL     OW13096   6.086   4.629   3.549
 4066SOL    HW113097   6.011   4.621   3.615
 4066SOL    HW213098   6.070   4.565   3.474
 4067SOL     OW13099   6.201   3.813   3.235
 4067SOL    HW113100   6.179   3.910   3.230
 4067SOL    HW213101   6.300   3.800   3.223
 4068SOL     OW13102   1.438   1.318   5.063
 4068SOL    HW113103   1.420   1.263   4.981
 4068SOL    HW213104   1.503   1.270   5.122
 4069SOL     OW13105   2.896   5.392   6.417
 4069SOL    HW113106   2.972   5.327   6.419
 4069SOL    HW213107   2.930   5.484   6.397
 4070SOL     OW13108   0.968   3.729   1.962
 4070SOL    HW113109   0.965   3.829   1.966
 4070SOL    HW213110   0.973   3.700   1.867
 4071SOL     OW13111   1.264   1.172   5.367
 4071SOL    HW113112   1.167   1.163   5.388
 4071SOL    HW213113   1.301   1.254   5.410
 4072SOL     OW13114   0.768   5.665   4.022
 4072SOL    HW113115   0.742   5.708   3.936
 4072SOL    HW213116   0.784   5.735   4.091
 4073SOL     OW13117   3.247   5.944   5.953
 4073SOL    HW113118   3.194   5.860   5.940
 4073SOL    HW213119   3.237   5.976   6.047
 4074SOL     OW13120   6.889   4.077   2.049
 4074SOL    HW113121   6.881   4.113   1.956
 4074SOL    HW213122   6.985   4.074   2.076
 4075SOL     OW13123   4.304   1.896   1.946
 4075SOL    HW113124   4.274   1.843   2.025
 4075SOL    HW213125   4.348   1.981   1.977
 4076SOL     OW13126   2.805   2.947   5.592
 4076SOL    HW113127   2.818   2.860   5.640
 4076SOL    HW213128   2.730   2.938   5.526
 4077SOL     OW13129   2.983   1.409   0.047
 4077SOL    HW113130   2.991   1.314   0.079
 4077SOL    HW213131   3.062   1.432   7.011
 4078SOL     OW13132   0.426   5.431   1.368
 4078SOL    HW113133   0.328   5.445   1.384
 4078SOL    HW213134   0.440   5.347   1.317
 4079SOL     OW13135   1.602   0.922   3.730
 4079SOL    HW113136   1.657   0.859   3.785
 4079SOL    HW213137   1.566   0.994   3.788
 4080SOL     OW13138   4.284   4.318   6.003
 4080SOL    HW113139   4.217   4.265   6.056
 4080SOL    HW213140   4.362   4.259   5.980
 4081SOL     OW13141   2.012   2.773   4.328
 4081SOL    HW113142   2.095   2.721   4.350
 4081SOL    HW213143   1.932   2.727   4.367
 4082SOL     OW13144   0.502   3.991   0.283
 4082SOL    HW113145   0.465   3.937   0.207
 4082SOL    HW213146   0.474   3.950   0.370
 4083SOL     OW13147   6.761   4.094   2.299
 4083SOL    HW113148   6.668   4.109   2.263
 4083SOL    HW213149   6.827   4.103   2.224
 4084SOL     OW13150   5.879   1.918   3.529
 4084SOL    HW113151   5.910   2.001   3.483
 4084SOL    HW213152   5.956   1.855   3.539
 4085SOL     OW13153   2.724   5.828   1.805
 4085SOL    HW113154   2.756   5.742   1.766
 4085SOL    HW213155   2.660   5.809   1.879
 4086SOL     OW13156   1.015   5.459   2.189
 4086SOL    HW113157   1.063   5.536   2.147
 4086SOL    HW213158   1.072   5.377   2.184
 4087SOL     OW13159   1.757   1.851   3.387
 4087SOL    HW113160   1.757   1.758   3.426
 4087SOL    HW213161   1.848   1.872   3.351
 4088SOL     OW13162   6.902   0.995   6.849
 4088SOL    HW113163   6.986   1.044   6.873
 4088SOL    HW213164   6.886   1.004   6.751
 4089SOL     OW13165   6.155   5.968   4.284
 4089SOL    HW113166   6.202   5.936   4.366
 4089SOL    HW213167   6.056   5.964   4.298
 4090SOL     OW13168   1.458   4.994   5.717
 4090SOL    HW113169   1.464   5.089   5.684
 4090SOL    HW213170   1.362   4.969   5.728
 4091SOL     OW13171   6.905   6.277   6.868
 4091SOL    HW113172   6.985   6.277   6.929
 4091SOL    HW213173   6.846   6.200   6.890
 4092SOL     OW13174   6.548   2.481   5.726
 4092SOL    HW113175   6.480   2.490   5.654
 4092SOL    HW213176   6.638   2.509   5.691
 4093SOL     OW13177   4.486   6.519   2.397
 4093SOL    HW113178   4.390   6.491   2.393
 4093SOL    HW213179   4.531   6.494   2.311
 4094SOL     OW13180   2.207   5.631   4.798
 4094SOL    HW113181   2.135   5.687   4.757
 4094SOL    HW213182   2.238   5.674   4.883
 4095SOL     OW13183   0.380   3.595   0.584
 4095SOL    HW113184   0.464   3.598   0.530
 4095SOL    HW213185   0.332   3.509   0.567
 4096SOL     OW13186   4.637   5.720   5.867
 4096SOL    HW113187   4.649   5.817   5.845
 4096SOL    HW213188   4.595   5.711   5.957
 4097SOL     OW13189   3.826   4.544   5.370
 4097SOL    HW113190   3.849   4.489   5.290
 4097SOL    HW213191   3.730   4.529   5.394
 4098SOL     OW13192   0.061   1.966   1.731
 4098SOL    HW113193   0.133   2.019   1.777
 4098SOL    HW213194   0.012   1.911   1.799
 4099SOL     OW13195   2.887   4.941   1.810
 4099SOL    HW113196   2.823   4.953   1.735
 4099SOL    HW213197   2.926   5.030   1.836
 4100SOL     OW13198   0.182   6.130   4.716
 4100SOL    HW113199   0.117   6.191   4.671
 4100SOL    HW213200   0.137   6.084   4.793
 4101SOL     OW13201   6.091   1.041   0.254
 4101SOL    HW113202   6.025   1.065   0.182
 4101SOL    HW213203   6.089   1.111   0.325
 4102SOL     OW13204   6.456   0.581   0.852
 4102SOL    HW113205   6.433   0.597   0.948
 4102SOL    HW213206   6.402   0.642   0.794
 4103SOL     OW13207   0.296   0.514   6.997
 4103SOL    HW113208   0.230   0.583   6.967
 4103SOL    HW213209   0.353   0.551   0.049
 4104SOL     OW13210   0.793   4.870   2.953
 4104SOL    HW113211   0.830   4.807   2.885
 4104SOL    HW213212   0.795   4.826   3.043
 4105SOL     OW13213   4.926   0.008   1.441
 4105SOL    HW113214   4.903   6.939   1.401
 4105SOL    HW213215   4.930   7.020   1.540
 4106SOL     OW13216   6.147   2.638   2.871
 4106SOL    HW113217   6.186   2.679   2.788
 4106SOL    HW213218   6.048   2.632   2.861
 4107SOL     OW13219   1.482   5.729   1.182
 4107SOL    HW113220   1.535   5.651   1.149
 4107SOL    HW213221   1.386   5.703   1.188
 4108SOL     OW13222   6.348   4.070   5.378
 4108SOL    HW113223   6.320   4.137   5.309
 4108SOL    HW213224   6.339   3.978   5.339
 4109SOL     OW13225   6.236   0.086   5.195
 4109SOL    HW113226   6.193   0.085   5.104
 4109SOL    HW213227   6.302   0.012   5.202
 4110SOL     OW13228   3.750   3.788   6.127
 4110SOL    HW113229   3.678   3.757   6.065
 4110SOL    HW213230   3.783   3.712   6.182
 4111SOL     OW13231   4.277   3.344   6.960
 4111SOL    HW113232   4.344   3.417   6.977
 4111SOL    HW213233   4.187   3.374   6.992
 4112SOL     OW13234   4.950   6.296   5.009
 4112SOL    HW113235   4.986   6.203   5.015
 4112SOL    HW213236   4.985   6.340   4.926
 4113SOL     OW13237   4.763   5.824   4.844
 4113SOL    HW113238   4.674   5.778   4.843
 4113SOL    HW213239   4.829   5.765   4.891
 4114SOL     OW13240   3.682   2.139   3.804
 4114SOL    HW113241   3.589   2.124   3.838
 4114SOL    HW213242   3.681   2.141   3.704
 4115SOL     OW13243   3.635   4.914   2.154
 4115SOL    HW113244   3.601   4.842   2.094
 4115SOL    HW213245   3.623   5.003   2.110
 4116SOL     OW13246   3.457   1.632   2.202
 4116SOL    HW113247   3.477   1.555   2.141
 4116SOL    HW213248   3.541   1.682   2.221
 4117SOL     OW13249   1.588   4.569   2.214
 4117SOL    HW113250   1.653   4.505   2.255
 4117SOL    HW213251   1.567   4.541   2.120
 4118SOL     OW13252   2.944   6.620   0.656
 4118SOL    HW113253   2.988   6.559   0.590
 4118SOL    HW213254   2.847   6.626   0.635
 4119SOL     OW13255   3.624   1.833   3.719
 4119SOL    HW113256   3.599   1.917   3.766
 4119SOL    HW213257   3.621   1.848   3.620
 4120SOL     OW13258   3.539   0.667   0.027
 4120SOL    HW113259   3.497   0.587   0.068
 4120SOL    HW213260   3.626   0.686   0.073
 4121SOL     OW13261   6.286   0.644   4.601
 4121SOL    HW113262   6.213   0.615   4.664
 4121SOL    HW213263   6.355   0.694   4.651
 4122SOL     OW13264   1.346   5.902   5.146
 4122SOL    HW113265   1.303   5.813   5.132
 4122SOL    HW213266   1.340   5.956   5.062
 4123SOL     OW13267   4.255   5.260   5.931
 4123SOL    HW113268   4.336   5.233   5.984
 4123SOL    HW213269   4.251   5.360   5.924
 4124SOL     OW13270   6.098   5.585   6.502
 4124SOL    HW113271   6.062   5.593   6.595
 4124SOL    HW213272   6.166   5.511   6.498
 4125SOL     OW13273   4.352   1.403   2.650
 4125SOL    HW113274   4.268   1.405   2.704
 4125SOL    HW213275   4.401   1.318   2.669
 4126SOL     OW13276   1.319   3.535   4.510
 4126SOL    HW113277   1.274   3.606   4.565
 4126SOL    HW213278   1.356   3.464   4.569
 4127SOL     OW13279   4.612   4.910   4.757
 4127SOL    HW113280   4.584   4.973   4.685
 4127SOL    HW213281   4.532   4.883   4.811
 4128SOL     OW13282   1.324   2.842   1.891
 4128SOL    HW113283   1.331   2.743   1.880
 4128SOL    HW213284   1.410   2.886   1.864
 4129SOL     OW13285   3.834   1.269   6.464
 4129SOL    HW113286   3.740   1.264   6.496
 4129SOL    HW213287   3.841   1.229   6.373
 4130SOL     OW13288   6.549   3.008   6.075
 4130SOL    HW113289   6.636   3.024   6.028
 4130SOL    HW213290   6.565   2.955   6.158
 4131SOL     OW13291   1.547   0.038   3.188
 4131SOL    HW113292   1.623   7.016   3.237
 4131SOL    HW213293   1.464   0.033   3.244
 4132SOL     OW13294   5.173   4.531   3.890
 4132SOL    HW113295   5.253   4.484   3.854
 4132SOL    HW213296   5.139   4.483   3.971
 4133SOL     OW13297   2.962   6.102   0.858
 4133SOL    HW113298   2.995   6.014   0.893
 4133SOL    HW213299   3.021   6.175   0.891
 4134SOL     OW13300   2.682   3.083   0.923
 4134SOL    HW113301   2.620   3.076   0.845
 4134SOL    HW213302   2.675   3.000   0.979
 4135SOL     OW13303   0.857   1.502   3.105
 4135SOL    HW113304   0.881   1.405   3.103
 4135SOL    HW213305   0.776   1.516   3.162
 4136SOL     OW13306   1.255   2.080   3.004
 4136SOL    HW113307   1.192   2.006   2.980
 4136SOL    HW213308   1.348   2.055   2.977
 4137SOL     OW13309   0.442   4.638   0.876
 4137SOL    HW113310   0.359   4.656   0.824
 4137SOL    HW213311   0.506   4.715   0.864
 4138SOL     OW13312   4.498   5.341   3.295
 4138SOL    HW113313   4.522   5.433   3.266
 4138SOL    HW213314   4.473   5.286   3.215
 4139SOL     OW13315   2.024   2.057   5.397
 4139SOL    HW113316   1.969   2.027   5.319
 4139SOL    HW213317   1.978   2.133   5.444
 4140SOL     OW13318   2.972   0.608   5.268
 4140SOL    HW113319   2.874   0.588   5.270
 4140SOL    HW213320   2.991   0.676   5.197
 4141SOL     OW13321   6.105   6.060   1.216
 4141SOL    HW113322   6.197   6.022   1.226
 4141SOL    HW213323   6.081   6.065   1.120
 4142SOL     OW13324   6.191   5.387   0.939
 4142SOL    HW113325   6.236   5.474   0.954
 4142SOL    HW213326   6.128   5.368   1.015
 4143SOL     OW13327   6.726   2.134   1.369
 4143SOL    HW113328   6.662   2.064   1.401
 4143SOL    HW213329   6.687   2.225   1.383
 4144SOL     OW13330   4.923   4.107   6.203
 4144SOL    HW113331   4.943   4.010   6.210
 4144SOL    HW213332   4.989   4.150   6.141
 4145SOL     OW13333   6.676   6.379   1.062
 4145SOL    HW113334   6.640   6.299   1.014
 4145SOL    HW213335   6.776   6.380   1.056
 4146SOL     OW13336   6.972   0.588   4.686
 4146SOL    HW113337   0.052   0.591   4.680
 4146SOL    HW213338   6.932   0.626   4.602
 4147SOL     OW13339   4.766   3.881   5.929
 4147SOL    HW113340   4.755   3.905   6.025
 4147SOL    HW213341   4.686   3.912   5.878
 4148SOL     OW13342   0.963   0.533   4.564
 4148SOL    HW113343   0.863   0.532   4.567
 4148SOL    HW213344   0.996   0.443   4.534
 4149SOL     OW13345   6.937   2.792   0.775
 4149SOL    HW113346   6.861   2.856   0.769
 4149SOL    HW213347   6.996   2.803   0.694
 4150SOL     OW13348   0.909   0.465   6.440
 4150SOL    HW113349   0.931   0.376   6.399
 4150SOL    HW213350   0.813   0.487   6.423
 4151SOL     OW13351   3.615   5.575   5.242
 4151SOL    HW113352   3.527   5.619   5.258
 4151SOL    HW213353   3.605   5.476   5.246
 4152SOL     OW13354   3.805   6.084   1.712
 4152SOL    HW113355   3.765   6.174   1.694
 4152SOL    HW213356   3.901   6.095   1.738
 4153SOL     OW13357   4.222   5.000   0.000
 4153SOL    HW113358   4.131   5.040   0.005
 4153SOL    HW213359   4.244   4.977   6.926
 4154SOL     OW13360   0.393   4.864   4.234
 4154SOL    HW113361   0.318   4.927   4.250
 4154SOL    HW213362   0.362   4.790   4.173
 4155SOL     OW13363   6.969   0.992   2.041
 4155SOL    HW113364   6.960   0.894   2.020
 4155SOL    HW213365   6.923   1.045   1.969
 4156SOL     OW13366   5.948   6.124   5.025
 4156SOL    HW113367   5.920   6.077   5.109
 4156SOL    HW213368   5.868   6.139   4.968
 4157SOL     OW13369   4.950   5.578   4.669
 4157SOL    HW113370   4.998   5.649   4.721
 4157SOL    HW213371   4.912   5.510   4.732
 4158SOL     OW13372   1.926   4.637   2.819
 4158SOL    HW113373   1.944   4.545   2.783
 4158SOL    HW213374   2.010   4.673   2.859
 4159SOL     OW13375   2.146   3.608   4.203
 4159SOL    HW113376   2.166   3.569   4.293
 4159SOL    HW213377   2.147   3.536   4.134
 4160SOL     OW13378   6.032   0.616   0.703
 4160SOL    HW113379   5.953   0.594   0.760
 4160SOL    HW213380   6.027   0.565   0.617
 4161SOL     OW13381   0.669   0.725   0.145
 4161SOL    HW113382   0.699   0.709   0.239
 4161SOL    HW213383   0.722   0.800   0.105
 4162SOL     OW13384   6.008   6.702   6.205
 4162SOL    HW113385   5.931   6.710   6.267
 4162SOL    HW213386   6.090   6.678   6.256
 4163SOL     OW13387   5.943   6.376   3.537
 4163SOL    HW113388   5.894   6.340   3.617
 4163SOL    HW213389   5.988   6.301   3.489
 4164SOL     OW13390   1.820   6.536   6.362
 4164SOL    HW113391   1.785   6.587   6.441
 4164SOL    HW213392   1.920   6.532   6.367
 4165SOL     OW13393   3.857   0.155   6.932
 4165SOL    HW113394   3.906   0.167   7.018
 4165SOL    HW213395   3.922   0.163   6.856
 4166SOL     OW13396   6.308   4.219   0.998
 4166SOL    HW113397   6.364   4.253   1.073
 4166SOL    HW213398   6.366   4.169   0.934
 4167SOL     OW13399   0.978   4.067   1.304
 4167SOL    HW113400   1.012   4.013   1.227
 4167SOL    HW213401   1.014   4.161   1.298
 4168SOL     OW13402   6.670   4.836   0.557
 4168SOL    HW113403   6.597   4.774   0.527
 4168SOL    HW213404   6.690   4.819   0.654
 4169SOL     OW13405   6.045   3.878   3.977
 4169SOL    HW113406   5.953   3.844   3.961
 4169SOL    HW213407   6.050   3.975   3.954
 4170SOL     OW13408   3.578   4.155   5.414
 4170SOL    HW113409   3.673   4.153   5.444
 4170SOL    HW213410   3.563   4.234   5.355
 4171SOL     OW13411   5.694   5.411   1.045
 4171SOL    HW113412   5.633   5.389   1.121
 4171SOL    HW213413   5.699   5.510   1.033
 4172SOL     OW13414   0.560   2.330   6.222
 4172SOL    HW113415   0.475   2.342   6.273
 4172SOL    HW213416   0.542   2.278   6.139
 4173SOL     OW13417   4.799   3.634   5.783
 4173SOL    HW113418   4.704   3.636   5.754
 4173SOL    HW213419   4.817   3.710   5.846
 4174SOL     OW13420   5.528   0.828   3.479
 4174SOL    HW113421   5.487   0.746   3.439
 4174SOL    HW213422   5.554   0.892   3.407
 4175SOL     OW13423   2.063   6.276   4.678
 4175SOL    HW113424   2.150   6.245   4.716
 4175SOL    HW213425   2.028   6.207   4.615
 4176SOL     OW13426   3.135   6.903   2.060
 4176SOL    HW113427   3.134   6.966   2.138
 4176SOL    HW213428   3.073   6.937   1.990
 4177SOL     OW13429   6.571   4.299   4.727
 4177SOL    HW113430   6.627   4.243   4.666
 4177SOL    HW213431   6.616   4.308   4.815
 4178SOL     OW13432   4.938   0.359   4.172
 4178SOL    HW113433   4.975   0.366   4.080
 4178SOL    HW213434   4.840   0.380   4.170
 4179SOL     OW13435   5.499   2.334   3.005
 4179SOL    HW113436   5.419   2.302   3.054
 4179SOL    HW213437   5.528   2.423   3.041
 4180SOL     OW13438   5.041   4.104   1.566
 4180SOL    HW113439   4.989   4.029   1.525
 4180SOL    HW213440   5.138   4.091   1.548
 4181SOL     OW13441   2.042   2.069   0.445
 4181SOL    HW113442   2.119   2.131   0.426
 4181SOL    HW213443   2.036   2.052   0.543
 4182SOL     OW13444   0.353   6.725   3.266
 4182SOL    HW113445   0.353   6.741   3.167
 4182SOL    HW213446   0.326   6.809   3.313
 4183SOL     OW13447   4.661   0.790   6.834
 4183SOL    HW113448   4.738   0.726   6.844
 4183SOL    HW213449   4.588   0.762   6.896
 4184SOL     OW13450   4.337   4.906   1.680
 4184SOL    HW113451   4.251   4.855   1.675
 4184SOL    HW213452   4.327   4.995   1.636
 4185SOL     OW13453   0.628   5.802   2.610
 4185SOL    HW113454   0.620   5.773   2.515
 4185SOL    HW213455   0.653   5.899   2.614
 4186SOL     OW13456   2.371   4.779   0.872
 4186SOL    HW113457   2.350   4.747   0.964
 4186SOL    HW213458   2.446   4.844   0.875
 4187SOL     OW13459   3.512   3.563   6.026
 4187SOL    HW113460   3.463   3.488   5.981
 4187SOL    HW213461   3.605   3.569   5.990
 4188SOL     OW13462   5.086   0.404   4.404
 4188SOL    HW113463   5.019   0.350   4.353
 4188SOL    HW213464   5.178   0.379   4.375
 4189SOL     OW13465   3.684   0.570   4.976
 4189SOL    HW113466   3.781   0.568   4.998
 4189SOL    HW213467   3.669   0.527   4.886
 4190SOL     OW13468   0.412   0.671   0.213
 4190SOL    HW113469   0.383   0.759   0.253
 4190SOL    HW213470   0.504   0.680   0.177
 4191SOL     OW13471   5.432   3.419   3.295
 4191SOL    HW113472   5.428   3.340   3.235
 4191SOL    HW213473   5.383   3.400   3.380
 4192SOL     OW13474   0.571   1.057   3.945
 4192SOL    HW113475   0.569   0.958   3.961
 4192SOL    HW213476   0.666   1.088   3.948
 4193SOL     OW13477   1.902   6.840   2.849
 4193SOL    HW113478   1.804   6.840   2.869
 4193SOL    HW213479   1.943   6.925   2.881
 4194SOL     OW13480   5.758   0.555   5.572
 4194SOL    HW113481   5.823   0.629   5.557
 4194SOL    HW213482   5.786   0.501   5.652
 4195SOL     OW13483   4.236   0.235   2.338
 4195SOL    HW113484   4.249   0.293   2.418
 4195SOL    HW213485   4.313   0.172   2.329
 4196SOL     OW13486   5.976   2.113   3.319
 4196SOL    HW113487   6.064   2.076   3.289
 4196SOL    HW213488   5.974   2.212   3.303
 4197SOL     OW13489   5.147   5.730   5.167
 4197SOL    HW113490   5.100   5.673   5.234
 4197SOL    HW213491   5.228   5.771   5.210
 4198SOL     OW13492   5.429   2.964   6.677
 4198SOL    HW113493   5.498   2.949   6.606
 4198SOL    HW213494   5.403   2.876   6.716
 4199SOL     OW13495   1.938   3.637   6.468
 4199SOL    HW113496   1.967   3.635   6.372
 4199SOL    HW213497   2.016   3.614   6.527
 4200SOL     OW13498   3.039   6.233   5.095
 4200SOL    HW113499   2.993   6.162   5.042
 4200SOL    HW213500   3.134   6.207   5.109
 4201SOL     OW13501   5.888   6.292   3.834
 4201SOL    HW113502   5.970   6.306   3.889
 4201SOL    HW213503   5.894   6.205   3.786
 4202SOL     OW13504   4.283   5.809   5.844
 4202SOL    HW113505   4.215   5.838   5.911
 4202SOL    HW213506   4.368   5.862   5.858
 4203SOL     OW13507   4.768   5.542   1.089
 4203SOL    HW113508   4.735   5.634   1.066
 4203SOL    HW213509   4.732   5.477   1.022
 4204SOL     OW13510   3.821   2.938   2.395
 4204SOL    HW113511   3.803   2.846   2.430
 4204SOL    HW213512   3.874   2.990   2.462
 4205SOL     OW13513   3.604   4.947   4.092
 4205SOL    HW113514   3.641   4.915   4.179
 4205SOL    HW213515   3.677   4.946   4.023
 4206SOL     OW13516   6.153   0.700   5.482
 4206SOL    HW113517   6.108   0.710   5.570
 4206SOL    HW213518   6.246   0.665   5.495
 4207SOL     OW13519   2.177   1.657   1.960
 4207SOL    HW113520   2.123   1.575   1.943
 4207SOL    HW213521   2.121   1.738   1.945
 4208SOL     OW13522   1.000   3.340   6.905
 4208SOL    HW113523   0.946   3.366   6.824
 4208SOL    HW213524   1.074   3.279   6.877
 4209SOL     OW13525   0.523   1.607   5.234
 4209SOL    HW113526   0.500   1.585   5.329
 4209SOL    HW213527   0.613   1.651   5.231
 4210SOL     OW13528   3.325   3.722   2.178
 4210SOL    HW113529   3.302   3.637   2.225
 4210SOL    HW213530   3.381   3.702   2.097
 4211SOL     OW13531   3.855   5.400   5.357
 4211SOL    HW113532   3.954   5.389   5.347
 4211SOL    HW213533   3.810   5.379   5.270
 4212SOL     OW13534   6.495   2.618   2.195
 4212SOL    HW113535   6.532   2.547   2.254
 4212SOL    HW213536   6.425   2.578   2.135
 4213SOL     OW13537   2.632   0.941   2.329
 4213SOL    HW113538   2.577   0.965   2.249
 4213SOL    HW213539   2.608   0.849   2.360
 4214SOL     OW13540   0.965   3.850   5.808
 4214SOL    HW113541   0.943   3.869   5.713
 4214SOL    HW213542   1.064   3.856   5.822
 4215SOL     OW13543   6.764   5.835   4.593
 4215SOL    HW113544   6.741   5.931   4.579
 4215SOL    HW213545   6.752   5.785   4.507
 4216SOL     OW13546   1.480   1.913   3.308
 4216SOL    HW113547   1.560   1.871   3.351
 4216SOL    HW213548   1.491   1.912   3.209
 4217SOL     OW13549   6.730   0.046   2.868
 4217SOL    HW113550   6.720   0.046   2.967
 4217SOL    HW213551   6.640   0.052   2.825
 4218SOL     OW13552   5.299   0.298   1.746
 4218SOL    HW113553   5.228   0.343   1.691
 4218SOL    HW213554   5.316   0.207   1.710
 4219SOL     OW13555   2.893   5.259   3.967
 4219SOL    HW113556   2.836   5.326   3.918
 4219SOL    HW213557   2.880   5.169   3.926
 4220SOL     OW13558   5.861   2.493   3.171
 4220SOL    HW113559   5.944   2.540   3.200
 4220SOL    HW213560   5.870   2.465   3.075
 4221SOL     OW13561   5.804   5.630   6.464
 4221SOL    HW113562   5.863   5.576   6.524
 4221SOL    HW213563   5.795   5.722   6.500
 4222SOL     OW13564   5.983   2.731   2.514
 4222SOL    HW113565   5.961   2.654   2.455
 4222SOL    HW213566   5.999   2.812   2.458
 4223SOL     OW13567   2.919   3.345   4.959
 4223SOL    HW113568   2.876   3.332   4.869
 4223SOL    HW213569   2.852   3.325   5.030
 4224SOL     OW13570   4.992   2.953   3.655
 4224SOL    HW113571   4.933   2.874   3.672
 4224SOL    HW213572   5.065   2.928   3.591
 4225SOL     OW13573   4.248   0.294   6.004
 4225SOL    HW113574   4.162   0.299   5.953
 4225SOL    HW213575   4.257   0.376   6.061
 4226SOL     OW13576   0.753   0.113   3.111
 4226SOL    HW113577   0.747   0.188   3.045
 4226SOL    HW213578   0.773   0.150   3.201
 4227SOL     OW13579   3.667   5.030   6.708
 4227SOL    HW113580   3.741   5.059   6.647
 4227SOL    HW213581   3.631   4.941   6.678
 4228SOL     OW13582   0.772   3.662   3.143
 4228SOL    HW113583   0.709   3.738   3.157
 4228SOL    HW213584   0.849   3.692   3.087
 4229SOL     OW13585   4.615   5.231   6.026
 4229SOL    HW113586   4.629   5.330   6.015
 4229SOL    HW213587   4.592   5.211   6.122
 4230SOL     OW13588   2.352   0.814   4.352
 4230SOL    HW113589   2.333   0.857   4.440
 4230SOL    HW213590   2.265   0.787   4.309
 4231SOL     OW13591   5.207   6.031   4.605
 4231SOL    HW113592   5.181   6.010   4.511
 4231SOL    HW213593   5.240   6.125   4.610
 4232SOL     OW13594   6.982   4.474   2.078
 4232SOL    HW113595   6.926   4.506   2.001
 4232SOL    HW213596   7.010   4.380   2.062
 4233SOL     OW13597   0.109   0.683   6.885
 4233SOL    HW113598   0.036   0.652   6.825
 4233SOL    HW213599   0.070   0.729   6.965
 4234SOL     OW13600   1.604   0.116   5.698
 4234SOL    HW113601   1.691   0.107   5.649
 4234SOL    HW213602   1.613   0.076   5.789
 4235SOL     OW13603   5.560   3.765   5.166
 4235SOL    HW113604   5.616   3.848   5.157
 4235SOL    HW213605   5.516   3.764   5.256
 4236SOL     OW13606   0.528   3.523   3.060
 4236SOL    HW113607   0.503   3.486   3.149
 4236SOL    HW213608   0.598   3.594   3.072
 4237SOL     OW13609   6.328   4.509   4.272
 4237SOL    HW113610   6.231   4.505   4.247
 4237SOL    HW213611   6.346   4.595   4.320
 4238SOL     OW13612   3.930   4.770   3.353
 4238SOL    HW113613   3.881   4.694   3.311
 4238SOL    HW213614   4.022   4.776   3.315
 4239SOL     OW13615   6.204   1.140   3.204
 4239SOL    HW113616   6.254   1.218   3.165
 4239SOL    HW213617   6.183   1.159   3.299
 4240SOL     OW13618   1.964   6.949   0.069
 4240SOL    HW113619   1.903   6.983   7.017
 4240SOL    HW213620   1.910   6.923   0.149
 4241SOL     OW13621   5.310   1.529   1.433
 4241SOL    HW113622   5.318   1.617   1.385
 4241SOL    HW213623   5.395   1.511   1.483
 4242SOL     OW13624   2.044   0.633   3.166
 4242SOL    HW113625   2.058   0.709   3.102
 4242SOL    HW213626   2.109   0.641   3.242
 4243SOL     OW13627   0.618   3.863   3.135
 4243SOL    HW113628   0.585   3.939   3.190
 4243SOL    HW213629   0.663   3.899   3.053
 4244SOL     OW13630   4.676   5.416   0.874
 4244SOL    HW113631   4.577   5.425   0.884
 4244SOL    HW213632   4.708   5.471   0.797
 4245SOL     OW13633   6.271   1.091   6.038
 4245SOL    HW113634   6.312   1.103   6.128
 4245SOL    HW213635   6.319   1.150   5.972
 4246SOL     OW13636   5.624   2.166   3.228
 4246SOL    HW113637   5.711   2.122   3.249
 4246SOL    HW213638   5.624   2.195   3.132
 4247SOL     OW13639   2.094   5.041   3.572
 4247SOL    HW113640   2.138   4.959   3.609
 4247SOL    HW213641   2.045   5.089   3.644
 4248SOL     OW13642   1.281   1.216   4.013
 4248SOL    HW113643   1.248   1.295   3.962
 4248SOL    HW213644   1.204   1.168   4.055
 4249SOL     OW13645   5.969   1.284   3.429
 4249SOL    HW113646   5.926   1.198   3.400
 4249SOL    HW213647   5.966   1.350   3.354
 4250SOL     OW13648   6.631   6.076   4.205
 4250SOL    HW113649   6.702   6.116   4.264
 4250SOL    HW213650   6.600   5.989   4.245
 4251SOL     OW13651   6.414   2.928   0.771
 4251SOL    HW113652   6.322   2.960   0.746
 4251SOL    HW213653   6.462   2.899   0.688
 4252SOL     OW13654   4.961   6.075   6.575
 4252SOL    HW113655   4.920   6.016   6.644
 4252SOL    HW213656   5.030   6.134   6.618
 4253SOL     OW13657   3.103   6.634   2.035
 4253SOL    HW113658   3.120   6.732   2.044
 4253SOL    HW213659   3.133   6.587   2.118
 4254SOL     OW13660   2.055   4.315   1.716
 4254SOL    HW113661   2.011   4.257   1.647
 4254SOL    HW213662   1.988   4.341   1.785
 4255SOL     OW13663   0.467   3.639   3.335
 4255SOL    HW113664   0.419   3.727   3.334
 4255SOL    HW213665   0.502   3.621   3.427
 4256SOL     OW13666   1.096   6.017   1.050
 4256SOL    HW113667   1.134   6.093   0.996
 4256SOL    HW213668   1.094   6.043   1.147
 4257SOL     OW13669   4.980   1.025   4.342
 4257SOL    HW113670   4.952   1.113   4.381
 4257SOL    HW213671   5.057   1.039   4.280
 4258SOL     OW13672   3.439   6.204   1.047
 4258SOL    HW113673   3.416   6.171   1.138
 4258SOL    HW213674   3.361   6.251   1.006
 4259SOL     OW13675   1.708   6.201   0.613
 4259SOL    HW113676   1.762   6.132   0.661
 4259SOL    HW213677   1.663   6.159   0.534
 4260SOL     OW13678   5.687   0.557   3.614
 4260SOL    HW113679   5.771   0.548   3.561
 4260SOL    HW213680   5.633   0.473   3.606
 4261SOL     OW13681   1.638   6.969   2.915
 4261SOL    HW113682   1.664   7.009   2.827
 4261SOL    HW213683   1.676   0.003   2.989
 4262SOL     OW13684   0.933   4.347   5.939
 4262SOL    HW113685   0.908   4.250   5.941
 4262SOL    HW213686   1.027   4.357   5.971
 4263SOL     OW13687   2.312   1.221   3.505
 4263SOL    HW113688   2.326   1.240   3.408
 4263SOL    HW213689   2.397   1.237   3.555
 4264SOL     OW13690   6.129   1.981   4.383
 4264SOL    HW113691   6.224   2.003   4.408
 4264SOL    HW213692   6.106   2.027   4.297
 4265SOL     OW13693   3.586   0.976   1.088
 4265SOL    HW113694   3.601   0.881   1.116
 4265SOL    HW213695   3.510   1.015   1.140
 4266SOL     OW13696   1.827   6.302   6.736
 4266SOL    HW113697   1.780   6.390   6.734
 4266SOL    HW213698   1.913   6.309   6.686
 4267SOL     OW13699   2.186   3.420   4.003
 4267SOL    HW113700   2.146   3.334   3.970
 4267SOL    HW213701   2.191   3.485   3.928
 4268SOL     OW13702   2.129   5.458   6.563
 4268SOL    HW113703   2.216   5.493   6.599
 4268SOL    HW213704   2.143   5.365   6.527
 4269SOL     OW13705   2.870   0.969   3.409
 4269SOL    HW113706   2.877   0.876   3.446
 4269SOL    HW213707   2.844   0.963   3.312
 4270SOL     OW13708   3.197   2.971   2.343
 4270SOL    HW113709   3.166   2.951   2.436
 4270SOL    HW213710   3.291   2.937   2.332
 4271SOL     OW13711   0.083   1.424   0.018
 4271SOL    HW113712   0.088   1.341   6.982
 4271SOL    HW213713   0.040   1.403   0.106
 4272SOL     OW13714   6.975   2.502   4.750
 4272SOL    HW113715   6.928   2.525   4.835
 4272SOL    HW213716   6.921   2.436   4.699
 4273SOL     OW13717   4.892   6.370   5.265
 4273SOL    HW113718   4.898   6.359   5.165
 4273SOL    HW213719   4.984   6.375   5.303
 4274SOL     OW13720   0.964   0.076   1.976
 4274SOL    HW113721   0.928   0.073   2.070
 4274SOL    HW213722   0.915   0.010   1.919
 4275SOL     OW13723   0.369   2.096   4.039
 4275SOL    HW113724   0.326   2.184   4.017
 4275SOL    HW213725   0.313   2.022   4.002
 4276SOL     OW13726   3.145   4.847   3.780
 4276SOL    HW113727   3.167   4.865   3.684
 4276SOL    HW213728   3.230   4.829   3.830
 4277SOL     OW13729   0.211   4.613   2.432
 4277SOL    HW113730   0.119   4.602   2.469
 4277SOL    HW213731   0.210   4.588   2.335
 4278SOL     OW13732   0.814   6.624   4.145
 4278SOL    HW113733   0.818   6.721   4.125
 4278SOL    HW213734   0.744   6.580   4.089
 4279SOL     OW13735   1.443   1.126   2.602
 4279SOL    HW113736   1.494   1.211   2.587
 4279SOL    HW213737   1.353   1.133   2.558
 4280SOL     OW13738   6.559   0.105   6.086
 4280SOL    HW113739   6.486   0.171   6.096
 4280SOL    HW213740   6.594   0.107   5.993
 4281SOL     OW13741   5.362   5.003   3.196
 4281SOL    HW113742   5.320   5.081   3.243
 4281SOL    HW213743   5.290   4.938   3.170
 4282SOL     OW13744   3.202   4.632   0.440
 4282SOL    HW113745   3.103   4.619   0.446
 4282SOL    HW213746   3.244   4.598   0.524
 4283SOL     OW13747   3.840   1.499   3.467
 4283SOL    HW113748   3.798   1.476   3.556
 4283SOL    HW213749   3.798   1.583   3.432
 4284SOL     OW13750   4.288   5.588   0.670
 4284SOL    HW113751   4.246   5.528   0.602
 4284SOL    HW213752   4.354   5.647   0.624
 4285SOL     OW13753   2.170   1.259   5.721
 4285SOL    HW113754   2.144   1.351   5.749
 4285SOL    HW213755   2.270   1.252   5.720
 4286SOL     OW13756   5.786   6.907   5.601
 4286SOL    HW113757   5.813   7.003   5.606
 4286SOL    HW213758   5.742   6.880   5.686
 4287SOL     OW13759   4.829   0.846   5.679
 4287SOL    HW113760   4.736   0.881   5.679
 4287SOL    HW213761   4.894   0.922   5.686
 4288SOL     OW13762   0.742   5.531   3.107
 4288SOL    HW113763   0.685   5.572   3.035
 4288SOL    HW213764   0.831   5.506   3.068
 4289SOL     OW13765   0.950   2.459   6.449
 4289SOL    HW113766   0.928   2.463   6.547
 4289SOL    HW213767   1.045   2.432   6.438
 4290SOL     OW13768   0.633   6.174   4.945
 4290SOL    HW113769   0.659   6.082   4.975
 4290SOL    HW213770   0.558   6.168   4.879
 4291SOL     OW13771   5.303   4.305   6.159
 4291SOL    HW113772   5.240   4.270   6.089
 4291SOL    HW213773   5.296   4.404   6.164
 4292SOL     OW13774   5.933   2.787   6.937
 4292SOL    HW113775   5.900   2.875   6.904
 4292SOL    HW213776   5.986   2.801   0.001
 4293SOL     OW13777   3.599   4.392   6.692
 4293SOL    HW113778   3.688   4.372   6.732
 4293SOL    HW213779   3.597   4.358   6.598
 4294SOL     OW13780   2.152   1.513   6.449
 4294SOL    HW113781   2.063   1.553   6.425
 4294SOL    HW213782   2.174   1.534   6.544
 4295SOL     OW13783   4.588   5.874   3.810
 4295SOL    HW113784   4.490   5.853   3.817
 4295SOL    HW213785   4.630   5.867   3.901
 4296SOL     OW13786   2.994   6.774   0.256
 4296SOL    HW113787   2.917   6.826   0.218
 4296SOL    HW213788   2.962   6.685   0.287
 4297SOL     OW13789   6.399   6.504   2.256
 4297SOL    HW113790   6.496   6.512   2.279
 4297SOL    HW213791   6.390   6.477   2.160
 4298SOL     OW13792   3.138   6.388   1.645
 4298SOL    HW113793   3.103   6.366   1.736
 4298SOL    HW213794   3.209   6.458   1.653
 4299SOL     OW13795   0.756   3.169   6.906
 4299SOL    HW113796   0.840   3.125   6.938
 4299SOL    HW213797   0.778   3.254   6.859
 4300SOL     OW13798   2.463   6.834   0.222
 4300SOL    HW113799   2.373   6.836   0.180
 4300SOL    HW213800   2.530   6.797   0.157
 4301SOL     OW13801   4.498   0.307   1.987
 4301SOL    HW113802   4.433   0.326   1.913
 4301SOL    HW213803   4.477   0.364   2.066
 4302SOL     OW13804   6.770   0.231   6.267
 4302SOL    HW113805   6.794   0.155   6.328
 4302SOL    HW213806   6.712   0.198   6.193
 4303SOL     OW13807   0.157   4.668   3.684
 4303SOL    HW113808   0.140   4.766   3.698
 4303SOL    HW213809   0.242   4.656   3.633
 4304SOL     OW13810   3.499   3.751   2.434
 4304SOL    HW113811   3.444   3.698   2.498
 4304SOL    HW213812   3.447   3.768   2.351
 4305SOL     OW13813   0.251   6.653   6.347
 4305SOL    HW113814   0.346   6.678   6.327
 4305SOL    HW213815   0.235   6.558   6.319
 4306SOL     OW13816   5.008   5.146   4.408
 4306SOL    HW113817   5.017   5.077   4.337
 4306SOL    HW213818   4.925   5.128   4.462
 4307SOL     OW13819   5.506   3.237   5.179
 4307SOL    HW113820   5.535   3.253   5.273
 4307SOL    HW213821   5.408   3.214   5.177
 4308SOL     OW13822   5.501   5.383   1.231
 4308SOL    HW113823   5.493   5.443   1.311
 4308SOL    HW213824   5.410   5.366   1.193
 4309SOL     OW13825   1.435   2.181   0.540
 4309SOL    HW113826   1.391   2.128   0.613
 4309SOL    HW213827   1.524   2.140   0.518
 4310SOL     OW13828   1.959   2.406   1.373
 4310SOL    HW113829   1.947   2.374   1.467
 4310SOL    HW213830   1.958   2.506   1.372
 4311SOL     OW13831   0.544   6.280   2.419
 4311SOL    HW113832   0.560   6.197   2.473
 4311SOL    HW213833   0.519   6.255   2.326
 4312SOL     OW13834   1.793   5.671   3.129
 4312SOL    HW113835   1.758   5.632   3.214
 4312SOL    HW213836   1.863   5.611   3.091
 4313SOL     OW13837   4.132   1.654   0.280
 4313SOL    HW113838   4.122   1.753   0.294
 4313SOL    HW213839   4.137   1.608   0.369
 4314SOL     OW13840   6.414   1.583   4.855
 4314SOL    HW113841   6.380   1.490   4.843
 4314SOL    HW213842   6.395   1.637   4.772
 4315SOL     OW13843   2.397   0.924   3.157
 4315SOL    HW113844   2.431   0.956   3.069
 4315SOL    HW213845   2.297   0.930   3.158
 4316SOL     OW13846   5.373   0.295   2.410
 4316SOL    HW113847   5.399   0.251   2.324
 4316SOL    HW213848   5.324   0.229   2.467
 4317SOL     OW13849   5.206   1.464   5.865
 4317SOL    HW113850   5.175   1.372   5.887
 4317SOL    HW213851   5.256   1.502   5.943
 4318SOL     OW13852   0.925   1.404   4.869
 4318SOL    HW113853   0.854   1.387   4.937
 4318SOL    HW213854   1.013   1.374   4.906
 4319SOL     OW13855   1.096   2.327   1.413
 4319SOL    HW113856   1.178   2.284   1.449
 4319SOL    HW213857   1.120   2.382   1.333
 4320SOL     OW13858   3.511   5.316   1.212
 4320SOL    HW113859   3.560   5.319   1.125
 4320SOL    HW213860   3.571   5.276   1.282
 4321SOL     OW13861   6.998   4.459   3.634
 4321SOL    HW113862   6.943   4.450   3.551
 4321SOL    HW213863   0.038   4.539   3.625
 4322SOL     OW13864   6.418   3.342   6.436
 4322SOL    HW113865   6.407   3.279   6.359
 4322SOL    HW213866   6.511   3.379   6.435
 4323SOL     OW13867   5.222   4.853   0.388
 4323SOL    HW113868   5.143   4.845   0.448
 4323SOL    HW213869   5.268   4.940   0.405
 4324SOL     OW13870   6.596   4.027   5.933
 4324SOL    HW113871   6.668   3.971   5.975
 4324SOL    HW213872   6.507   3.987   5.951
 4325SOL     OW13873   2.970   1.587   2.108
 4325SOL    HW113874   2.982   1.673   2.058
 4325SOL    HW213875   3.029   1.588   2.189
 4326SOL     OW13876   5.385   4.306   2.108
 4326SOL    HW113877   5.479   4.320   2.138
 4326SOL    HW213878   5.327   4.379   2.144
 4327SOL     OW13879   4.551   6.099   2.478
 4327SOL    HW113880   4.597   6.010   2.487
 4327SOL    HW213881   4.504   6.121   2.563
 4328SOL     OW13882   5.589   4.384   5.577
 4328SOL    HW113883   5.686   4.369   5.593
 4328SOL    HW213884   5.574   4.409   5.482
 4329SOL     OW13885   5.742   2.560   5.535
 4329SOL    HW113886   5.751   2.468   5.573
 4329SOL    HW213887   5.770   2.627   5.604
 4330SOL     OW13888   1.829   6.771   4.436
 4330SOL    HW113889   1.884   6.825   4.373
 4330SOL    HW213890   1.885   6.699   4.477
 4331SOL     OW13891   6.227   0.819   1.830
 4331SOL    HW113892   6.295   0.814   1.904
 4331SOL    HW213893   6.270   0.854   1.747
 4332SOL     OW13894   6.532   2.952   2.994
 4332SOL    HW113895   6.624   2.951   3.035
 4332SOL    HW213896   6.497   2.859   2.987
 4333SOL     OW13897   4.509   1.779   4.861
 4333SOL    HW113898   4.514   1.787   4.761
 4333SOL    HW213899   4.596   1.746   4.897
 4334SOL     OW13900   1.625   2.978   2.211
 4334SOL    HW113901   1.532   3.006   2.188
 4334SOL    HW213902   1.636   2.880   2.194
 4335SOL     OW13903   3.623   2.730   1.763
 4335SOL    HW113904   3.640   2.635   1.736
 4335SOL    HW213905   3.696   2.761   1.823
 4336SOL     OW13906   2.622   5.672   5.438
 4336SOL    HW113907   2.534   5.674   5.390
 4336SOL    HW213908   2.695   5.690   5.373
 4337SOL     OW13909   2.433   4.888   1.619
 4337SOL    HW113910   2.407   4.872   1.524
 4337SOL    HW213911   2.483   4.809   1.654
 4338SOL     OW13912   6.334   0.261   6.095
 4338SOL    HW113913   6.245   0.303   6.078
 4338SOL    HW213914   6.383   0.312   6.165
 4339SOL     OW13915   3.568   2.380   6.399
 4339SOL    HW113916   3.585   2.469   6.356
 4339SOL    HW213917   3.583   2.388   6.497
 4340SOL     OW13918   5.990   3.886   1.121
 4340SOL    HW113919   6.020   3.952   1.052
 4340SOL    HW213920   5.893   3.867   1.108
 4341SOL     OW13921   1.223   5.350   1.178
 4341SOL    HW113922   1.142   5.300   1.147
 4341SOL    HW213923   1.305   5.297   1.158
 4342SOL     OW13924   5.547   3.571   3.087
 4342SOL    HW113925   5.630   3.613   3.124
 4342SOL    HW213926   5.505   3.512   3.155
 4343SOL     OW13927   3.278   6.219   4.776
 4343SOL    HW113928   3.369   6.254   4.753
 4343SOL    HW213929   3.284   6.121   4.794
 4344SOL     OW13930   1.316   3.145   2.793
 4344SOL    HW113931   1.221   3.177   2.792
 4344SOL    HW213932   1.359   3.168   2.705
 4345SOL     OW13933   3.122   3.182   4.862
 4345SOL    HW113934   3.041   3.234   4.890
 4345SOL    HW213935   3.122   3.172   4.763
 4346SOL     OW13936   2.126   2.500   2.480
 4346SOL    HW113937   2.121   2.575   2.546
 4346SOL    HW213938   2.147   2.537   2.389
 4347SOL     OW13939   5.935   6.887   2.408
 4347SOL    HW113940   5.891   6.831   2.338
 4347SOL    HW213941   6.032   6.863   2.414
 4348SOL     OW13942   0.598   5.981   4.209
 4348SOL    HW113943   0.670   6.012   4.272
 4348SOL    HW213944   0.529   5.930   4.261
 4349SOL     OW13945   6.749   2.842   4.178
 4349SOL    HW113946   6.672   2.876   4.231
 4349SOL    HW213947   6.719   2.821   4.085
 4350SOL     OW13948   4.487   1.864   4.133
 4350SOL    HW113949   4.544   1.946   4.127
 4350SOL    HW213950   4.403   1.885   4.182
 4351SOL     OW13951   1.164   6.398   1.090
 4351SOL    HW113952   1.240   6.437   1.141
 4351SOL    HW213953   1.086   6.385   1.151
 4352SOL     OW13954   6.610   4.213   1.574
 4352SOL    HW113955   6.563   4.125   1.573
 4352SOL    HW213956   6.706   4.199   1.548
 4353SOL     OW13957   3.273   3.729   0.258
 4353SOL    HW113958   3.315   3.677   0.333
 4353SOL    HW213959   3.220   3.666   0.200
 4354SOL     OW13960   1.310   1.646   6.375
 4354SOL    HW113961   1.353   1.675   6.460
 4354SOL    HW213962   1.314   1.546   6.368
 4355SOL     OW13963   1.732   6.985   2.650
 4355SOL    HW113964   1.711   6.891   2.625
 4355SOL    HW213965   1.831   7.000   2.642
 4356SOL     OW13966   4.586   3.381   5.539
 4356SOL    HW113967   4.601   3.477   5.564
 4356SOL    HW213968   4.490   3.357   5.555
 4357SOL     OW13969   6.664   1.129   1.291
 4357SOL    HW113970   6.624   1.218   1.269
 4357SOL    HW213971   6.713   1.094   1.211
 4358SOL     OW13972   6.728   0.259   0.273
 4358SOL    HW113973   6.751   0.252   0.176
 4358SOL    HW213974   6.693   0.351   0.292
 4359SOL     OW13975   1.289   1.303   6.977
 4359SOL    HW113976   1.350   1.224   6.968
 4359SOL    HW213977   1.238   1.295   0.043
 4360SOL     OW13978   0.873   2.821   4.716
 4360SOL    HW113979   0.790   2.867   4.686
 4360SOL    HW213980   0.944   2.830   4.646
 4361SOL     OW13981   1.843   3.780   1.400
 4361SOL    HW113982   1.921   3.835   1.369
 4361SOL    HW213983   1.870   3.728   1.481
 4362SOL     OW13984   0.201   5.756   3.985
 4362SOL    HW113985   0.104   5.767   3.962
 4362SOL    HW213986   0.234   5.670   3.947
 4363SOL     OW13987   4.502   1.368   1.830
 4363SOL    HW113988   4.512   1.418   1.916
 4363SOL    HW213989   4.520   1.271   1.845
 4364SOL     OW13990   3.170   4.091   3.428
 4364SOL    HW113991   3.161   4.082   3.329
 4364SOL    HW213992   3.267   4.082   3.453
 4365SOL     OW13993   2.860   0.771   2.049
 4365SOL    HW113994   2.911   0.823   2.118
 4365SOL    HW213995   2.895   0.678   2.045
 4366SOL     OW13996   6.267   6.006   6.547
 4366SOL    HW113997   6.282   6.089   6.494
 4366SOL    HW213998   6.193   5.952   6.506
 4367SOL     OW13999   2.835   5.060   3.766
 4367SOL    HW114000   2.736   5.069   3.771
 4367SOL    HW214001   2.863   4.973   3.808
 4368SOL     OW14002   3.761   5.730   1.837
 4368SOL    HW114003   3.722   5.644   1.804
 4368SOL    HW214004   3.705   5.765   1.912
 4369SOL     OW14005   4.792   5.290   3.275
 4369SOL    HW114006   4.770   5.375   3.228
 4369SOL    HW214007   4.715   5.227   3.268
 4370SOL     OW14008   3.574   3.994   1.465
 4370SOL    HW114009   3.542   3.988   1.559
 4370SOL    HW214010   3.668   4.029   1.463
 4371SOL     OW14011   2.311   1.471   2.862
 4371SOL    HW114012   2.245   1.408   2.904
 4371SOL    HW214013   2.401   1.427   2.856
 4372SOL     OW14014   2.443   2.579   4.036
 4372SOL    HW114015   2.369   2.632   4.077
 4372SOL    HW214016   2.412   2.486   4.016
 4373SOL     OW14017   4.474   0.672   6.671
 4373SOL    HW114018   4.465   0.682   6.572
 4373SOL    HW214019   4.565   0.701   6.699
 4374SOL     OW14020   2.244   1.778   1.696
 4374SOL    HW114021   2.263   1.728   1.781
 4374SOL    HW214022   2.262   1.719   1.617
 4375SOL     OW14023   3.908   6.221   2.790
 4375SOL    HW114024   3.855   6.299   2.755
 4375SOL    HW214025   3.954   6.176   2.713
 4376SOL     OW14026   6.620   0.688   1.995
 4376SOL    HW114027   6.712   0.725   2.001
 4376SOL    HW214028   6.554   0.757   2.024
 4377SOL     OW14029   5.953   5.591   0.370
 4377SOL    HW114030   6.014   5.668   0.349
 4377SOL    HW214031   5.932   5.591   0.468
 4378SOL     OW14032   1.655   4.140   2.887
 4378SOL    HW114033   1.623   4.128   2.793
 4378SOL    HW214034   1.677   4.051   2.927
 4379SOL     OW14035   2.348   1.131   1.878
 4379SOL    HW114036   2.272   1.095   1.824
 4379SOL    HW214037   2.362   1.227   1.856
 4380SOL     OW14038   1.732   6.376   3.916
 4380SOL    HW114039   1.832   6.371   3.921
 4380SOL    HW214040   1.697   6.413   4.002
 4381SOL     OW14041   2.190   4.065   4.812
 4381SOL    HW114042   2.212   3.998   4.741
 4381SOL    HW214043   2.225   4.032   4.900
 4382SOL     OW14044   5.921   3.903   6.139
 4382SOL    HW114045   5.969   3.816   6.152
 4382SOL    HW214046   5.971   3.958   6.072
 4383SOL     OW14047   0.457   2.664   5.521
 4383SOL    HW114048   0.435   2.594   5.589
 4383SOL    HW214049   0.555   2.663   5.503
 4384SOL     OW14050   5.469   0.867   6.888
 4384SOL    HW114051   5.386   0.915   6.917
 4384SOL    HW214052   5.496   0.802   6.960
 4385SOL     OW14053   6.640   2.781   4.800
 4385SOL    HW114054   6.677   2.694   4.768
 4385SOL    HW214055   6.544   2.769   4.825
 4386SOL     OW14056   1.008   3.754   6.809
 4386SOL    HW114057   1.050   3.684   6.751
 4386SOL    HW214058   0.952   3.815   6.754
 4387SOL     OW14059   1.064   1.928   1.719
 4387SOL    HW114060   1.106   1.865   1.654
 4387SOL    HW214061   0.974   1.894   1.746
 4388SOL     OW14062   5.119   0.826   6.642
 4388SOL    HW114063   5.037   0.826   6.699
 4388SOL    HW214064   5.092   0.828   6.545
 4389SOL     OW14065   5.153   1.528   0.499
 4389SOL    HW114066   5.111   1.617   0.479
 4389SOL    HW214067   5.177   1.483   0.413
 4390SOL     OW14068   3.849   2.016   2.144
 4390SOL    HW114069   3.881   2.021   2.239
 4390SOL    HW214070   3.785   2.092   2.126
 4391SOL     OW14071   1.861   5.256   6.323
 4391SOL    HW114072   1.839   5.212   6.236
 4391SOL    HW214073   1.807   5.214   6.397
 4392SOL     OW14074   6.296   3.574   4.798
 4392SOL    HW114075   6.393   3.553   4.781
 4392SOL    HW214076   6.285   3.605   4.892
 4393SOL     OW14077   5.322   6.602   2.903
 4393SOL    HW114078   5.351   6.506   2.899
 4393SOL    HW214079   5.328   6.634   2.998
 4394SOL     OW14080   6.281   5.278   2.677
 4394SOL    HW114081   6.296   5.216   2.601
 4394SOL    HW214082   6.344   5.355   2.672
 4395SOL     OW14083   4.054   1.564   1.959
 4395SOL    HW114084   4.120   1.574   1.884
 4395SOL    HW214085   4.053   1.647   2.014
 4396SOL     OW14086   2.683   1.846   4.103
 4396SOL    HW114087   2.596   1.858   4.056
 4396SOL    HW214088   2.707   1.749   4.106
 4397SOL     OW14089   0.529   1.311   4.795
 4397SOL    HW114090   0.595   1.371   4.840
 4397SOL    HW214091   0.438   1.350   4.802
 4398SOL     OW14092   1.364   4.577   4.982
 4398SOL    HW114093   1.307   4.495   4.984
 4398SOL    HW214094   1.362   4.617   4.890
 4399SOL     OW14095   1.899   0.424   2.110
 4399SOL    HW114096   1.923   0.353   2.044
 4399SOL    HW214097   1.973   0.491   2.115
 4400SOL     OW14098   2.139   0.030   4.968
 4400SOL    HW114099   2.083   0.026   4.885
 4400SOL    HW214100   2.204   0.106   4.960
 4401SOL     OW14101   5.342   6.616   6.522
 4401SOL    HW114102   5.359   6.680   6.597
 4401SOL    HW214103   5.268   6.651   6.465
 4402SOL     OW14104   1.947   6.469   2.399
 4402SOL    HW114105   1.967   6.492   2.304
 4402SOL    HW214106   2.014   6.403   2.433
 4403SOL     OW14107   0.293   6.957   3.814
 4403SOL    HW114108   0.364   0.008   3.819
 4403SOL    HW214109   0.203   7.001   3.809
 4404SOL     OW14110   0.923   4.029   5.598
 4404SOL    HW114111   0.844   4.085   5.622
 4404SOL    HW214112   1.000   4.051   5.659
 4405SOL     OW14113   2.694   3.999   0.110
 4405SOL    HW114114   2.787   3.982   0.141
 4405SOL    HW214115   2.634   3.925   0.142
 4406SOL     OW14116   5.792   4.475   1.653
 4406SOL    HW114117   5.718   4.541   1.646
 4406SOL    HW214118   5.871   4.517   1.698
 4407SOL     OW14119   0.221   4.699   0.715
 4407SOL    HW114120   0.141   4.652   0.751
 4407SOL    HW214121   0.242   4.665   0.623
 4408SOL     OW14122   4.594   0.820   1.256
 4408SOL    HW114123   4.627   0.892   1.316
 4408SOL    HW214124   4.662   0.801   1.185
 4409SOL     OW14125   4.058   0.595   2.417
 4409SOL    HW114126   4.121   0.521   2.438
 4409SOL    HW214127   4.070   0.624   2.322
 4410SOL     OW14128   1.795   5.119   0.732
 4410SOL    HW114129   1.742   5.035   0.745
 4410SOL    HW214130   1.890   5.102   0.756
 4411SOL     OW14131   3.983   3.108   3.762
 4411SOL    HW114132   4.059   3.078   3.819
 4411SOL    HW214133   3.930   3.177   3.811
 4412SOL     OW14134   3.317   1.292   4.351
 4412SOL    HW114135   3.219   1.290   4.369
 4412SOL    HW214136   3.366   1.256   4.430
 4413SOL     OW14137   4.522   6.011   4.979
 4413SOL    HW114138   4.583   6.084   4.948
 4413SOL    HW214139   4.573   5.925   4.984
 4414SOL     OW14140   4.103   4.808   2.073
 4414SOL    HW114141   4.135   4.796   1.979
 4414SOL    HW214142   4.015   4.856   2.072
 4415SOL     OW14143   4.053   4.218   6.298
 4415SOL    HW114144   4.082   4.123   6.286
 4415SOL    HW214145   3.967   4.221   6.348
 4416SOL     OW14146   3.180   0.885   4.131
 4416SOL    HW114147   3.247   0.913   4.200
 4416SOL    HW214148   3.227   0.859   4.047
 4417SOL     OW14149   6.646   4.491   3.233
 4417SOL    HW114150   6.636   4.416   3.168
 4417SOL    HW214151   6.567   4.552   3.226
 4418SOL     OW14152   5.607   0.748   3.806
 4418SOL    HW114153   5.628   0.681   3.735
 4418SOL    HW214154   5.666   0.732   3.885
 4419SOL     OW14155   5.885   6.096   0.444
 4419SOL    HW114156   5.815   6.044   0.395
 4419SOL    HW214157   5.959   6.035   0.471
 4420SOL     OW14158   4.934   1.514   1.315
 4420SOL    HW114159   4.956   1.607   1.344
 4420SOL    HW214160   5.014   1.472   1.272
 4421SOL     OW14161   2.022   0.895   3.399
 4421SOL    HW114162   1.985   0.949   3.323
 4421SOL    HW214163   1.982   0.804   3.398
 4422SOL     OW14164   2.163   3.677   5.826
 4422SOL    HW114165   2.084   3.619   5.847
 4422SOL    HW214166   2.186   3.733   5.906
 4423SOL     OW14167   1.344   2.740   5.895
 4423SOL    HW114168   1.263   2.798   5.884
 4423SOL    HW214169   1.341   2.665   5.830
 4424SOL     OW14170   5.338   6.532   3.812
 4424SOL    HW114171   5.364   6.450   3.862
 4424SOL    HW214172   5.404   6.549   3.739
 4425SOL     OW14173   3.399   5.761   5.620
 4425SOL    HW114174   3.437   5.837   5.673
 4425SOL    HW214175   3.407   5.676   5.673
 4426SOL     OW14176   0.262   1.994   5.094
 4426SOL    HW114177   0.205   1.926   5.139
 4426SOL    HW214178   0.303   1.955   5.012
 4427SOL     OW14179   6.880   6.581   2.880
 4427SOL    HW114180   6.885   6.579   2.980
 4427SOL    HW214181   6.785   6.598   2.852
 4428SOL     OW14182   3.181   5.176   2.127
 4428SOL    HW114183   3.218   5.260   2.166
 4428SOL    HW214184   3.237   5.099   2.156
 4429SOL     OW14185   2.759   0.632   3.736
 4429SOL    HW114186   2.731   0.536   3.739
 4429SOL    HW214187   2.723   0.679   3.817
 4430SOL     OW14188   5.535   3.250   4.286
 4430SOL    HW114189   5.573   3.331   4.330
 4430SOL    HW214190   5.470   3.277   4.214
 4431SOL     OW14191   1.373   0.853   2.197
 4431SOL    HW114192   1.377   0.859   2.097
 4431SOL    HW214193   1.311   0.780   2.224
 4432SOL     OW14194   3.348   4.077   3.772
 4432SOL    HW114195   3.441   4.106   3.797
 4432SOL    HW214196   3.341   4.074   3.672
 4433SOL     OW14197   6.093   0.554   4.792
 4433SOL    HW114198   6.110   0.612   4.871
 4433SOL    HW214199   6.097   0.458   4.820
 4434SOL     OW14200   4.102   2.108   3.322
 4434SOL    HW114201   4.187   2.139   3.364
 4434SOL    HW214202   4.119   2.083   3.226
 4435SOL     OW14203   4.159   4.003   0.938
 4435SOL    HW114204   4.138   3.991   1.035
 4435SOL    HW214205   4.252   4.038   0.927
 4436SOL     OW14206   3.431   2.009   0.701
 4436SOL    HW114207   3.477   1.994   0.614
 4436SOL    HW214208   3.332   2.008   0.688
 4437SOL     OW14209   5.482   1.142   3.814
 4437SOL    HW114210   5.464   1.066   3.751
 4437SOL    HW214211   5.553   1.201   3.776
 4438SOL     OW14212   4.063   1.251   0.020
 4438SOL    HW114213   4.140   1.295   6.993
 4438SOL    HW214214   4.018   1.318   0.080
 4439SOL     OW14215   0.250   6.187   1.164
 4439SOL    HW114216   0.345   6.180   1.192
 4439SOL    HW214217   0.233   6.278   1.125
 4440SOL     OW14218   1.868   4.421   0.636
 4440SOL    HW114219   1.920   4.368   0.568
 4440SOL    HW214220   1.794   4.471   0.590
 4441SOL     OW14221   6.463   1.775   2.762
 4441SOL    HW114222   6.531   1.829   2.811
 4441SOL    HW214223   6.465   1.800   2.665
 4442SOL     OW14224   2.980   5.983   4.221
 4442SOL    HW114225   3.019   5.948   4.306
 4442SOL    HW214226   3.020   5.935   4.143
 4443SOL     OW14227   0.026   2.836   0.524
 4443SOL    HW114228   0.110   2.863   0.478
 4443SOL    HW214229   0.007   2.739   0.505
 4444SOL     OW14230   3.754   5.645   6.176
 4444SOL    HW114231   3.665   5.690   6.185
 4444SOL    HW214232   3.759   5.601   6.086
 4445SOL     OW14233   6.993   0.566   0.822
 4445SOL    HW114234   6.937   0.509   0.762
 4445SOL    HW214235   6.936   0.604   0.895
 4446SOL     OW14236   6.096   1.606   1.805
 4446SOL    HW114237   6.116   1.639   1.712
 4446SOL    HW214238   6.176   1.621   1.863
 4447SOL     OW14239   5.851   3.532   5.976
 4447SOL    HW114240   5.764   3.559   6.017
 4447SOL    HW214241   5.850   3.553   5.879
 4448SOL     OW14242   3.553   3.747   0.878
 4448SOL    HW114243   3.532   3.844   0.886
 4448SOL    HW214244   3.469   3.695   0.868
 4449SOL     OW14245   4.254   0.701   6.073
 4449SOL    HW114246   4.312   0.782   6.087
 4449SOL    HW214247   4.299   0.621   6.112
 4450SOL     OW14248   4.129   3.595   4.317
 4450SOL    HW114249   4.223   3.618   4.294
 4450SOL    HW214250   4.077   3.578   4.233
 4451SOL     OW14251   5.653   4.334   3.028
 4451SOL    HW114252   5.629   4.274   2.951
 4451SOL    HW214253   5.623   4.427   3.008
 4452SOL     OW14254   5.659   6.509   4.901
 4452SOL    HW114255   5.573   6.554   4.879
 4452SOL    HW214256   5.715   6.569   4.958
 4453SOL     OW14257   6.453   2.765   1.448
 4453SOL    HW114258   6.493   2.763   1.540
 4453SOL    HW214259   6.389   2.842   1.442
 4454SOL     OW14260   5.342   1.946   6.742
 4454SOL    HW114261   5.439   1.964   6.724
 4454SOL    HW214262   5.313   1.864   6.693
 4455SOL     OW14263   3.791   0.393   6.062
 4455SOL    HW114264   3.717   0.428   6.119
 4455SOL    HW214265   3.874   0.384   6.117
 4456SOL     OW14266   2.996   5.279   2.840
 4456SOL    HW114267   3.075   5.327   2.802
 4456SOL    HW214268   2.995   5.289   2.939
 4457SOL     OW14269   4.468   2.122   0.315
 4457SOL    HW114270   4.379   2.165   0.299
 4457SOL    HW214271   4.503   2.150   0.404
 4458SOL     OW14272   1.146   3.898   0.169
 4458SOL    HW114273   1.145   3.927   0.073
 4458SOL    HW214274   1.099   3.810   0.178
 4459SOL     OW14275   5.128   0.893   3.462
 4459SOL    HW114276   5.089   0.814   3.509
 4459SOL    HW214277   5.119   0.974   3.521
 4460SOL     OW14278   2.940   3.193   5.593
 4460SOL    HW114279   2.914   3.098   5.611
 4460SOL    HW214280   2.900   3.222   5.506
 4461SOL     OW14281   0.785   0.732   2.695
 4461SOL    HW114282   0.872   0.707   2.651
 4461SOL    HW214283   0.777   0.683   2.782
 4462SOL     OW14284   0.133   3.358   2.020
 4462SOL    HW114285   0.112   3.385   2.114
 4462SOL    HW214286   0.211   3.295   2.020
 4463SOL     OW14287   2.888   2.944   6.853
 4463SOL    HW114288   2.796   2.981   6.859
 4463SOL    HW214289   2.906   2.886   6.933
 4464SOL     OW14290   6.081   4.301   0.008
 4464SOL    HW114291   5.997   4.268   6.984
 4464SOL    HW214292   6.159   4.280   6.970
 4465SOL     OW14293   2.237   5.309   3.411
 4465SOL    HW114294   2.208   5.232   3.355
 4465SOL    HW214295   2.156   5.357   3.445
 4466SOL     OW14296   1.020   0.445   2.418
 4466SOL    HW114297   0.973   0.480   2.338
 4466SOL    HW214298   1.026   0.345   2.413
 4467SOL     OW14299   1.361   6.753   3.636
 4467SOL    HW114300   1.390   6.665   3.674
 4467SOL    HW214301   1.346   6.819   3.710
 4468SOL     OW14302   1.418   2.599   0.793
 4468SOL    HW114303   1.332   2.579   0.745
 4468SOL    HW214304   1.400   2.657   0.872
 4469SOL     OW14305   3.844   0.354   1.480
 4469SOL    HW114306   3.866   0.282   1.414
 4469SOL    HW214307   3.827   0.312   1.570
 4470SOL     OW14308   6.423   3.749   2.079
 4470SOL    HW114309   6.333   3.792   2.072
 4470SOL    HW214310   6.442   3.697   1.995
 4471SOL     OW14311   6.951   1.568   0.357
 4471SOL    HW114312   7.004   1.647   0.386
 4471SOL    HW214313   6.899   1.591   0.274
 4472SOL     OW14314   1.976   2.968   3.519
 4472SOL    HW114315   1.913   2.953   3.443
 4472SOL    HW214316   1.924   2.979   3.604
 4473SOL     OW14317   6.452   2.240   3.249
 4473SOL    HW114318   6.507   2.182   3.188
 4473SOL    HW214319   6.506   2.320   3.276
 4474SOL     OW14320   3.788   0.744   1.945
 4474SOL    HW114321   3.765   0.817   2.009
 4474SOL    HW214322   3.775   0.655   1.989
 4475SOL     OW14323   1.854   3.974   2.426
 4475SOL    HW114324   1.819   3.915   2.353
 4475SOL    HW214325   1.943   3.941   2.456
 4476SOL     OW14326   4.720   6.247   4.032
 4476SOL    HW114327   4.782   6.325   4.033
 4476SOL    HW214328   4.642   6.269   3.972
 4477SOL     OW14329   1.498   0.376   5.714
 4477SOL    HW114330   1.522   0.456   5.659
 4477SOL    HW214331   1.534   0.293   5.671
 4478SOL     OW14332   3.371   6.034   2.222
 4478SOL    HW114333   3.318   5.961   2.178
 4478SOL    HW214334   3.332   6.053   2.312
 4479SOL     OW14335   0.490   0.600   1.132
 4479SOL    HW114336   0.493   0.682   1.073
 4479SOL    HW214337   0.539   0.525   1.086
 4480SOL     OW14338   1.658   3.505   5.474
 4480SOL    HW114339   1.671   3.504   5.574
 4480SOL    HW214340   1.674   3.597   5.439
 4481SOL     OW14341   2.773   7.015   5.006
 4481SOL    HW114342   2.860   7.011   5.055
 4481SOL    HW214343   2.781   0.057   4.928
 4482SOL     OW14344   0.569   4.161   4.099
 4482SOL    HW114345   0.469   4.159   4.098
 4482SOL    HW214346   0.603   4.123   4.186
 4483SOL     OW14347   5.322   3.554   1.852
 4483SOL    HW114348   5.348   3.609   1.932
 4483SOL    HW214349   5.404   3.512   1.814
 4484SOL     OW14350   3.320   2.612   5.535
 4484SOL    HW114351   3.232   2.658   5.547
 4484SOL    HW214352   3.305   2.517   5.509
 4485SOL     OW14353   5.201   2.001   5.968
 4485SOL    HW114354   5.177   2.065   6.041
 4485SOL    HW214355   5.284   1.951   5.994
 4486SOL     OW14356   5.234   3.725   4.505
 4486SOL    HW114357   5.209   3.663   4.430
 4486SOL    HW214358   5.273   3.673   4.580
 4487SOL     OW14359   2.372   3.084   6.556
 4487SOL    HW114360   2.334   3.121   6.471
 4487SOL    HW214361   2.470   3.101   6.559
 4488SOL     OW14362   6.103   3.476   5.189
 4488SOL    HW114363   6.079   3.428   5.105
 4488SOL    HW214364   6.149   3.413   5.251
 4489SOL     OW14365   5.320   5.481   4.699
 4489SOL    HW114366   5.230   5.472   4.657
 4489SOL    HW214367   5.391   5.469   4.629
 4490SOL     OW14368   6.258   2.503   2.437
 4490SOL    HW114369   6.303   2.505   2.527
 4490SOL    HW214370   6.242   2.596   2.406
 4491SOL     OW14371   0.254   2.925   4.442
 4491SOL    HW114372   0.223   3.019   4.426
 4491SOL    HW214373   0.184   2.875   4.493
 4492SOL     OW14374   5.117   3.328   0.867
 4492SOL    HW114375   5.024   3.329   0.831
 4492SOL    HW214376   5.115   3.340   0.966
 4493SOL     OW14377   4.982   5.838   5.574
 4493SOL    HW114378   4.919   5.762   5.564
 4493SOL    HW214379   4.955   5.912   5.512
 4494SOL     OW14380   6.734   1.765   5.589
 4494SOL    HW114381   6.738   1.761   5.489
 4494SOL    HW214382   6.825   1.788   5.625
 4495SOL     OW14383   4.637   5.862   4.104
 4495SOL    HW114384   4.628   5.770   4.142
 4495SOL    HW214385   4.668   5.925   4.176
 4496SOL     OW14386   3.982   5.983   1.191
 4496SOL    HW114387   3.900   5.958   1.140
 4496SOL    HW214388   4.044   6.035   1.132
 4497SOL     OW14389   5.001   0.504   6.612
 4497SOL    HW114390   5.049   0.447   6.678
 4497SOL    HW214391   4.921   0.454   6.577
 4498SOL     OW14392   0.383   2.864   6.406
 4498SOL    HW114393   0.333   2.790   6.451
 4498SOL    HW214394   0.405   2.837   6.312
 4499SOL     OW14395   0.345   3.621   3.673
 4499SOL    HW114396   0.279   3.587   3.741
 4499SOL    HW214397   0.349   3.721   3.679
 4500SOL     OW14398   3.055   3.219   4.137
 4500SOL    HW114399   3.040   3.318   4.148
 4500SOL    HW214400   3.051   3.175   4.227
 4501SOL     OW14401   0.055   2.904   5.718
 4501SOL    HW114402   7.014   2.878   5.643
 4501SOL    HW214403   0.144   2.929   5.680
 4502SOL     OW14404   1.518   1.849   0.265
 4502SOL    HW114405   1.595   1.835   0.203
 4502SOL    HW214406   1.548   1.900   0.345
 4503SOL     OW14407   3.478   0.198   2.791
 4503SOL    HW114408   3.468   0.258   2.711
 4503SOL    HW214409   3.428   0.113   2.774
 4504SOL     OW14410   6.986   1.168   4.750
 4504SOL    HW114411   6.983   1.159   4.850
 4504SOL    HW214412   6.955   1.083   4.708
 4505SOL     OW14413   6.551   5.689   3.395
 4505SOL    HW114414   6.559   5.714   3.298
 4505SOL    HW214415   6.598   5.757   3.450
 4506SOL     OW14416   4.379   2.414   4.152
 4506SOL    HW114417   4.293   2.371   4.126
 4506SOL    HW214418   4.389   2.410   4.252
 4507SOL     OW14419   5.309   4.632   2.376
 4507SOL    HW114420   5.326   4.713   2.319
 4507SOL    HW214421   5.360   4.640   2.462
 4508SOL     OW14422   0.849   5.044   5.945
 4508SOL    HW114423   0.920   5.115   5.940
 4508SOL    HW214424   0.765   5.079   5.904
 4509SOL     OW14425   5.351   2.026   3.757
 4509SOL    HW114426   5.294   2.093   3.803
 4509SOL    HW214427   5.403   1.973   3.825
 4510SOL     OW14428   4.668   0.454   4.920
 4510SOL    HW114429   4.742   0.486   4.979
 4510SOL    HW214430   4.669   0.354   4.916
 4511SOL     OW14431   6.785   3.652   6.573
 4511SOL    HW114432   6.686   3.660   6.585
 4511SOL    HW214433   6.819   3.576   6.628
 4512SOL     OW14434   2.566   6.846   5.979
 4512SOL    HW114435   2.506   6.862   5.901
 4512SOL    HW214436   2.571   6.749   5.999
 4513SOL     OW14437   4.783   6.836   0.516
 4513SOL    HW114438   4.700   6.819   0.463
 4513SOL    HW214439   4.859   6.786   0.474
 4514SOL     OW14440   5.069   1.088   5.191
 4514SOL    HW114441   5.151   1.032   5.184
 4514SOL    HW214442   5.073   1.143   5.274
 4515SOL     OW14443   0.149   3.669   5.571
 4515SOL    HW114444   0.233   3.662   5.626
 4515SOL    HW214445   0.084   3.729   5.618
 4516SOL     OW14446   1.821   1.043   6.382
 4516SOL    HW114447   1.733   1.031   6.336
 4516SOL    HW214448   1.854   1.136   6.366
 4517SOL     OW14449   1.815   0.652   6.909
 4517SOL    HW114450   1.811   0.736   6.963
 4517SOL    HW214451   1.886   0.592   6.947
 4518SOL     OW14452   6.609   1.195   3.599
 4518SOL    HW114453   6.634   1.225   3.507
 4518SOL    HW214454   6.511   1.208   3.614
 4519SOL     OW14455   5.631   0.087   2.222
 4519SOL    HW114456   5.639   7.008   2.225
 4519SOL    HW214457   5.534   0.112   2.214
 4520SOL     OW14458   5.557   5.773   3.616
 4520SOL    HW114459   5.627   5.842   3.602
 4520SOL    HW214460   5.496   5.801   3.690
 4521SOL     OW14461   5.463   1.950   4.260
 4521SOL    HW114462   5.399   2.006   4.313
 4521SOL    HW214463   5.457   1.976   4.163
 4522SOL     OW14464   5.669   6.840   3.519
 4522SOL    HW114465   5.691   6.792   3.604
 4522SOL    HW214466   5.726   6.805   3.445
 4523SOL     OW14467   1.195   4.362   0.123
 4523SOL    HW114468   1.273   4.315   0.164
 4523SOL    HW214469   1.145   4.411   0.195
 4524SOL     OW14470   5.261   2.105   4.434
 4524SOL    HW114471   5.218   2.098   4.344
 4524SOL    HW214472   5.199   2.151   4.498
 4525SOL     OW14473   5.652   1.313   2.887
 4525SOL    HW114474   5.721   1.255   2.845
 4525SOL    HW214475   5.660   1.406   2.850
 4526SOL     OW14476   5.204   0.628   0.804
 4526SOL    HW114477   5.155   0.649   0.719
 4526SOL    HW214478   5.198   0.706   0.866
 4527SOL     OW14479   4.655   0.986   3.856
 4527SOL    HW114480   4.737   1.011   3.907
 4527SOL    HW214481   4.666   1.010   3.760
 4528SOL     OW14482   4.339   6.618   6.840
 4528SOL    HW114483   4.354   6.520   6.854
 4528SOL    HW214484   4.338   6.638   6.742
 4529SOL     OW14485   3.409   1.799   4.331
 4529SOL    HW114486   3.421   1.707   4.292
 4529SOL    HW214487   3.327   1.841   4.293
 4530SOL     OW14488   0.061   3.560   5.885
 4530SOL    HW114489   0.102   3.646   5.917
 4530SOL    HW214490   6.992   3.579   5.843
 4531SOL     OW14491   0.463   3.387   3.573
 4531SOL    HW114492   0.431   3.476   3.607
 4531SOL    HW214493   0.537   3.354   3.632
 4532SOL     OW14494   6.583   1.406   2.874
 4532SOL    HW114495   6.546   1.313   2.878
 4532SOL    HW214496   6.539   1.455   2.799
 4533SOL     OW14497   1.053   0.168   2.416
 4533SOL    HW114498   1.036   0.123   2.504
 4533SOL    HW214499   1.152   0.181   2.404
 4534SOL     OW14500   5.599   4.151   4.982
 4534SOL    HW114501   5.654   4.106   4.911
 4534SOL    HW214502   5.509   4.173   4.945
 4535SOL     OW14503   4.828   1.748   2.604
 4535SOL    HW114504   4.799   1.769   2.511
 4535SOL    HW214505   4.863   1.831   2.647
 4536SOL     OW14506   4.563   2.086   3.833
 4536SOL    HW114507   4.592   2.085   3.929
 4536SOL    HW214508   4.625   2.143   3.780
 4537SOL     OW14509   3.736   3.253   6.048
 4537SOL    HW114510   3.767   3.326   5.986
 4537SOL    HW214511   3.678   3.189   5.998
 4538SOL     OW14512   2.741   0.727   4.176
 4538SOL    HW114513   2.778   0.818   4.196
 4538SOL    HW214514   2.815   0.659   4.183
 4539SOL     OW14515   2.119   0.840   4.197
 4539SOL    HW114516   2.066   0.925   4.199
 4539SOL    HW214517   2.136   0.814   4.102
 4540SOL     OW14518   3.255   2.980   4.639
 4540SOL    HW114519   3.308   3.065   4.640
 4540SOL    HW214520   3.257   2.938   4.730
 4541SOL     OW14521   5.446   1.262   0.565
 4541SOL    HW114522   5.364   1.223   0.523
 4541SOL    HW214523   5.441   1.250   0.664
 4542SOL     OW14524   6.330   6.905   1.976
 4542SOL    HW114525   6.307   7.000   1.995
 4542SOL    HW214526   6.398   6.901   1.903
 4543SOL     OW14527   5.040   1.806   0.864
 4543SOL    HW114528   4.945   1.837   0.868
 4543SOL    HW214529   5.042   1.707   0.847
 4544SOL     OW14530   2.985   6.119   5.925
 4544SOL    HW114531   3.082   6.097   5.938
 4544SOL    HW214532   2.976   6.197   5.863
 4545SOL     OW14533   6.018   2.716   4.674
 4545SOL    HW114534   5.924   2.712   4.709
 4545SOL    HW214535   6.074   2.649   4.722
 4546SOL     OW14536   1.318   1.345   6.444
 4546SOL    HW114537   1.264   1.287   6.505
 4546SOL    HW214538   1.410   1.306   6.434
 4547SOL     OW14539   6.670   3.051   3.293
 4547SOL    HW114540   6.659   2.952   3.306
 4547SOL    HW214541   6.583   3.097   3.310
 4548SOL     OW14542   1.251   4.314   4.686
 4548SOL    HW114543   1.286   4.390   4.632
 4548SOL    HW214544   1.260   4.334   4.783
 4549SOL     OW14545   5.842   3.736   2.281
 4549SOL    HW114546   5.930   3.755   2.238
 4549SOL    HW214547   5.778   3.809   2.259
 4550SOL     OW14548   0.613   6.128   2.652
 4550SOL    HW114549   0.538   6.192   2.673
 4550SOL    HW214550   0.647   6.089   2.737
 4551SOL     OW14551   6.281   1.993   6.484
 4551SOL    HW114552   6.283   2.077   6.538
 4551SOL    HW214553   6.322   1.919   6.538
 4552SOL     OW14554   6.587   2.841   0.545
 4552SOL    HW114555   6.650   2.876   0.614
 4552SOL    HW214556   6.633   2.836   0.457
 4553SOL     OW14557   3.828   4.002   6.782
 4553SOL    HW114558   3.763   3.950   6.837
 4553SOL    HW214559   3.905   3.944   6.757
 4554SOL     OW14560   4.490   0.673   1.702
 4554SOL    HW114561   4.413   0.640   1.756
 4554SOL    HW214562   4.457   0.716   1.618
 4555SOL     OW14563   3.483   1.784   5.545
 4555SOL    HW114564   3.553   1.853   5.562
 4555SOL    HW214565   3.416   1.785   5.619
 4556SOL     OW14566   4.698   2.286   3.670
 4556SOL    HW114567   4.619   2.345   3.685
 4556SOL    HW214568   4.686   2.235   3.585
 4557SOL     OW14569   5.221   6.848   4.957
 4557SOL    HW114570   5.238   6.928   5.015
 4557SOL    HW214571   5.262   6.767   5.000
 4558SOL     OW14572   6.774   3.609   5.795
 4558SOL    HW114573   6.694   3.623   5.737
 4558SOL    HW214574   6.820   3.697   5.809
 4559SOL     OW14575   0.647   4.560   1.720
 4559SOL    HW114576   0.720   4.524   1.662
 4559SOL    HW214577   0.658   4.526   1.814
 4560SOL     OW14578   4.583   4.727   3.664
 4560SOL    HW114579   4.506   4.698   3.722
 4560SOL    HW214580   4.550   4.794   3.598
 4561SOL     OW14581   2.877   0.378   1.133
 4561SOL    HW114582   2.923   0.465   1.116
 4561SOL    HW214583   2.937   0.302   1.108
 4562SOL     OW14584   3.373   6.138   5.261
 4562SOL    HW114585   3.400   6.189   5.342
 4562SOL    HW214586   3.316   6.060   5.288
 4563SOL     OW14587   0.233   4.152   0.223
 4563SOL    HW114588   0.263   4.135   0.129
 4563SOL    HW214589   0.294   4.219   0.265
 4564SOL     OW14590   0.548   6.923   1.108
 4564SOL    HW114591   0.547   6.840   1.051
 4564SOL    HW214592   0.534   7.003   1.050
 4565SOL     OW14593   0.491   1.243   5.756
 4565SOL    HW114594   0.484   1.248   5.856
 4565SOL    HW214595   0.401   1.260   5.715
 4566SOL     OW14596   6.678   1.546   0.933
 4566SOL    HW114597   6.717   1.454   0.936
 4566SOL    HW214598   6.722   1.603   1.002
 4567SOL     OW14599   0.302   0.897   6.946
 4567SOL    HW114600   0.228   0.831   6.930
 4567SOL    HW214601   0.268   0.972   7.003
 4568SOL     OW14602   0.870   4.971   5.162
 4568SOL    HW114603   0.844   4.881   5.197
 4568SOL    HW214604   0.881   5.034   5.239
 4569SOL     OW14605   1.847   1.012   3.163
 4569SOL    HW114606   1.816   0.954   3.087
 4569SOL    HW214607   1.768   1.055   3.206
 4570SOL     OW14608   0.349   5.174   2.988
 4570SOL    HW114609   0.374   5.266   3.018
 4570SOL    HW214610   0.251   5.171   2.966
 4571SOL     OW14611   3.187   3.430   5.844
 4571SOL    HW114612   3.180   3.486   5.762
 4571SOL    HW214613   3.191   3.334   5.818
 4572SOL     OW14614   1.052   6.709   6.617
 4572SOL    HW114615   1.118   6.635   6.604
 4572SOL    HW214616   0.989   6.711   6.540
 4573SOL     OW14617   6.307   6.087   0.507
 4573SOL    HW114618   6.322   6.109   0.410
 4573SOL    HW214619   6.340   6.163   0.563
 4574SOL     OW14620   6.557   4.007   1.313
 4574SOL    HW114621   6.504   3.967   1.238
 4574SOL    HW214622   6.579   3.936   1.380
 4575SOL     OW14623   6.466   2.056   7.013
 4575SOL    HW114624   6.507   2.138   6.974
 4575SOL    HW214625   6.374   2.078   0.026
 4576SOL     OW14626   2.088   6.264   6.656
 4576SOL    HW114627   2.172   6.302   6.694
 4576SOL    HW214628   2.103   6.168   6.631
 4577SOL     OW14629   0.949   2.236   3.769
 4577SOL    HW114630   0.909   2.326   3.755
 4577SOL    HW214631   1.019   2.241   3.841
 4578SOL     OW14632   1.037   3.259   3.943
 4578SOL    HW114633   1.048   3.344   3.994
 4578SOL    HW214634   1.077   3.269   3.852
 4579SOL     OW14635   5.309   2.295   2.745
 4579SOL    HW114636   5.282   2.378   2.697
 4579SOL    HW214637   5.369   2.319   2.822
 4580SOL     OW14638   5.013   5.685   0.117
 4580SOL    HW114639   5.020   5.664   0.214
 4580SOL    HW214640   5.001   5.783   0.104
 4581SOL     OW14641   3.314   5.757   3.119
 4581SOL    HW114642   3.321   5.796   3.027
 4581SOL    HW214643   3.298   5.659   3.112
 4582SOL     OW14644   5.335   6.225   4.941
 4582SOL    HW114645   5.410   6.165   4.914
 4582SOL    HW214646   5.286   6.184   5.018
 4583SOL     OW14647   2.858   0.928   4.741
 4583SOL    HW114648   2.873   0.830   4.756
 4583SOL    HW214649   2.845   0.945   4.643
 4584SOL     OW14650   0.251   5.090   5.621
 4584SOL    HW114651   0.299   5.063   5.704
 4584SOL    HW214652   0.280   5.031   5.545
 4585SOL     OW14653   3.327   6.363   2.602
 4585SOL    HW114654   3.380   6.326   2.678
 4585SOL    HW214655   3.334   6.463   2.602
 4586SOL     OW14656   3.868   5.219   0.165
 4586SOL    HW114657   3.772   5.239   0.142
 4586SOL    HW214658   3.873   5.131   0.212
 4587SOL     OW14659   4.054   3.607   2.037
 4587SOL    HW114660   4.041   3.653   2.124
 4587SOL    HW214661   4.060   3.508   2.052
 4588SOL     OW14662   3.835   4.159   5.439
 4588SOL    HW114663   3.839   4.209   5.352
 4588SOL    HW214664   3.927   4.127   5.463
 4589SOL     OW14665   5.466   1.107   1.716
 4589SOL    HW114666   5.420   1.165   1.783
 4589SOL    HW214667   5.561   1.093   1.743
 4590SOL     OW14668   5.178   5.698   1.379
 4590SOL    HW114669   5.128   5.746   1.308
 4590SOL    HW214670   5.118   5.685   1.458
 4591SOL     OW14671   0.469   6.019   5.265
 4591SOL    HW114672   0.400   6.050   5.199
 4591SOL    HW214673   0.466   6.078   5.346
 4592SOL     OW14674   4.108   2.236   2.184
 4592SOL    HW114675   4.027   2.294   2.171
 4592SOL    HW214676   4.119   2.216   2.281
 4593SOL     OW14677   3.655   5.636   4.688
 4593SOL    HW114678   3.614   5.608   4.775
 4593SOL    HW214679   3.641   5.564   4.620
 4594SOL     OW14680   3.204   1.622   1.506
 4594SOL    HW114681   3.267   1.691   1.470
 4594SOL    HW214682   3.126   1.612   1.445
 4595SOL     OW14683   3.646   2.621   6.256
 4595SOL    HW114684   3.682   2.561   6.185
 4595SOL    HW214685   3.565   2.668   6.222
 4596SOL     OW14686   5.937   6.532   2.514
 4596SOL    HW114687   5.960   6.435   2.503
 4596SOL    HW214688   5.910   6.570   2.426
 4597SOL     OW14689   5.184   4.746   6.809
 4597SOL    HW114690   5.167   4.648   6.819
 4597SOL    HW214691   5.101   4.792   6.780
 4598SOL     OW14692   2.201   4.870   0.123
 4598SOL    HW114693   2.153   4.876   0.036
 4598SOL    HW214694   2.245   4.781   0.132
 4599SOL     OW14695   1.705   4.861   0.731
 4599SOL    HW114696   1.736   4.854   0.636
 4599SOL    HW214697   1.729   4.778   0.781
 4600SOL     OW14698   1.555   4.927   5.396
 4600SOL    HW114699   1.460   4.933   5.427
 4600SOL    HW214700   1.616   4.954   5.471
 4601SOL     OW14701   1.699   0.104   5.339
 4601SOL    HW114702   1.767   0.056   5.284
 4601SOL    HW214703   1.691   0.059   5.428
 4602SOL     OW14704   1.032   5.797   0.899
 4602SOL    HW114705   1.088   5.817   0.818
 4602SOL    HW214706   1.035   5.875   0.961
 4603SOL     OW14707   3.334   6.556   1.520
 4603SOL    HW114708   3.282   6.592   1.443
 4603SOL    HW214709   3.377   6.469   1.493
 4604SOL     OW14710   4.451   0.484   2.214
 4604SOL    HW114711   4.479   0.415   2.281
 4604SOL    HW214712   4.498   0.570   2.232
 4605SOL     OW14713   4.399   0.905   3.312
 4605SOL    HW114714   4.375   0.946   3.400
 4605SOL    HW214715   4.315   0.880   3.263
 4606SOL     OW14716   1.473   6.782   1.436
 4606SOL    HW114717   1.469   6.867   1.490
 4606SOL    HW214718   1.474   6.804   1.339
 4607SOL     OW14719   2.526   2.898   1.100
 4607SOL    HW114720   2.475   2.900   1.187
 4607SOL    HW214721   2.464   2.922   1.025
 4608SOL     OW14722   0.540   5.411   3.610
 4608SOL    HW114723   0.546   5.496   3.663
 4608SOL    HW214724   0.578   5.425   3.519
 4609SOL     OW14725   3.999   5.283   6.189
 4609SOL    HW114726   4.074   5.272   6.123
 4609SOL    HW214727   4.037   5.306   6.279
 4610SOL     OW14728   5.133   1.932   0.610
 4610SOL    HW114729   5.095   1.883   0.689
 4610SOL    HW214730   5.137   2.029   0.631
 4611SOL     OW14731   6.243   6.020   5.783
 4611SOL    HW114732   6.338   6.014   5.753
 4611SOL    HW214733   6.222   5.945   5.845
 4612SOL     OW14734   0.828   5.874   0.146
 4612SOL    HW114735   0.926   5.863   0.164
 4612SOL    HW214736   0.779   5.792   0.179
 4613SOL     OW14737   2.804   5.825   2.412
 4613SOL    HW114738   2.715   5.871   2.410
 4613SOL    HW214739   2.877   5.893   2.414
 4614SOL     OW14740   0.769   4.297   4.976
 4614SOL    HW114741   0.772   4.360   4.899
 4614SOL    HW214742   0.824   4.216   4.955
 4615SOL     OW14743   1.616   0.637   0.198
 4615SOL    HW114744   1.581   0.584   0.121
 4615SOL    HW214745   1.586   0.732   0.189
 4616SOL     OW14746   5.628   0.246   5.807
 4616SOL    HW114747   5.692   0.192   5.751
 4616SOL    HW214748   5.657   0.341   5.808
 4617SOL     OW14749   1.186   2.249   2.262
 4617SOL    HW114750   1.199   2.277   2.167
 4617SOL    HW214751   1.261   2.284   2.318
 4618SOL     OW14752   1.954   2.446   5.329
 4618SOL    HW114753   1.879   2.382   5.319
 4618SOL    HW214754   2.033   2.413   5.277
 4619SOL     OW14755   3.918   6.032   3.098
 4619SOL    HW114756   3.966   6.061   3.180
 4619SOL    HW214757   3.827   6.000   3.122
 4620SOL     OW14758   3.423   4.170   0.130
 4620SOL    HW114759   3.503   4.121   0.098
 4620SOL    HW214760   3.343   4.110   0.129
 4621SOL     OW14761   5.164   1.876   3.091
 4621SOL    HW114762   5.123   1.950   3.038
 4621SOL    HW214763   5.104   1.796   3.090
 4622SOL     OW14764   1.818   3.891   0.411
 4622SOL    HW114765   1.762   3.971   0.435
 4622SOL    HW214766   1.761   3.824   0.363
 4623SOL     OW14767   6.827   6.565   0.745
 4623SOL    HW114768   6.830   6.486   0.685
 4623SOL    HW214769   6.735   6.574   0.784
 4624SOL     OW14770   5.173   6.847   3.498
 4624SOL    HW114771   5.085   6.808   3.523
 4624SOL    HW214772   5.160   6.939   3.461
 4625SOL     OW14773   1.386   4.962   0.259
 4625SOL    HW114774   1.409   4.864   0.258
 4625SOL    HW214775   1.423   5.005   0.177
 4626SOL     OW14776   5.758   5.454   2.359
 4626SOL    HW114777   5.755   5.507   2.274
 4626SOL    HW214778   5.674   5.468   2.410
 4627SOL     OW14779   3.438   5.353   3.760
 4627SOL    HW114780   3.412   5.275   3.703
 4627SOL    HW214781   3.357   5.407   3.782
 4628SOL     OW14782   5.655   3.666   3.740
 4628SOL    HW114783   5.563   3.647   3.773
 4628SOL    HW214784   5.696   3.583   3.703
 4629SOL     OW14785   2.351   4.856   4.726
 4629SOL    HW114786   2.308   4.867   4.815
 4629SOL    HW214787   2.378   4.946   4.691
 4630SOL     OW14788   3.894   5.591   2.416
 4630SOL    HW114789   3.817   5.636   2.461
 4630SOL    HW214790   3.896   5.495   2.442
 4631SOL     OW14791   2.376   6.437   3.781
 4631SOL    HW114792   2.451   6.378   3.811
 4631SOL    HW214793   2.321   6.388   3.713
 4632SOL     OW14794   4.147   5.254   2.834
 4632SOL    HW114795   4.153   5.198   2.751
 4632SOL    HW214796   4.183   5.203   2.912
 4633SOL     OW14797   6.167   1.556   3.382
 4633SOL    HW114798   6.205   1.474   3.425
 4633SOL    HW214799   6.106   1.529   3.308
 4634SOL     OW14800   1.852   4.641   6.967
 4634SOL    HW114801   1.859   4.656   6.868
 4634SOL    HW214802   1.864   4.728   7.014
 4635SOL     OW14803   5.455   3.647   2.115
 4635SOL    HW114804   5.381   3.712   2.134
 4635SOL    HW214805   5.543   3.689   2.139
 4636SOL     OW14806   2.083   5.550   0.060
 4636SOL    HW114807   1.999   5.599   0.082
 4636SOL    HW214808   2.088   5.534   6.981
 4637SOL     OW14809   1.010   0.433   0.006
 4637SOL    HW114810   1.008   0.530   0.027
 4637SOL    HW214811   1.105   0.403   7.019
 4638SOL     OW14812   4.240   2.664   6.894
 4638SOL    HW114813   4.174   2.723   6.941
 4638SOL    HW214814   4.192   2.610   6.825
 4639SOL     OW14815   2.118   4.342   4.987
 4639SOL    HW114816   2.071   4.338   4.899
 4639SOL    HW214817   2.136   4.438   5.011
 4640SOL     OW14818   4.946   5.098   3.986
 4640SOL    HW114819   4.867   5.116   3.927
 4640SOL    HW214820   4.923   5.121   4.081
 4641SOL     OW14821   2.897   6.420   4.496
 4641SOL    HW114822   2.858   6.508   4.470
 4641SOL    HW214823   2.938   6.377   4.415
 4642SOL     OW14824   0.837   6.268   4.817
 4642SOL    HW114825   0.902   6.193   4.800
 4642SOL    HW214826   0.777   6.244   4.893
 4643SOL     OW14827   5.142   2.732   0.904
 4643SOL    HW114828   5.050   2.699   0.924
 4643SOL    HW214829   5.174   2.791   0.978
 4644SOL     OW14830   1.092   4.936   5.015
 4644SOL    HW114831   1.001   4.942   5.056
 4644SOL    HW214832   1.123   5.028   4.988
 4645SOL     OW14833   1.006   0.855   4.555
 4645SOL    HW114834   0.915   0.819   4.533
 4645SOL    HW214835   1.055   0.790   4.612
 4646SOL     OW14836   2.916   6.226   3.469
 4646SOL    HW114837   2.970   6.157   3.421
 4646SOL    HW214838   2.828   6.237   3.422
 4647SOL     OW14839   1.514   0.120   3.553
 4647SOL    HW114840   1.558   0.103   3.641
 4647SOL    HW214841   1.539   0.211   3.519
 4648SOL     OW14842   3.998   0.421   1.822
 4648SOL    HW114843   3.965   0.349   1.883
 4648SOL    HW214844   4.032   0.498   1.877
 4649SOL     OW14845   5.110   6.801   5.772
 4649SOL    HW114846   5.086   6.729   5.706
 4649SOL    HW214847   5.207   6.825   5.759
 4650SOL     OW14848   4.551   5.516   3.960
 4650SOL    HW114849   4.637   5.515   4.012
 4650SOL    HW214850   4.490   5.586   3.998
 4651SOL     OW14851   6.992   1.423   1.188
 4651SOL    HW114852   6.903   1.420   1.141
 4651SOL    HW214853   0.012   1.514   1.178
 4652SOL     OW14854   0.372   0.130   4.250
 4652SOL    HW114855   0.397   0.034   4.264
 4652SOL    HW214856   0.454   0.186   4.246
 4653SOL     OW14857   6.140   5.190   6.735
 4653SOL    HW114858   6.188   5.111   6.774
 4653SOL    HW214859   6.071   5.222   6.800
 4654SOL     OW14860   0.489   6.551   0.277
 4654SOL    HW114861   0.562   6.489   0.304
 4654SOL    HW214862   0.528   6.642   0.260
 4655SOL     OW14863   6.671   5.744   1.739
 4655SOL    HW114864   6.639   5.659   1.780
 4655SOL    HW214865   6.642   5.822   1.795
 4656SOL     OW14866   1.191   0.421   3.540
 4656SOL    HW114867   1.170   0.338   3.488
 4656SOL    HW214868   1.109   0.454   3.586
 4657SOL     OW14869   4.788   6.342   1.329
 4657SOL    HW114870   4.780   6.243   1.346
 4657SOL    HW214871   4.719   6.390   1.382
 4658SOL     OW14872   4.068   1.671   2.448
 4658SOL    HW114873   4.165   1.646   2.452
 4658SOL    HW214874   4.047   1.732   2.525
 4659SOL     OW14875   2.686   4.304   5.581
 4659SOL    HW114876   2.637   4.294   5.495
 4659SOL    HW214877   2.682   4.400   5.610
 4660SOL     OW14878   1.435   3.021   5.609
 4660SOL    HW114879   1.453   2.925   5.592
 4660SOL    HW214880   1.488   3.077   5.546
 4661SOL     OW14881   3.603   3.873   5.410
 4661SOL    HW114882   3.563   3.961   5.384
 4661SOL    HW214883   3.648   3.833   5.330
 4662SOL     OW14884   4.206   0.717   4.996
 4662SOL    HW114885   4.209   0.806   4.950
 4662SOL    HW214886   4.272   0.715   5.071
 4663SOL     OW14887   0.775   2.026   2.450
 4663SOL    HW114888   0.732   1.941   2.419
 4663SOL    HW214889   0.818   2.071   2.372
 4664SOL     OW14890   2.348   2.211   0.680
 4664SOL    HW114891   2.387   2.233   0.770
 4664SOL    HW214892   2.268   2.268   0.664
 4665SOL     OW14893   4.123   0.197   0.717
 4665SOL    HW114894   4.167   0.280   0.753
 4665SOL    HW214895   4.050   0.168   0.780
 4666SOL     OW14896   1.511   2.133   0.936
 4666SOL    HW114897   1.437   2.145   0.870
 4666SOL    HW214898   1.533   2.221   0.977
 4667SOL     OW14899   6.288   4.464   1.397
 4667SOL    HW114900   6.361   4.516   1.441
 4667SOL    HW214901   6.261   4.510   1.313
 4668SOL     OW14902   5.794   2.778   3.031
 4668SOL    HW114903   5.709   2.802   2.984
 4668SOL    HW214904   5.774   2.750   3.125
 4669SOL     OW14905   3.426   6.879   0.207
 4669SOL    HW114906   3.342   6.843   0.167
 4669SOL    HW214907   3.504   6.854   0.150
 4670SOL     OW14908   2.978   2.266   5.326
 4670SOL    HW114909   3.050   2.319   5.279
 4670SOL    HW214910   2.913   2.329   5.369
 4671SOL     OW14911   6.680   2.481   2.370
 4671SOL    HW114912   6.665   2.562   2.427
 4671SOL    HW214913   6.710   2.405   2.427
 4672SOL     OW14914   2.702   4.803   6.205
 4672SOL    HW114915   2.705   4.703   6.209
 4672SOL    HW214916   2.670   4.832   6.114
 4673SOL     OW14917   4.994   6.224   1.021
 4673SOL    HW114918   5.008   6.313   0.978
 4673SOL    HW214919   5.072   6.201   1.079
 4674SOL     OW14920   4.831   0.174   6.891
 4674SOL    HW114921   4.858   0.078   6.882
 4674SOL    HW214922   4.912   0.232   6.880
 4675SOL     OW14923   0.371   2.780   6.730
 4675SOL    HW114924   0.329   2.822   6.650
 4675SOL    HW214925   0.452   2.832   6.757
 4676SOL     OW14926   6.892   5.781   3.523
 4676SOL    HW114927   6.858   5.712   3.459
 4676SOL    HW214928   6.815   5.838   3.554
 4677SOL     OW14929   2.631   1.403   0.567
 4677SOL    HW114930   2.701   1.468   0.538
 4677SOL    HW214931   2.556   1.403   0.502
 4678SOL     OW14932   2.101   4.412   3.153
 4678SOL    HW114933   2.005   4.388   3.138
 4678SOL    HW214934   2.129   4.480   3.085
 4679SOL     OW14935   4.328   6.742   1.566
 4679SOL    HW114936   4.318   6.719   1.663
 4679SOL    HW214937   4.423   6.763   1.546
 4680SOL     OW14938   3.792   1.146   6.185
 4680SOL    HW114939   3.726   1.073   6.200
 4680SOL    HW214940   3.762   1.202   6.108
 4681SOL     OW14941   5.484   4.689   0.010
 4681SOL    HW114942   5.568   4.672   0.063
 4681SOL    HW214943   5.508   4.720   6.939
 4682SOL     OW14944   4.718   4.792   5.721
 4682SOL    HW114945   4.662   4.709   5.719
 4682SOL    HW214946   4.696   4.850   5.642
 4683SOL     OW14947   5.451   5.626   2.987
 4683SOL    HW114948   5.548   5.649   2.997
 4683SOL    HW214949   5.434   5.592   2.895
 4684SOL     OW14950   4.534   6.906   5.672
 4684SOL    HW114951   4.608   6.927   5.609
 4684SOL    HW214952   4.457   6.866   5.622
 4685SOL     OW14953   1.882   4.652   6.701
 4685SOL    HW114954   1.851   4.595   6.625
 4685SOL    HW214955   1.967   4.698   6.676
 4686SOL     OW14956   4.303   5.784   6.677
 4686SOL    HW114957   4.227   5.844   6.650
 4686SOL    HW214958   4.266   5.704   6.724
 4687SOL     OW14959   4.911   2.944   4.009
 4687SOL    HW114960   4.955   2.978   3.925
 4687SOL    HW214961   4.944   2.851   4.029
 4688SOL     OW14962   5.952   3.170   5.151
 4688SOL    HW114963   5.924   3.087   5.200
 4688SOL    HW214964   5.874   3.233   5.145
 4689SOL     OW14965   5.027   0.668   0.233
 4689SOL    HW114966   5.066   0.637   0.320
 4689SOL    HW214967   5.074   0.752   0.205
 4690SOL     OW14968   1.125   0.307   0.909
 4690SOL    HW114969   1.106   0.274   0.816
 4690SOL    HW214970   1.190   0.382   0.904
 4691SOL     OW14971   2.930   3.521   0.786
 4691SOL    HW114972   2.938   3.474   0.874
 4691SOL    HW214973   2.906   3.454   0.715
 4692SOL     OW14974   5.648   5.257   3.058
 4692SOL    HW114975   5.695   5.345   3.054
 4692SOL    HW214976   5.550   5.271   3.044
 4693SOL     OW14977   0.930   1.245   3.067
 4693SOL    HW114978   0.894   1.155   3.041
 4693SOL    HW214979   0.970   1.241   3.158
 4694SOL     OW14980   2.444   1.176   0.057
 4694SOL    HW114981   2.380   1.128   0.117
 4694SOL    HW214982   2.504   1.234   0.113
 4695SOL     OW14983   1.282   4.765   0.914
 4695SOL    HW114984   1.306   4.713   0.996
 4695SOL    HW214985   1.213   4.833   0.937
 4696SOL     OW14986   6.842   5.170   6.723
 4696SOL    HW114987   6.839   5.131   6.631
 4696SOL    HW214988   6.937   5.179   6.753
 4697SOL     OW14989   1.199   3.872   1.391
 4697SOL    HW114990   1.156   3.894   1.303
 4697SOL    HW214991   1.157   3.789   1.428
 4698SOL     OW14992   4.542   5.938   3.079
 4698SOL    HW114993   4.510   6.032   3.074
 4698SOL    HW214994   4.465   5.875   3.068
 4699SOL     OW14995   0.732   6.355   2.044
 4699SOL    HW114996   0.666   6.412   1.996
 4699SOL    HW214997   0.765   6.282   1.982
 4700SOL     OW14998   6.809   1.977   2.600
 4700SOL    HW114999   6.715   2.012   2.607
 4700SOL    HW215000   6.864   2.015   2.675
 4701SOL     OW15001   2.930   2.175   0.257
 4701SOL    HW115002   3.008   2.124   0.294
 4701SOL    HW215003   2.881   2.119   0.190
 4702SOL     OW15004   4.912   4.867   0.396
 4702SOL    HW115005   4.918   4.940   0.328
 4702SOL    HW215006   4.846   4.892   0.466
 4703SOL     OW15007   0.449   0.197   2.649
 4703SOL    HW115008   0.434   0.273   2.713
 4703SOL    HW215009   0.463   0.112   2.700
 4704SOL     OW15010   6.597   5.902   6.327
 4704SOL    HW115011   6.501   5.918   6.350
 4704SOL    HW215012   6.637   5.840   6.394
 4705SOL     OW15013   4.241   2.544   1.318
 4705SOL    HW115014   4.272   2.504   1.231
 4705SOL    HW215015   4.165   2.490   1.354
 4706SOL     OW15016   2.598   0.450   0.191
 4706SOL    HW115017   2.639   0.420   0.277
 4706SOL    HW215018   2.500   0.465   0.204
 4707SOL     OW15019   1.042   6.876   0.983
 4707SOL    HW115020   1.102   6.798   0.999
 4707SOL    HW215021   1.002   6.905   1.070
 4708SOL     OW15022   1.414   2.057   5.742
 4708SOL    HW115023   1.505   2.015   5.744
 4708SOL    HW215024   1.350   2.001   5.794
 4709SOL     OW15025   4.713   5.278   5.387
 4709SOL    HW115026   4.618   5.292   5.359
 4709SOL    HW215027   4.717   5.274   5.487
 4710SOL     OW15028   4.896   0.142   5.702
 4710SOL    HW115029   4.889   0.054   5.748
 4710SOL    HW215030   4.992   0.165   5.688
 4711SOL     OW15031   6.088   1.660   1.536
 4711SOL    HW115032   6.112   1.676   1.440
 4711SOL    HW215033   6.022   1.729   1.566
 4712SOL     OW15034   3.150   4.708   6.231
 4712SOL    HW115035   3.081   4.699   6.159
 4712SOL    HW215036   3.234   4.746   6.193
 4713SOL     OW15037   3.531   4.327   0.686
 4713SOL    HW115038   3.609   4.385   0.662
 4713SOL    HW215039   3.561   4.231   0.690
 4714SOL     OW15040   0.971   1.253   6.338
 4714SOL    HW115041   0.941   1.348   6.328
 4714SOL    HW215042   1.040   1.233   6.268
 4715SOL     OW15043   5.923   3.490   1.718
 4715SOL    HW115044   6.007   3.451   1.681
 4715SOL    HW215045   5.883   3.425   1.783
 4716SOL     OW15046   3.896   6.520   5.342
 4716SOL    HW115047   3.972   6.581   5.323
 4716SOL    HW215048   3.920   6.427   5.312
 4717SOL     OW15049   0.871   5.845   3.841
 4717SOL    HW115050   0.821   5.931   3.832
 4717SOL    HW215051   0.955   5.860   3.893
 4718SOL     OW15052   6.158   1.757   1.236
 4718SOL    HW115053   6.069   1.729   1.199
 4718SOL    HW215054   6.188   1.840   1.191
 4719SOL     OW15055   4.903   3.232   1.897
 4719SOL    HW115056   4.836   3.166   1.931
 4719SOL    HW215057   4.927   3.296   1.969
 4720SOL     OW15058   2.317   5.381   5.548
 4720SOL    HW115059   2.235   5.367   5.491
 4720SOL    HW215060   2.387   5.316   5.523
 4721SOL     OW15061   0.093   1.900   2.144
 4721SOL    HW115062   0.041   1.863   2.066
 4721SOL    HW215063   0.120   1.994   2.124
 4722SOL     OW15064   1.142   5.755   6.789
 4722SOL    HW115065   1.240   5.742   6.801
 4722SOL    HW215066   1.093   5.706   6.861
 4723SOL     OW15067   2.233   3.439   5.355
 4723SOL    HW115068   2.326   3.438   5.392
 4723SOL    HW215069   2.236   3.461   5.258
 4724SOL     OW15070   6.533   0.337   4.630
 4724SOL    HW115071   6.465   0.389   4.579
 4724SOL    HW215072   6.539   0.244   4.593
 4725SOL     OW15073   6.345   5.119   0.618
 4725SOL    HW115074   6.357   5.074   0.530
 4725SOL    HW215075   6.254   5.162   0.622
 4726SOL     OW15076   1.680   3.346   6.158
 4726SOL    HW115077   1.724   3.367   6.246
 4726SOL    HW215078   1.742   3.294   6.101
 4727SOL     OW15079   0.819   6.353   1.332
 4727SOL    HW115080   0.754   6.426   1.353
 4727SOL    HW215081   0.825   6.291   1.410
 4728SOL     OW15082   5.839   1.235   1.865
 4728SOL    HW115083   5.931   1.204   1.890
 4728SOL    HW215084   5.778   1.224   1.943
 4729SOL     OW15085   4.574   0.949   0.630
 4729SOL    HW115086   4.557   1.034   0.580
 4729SOL    HW215087   4.616   0.882   0.569
 4730SOL     OW15088   3.019   6.253   4.697
 4730SOL    HW115089   3.015   6.319   4.622
 4730SOL    HW215090   3.114   6.236   4.721
 4731SOL     OW15091   3.075   0.910   0.541
 4731SOL    HW115092   3.004   0.840   0.545
 4731SOL    HW215093   3.140   0.889   0.468
 4732SOL     OW15094   0.651   3.559   5.333
 4732SOL    HW115095   0.703   3.552   5.418
 4732SOL    HW215096   0.666   3.649   5.293
 4733SOL     OW15097   1.534   3.584   3.828
 4733SOL    HW115098   1.568   3.526   3.753
 4733SOL    HW215099   1.470   3.531   3.884
 4734SOL     OW15100   4.389   3.147   0.291
 4734SOL    HW115101   4.386   3.078   0.218
 4734SOL    HW215102   4.430   3.231   0.255
 4735SOL     OW15103   0.049   5.570   4.255
 4735SOL    HW115104   0.013   5.478   4.272
 4735SOL    HW215105   0.148   5.565   4.242
 4736SOL     OW15106   6.169   1.500   5.959
 4736SOL    HW115107   6.160   1.553   6.043
 4736SOL    HW215108   6.137   1.555   5.881
 4737SOL     OW15109   3.175   4.027   1.304
 4737SOL    HW115110   3.083   3.987   1.296
 4737SOL    HW215111   3.207   4.054   1.213
 4738SOL     OW15112   1.947   6.624   3.056
 4738SOL    HW115113   1.955   6.718   3.023
 4738SOL    HW215114   1.851   6.604   3.077
 4739SOL     OW15115   5.121   1.587   3.081
 4739SOL    HW115116   5.049   1.560   3.018
 4739SOL    HW215117   5.194   1.518   3.080
 4740SOL     OW15118   0.588   1.486   0.783
 4740SOL    HW115119   0.594   1.580   0.818
 4740SOL    HW215120   0.522   1.435   0.837
 4741SOL     OW15121   4.726   3.351   1.193
 4741SOL    HW115122   4.780   3.267   1.197
 4741SOL    HW215123   4.648   3.344   1.255
 4742SOL     OW15124   2.795   6.941   0.139
 4742SOL    HW115125   2.858   6.994   0.081
 4742SOL    HW215126   2.744   7.004   0.198
 4743SOL     OW15127   1.469   3.229   5.155
 4743SOL    HW115128   1.429   3.148   5.112
 4743SOL    HW215129   1.420   3.310   5.125
 4744SOL     OW15130   2.845   3.490   6.207
 4744SOL    HW115131   2.819   3.581   6.241
 4744SOL    HW215132   2.772   3.453   6.150
 4745SOL     OW15133   2.983   5.915   5.229
 4745SOL    HW115134   2.906   5.879   5.281
 4745SOL    HW215135   3.057   5.941   5.291
 4746SOL     OW15136   5.417   6.767   2.397
 4746SOL    HW115137   5.452   6.709   2.471
 4746SOL    HW215138   5.493   6.800   2.342
 4747SOL     OW15139   1.667   4.031   6.735
 4747SOL    HW115140   1.616   4.055   6.652
 4747SOL    HW215141   1.608   3.978   6.796
 4748SOL     OW15142   0.966   4.998   0.625
 4748SOL    HW115143   1.028   4.942   0.570
 4748SOL    HW215144   1.016   5.076   0.663
 4749SOL     OW15145   2.866   6.639   5.349
 4749SOL    HW115146   2.802   6.601   5.282
 4749SOL    HW215147   2.866   6.739   5.341
 4750SOL     OW15148   0.209   3.404   3.416
 4750SOL    HW115149   0.165   3.413   3.505
 4750SOL    HW215150   0.302   3.442   3.421
 4751SOL     OW15151   2.738   2.715   1.023
 4751SOL    HW115152   2.674   2.780   1.064
 4751SOL    HW215153   2.821   2.709   1.078
 4752SOL     OW15154   2.927   0.306   6.851
 4752SOL    HW115155   3.013   0.357   6.845
 4752SOL    HW215156   2.856   0.353   6.797
 4753SOL     OW15157   5.553   0.742   4.473
 4753SOL    HW115158   5.597   0.790   4.397
 4753SOL    HW215159   5.564   0.643   4.461
 4754SOL     OW15160   6.365   0.463   5.057
 4754SOL    HW115161   6.290   0.526   5.038
 4754SOL    HW215162   6.351   0.419   5.146
 4755SOL     OW15163   2.637   0.400   0.464
 4755SOL    HW115164   2.734   0.375   0.469
 4755SOL    HW215165   2.600   0.409   0.557
 4756SOL     OW15166   5.447   3.412   1.200
 4756SOL    HW115167   5.354   3.434   1.171
 4756SOL    HW215168   5.482   3.336   1.146
 4757SOL     OW15169   1.760   2.232   1.261
 4757SOL    HW115170   1.837   2.283   1.298
 4757SOL    HW215171   1.720   2.175   1.333
 4758SOL     OW15172   2.108   6.226   4.195
 4758SOL    HW115173   2.092   6.182   4.107
 4758SOL    HW215174   2.157   6.163   4.255
 4759SOL     OW15175   5.118   5.421   4.493
 4759SOL    HW115176   5.098   5.324   4.506
 4759SOL    HW215177   5.050   5.476   4.541
 4760SOL     OW15178   3.505   1.640   0.439
 4760SOL    HW115179   3.511   1.562   0.377
 4760SOL    HW215180   3.505   1.608   0.534
 4761SOL     OW15181   0.689   6.282   6.717
 4761SOL    HW115182   0.694   6.256   6.620
 4761SOL    HW215183   0.761   6.235   6.767
 4762SOL     OW15184   2.115   5.807   2.905
 4762SOL    HW115185   2.179   5.816   2.981
 4762SOL    HW215186   2.028   5.849   2.929
 4763SOL     OW15187   6.335   6.614   3.469
 4763SOL    HW115188   6.272   6.596   3.545
 4763SOL    HW215189   6.353   6.529   3.420
 4764SOL     OW15190   4.974   4.123   5.315
 4764SOL    HW115191   4.937   4.210   5.283
 4764SOL    HW215192   5.056   4.101   5.262
 4765SOL     OW15193   5.370   1.257   4.710
 4765SOL    HW115194   5.388   1.195   4.634
 4765SOL    HW215195   5.370   1.351   4.677
 4766SOL     OW15196   4.566   6.306   4.307
 4766SOL    HW115197   4.589   6.330   4.212
 4766SOL    HW215198   4.572   6.207   4.319
 4767SOL     OW15199   3.740   5.058   5.847
 4767SOL    HW115200   3.722   4.971   5.894
 4767SOL    HW215201   3.835   5.084   5.862
 4768SOL     OW15202   4.407   2.107   5.491
 4768SOL    HW115203   4.412   2.030   5.428
 4768SOL    HW215204   4.382   2.075   5.582
 4769SOL     OW15205   5.235   4.680   0.143
 4769SOL    HW115206   5.313   4.696   0.083
 4769SOL    HW215207   5.230   4.752   0.212
 4770SOL     OW15208   1.648   0.727   4.629
 4770SOL    HW115209   1.668   0.691   4.720
 4770SOL    HW215210   1.549   0.728   4.614
 4771SOL     OW15211   2.911   5.220   5.555
 4771SOL    HW115212   2.887   5.258   5.466
 4771SOL    HW215213   2.982   5.277   5.597
 4772SOL     OW15214   3.411   4.626   1.023
 4772SOL    HW115215   3.445   4.691   1.091
 4772SOL    HW215216   3.341   4.568   1.064
 4773SOL     OW15217   6.997   5.677   4.765
 4773SOL    HW115218   0.021   5.704   4.680
 4773SOL    HW215219   6.953   5.756   4.807
 4774SOL     OW15220   1.396   2.603   1.777
 4774SOL    HW115221   1.484   2.562   1.803
 4774SOL    HW215222   1.338   2.532   1.737
 4775SOL     OW15223   5.183   6.833   2.515
 4775SOL    HW115224   5.267   6.816   2.465
 4775SOL    HW215225   5.105   6.795   2.464
 4776SOL     OW15226   1.290   6.248   5.246
 4776SOL    HW115227   1.207   6.263   5.300
 4776SOL    HW215228   1.287   6.157   5.205
 4777SOL     OW15229   3.070   4.578   1.040
 4777SOL    HW115230   3.016   4.509   0.993
 4777SOL    HW215231   3.030   4.669   1.024
 4778SOL     OW15232   6.434   2.721   2.767
 4778SOL    HW115233   6.531   2.735   2.749
 4778SOL    HW215234   6.415   2.623   2.774
 4779SOL     OW15235   6.321   6.269   2.349
 4779SOL    HW115236   6.389   6.308   2.286
 4779SOL    HW215237   6.237   6.323   2.344
 4780SOL     OW15238   6.831   0.720   0.562
 4780SOL    HW115239   6.796   0.760   0.477
 4780SOL    HW215240   6.777   0.638   0.585
 4781SOL     OW15241   2.336   6.062   2.158
 4781SOL    HW115242   2.423   6.080   2.114
 4781SOL    HW215243   2.341   6.086   2.255
 4782SOL     OW15244   3.629   6.252   6.983
 4782SOL    HW115245   3.591   6.240   0.055
 4782SOL    HW215246   3.707   6.192   6.971
 4783SOL     OW15247   4.805   4.587   6.878
 4783SOL    HW115248   4.706   4.574   6.878
 4783SOL    HW215249   4.827   4.678   6.914
 4784SOL     OW15250   5.946   4.196   6.659
 4784SOL    HW115251   5.923   4.104   6.690
 4784SOL    HW215252   5.862   4.247   6.638
 4785SOL     OW15253   6.177   5.638   1.968
 4785SOL    HW115254   6.271   5.626   1.999
 4785SOL    HW215255   6.136   5.549   1.949
 4786SOL     OW15256   2.398   1.904   0.952
 4786SOL    HW115257   2.425   1.810   0.931
 4786SOL    HW215258   2.479   1.962   0.950
 4787SOL     OW15259   4.130   1.635   3.082
 4787SOL    HW115260   4.191   1.663   3.157
 4787SOL    HW215261   4.036   1.656   3.107
 4788SOL     OW15262   1.028   5.101   5.637
 4788SOL    HW115263   1.047   5.199   5.646
 4788SOL    HW215264   1.082   5.050   5.705
 4789SOL     OW15265   4.882   0.740   0.739
 4789SOL    HW115266   4.927   0.826   0.716
 4789SOL    HW215267   4.869   0.735   0.838
 4790SOL     OW15268   6.917   2.842   5.508
 4790SOL    HW115269   6.941   2.746   5.494
 4790SOL    HW215270   6.861   2.873   5.431
 4791SOL     OW15271   5.959   2.211   1.136
 4791SOL    HW115272   6.057   2.229   1.132
 4791SOL    HW215273   5.920   2.217   1.044
 4792SOL     OW15274   2.136   3.341   3.030
 4792SOL    HW115275   2.095   3.432   3.028
 4792SOL    HW215276   2.130   3.300   2.939
 4793SOL     OW15277   1.977   2.917   6.168
 4793SOL    HW115278   2.025   2.950   6.249
 4793SOL    HW215279   1.912   2.846   6.194
 4794SOL     OW15280   4.572   0.428   3.201
 4794SOL    HW115281   4.655   0.434   3.257
 4794SOL    HW215282   4.507   0.366   3.244
 4795SOL     OW15283   6.666   1.918   4.239
 4795SOL    HW115284   6.603   1.851   4.200
 4795SOL    HW215285   6.649   2.008   4.198
 4796SOL     OW15286   5.101   1.838   5.608
 4796SOL    HW115287   5.113   1.926   5.654
 4796SOL    HW215288   5.020   1.842   5.550
 4797SOL     OW15289   1.835   6.164   5.857
 4797SOL    HW115290   1.836   6.263   5.872
 4797SOL    HW215291   1.795   6.118   5.936
 4798SOL     OW15292   6.765   3.345   5.080
 4798SOL    HW115293   6.816   3.417   5.032
 4798SOL    HW215294   6.715   3.289   5.014
 4799SOL     OW15295   4.851   2.736   6.972
 4799SOL    HW115296   4.812   2.687   6.894
 4799SOL    HW215297   4.937   2.778   6.944
 4800SOL     OW15298   3.081   3.364   6.142
 4800SOL    HW115299   3.129   3.418   6.073
 4800SOL    HW215300   2.991   3.405   6.159
 4801SOL     OW15301   2.965   1.934   0.755
 4801SOL    HW115302   3.045   1.886   0.721
 4801SOL    HW215303   2.939   2.006   0.691
 4802SOL     OW15304   0.947   6.479   1.884
 4802SOL    HW115305   1.015   6.415   1.849
 4802SOL    HW215306   0.931   6.462   1.981
 4803SOL     OW15307   1.338   5.450   0.898
 4803SOL    HW115308   1.394   5.414   0.823
 4803SOL    HW215309   1.308   5.542   0.875
 4804SOL     OW15310   5.293   5.766   6.744
 4804SOL    HW115311   5.342   5.683   6.718
 4804SOL    HW215312   5.305   5.835   6.673
 4805SOL     OW15313   6.030   0.623   1.847
 4805SOL    HW115314   6.102   0.692   1.840
 4805SOL    HW215315   5.967   0.632   1.770
 4806SOL     OW15316   1.003   4.728   3.353
 4806SOL    HW115317   1.027   4.681   3.438
 4806SOL    HW215318   0.945   4.807   3.374
 4807SOL     OW15319   0.902   4.673   0.467
 4807SOL    HW115320   0.902   4.719   0.556
 4807SOL    HW215321   0.813   4.631   0.452
 4808SOL     OW15322   5.992   3.595   6.413
 4808SOL    HW115323   6.052   3.519   6.437
 4808SOL    HW215324   6.019   3.677   6.464
 4809SOL     OW15325   3.625   4.008   0.077
 4809SOL    HW115326   3.605   3.973   7.005
 4809SOL    HW215327   3.631   3.932   0.141
 4810SOL     OW15328   0.786   4.951   2.597
 4810SOL    HW115329   0.867   4.933   2.653
 4810SOL    HW215330   0.727   4.870   2.597
 4811SOL     OW15331   2.120   4.654   1.740
 4811SOL    HW115332   2.125   4.674   1.642
 4811SOL    HW215333   2.190   4.587   1.763
 4812SOL     OW15334   6.489   4.899   4.217
 4812SOL    HW115335   6.468   4.986   4.262
 4812SOL    HW215336   6.548   4.844   4.276
 4813SOL     OW15337   4.969   1.532   0.819
 4813SOL    HW115338   4.887   1.536   0.763
 4813SOL    HW215339   4.988   1.438   0.846
 4814SOL     OW15340   5.982   3.882   0.250
 4814SOL    HW115341   6.021   3.856   0.338
 4814SOL    HW215342   6.044   3.944   0.203
 4815SOL     OW15343   5.568   4.585   3.040
 4815SOL    HW115344   5.488   4.626   2.996
 4815SOL    HW215345   5.627   4.657   3.077
 4816SOL     OW15346   1.337   5.372   1.460
 4816SOL    HW115347   1.317   5.366   1.362
 4816SOL    HW215348   1.258   5.338   1.512
 4817SOL     OW15349   0.425   2.325   6.855
 4817SOL    HW115350   0.477   2.321   6.769
 4817SOL    HW215351   0.338   2.277   6.844
 4818SOL     OW15352   1.360   0.449   5.386
 4818SOL    HW115353   1.399   0.531   5.429
 4818SOL    HW215354   1.291   0.476   5.319
 4819SOL     OW15355   0.866   2.205   0.426
 4819SOL    HW115356   0.827   2.171   0.340
 4819SOL    HW215357   0.964   2.221   0.414
 4820SOL     OW15358   6.055   2.982   1.234
 4820SOL    HW115359   6.061   2.900   1.291
 4820SOL    HW215360   6.057   2.955   1.137
 4821SOL     OW15361   1.055   6.041   2.818
 4821SOL    HW115362   0.982   6.080   2.761
 4821SOL    HW215363   1.026   6.042   2.914
 4822SOL     OW15364   2.241   2.581   4.416
 4822SOL    HW115365   2.279   2.617   4.331
 4822SOL    HW215366   2.302   2.604   4.492
 4823SOL     OW15367   2.011   1.166   4.323
 4823SOL    HW115368   1.998   1.251   4.273
 4823SOL    HW215369   1.929   1.109   4.315
 4824SOL     OW15370   5.058   3.017   5.285
 4824SOL    HW115371   5.107   3.096   5.246
 4824SOL    HW215372   5.097   2.995   5.374
 4825SOL     OW15373   1.530   2.836   4.753
 4825SOL    HW115374   1.562   2.827   4.848
 4825SOL    HW215375   1.541   2.749   4.706
 4826SOL     OW15376   5.742   0.765   0.225
 4826SOL    HW115377   5.744   0.808   0.316
 4826SOL    HW215378   5.651   0.775   0.185
 4827SOL     OW15379   6.220   1.619   0.656
 4827SOL    HW115380   6.236   1.522   0.641
 4827SOL    HW215381   6.289   1.655   0.718
 4828SOL     OW15382   4.661   1.757   0.684
 4828SOL    HW115383   4.564   1.744   0.702
 4828SOL    HW215384   4.686   1.713   0.598
 4829SOL     OW15385   3.944   0.274   5.066
 4829SOL    HW115386   3.900   0.298   5.152
 4829SOL    HW215387   4.026   0.219   5.085
 4830SOL     OW15388   4.111   5.991   4.832
 4830SOL    HW115389   4.107   6.016   4.929
 4830SOL    HW215390   4.118   6.073   4.776
 4831SOL     OW15391   0.760   4.538   5.829
 4831SOL    HW115392   0.792   4.455   5.874
 4831SOL    HW215393   0.838   4.587   5.789
 4832SOL     OW15394   3.676   4.051   3.607
 4832SOL    HW115395   3.692   4.069   3.705
 4832SOL    HW215396   3.672   3.952   3.592
 4833SOL     OW15397   6.092   1.177   2.820
 4833SOL    HW115398   6.136   1.217   2.740
 4833SOL    HW215399   6.105   1.078   2.820
 4834SOL     OW15400   2.712   6.204   1.803
 4834SOL    HW115401   2.805   6.177   1.780
 4834SOL    HW215402   2.711   6.297   1.837
 4835SOL     OW15403   5.485   2.269   6.273
 4835SOL    HW115404   5.390   2.290   6.297
 4835SOL    HW215405   5.513   2.185   6.318
 4836SOL     OW15406   5.264   2.175   4.867
 4836SOL    HW115407   5.225   2.140   4.952
 4836SOL    HW215408   5.358   2.206   4.883
 4837SOL     OW15409   7.016   3.709   2.820
 4837SOL    HW115410   6.961   3.687   2.900
 4837SOL    HW215411   6.961   3.697   2.737
 4838SOL     OW15412   2.296   5.820   6.905
 4838SOL    HW115413   2.200   5.845   6.890
 4838SOL    HW215414   2.301   5.739   6.964
 4839SOL     OW15415   0.974   3.884   0.687
 4839SOL    HW115416   0.965   3.912   0.592
 4839SOL    HW215417   0.897   3.825   0.712
 4840SOL     OW15418   6.304   4.721   6.309
 4840SOL    HW115419   6.283   4.683   6.219
 4840SOL    HW215420   6.292   4.820   6.307
 4841SOL     OW15421   2.694   5.210   3.294
 4841SOL    HW115422   2.722   5.306   3.299
 4841SOL    HW215423   2.681   5.184   3.199
 4842SOL     OW15424   3.410   4.925   2.970
 4842SOL    HW115425   3.311   4.922   2.983
 4842SOL    HW215426   3.433   4.888   2.880
 4843SOL     OW15427   6.058   2.846   1.007
 4843SOL    HW115428   6.008   2.896   0.936
 4843SOL    HW215429   6.098   2.763   0.968
 4844SOL     OW15430   7.007   3.334   6.063
 4844SOL    HW115431   0.028   3.404   6.006
 4844SOL    HW215432   7.019   3.244   6.021
 4845SOL     OW15433   4.989   5.034   6.498
 4845SOL    HW115434   5.040   5.004   6.418
 4845SOL    HW215435   5.005   5.131   6.514
 4846SOL     OW15436   0.384   2.791   4.054
 4846SOL    HW115437   0.300   2.806   4.002
 4846SOL    HW215438   0.361   2.766   4.148
 4847SOL     OW15439   2.405   0.799   6.294
 4847SOL    HW115440   2.348   0.880   6.308
 4847SOL    HW215441   2.367   0.723   6.347
 4848SOL     OW15442   2.403   0.676   4.915
 4848SOL    HW115443   2.446   0.626   4.840
 4848SOL    HW215444   2.443   0.768   4.921
 4849SOL     OW15445   1.567   5.697   0.730
 4849SOL    HW115446   1.489   5.725   0.786
 4849SOL    HW215447   1.636   5.653   0.787
 4850SOL     OW15448   4.253   1.137   1.602
 4850SOL    HW115449   4.239   1.214   1.664
 4850SOL    HW215450   4.220   1.161   1.511
 4851SOL     OW15451   3.197   5.926   5.373
 4851SOL    HW115452   3.281   5.877   5.352
 4851SOL    HW215453   3.185   5.932   5.472
 4852SOL     OW15454   1.840   5.701   4.671
 4852SOL    HW115455   1.827   5.774   4.603
 4852SOL    HW215456   1.846   5.613   4.624
 4853SOL     OW15457   3.965   1.175   3.705
 4853SOL    HW115458   3.911   1.197   3.786
 4853SOL    HW215459   4.040   1.240   3.697
 4854SOL     OW15460   4.480   6.705   2.024
 4854SOL    HW115461   4.514   6.766   2.096
 4854SOL    HW215462   4.460   6.615   2.064
 4855SOL     OW15463   5.909   2.338   5.154
 4855SOL    HW115464   5.915   2.242   5.181
 4855SOL    HW215465   5.834   2.383   5.203
 4856SOL     OW15466   1.787   3.428   2.917
 4856SOL    HW115467   1.782   3.328   2.924
 4856SOL    HW215468   1.880   3.459   2.939
 4857SOL     OW15469   2.925   2.212   3.495
 4857SOL    HW115470   2.871   2.286   3.455
 4857SOL    HW215471   2.919   2.217   3.595
 4858SOL     OW15472   6.926   6.228   4.971
 4858SOL    HW115473   7.018   6.227   5.012
 4858SOL    HW215474   6.864   6.175   5.029
 4859SOL     OW15475   0.236   4.985   2.569
 4859SOL    HW115476   0.222   5.069   2.518
 4859SOL    HW215477   0.284   4.919   2.511
 4860SOL     OW15478   4.319   3.892   0.236
 4860SOL    HW115479   4.246   3.943   0.189
 4860SOL    HW215480   4.312   3.908   0.334
 4861SOL     OW15481   5.895   5.385   6.599
 4861SOL    HW115482   5.864   5.411   6.691
 4861SOL    HW215483   5.973   5.322   6.607
 4862SOL     OW15484   2.234   4.599   4.994
 4862SOL    HW115485   2.207   4.693   4.973
 4862SOL    HW215486   2.321   4.578   4.950
 4863SOL     OW15487   5.308   3.188   2.174
 4863SOL    HW115488   5.263   3.101   2.195
 4863SOL    HW215489   5.261   3.232   2.098
 4864SOL     OW15490   2.873   1.182   1.896
 4864SOL    HW115491   2.947   1.230   1.943
 4864SOL    HW215492   2.794   1.175   1.956
 4865SOL     OW15493   1.778   5.983   4.598
 4865SOL    HW115494   1.744   6.049   4.665
 4865SOL    HW215495   1.863   6.016   4.559
 4866SOL     OW15496   5.745   4.921   1.550
 4866SOL    HW115497   5.714   4.924   1.454
 4866SOL    HW215498   5.838   4.885   1.553
 4867SOL     OW15499   5.251   5.712   3.157
 4867SOL    HW115500   5.324   5.685   3.095
 4867SOL    HW215501   5.210   5.629   3.198
 4868SOL     OW15502   0.013   5.493   1.687
 4868SOL    HW115503   6.955   5.431   1.689
 4868SOL    HW215504   0.087   5.456   1.743
 4869SOL     OW15505   0.203   2.378   1.600
 4869SOL    HW115506   0.217   2.464   1.551
 4869SOL    HW215507   0.212   2.302   1.537
 4870SOL     OW15508   5.859   5.567   1.835
 4870SOL    HW115509   5.924   5.616   1.892
 4870SOL    HW215510   5.904   5.489   1.792
 4871SOL     OW15511   0.426   1.348   5.148
 4871SOL    HW115512   0.471   1.437   5.143
 4871SOL    HW215513   0.357   1.349   5.221
 4872SOL     OW15514   0.595   6.275   4.195
 4872SOL    HW115515   0.578   6.182   4.228
 4872SOL    HW215516   0.686   6.279   4.153
 4873SOL     OW15517   6.522   4.824   3.954
 4873SOL    HW115518   6.505   4.873   4.040
 4873SOL    HW215519   6.620   4.822   3.935
 4874SOL     OW15520   6.270   4.248   2.820
 4874SOL    HW115521   6.260   4.235   2.722
 4874SOL    HW215522   6.187   4.216   2.867
 4875SOL     OW15523   4.814   2.448   0.793
 4875SOL    HW115524   4.807   2.349   0.783
 4875SOL    HW215525   4.723   2.488   0.786
 4876SOL     OW15526   6.246   0.906   4.985
 4876SOL    HW115527   6.311   0.843   4.943
 4876SOL    HW215528   6.294   0.966   5.048
 4877SOL     OW15529   6.351   1.711   0.446
 4877SOL    HW115530   6.297   1.682   0.524
 4877SOL    HW215531   6.442   1.669   0.451
 4878SOL     OW15532   6.519   1.630   2.366
 4878SOL    HW115533   6.536   1.534   2.391
 4878SOL    HW215534   6.538   1.643   2.269
 4879SOL     OW15535   4.180   5.150   3.391
 4879SOL    HW115536   4.132   5.118   3.309
 4879SOL    HW215537   4.265   5.098   3.403
 4880SOL     OW15538   6.182   3.426   6.527
 4880SOL    HW115539   6.272   3.417   6.485
 4880SOL    HW215540   6.192   3.435   6.626
 4881SOL     OW15541   2.397   6.654   6.562
 4881SOL    HW115542   2.405   6.561   6.526
 4881SOL    HW215543   2.307   6.665   6.604
 4882SOL     OW15544   5.805   1.550   4.000
 4882SOL    HW115545   5.731   1.557   4.067
 4882SOL    HW215546   5.807   1.632   3.943
 4883SOL     OW15547   5.048   4.970   2.164
 4883SOL    HW115548   5.097   4.914   2.230
 4883SOL    HW215549   5.105   4.983   2.083
 4884SOL     OW15550   4.605   0.324   0.937
 4884SOL    HW115551   4.702   0.307   0.921
 4884SOL    HW215552   4.591   0.352   1.032
 4885SOL     OW15553   2.780   6.432   2.243
 4885SOL    HW115554   2.686   6.403   2.222
 4885SOL    HW215555   2.843   6.357   2.223
 4886SOL     OW15556   6.942   5.514   5.941
 4886SOL    HW115557   6.858   5.506   5.995
 4886SOL    HW215558   7.020   5.530   6.002
 4887SOL     OW15559   0.032   1.154   2.856
 4887SOL    HW115560   0.127   1.143   2.883
 4887SOL    HW215561   0.014   1.101   2.773
 4888SOL     OW15562   1.892   6.586   4.077
 4888SOL    HW115563   1.932   6.529   4.148
 4888SOL    HW215564   1.962   6.648   4.041
 4889SOL     OW15565   6.730   0.988   6.589
 4889SOL    HW115566   6.699   1.083   6.591
 4889SOL    HW215567   6.650   0.927   6.591
 4890SOL     OW15568   0.639   2.296   5.547
 4890SOL    HW115569   0.635   2.309   5.448
 4890SOL    HW215570   0.640   2.198   5.567
 4891SOL     OW15571   1.281   5.673   0.771
 4891SOL    HW115572   1.351   5.659   0.701
 4891SOL    HW215573   1.280   5.769   0.799
 4892SOL     OW15574   2.479   5.754   2.600
 4892SOL    HW115575   2.409   5.794   2.659
 4892SOL    HW215576   2.570   5.781   2.632
 4893SOL     OW15577   6.304   4.380   0.224
 4893SOL    HW115578   6.346   4.467   0.200
 4893SOL    HW215579   6.330   4.311   0.155
 4894SOL     OW15580   2.522   1.339   1.597
 4894SOL    HW115581   2.619   1.332   1.622
 4894SOL    HW215582   2.510   1.307   1.503
 4895SOL     OW15583   0.489   5.009   1.969
 4895SOL    HW115584   0.465   4.936   1.905
 4895SOL    HW215585   0.491   4.973   2.062
 4896SOL     OW15586   2.549   5.135   2.593
 4896SOL    HW115587   2.528   5.181   2.507
 4896SOL    HW215588   2.645   5.148   2.616
 4897SOL     OW15589   2.576   5.409   6.121
 4897SOL    HW115590   2.659   5.389   6.070
 4897SOL    HW215591   2.514   5.330   6.118
 4898SOL     OW15592   5.923   1.583   5.209
 4898SOL    HW115593   5.987   1.576   5.132
 4898SOL    HW215594   5.831   1.557   5.178
 4899SOL     OW15595   6.379   4.653   3.435
 4899SOL    HW115596   6.289   4.615   3.455
 4899SOL    HW215597   6.390   4.662   3.336
 4900SOL     OW15598   1.990   6.142   5.637
 4900SOL    HW115599   1.954   6.196   5.713
 4900SOL    HW215600   2.010   6.203   5.560
 4901SOL     OW15601   3.067   0.027   5.300
 4901SOL    HW115602   3.025   0.112   5.268
 4901SOL    HW215603   3.125   0.047   5.379
 4902SOL     OW15604   2.743   2.310   4.812
 4902SOL    HW115605   2.823   2.303   4.753
 4902SOL    HW215606   2.708   2.218   4.832
 4903SOL     OW15607   3.275   6.833   6.330
 4903SOL    HW115608   3.291   6.872   6.421
 4903SOL    HW215609   3.200   6.883   6.286
 4904SOL     OW15610   1.428   0.265   3.837
 4904SOL    HW115611   1.453   0.360   3.856
 4904SOL    HW215612   1.503   0.220   3.788
 4905SOL     OW15613   4.574   1.963   2.116
 4905SOL    HW115614   4.529   1.879   2.146
 4905SOL    HW215615   4.560   2.035   2.184
 4906SOL     OW15616   3.313   1.084   6.488
 4906SOL    HW115617   3.326   1.013   6.419
 4906SOL    HW215618   3.274   1.166   6.446
 4907SOL     OW15619   4.753   6.435   1.655
 4907SOL    HW115620   4.688   6.447   1.579
 4907SOL    HW215621   4.814   6.515   1.658
 4908SOL     OW15622   4.787   5.105   6.869
 4908SOL    HW115623   4.697   5.062   6.865
 4908SOL    HW215624   4.778   5.203   6.849
 4909SOL     OW15625   6.207   0.406   5.822
 4909SOL    HW115626   6.256   0.484   5.786
 4909SOL    HW215627   6.129   0.437   5.876
 4910SOL     OW15628   5.695   6.697   4.499
 4910SOL    HW115629   5.729   6.624   4.440
 4910SOL    HW215630   5.634   6.658   4.568
 4911SOL     OW15631   6.733   2.634   6.082
 4911SOL    HW115632   6.815   2.578   6.085
 4911SOL    HW215633   6.743   2.703   6.009
 4912SOL     OW15634   5.529   2.093   1.397
 4912SOL    HW115635   5.556   2.128   1.487
 4912SOL    HW215636   5.501   2.169   1.339
 4913SOL     OW15637   3.770   3.407   3.608
 4913SOL    HW115638   3.767   3.469   3.687
 4913SOL    HW215639   3.703   3.437   3.540
 4914SOL     OW15640   3.662   0.217   4.637
 4914SOL    HW115641   3.620   0.134   4.675
 4914SOL    HW215642   3.601   0.257   4.570
 4915SOL     OW15643   4.732   0.617   4.701
 4915SOL    HW115644   4.701   0.595   4.793
 4915SOL    HW215645   4.826   0.653   4.705
 4916SOL     OW15646   2.104   1.204   3.249
 4916SOL    HW115647   2.123   1.121   3.197
 4916SOL    HW215648   2.186   1.262   3.248
 4917SOL     OW15649   1.595   4.557   0.682
 4917SOL    HW115650   1.532   4.634   0.666
 4917SOL    HW215651   1.653   4.578   0.761
 4918SOL     OW15652   3.009   0.003   2.722
 4918SOL    HW115653   3.087   0.026   2.780
 4918SOL    HW215654   3.042   6.972   2.642
 4919SOL     OW15655   2.202   1.948   1.452
 4919SOL    HW115656   2.222   1.851   1.436
 4919SOL    HW215657   2.207   1.968   1.549
 4920SOL     OW15658   4.383   0.194   6.386
 4920SOL    HW115659   4.441   0.148   6.319
 4920SOL    HW215660   4.432   0.271   6.425
 4921SOL     OW15661   1.655   4.170   1.268
 4921SOL    HW115662   1.718   4.240   1.301
 4921SOL    HW215663   1.704   4.106   1.209
 4922SOL     OW15664   1.611   3.540   4.810
 4922SOL    HW115665   1.634   3.551   4.907
 4922SOL    HW215666   1.615   3.629   4.765
 4923SOL     OW15667   4.158   1.253   1.360
 4923SOL    HW115668   4.102   1.311   1.420
 4923SOL    HW215669   4.111   1.239   1.274
 4924SOL     OW15670   2.287   2.690   6.026
 4924SOL    HW115671   2.211   2.629   6.047
 4924SOL    HW215672   2.335   2.716   6.110
 4925SOL     OW15673   6.402   6.579   0.708
 4925SOL    HW115674   6.329   6.628   0.756
 4925SOL    HW215675   6.482   6.575   0.768
 4926SOL     OW15676   4.643   2.569   1.265
 4926SOL    HW115677   4.586   2.582   1.346
 4926SOL    HW215678   4.709   2.644   1.258
 4927SOL     OW15679   4.004   3.887   4.123
 4927SOL    HW115680   3.994   3.788   4.134
 4927SOL    HW215681   4.035   3.928   4.208
 4928SOL     OW15682   0.042   7.003   6.528
 4928SOL    HW115683   0.089   6.921   6.561
 4928SOL    HW215684   0.108   0.059   6.522
 4929SOL     OW15685   1.361   4.054   5.066
 4929SOL    HW115686   1.321   4.086   5.151
 4929SOL    HW215687   1.451   4.096   5.053
 4930SOL     OW15688   6.506   0.500   1.832
 4930SOL    HW115689   6.597   0.470   1.805
 4930SOL    HW215690   6.510   0.549   1.919
 4931SOL     OW15691   0.305   6.565   0.833
 4931SOL    HW115692   0.325   6.507   0.754
 4931SOL    HW215693   0.209   6.592   0.831
 4932SOL     OW15694   2.134   3.340   1.729
 4932SOL    HW115695   2.182   3.383   1.805
 4932SOL    HW215696   2.132   3.241   1.743
 4933SOL     OW15697   2.798   6.934   4.558
 4933SOL    HW115698   2.855   6.982   4.624
 4933SOL    HW215699   2.856   6.876   4.501
 4934SOL     OW15700   1.741   4.954   2.818
 4934SOL    HW115701   1.688   4.870   2.805
 4934SOL    HW215702   1.685   5.021   2.867
 4935SOL     OW15703   0.687   1.659   6.915
 4935SOL    HW115704   0.706   1.668   6.817
 4935SOL    HW215705   0.743   1.724   6.966
 4936SOL     OW15706   2.289   5.126   2.318
 4936SOL    HW115707   2.330   5.213   2.344
 4936SOL    HW215708   2.196   5.141   2.284
 4937SOL     OW15709   0.132   3.311   6.299
 4937SOL    HW115710   0.213   3.279   6.249
 4937SOL    HW215711   0.054   3.313   6.237
 4938SOL     OW15712   3.141   5.189   1.381
 4938SOL    HW115713   3.144   5.105   1.435
 4938SOL    HW215714   3.210   5.185   1.308
 4939SOL     OW15715   1.029   1.874   3.683
 4939SOL    HW115716   0.979   1.924   3.612
 4939SOL    HW215717   1.030   1.777   3.662
 4940SOL     OW15718   0.580   1.799   5.743
 4940SOL    HW115719   0.589   1.890   5.704
 4940SOL    HW215720   0.491   1.761   5.718
 4941SOL     OW15721   4.104   2.721   5.398
 4941SOL    HW115722   4.025   2.678   5.441
 4941SOL    HW215723   4.121   2.678   5.309
 4942SOL     OW15724   5.388   3.307   4.769
 4942SOL    HW115725   5.444   3.252   4.831
 4942SOL    HW215726   5.293   3.308   4.801
 4943SOL     OW15727   4.969   4.015   5.813
 4943SOL    HW115728   5.008   3.990   5.724
 4943SOL    HW215729   4.909   3.942   5.845
 4944SOL     OW15730   2.381   4.428   1.694
 4944SOL    HW115731   2.320   4.349   1.700
 4944SOL    HW215732   2.473   4.398   1.668
 4945SOL     OW15733   1.265   0.060   5.124
 4945SOL    HW115734   1.202   7.003   5.110
 4945SOL    HW215735   1.216   0.146   5.110
 4946SOL     OW15736   0.721   5.498   6.859
 4946SOL    HW115737   0.735   5.566   6.788
 4946SOL    HW215738   0.791   5.427   6.852
 4947SOL     OW15739   2.564   0.741   1.008
 4947SOL    HW115740   2.542   0.717   0.913
 4947SOL    HW215741   2.614   0.827   1.010
 4948SOL     OW15742   2.370   2.779   2.799
 4948SOL    HW115743   2.402   2.711   2.865
 4948SOL    HW215744   2.385   2.744   2.706
 4949SOL     OW15745   6.893   4.025   4.881
 4949SOL    HW115746   6.971   4.081   4.854
 4949SOL    HW215747   6.856   4.060   4.967
 4950SOL     OW15748   2.085   4.100   5.584
 4950SOL    HW115749   2.102   4.002   5.596
 4950SOL    HW215750   2.063   4.119   5.488
 4951SOL     OW15751   6.386   0.445   4.417
 4951SOL    HW115752   6.320   0.401   4.358
 4951SOL    HW215753   6.341   0.517   4.470
 4952SOL     OW15754   0.501   6.712   6.159
 4952SOL    HW115755   0.574   6.779   6.146
 4952SOL    HW215756   0.418   6.745   6.114
 4953SOL     OW15757   1.399   6.710   3.025
 4953SOL    HW115758   1.371   6.793   2.978
 4953SOL    HW215759   1.382   6.719   3.123
 4954SOL     OW15760   3.186   3.534   0.060
 4954SOL    HW115761   3.147   3.442   0.048
 4954SOL    HW215762   3.173   3.586   6.996
 4955SOL     OW15763   2.650   6.771   0.021
 4955SOL    HW115764   2.619   6.805   6.952
 4955SOL    HW215765   2.705   6.841   0.066
 4956SOL     OW15766   3.178   0.348   4.922
 4956SOL    HW115767   3.211   0.393   4.839
 4956SOL    HW215768   3.208   0.253   4.922
 4957SOL     OW15769   5.499   2.679   0.976
 4957SOL    HW115770   5.456   2.710   1.061
 4957SOL    HW215771   5.487   2.580   0.967
 4958SOL     OW15772   1.149   5.431   6.190
 4958SOL    HW115773   1.142   5.517   6.139
 4958SOL    HW215774   1.090   5.362   6.148
 4959SOL     OW15775   5.845   1.527   0.853
 4959SOL    HW115776   5.748   1.546   0.836
 4959SOL    HW215777   5.898   1.553   0.772
 4960SOL     OW15778   4.527   4.807   4.439
 4960SOL    HW115779   4.512   4.765   4.349
 4960SOL    HW215780   4.492   4.746   4.510
 4961SOL     OW15781   3.057   0.642   6.060
 4961SOL    HW115782   3.042   0.739   6.080
 4961SOL    HW215783   2.969   0.596   6.049
 4962SOL     OW15784   5.753   2.694   0.291
 4962SOL    HW115785   5.660   2.659   0.298
 4962SOL    HW215786   5.758   2.758   0.213
 4963SOL     OW15787   0.680   5.763   0.642
 4963SOL    HW115788   0.662   5.689   0.577
 4963SOL    HW215789   0.706   5.723   0.730
 4964SOL     OW15790   1.988   0.124   4.657
 4964SOL    HW115791   2.027   0.042   4.615
 4964SOL    HW215792   1.914   0.098   4.719
 4965SOL     OW15793   0.472   6.635   2.092
 4965SOL    HW115794   0.537   6.691   2.143
 4965SOL    HW215795   0.447   6.682   2.007
 4966SOL     OW15796   3.213   0.083   4.882
 4966SOL    HW115797   3.193   0.024   4.960
 4966SOL    HW215798   3.308   0.068   4.853
 4967SOL     OW15799   3.357   4.914   6.002
 4967SOL    HW115800   3.329   4.999   5.958
 4967SOL    HW215801   3.345   4.838   5.938
 4968SOL     OW15802   0.183   1.297   3.153
 4968SOL    HW115803   0.230   1.272   3.068
 4968SOL    HW215804   0.108   1.233   3.170
 4969SOL     OW15805   2.239   6.179   2.747
 4969SOL    HW115806   2.328   6.224   2.751
 4969SOL    HW215807   2.187   6.200   2.830
 4970SOL     OW15808   2.287   1.649   1.422
 4970SOL    HW115809   2.308   1.649   1.324
 4970SOL    HW215810   2.370   1.627   1.473
 4971SOL     OW15811   6.381   5.669   2.906
 4971SOL    HW115812   6.417   5.738   2.844
 4971SOL    HW215813   6.319   5.712   2.972
 4972SOL     OW15814   0.411   3.790   1.090
 4972SOL    HW115815   0.498   3.808   1.043
 4972SOL    HW215816   0.408   3.844   1.174
 4973SOL     OW15817   1.221   6.669   1.593
 4973SOL    HW115818   1.137   6.618   1.573
 4973SOL    HW215819   1.259   6.705   1.508
 4974SOL     OW15820   6.178   4.852   0.791
 4974SOL    HW115821   6.202   4.931   0.846
 4974SOL    HW215822   6.079   4.840   0.789
 4975SOL     OW15823   5.925   3.989   6.387
 4975SOL    HW115824   5.927   3.938   6.301
 4975SOL    HW215825   5.972   4.077   6.375
 4976SOL     OW15826   2.186   1.971   4.388
 4976SOL    HW115827   2.241   1.889   4.376
 4976SOL    HW215828   2.242   2.052   4.369
 4977SOL     OW15829   4.649   5.022   0.119
 4977SOL    HW115830   4.578   5.075   0.074
 4977SOL    HW215831   4.620   5.000   0.213
 4978SOL     OW15832   5.938   4.527   5.003
 4978SOL    HW115833   5.848   4.518   5.045
 4978SOL    HW215834   5.976   4.617   5.025
 4979SOL     OW15835   6.629   6.862   6.086
 4979SOL    HW115836   6.583   6.949   6.103
 4979SOL    HW215837   6.728   6.874   6.098
 4980SOL     OW15838   5.358   5.408   3.816
 4980SOL    HW115839   5.277   5.384   3.762
 4980SOL    HW215840   5.343   5.382   3.912
 4981SOL     OW15841   3.852   5.133   1.009
 4981SOL    HW115842   3.886   5.110   0.918
 4981SOL    HW215843   3.921   5.186   1.058
 4982SOL     OW15844   3.434   1.973   5.881
 4982SOL    HW115845   3.411   2.056   5.831
 4982SOL    HW215846   3.402   1.980   5.975
 4983SOL     OW15847   5.997   3.755   5.856
 4983SOL    HW115848   6.006   3.713   5.946
 4983SOL    HW215849   5.959   3.687   5.792
 4984SOL     OW15850   5.353   3.747   3.017
 4984SOL    HW115851   5.421   3.682   3.050
 4984SOL    HW215852   5.291   3.701   2.953
 4985SOL     OW15853   6.274   6.857   3.229
 4985SOL    HW115854   6.188   6.875   3.182
 4985SOL    HW215855   6.261   6.867   3.328
 4986SOL     OW15856   6.666   4.961   0.276
 4986SOL    HW115857   6.690   4.906   0.356
 4986SOL    HW215858   6.672   5.058   0.299
 4987SOL     OW15859   0.659   6.523   2.509
 4987SOL    HW115860   0.746   6.552   2.471
 4987SOL    HW215861   0.629   6.438   2.465
 4988SOL     OW15862   5.160   1.062   2.470
 4988SOL    HW115863   5.240   1.039   2.414
 4988SOL    HW215864   5.096   0.986   2.470
 4989SOL     OW15865   5.609   6.618   0.874
 4989SOL    HW115866   5.547   6.614   0.952
 4989SOL    HW215867   5.694   6.571   0.897
 4990SOL     OW15868   2.870   1.710   6.080
 4990SOL    HW115869   2.870   1.785   6.147
 4990SOL    HW215870   2.964   1.690   6.053
 4991SOL     OW15871   6.211   5.552   4.314
 4991SOL    HW115872   6.129   5.554   4.371
 4991SOL    HW215873   6.196   5.489   4.238
 4992SOL     OW15874   5.009   0.517   2.239
 4992SOL    HW115875   4.977   0.555   2.326
 4992SOL    HW215876   5.104   0.543   2.224
 4993SOL     OW15877   3.508   6.287   5.468
 4993SOL    HW115878   3.601   6.253   5.477
 4993SOL    HW215879   3.509   6.374   5.419
 4994SOL     OW15880   1.628   6.959   4.397
 4994SOL    HW115881   1.590   6.949   4.488
 4994SOL    HW215882   1.709   6.900   4.388
 4995SOL     OW15883   1.259   2.231   5.037
 4995SOL    HW115884   1.225   2.241   5.131
 4995SOL    HW215885   1.243   2.138   5.006
 4996SOL     OW15886   0.033   1.638   3.448
 4996SOL    HW115887   0.047   1.712   3.382
 4996SOL    HW215888   6.996   1.672   3.523
 4997SOL     OW15889   4.666   2.521   2.274
 4997SOL    HW115890   4.647   2.506   2.177
 4997SOL    HW215891   4.736   2.455   2.304
 4998SOL     OW15892   2.110   3.330   4.558
 4998SOL    HW115893   2.147   3.347   4.466
 4998SOL    HW215894   2.164   3.380   4.625
 4999SOL     OW15895   6.446   3.573   5.053
 4999SOL    HW115896   6.501   3.529   4.982
 4999SOL    HW215897   6.455   3.672   5.047
 5000SOL     OW15898   3.416   0.508   3.193
 5000SOL    HW115899   3.398   0.602   3.165
 5000SOL    HW215900   3.451   0.456   3.116
 5001SOL     OW15901   1.725   5.160   1.961
 5001SOL    HW115902   1.801   5.224   1.973
 5001SOL    HW215903   1.758   5.067   1.976
 5002SOL     OW15904   1.043   3.594   2.205
 5002SOL    HW115905   1.083   3.674   2.160
 5002SOL    HW215906   0.957   3.621   2.250
 5003SOL     OW15907   3.792   5.697   2.949
 5003SOL    HW115908   3.715   5.649   2.908
 5003SOL    HW215909   3.772   5.716   3.045
 5004SOL     OW15910   2.257   4.876   4.985
 5004SOL    HW115911   2.258   4.866   5.085
 5004SOL    HW215912   2.217   4.965   4.961
 5005SOL     OW15913   3.264   2.837   0.232
 5005SOL    HW115914   3.296   2.885   0.151
 5005SOL    HW215915   3.335   2.773   0.263
 5006SOL     OW15916   5.167   0.604   1.769
 5006SOL    HW115917   5.116   0.689   1.779
 5006SOL    HW215918   5.126   0.534   1.828
 5007SOL     OW15919   0.440   6.491   1.167
 5007SOL    HW115920   0.459   6.575   1.116
 5007SOL    HW215921   0.474   6.413   1.115
 5008SOL     OW15922   5.098   6.344   1.615
 5008SOL    HW115923   5.103   6.430   1.667
 5008SOL    HW215924   5.160   6.349   1.537
 5009SOL     OW15925   0.075   2.001   0.799
 5009SOL    HW115926   0.111   1.986   0.707
 5009SOL    HW215927   6.995   1.992   0.797
 5010SOL     OW15928   4.128   3.220   1.530
 5010SOL    HW115929   4.078   3.213   1.616
 5010SOL    HW215930   4.224   3.198   1.545
 5011SOL     OW15931   1.620   4.828   2.303
 5011SOL    HW115932   1.605   4.736   2.267
 5011SOL    HW215933   1.532   4.870   2.325
 5012SOL     OW15934   5.363   3.487   5.413
 5012SOL    HW115935   5.290   3.482   5.345
 5012SOL    HW215936   5.429   3.413   5.398
 5013SOL     OW15937   5.266   1.679   6.704
 5013SOL    HW115938   5.342   1.613   6.699
 5013SOL    HW215939   5.214   1.663   6.788
 5014SOL     OW15940   5.645   4.632   1.028
 5014SOL    HW115941   5.743   4.616   1.031
 5014SOL    HW215942   5.627   4.730   1.030
 5015SOL     OW15943   4.992   1.787   4.873
 5015SOL    HW115944   5.069   1.730   4.844
 5015SOL    HW215945   4.990   1.871   4.818
 5016SOL     OW15946   2.341   2.878   5.842
 5016SOL    HW115947   2.439   2.886   5.859
 5016SOL    HW215948   2.299   2.820   5.911
 5017SOL     OW15949   2.700   2.407   1.304
 5017SOL    HW115950   2.649   2.426   1.220
 5017SOL    HW215951   2.655   2.335   1.356
 5018SOL     OW15952   1.388   4.717   3.038
 5018SOL    HW115953   1.373   4.687   2.944
 5018SOL    HW215954   1.353   4.648   3.101
 5019SOL     OW15955   1.126   5.372   5.621
 5019SOL    HW115956   1.146   5.391   5.525
 5019SOL    HW215957   1.107   5.458   5.669
 5020SOL     OW15958   5.182   0.134   6.571
 5020SOL    HW115959   5.223   0.181   6.493
 5020SOL    HW215960   5.248   0.127   6.645
 5021SOL     OW15961   0.697   1.366   6.971
 5021SOL    HW115962   0.735   1.366   0.043
 5021SOL    HW215963   0.709   1.456   6.930
 5022SOL     OW15964   1.854   1.649   1.366
 5022SOL    HW115965   1.870   1.552   1.346
 5022SOL    HW215966   1.840   1.698   1.280
 5023SOL     OW15967   0.176   3.321   1.605
 5023SOL    HW115968   0.208   3.364   1.521
 5023SOL    HW215969   0.086   3.358   1.630
 5024SOL     OW15970   6.105   5.266   1.692
 5024SOL    HW115971   6.144   5.180   1.724
 5024SOL    HW215972   6.020   5.248   1.642
 5025SOL     OW15973   4.272   1.702   3.306
 5025SOL    HW115974   4.305   1.762   3.379
 5025SOL    HW215975   4.344   1.692   3.237
 5026SOL     OW15976   6.190   5.969   5.083
 5026SOL    HW115977   6.093   5.991   5.067
 5026SOL    HW215978   6.208   5.971   5.181
 5027SOL     OW15979   6.873   6.282   1.730
 5027SOL    HW115980   6.887   6.381   1.728
 5027SOL    HW215981   6.941   6.240   1.791
 5028SOL     OW15982   0.438   2.521   2.303
 5028SOL    HW115983   0.424   2.444   2.365
 5028SOL    HW215984   0.534   2.550   2.308
 5029SOL     OW15985   6.649   2.192   2.412
 5029SOL    HW115986   6.696   2.105   2.394
 5029SOL    HW215987   6.586   2.212   2.337
 5030SOL     OW15988   0.039   6.309   6.498
 5030SOL    HW115989   0.119   6.344   6.548
 5030SOL    HW215990   7.010   6.244   6.556
 5031SOL     OW15991   6.260   0.791   5.979
 5031SOL    HW115992   6.344   0.806   6.031
 5031SOL    HW215993   6.204   0.874   5.982
 5032SOL     OW15994   1.951   2.368   6.615
 5032SOL    HW115995   2.024   2.323   6.665
 5032SOL    HW215996   1.965   2.467   6.618
 5033SOL     OW15997   2.531   6.673   5.506
 5033SOL    HW115998   2.510   6.759   5.552
 5033SOL    HW215999   2.609   6.629   5.550
 5034SOL     OW16000   5.921   0.227   3.644
 5034SOL    HW116001   5.908   0.156   3.574
 5034SOL    HW216002   5.994   0.200   3.706
 5035SOL     OW16003   0.649   3.985   6.110
 5035SOL    HW116004   0.693   3.900   6.081
 5035SOL    HW216005   0.550   3.972   6.109
 5036SOL     OW16006   0.600   4.739   6.924
 5036SOL    HW116007   0.515   4.779   6.890
 5036SOL    HW216008   0.652   4.808   6.974
 5037SOL     OW16009   5.704   4.010   1.893
 5037SOL    HW116010   5.759   4.079   1.847
 5037SOL    HW216011   5.667   3.946   1.826
 5038SOL     OW16012   3.392   3.902   5.755
 5038SOL    HW116013   3.399   3.936   5.661
 5038SOL    HW216014   3.373   3.804   5.753
 5039SOL     OW16015   2.684   4.510   6.124
 5039SOL    HW116016   2.649   4.460   6.203
 5039SOL    HW216017   2.618   4.501   6.048
 5040SOL     OW16018   1.703   6.429   5.632
 5040SOL    HW116019   1.604   6.415   5.620
 5040SOL    HW216020   1.728   6.410   5.726
 5041SOL     OW16021   1.584   1.845   2.632
 5041SOL    HW116022   1.536   1.776   2.687
 5041SOL    HW216023   1.575   1.823   2.535
 5042SOL     OW16024   6.168   3.043   0.085
 5042SOL    HW116025   6.212   3.101   0.153
 5042SOL    HW216026   6.190   2.947   0.104
 5043SOL     OW16027   3.318   0.263   6.066
 5043SOL    HW116028   3.342   0.355   6.036
 5043SOL    HW216029   3.255   0.269   6.144
 5044SOL     OW16030   0.772   6.462   7.000
 5044SOL    HW116031   0.857   6.416   0.004
 5044SOL    HW216032   0.702   6.394   6.980
 5045SOL     OW16033   5.425   0.065   6.232
 5045SOL    HW116034   5.466   7.001   6.266
 5045SOL    HW216035   5.491   0.113   6.173
 5046SOL     OW16036   3.525   4.168   2.873
 5046SOL    HW116037   3.623   4.171   2.858
 5046SOL    HW216038   3.505   4.192   2.968
 5047SOL     OW16039   0.842   4.241   2.970
 5047SOL    HW116040   0.799   4.246   3.060
 5047SOL    HW216041   0.778   4.274   2.900
 5048SOL     OW16042   0.948   1.338   2.790
 5048SOL    HW116043   0.952   1.319   2.888
 5048SOL    HW216044   0.884   1.274   2.746
 5049SOL     OW16045   5.350   1.946   6.267
 5049SOL    HW116046   5.443   1.961   6.301
 5049SOL    HW216047   5.300   1.888   6.332
 5050SOL     OW16048   2.427   0.801   1.469
 5050SOL    HW116049   2.427   0.873   1.538
 5050SOL    HW216050   2.455   0.714   1.511
 5051SOL     OW16051   4.164   4.373   0.828
 5051SOL    HW116052   4.158   4.470   0.803
 5051SOL    HW216053   4.096   4.321   0.777
 5052SOL     OW16054   2.441   1.173   6.220
 5052SOL    HW116055   2.453   1.265   6.259
 5052SOL    HW216056   2.346   1.144   6.234
 5053SOL     OW16057   2.136   3.893   3.825
 5053SOL    HW116058   2.052   3.942   3.800
 5053SOL    HW216059   2.141   3.807   3.774
 5054SOL     OW16060   3.368   5.104   4.531
 5054SOL    HW116061   3.318   5.190   4.523
 5054SOL    HW216062   3.364   5.055   4.444
 5055SOL     OW16063   1.967   2.255   5.569
 5055SOL    HW116064   2.014   2.340   5.544
 5055SOL    HW216065   1.910   2.271   5.650
 5056SOL     OW16066   5.732   4.385   6.692
 5056SOL    HW116067   5.632   4.383   6.693
 5056SOL    HW216068   5.765   4.444   6.766
 5057SOL     OW16069   6.631   5.953   3.835
 5057SOL    HW116070   6.704   5.914   3.890
 5057SOL    HW216071   6.659   6.044   3.802
 5058SOL     OW16072   2.946   3.461   5.599
 5058SOL    HW116073   2.942   3.469   5.499
 5058SOL    HW216074   2.942   3.364   5.624
 5059SOL     OW16075   6.422   1.307   3.127
 5059SOL    HW116076   6.468   1.244   3.066
 5059SOL    HW216077   6.382   1.382   3.074
 5060SOL     OW16078   0.885   2.262   5.613
 5060SOL    HW116079   0.790   2.278   5.586
 5060SOL    HW216080   0.891   2.260   5.713
 5061SOL     OW16081   4.271   2.874   1.652
 5061SOL    HW116082   4.187   2.859   1.704
 5061SOL    HW216083   4.299   2.789   1.609
 5062SOL     OW16084   5.789   0.901   3.067
 5062SOL    HW116085   5.802   0.806   3.095
 5062SOL    HW216086   5.709   0.906   3.006
 5063SOL     OW16087   0.703   6.877   1.900
 5063SOL    HW116088   0.682   6.868   1.998
 5063SOL    HW216089   0.737   6.790   1.865
 5064SOL     OW16090   4.997   3.738   1.240
 5064SOL    HW116091   5.018   3.835   1.227
 5064SOL    HW216092   4.936   3.707   1.167
 5065SOL     OW16093   2.049   0.599   3.507
 5065SOL    HW116094   2.132   0.633   3.462
 5065SOL    HW216095   2.074   0.526   3.571
 5066SOL     OW16096   4.758   5.159   2.332
 5066SOL    HW116097   4.801   5.232   2.386
 5066SOL    HW216098   4.669   5.137   2.371
 5067SOL     OW16099   4.821   1.209   1.887
 5067SOL    HW116100   4.898   1.184   1.828
 5067SOL    HW216101   4.740   1.158   1.859
 5068SOL     OW16102   3.710   4.500   1.101
 5068SOL    HW116103   3.667   4.503   1.011
 5068SOL    HW216104   3.784   4.567   1.106
 5069SOL     OW16105   2.109   3.835   5.605
 5069SOL    HW116106   2.113   3.784   5.691
 5069SOL    HW216107   2.067   3.777   5.534
 5070SOL     OW16108   4.818   4.233   4.129
 5070SOL    HW116109   4.743   4.262   4.188
 5070SOL    HW216110   4.807   4.137   4.105
 5071SOL     OW16111   4.259   2.351   3.559
 5071SOL    HW116112   4.318   2.413   3.610
 5071SOL    HW216113   4.240   2.389   3.468
 5072SOL     OW16114   1.131   0.173   1.136
 5072SOL    HW116115   1.147   0.225   1.052
 5072SOL    HW216116   1.074   0.228   1.198
 5073SOL     OW16117   0.242   5.530   2.274
 5073SOL    HW116118   0.249   5.535   2.374
 5073SOL    HW216119   0.277   5.615   2.233
 5074SOL     OW16120   3.341   3.051   1.130
 5074SOL    HW116121   3.376   3.023   1.220
 5074SOL    HW216122   3.264   3.113   1.142
 5075SOL     OW16123   1.082   2.237   6.911
 5075SOL    HW116124   1.046   2.256   7.002
 5075SOL    HW216125   1.006   2.231   6.846
 5076SOL     OW16126   3.562   1.206   0.935
 5076SOL    HW116127   3.579   1.128   0.995
 5076SOL    HW216128   3.639   1.219   0.874
 5077SOL     OW16129   1.282   4.122   5.295
 5077SOL    HW116130   1.345   4.075   5.358
 5077SOL    HW216131   1.276   4.219   5.321
 5078SOL     OW16132   2.303   1.460   3.749
 5078SOL    HW116133   2.380   1.454   3.687
 5078SOL    HW216134   2.226   1.407   3.712
 5079SOL     OW16135   2.480   3.231   6.002
 5079SOL    HW116136   2.574   3.236   5.968
 5079SOL    HW216137   2.416   3.239   5.926
 5080SOL     OW16138   6.114   6.415   6.114
 5080SOL    HW116139   6.131   6.513   6.126
 5080SOL    HW216140   6.076   6.399   6.023
 5081SOL     OW16141   3.442   2.892   4.463
 5081SOL    HW116142   3.371   2.908   4.532
 5081SOL    HW216143   3.532   2.897   4.506
 5082SOL     OW16144   4.703   5.978   6.643
 5082SOL    HW116145   4.729   6.039   6.568
 5082SOL    HW216146   4.739   5.887   6.626
 5083SOL     OW16147   2.379   0.127   3.238
 5083SOL    HW116148   2.475   0.154   3.237
 5083SOL    HW216149   2.371   0.029   3.255
 5084SOL     OW16150   0.169   4.559   4.386
 5084SOL    HW116151   0.172   4.523   4.293
 5084SOL    HW216152   0.112   4.499   4.443
 5085SOL     OW16153   4.635   3.706   6.405
 5085SOL    HW116154   4.719   3.759   6.410
 5085SOL    HW216155   4.590   3.723   6.317
 5086SOL     OW16156   0.207   5.247   3.455
 5086SOL    HW116157   0.138   5.234   3.526
 5086SOL    HW216158   0.181   5.323   3.396
 5087SOL     OW16159   0.865   5.039   2.125
 5087SOL    HW116160   0.915   5.111   2.174
 5087SOL    HW216161   0.907   4.950   2.144
 5088SOL     OW16162   6.515   1.304   5.318
 5088SOL    HW116163   6.525   1.338   5.224
 5088SOL    HW216164   6.605   1.288   5.357
 5089SOL     OW16165   5.264   3.302   4.117
 5089SOL    HW116166   5.250   3.220   4.171
 5089SOL    HW216167   5.179   3.324   4.068
 5090SOL     OW16168   1.958   3.835   2.870
 5090SOL    HW116169   1.866   3.802   2.848
 5090SOL    HW216170   2.010   3.848   2.785
 5091SOL     OW16171   0.668   6.800   2.204
 5091SOL    HW116172   0.600   6.810   2.276
 5091SOL    HW216173   0.740   6.869   2.216
 5092SOL     OW16174   3.736   3.046   1.516
 5092SOL    HW116175   3.770   3.018   1.426
 5092SOL    HW216176   3.709   3.142   1.514
 5093SOL     OW16177   2.609   1.517   1.289
 5093SOL    HW116178   2.600   1.538   1.192
 5093SOL    HW216179   2.558   1.434   1.310
 5094SOL     OW16180   2.074   5.955   5.336
 5094SOL    HW116181   2.034   6.040   5.302
 5094SOL    HW216182   2.015   5.917   5.407
 5095SOL     OW16183   6.909   2.860   4.832
 5095SOL    HW116184   6.917   2.956   4.859
 5095SOL    HW216185   6.813   2.837   4.822
 5096SOL     OW16186   4.486   4.159   0.522
 5096SOL    HW116187   4.449   4.250   0.538
 5096SOL    HW216188   4.426   4.109   0.460
 5097SOL     OW16189   1.479   0.603   7.003
 5097SOL    HW116190   1.530   0.536   6.949
 5097SOL    HW216191   1.387   0.613   6.967
 5098SOL     OW16192   1.536   0.799   1.688
 5098SOL    HW116193   1.480   0.719   1.666
 5098SOL    HW216194   1.477   0.871   1.725
 5099SOL     OW16195   0.525   6.266   6.928
 5099SOL    HW116196   0.577   6.267   6.843
 5099SOL    HW216197   0.530   6.175   6.969
 5100SOL     OW16198   4.047   5.826   5.632
 5100SOL    HW116199   4.112   5.893   5.596
 5100SOL    HW216200   4.051   5.826   5.732
 5101SOL     OW16201   4.484   6.829   0.453
 5101SOL    HW116202   4.405   6.874   0.495
 5101SOL    HW216203   4.468   6.731   0.447
 5102SOL     OW16204   5.834   0.941   4.650
 5102SOL    HW116205   5.912   0.939   4.713
 5102SOL    HW216206   5.773   0.865   4.670
 5103SOL     OW16207   0.653   1.447   4.435
 5103SOL    HW116208   0.632   1.493   4.348
 5103SOL    HW216209   0.681   1.353   4.417
 5104SOL     OW16210   2.072   6.675   2.693
 5104SOL    HW116211   2.034   6.676   2.600
 5104SOL    HW216212   2.013   6.727   2.754
 5105SOL     OW16213   3.281   2.266   0.207
 5105SOL    HW116214   3.266   2.315   0.293
 5105SOL    HW216215   3.208   2.290   0.142
 5106SOL     OW16216   3.315   1.050   0.700
 5106SOL    HW116217   3.245   1.029   0.631
 5106SOL    HW216218   3.311   1.147   0.722
 5107SOL     OW16219   3.882   0.753   0.817
 5107SOL    HW116220   3.785   0.728   0.817
 5107SOL    HW216221   3.934   0.680   0.773
 5108SOL     OW16222   3.005   3.666   4.386
 5108SOL    HW116223   3.039   3.750   4.343
 5108SOL    HW216224   2.993   3.681   4.484
 5109SOL     OW16225   1.452   1.114   0.839
 5109SOL    HW116226   1.428   1.028   0.884
 5109SOL    HW216227   1.374   1.177   0.844
 5110SOL     OW16228   0.602   0.553   6.182
 5110SOL    HW116229   0.586   0.505   6.268
 5110SOL    HW216230   0.521   0.606   6.157
 5111SOL     OW16231   2.424   1.161   5.411
 5111SOL    HW116232   2.382   1.191   5.497
 5111SOL    HW216233   2.472   1.075   5.425
 5112SOL     OW16234   0.236   6.705   2.415
 5112SOL    HW116235   0.266   6.611   2.398
 5112SOL    HW216236   0.215   6.716   2.513
 5113SOL     OW16237   2.217   6.958   1.777
 5113SOL    HW116238   2.186   6.922   1.689
 5113SOL    HW216239   2.302   6.913   1.803
 5114SOL     OW16240   2.717   2.277   0.374
 5114SOL    HW116241   2.701   2.234   0.463
 5114SOL    HW216242   2.806   2.248   0.338
 5115SOL     OW16243   2.058   4.940   4.646
 5115SOL    HW116244   2.033   4.914   4.740
 5115SOL    HW216245   2.137   5.001   4.649
 5116SOL     OW16246   5.743   6.457   6.671
 5116SOL    HW116247   5.754   6.358   6.664
 5116SOL    HW216248   5.834   6.500   6.675
 5117SOL     OW16249   2.716   4.877   4.713
 5117SOL    HW116250   2.692   4.820   4.634
 5117SOL    HW216251   2.807   4.851   4.746
 5118SOL     OW16252   4.795   0.405   0.399
 5118SOL    HW116253   4.730   0.343   0.355
 5118SOL    HW216254   4.759   0.433   0.488
 5119SOL     OW16255   5.523   0.867   1.582
 5119SOL    HW116256   5.512   0.962   1.611
 5119SOL    HW216257   5.486   0.807   1.653
 5120SOL     OW16258   4.302   1.315   4.087
 5120SOL    HW116259   4.331   1.410   4.096
 5120SOL    HW216260   4.213   1.311   4.042
 5121SOL     OW16261   2.244   2.568   0.590
 5121SOL    HW116262   2.253   2.581   0.689
 5121SOL    HW216263   2.200   2.481   0.572
 5122SOL     OW16264   2.825   0.354   3.668
 5122SOL    HW116265   2.771   0.289   3.615
 5122SOL    HW216266   2.844   0.317   3.758
 5123SOL     OW16267   6.009   2.118   5.250
 5123SOL    HW116268   6.031   2.025   5.280
 5123SOL    HW216269   6.080   2.181   5.282
 5124SOL     OW16270   3.178   5.300   5.001
 5124SOL    HW116271   3.217   5.225   4.948
 5124SOL    HW216272   3.080   5.285   5.013
 5125SOL     OW16273   5.942   2.775   3.948
 5125SOL    HW116274   6.004   2.714   3.897
 5125SOL    HW216275   5.936   2.744   4.043
 5126SOL     OW16276   6.384   5.146   5.826
 5126SOL    HW116277   6.302   5.142   5.769
 5126SOL    HW216278   6.451   5.207   5.783
 5127SOL     OW16279   6.909   3.829   0.442
 5127SOL    HW116280   6.967   3.857   0.518
 5127SOL    HW216281   6.926   3.889   0.363
 5128SOL     OW16282   0.238   0.161   6.488
 5128SOL    HW116283   0.276   0.253   6.501
 5128SOL    HW216284   0.308   0.093   6.511
 5129SOL     OW16285   4.922   0.008   2.712
 5129SOL    HW116286   4.863   6.975   2.773
 5129SOL    HW216287   4.871   0.036   2.631
 5130SOL     OW16288   1.414   5.910   4.010
 5130SOL    HW116289   1.332   5.877   3.963
 5130SOL    HW216290   1.389   5.951   4.097
 5131SOL     OW16291   2.879   4.808   3.854
 5131SOL    HW116292   2.837   4.729   3.810
 5131SOL    HW216293   2.977   4.809   3.836
 5132SOL     OW16294   3.388   1.300   5.984
 5132SOL    HW116295   3.426   1.214   6.017
 5132SOL    HW216296   3.292   1.287   5.959
 5133SOL     OW16297   2.543   5.310   6.452
 5133SOL    HW116298   2.540   5.235   6.385
 5133SOL    HW216299   2.505   5.393   6.411
 5134SOL     OW16300   6.471   0.598   2.317
 5134SOL    HW116301   6.423   0.600   2.230
 5134SOL    HW216302   6.445   0.678   2.371
 5135SOL     OW16303   4.955   3.556   3.895
 5135SOL    HW116304   4.918   3.528   3.806
 5135SOL    HW216305   4.977   3.474   3.948
 5136SOL     OW16306   5.494   0.701   6.127
 5136SOL    HW116307   5.427   0.764   6.087
 5136SOL    HW216308   5.478   0.694   6.225
 5137SOL     OW16309   5.414   3.514   5.075
 5137SOL    HW116310   5.464   3.435   5.112
 5137SOL    HW216311   5.316   3.493   5.072
 5138SOL     OW16312   3.304   4.102   4.572
 5138SOL    HW116313   3.216   4.092   4.619
 5138SOL    HW216314   3.291   4.154   4.487
 5139SOL     OW16315   0.853   6.905   4.842
 5139SOL    HW116316   0.822   6.992   4.803
 5139SOL    HW216317   0.841   6.832   4.775
 5140SOL     OW16318   3.936   1.918   5.338
 5140SOL    HW116319   3.922   1.913   5.437
 5140SOL    HW216320   4.003   1.989   5.318
 5141SOL     OW16321   6.866   3.712   1.471
 5141SOL    HW116322   6.771   3.735   1.495
 5141SOL    HW216323   6.880   3.727   1.374
 5142SOL     OW16324   5.382   6.891   4.743
 5142SOL    HW116325   5.453   6.961   4.749
 5142SOL    HW216326   5.340   6.877   4.833
 5143SOL     OW16327   0.680   4.254   4.558
 5143SOL    HW116328   0.638   4.320   4.620
 5143SOL    HW216329   0.743   4.195   4.608
 5144SOL     OW16330   2.059   4.525   5.868
 5144SOL    HW116331   2.107   4.607   5.837
 5144SOL    HW216332   2.073   4.452   5.801
 5145SOL     OW16333   4.001   6.078   6.106
 5145SOL    HW116334   3.915   6.043   6.069
 5145SOL    HW216335   4.014   6.172   6.076
 5146SOL     OW16336   3.372   3.972   5.084
 5146SOL    HW116337   3.363   3.905   5.158
 5146SOL    HW216338   3.331   3.935   5.001
 5147SOL     OW16339   6.029   5.117   3.811
 5147SOL    HW116340   5.956   5.071   3.862
 5147SOL    HW216341   6.052   5.065   3.729
 5148SOL     OW16342   0.164   1.066   2.214
 5148SOL    HW116343   0.126   1.134   2.276
 5148SOL    HW216344   0.100   1.052   2.138
 5149SOL     OW16345   5.958   5.607   4.847
 5149SOL    HW116346   5.887   5.619   4.778
 5149SOL    HW216347   6.047   5.626   4.807
 5150SOL     OW16348   1.712   4.361   4.027
 5150SOL    HW116349   1.669   4.440   3.984
 5150SOL    HW216350   1.661   4.335   4.109
 5151SOL     OW16351   6.701   4.453   2.323
 5151SOL    HW116352   6.694   4.551   2.304
 5151SOL    HW216353   6.711   4.403   2.236
 5152SOL     OW16354   2.325   5.420   6.831
 5152SOL    HW116355   2.347   5.493   6.767
 5152SOL    HW216356   2.391   5.346   6.821
 5153SOL     OW16357   0.495   2.123   0.955
 5153SOL    HW116358   0.472   2.168   1.042
 5153SOL    HW216359   0.470   2.184   0.879
 5154SOL     OW16360   1.053   2.838   5.675
 5154SOL    HW116361   1.125   2.891   5.720
 5154SOL    HW216362   0.964   2.879   5.695
 5155SOL     OW16363   3.983   0.285   2.078
 5155SOL    HW116364   3.905   0.228   2.052
 5155SOL    HW216365   4.032   0.244   2.155
 5156SOL     OW16366   5.596   4.441   5.322
 5156SOL    HW116367   5.574   4.537   5.339
 5156SOL    HW216368   5.651   4.435   5.238
 5157SOL     OW16369   3.252   2.023   2.250
 5157SOL    HW116370   3.251   1.923   2.250
 5157SOL    HW216371   3.158   2.057   2.242
 5158SOL     OW16372   4.158   2.665   0.806
 5158SOL    HW116373   4.108   2.600   0.749
 5158SOL    HW216374   4.256   2.654   0.791
 5159SOL     OW16375   6.006   3.113   5.772
 5159SOL    HW116376   6.026   3.041   5.838
 5159SOL    HW216377   5.945   3.077   5.701
 5160SOL     OW16378   6.885   4.746   3.341
 5160SOL    HW116379   6.975   4.740   3.298
 5160SOL    HW216380   6.819   4.784   3.276
 5161SOL     OW16381   1.518   3.911   0.330
 5161SOL    HW116382   1.457   3.898   0.408
 5161SOL    HW216383   1.484   3.986   0.273
 5162SOL     OW16384   0.936   5.448   2.665
 5162SOL    HW116385   0.890   5.447   2.577
 5162SOL    HW216386   1.033   5.467   2.652
 5163SOL     OW16387   3.600   6.382   0.560
 5163SOL    HW116388   3.527   6.364   0.625
 5163SOL    HW216389   3.586   6.327   0.478
 5164SOL     OW16390   2.944   2.727   0.036
 5164SOL    HW116391   2.863   2.671   0.051
 5164SOL    HW216392   3.020   2.669   0.007
 5165SOL     OW16393   0.372   4.153   5.882
 5165SOL    HW116394   0.470   4.145   5.896
 5165SOL    HW216395   0.350   4.136   5.786
 5166SOL     OW16396   2.482   4.917   2.753
 5166SOL    HW116397   2.497   4.999   2.698
 5166SOL    HW216398   2.435   4.941   2.838
 5167SOL     OW16399   6.313   4.295   5.245
 5167SOL    HW116400   6.386   4.360   5.263
 5167SOL    HW216401   6.269   4.317   5.158
 5168SOL     OW16402   5.279   3.231   3.111
 5168SOL    HW116403   5.298   3.292   3.033
 5168SOL    HW216404   5.231   3.150   3.078
 5169SOL     OW16405   4.246   2.365   3.281
 5169SOL    HW116406   4.309   2.399   3.212
 5169SOL    HW216407   4.153   2.362   3.243
 5170SOL     OW16408   1.604   3.552   5.094
 5170SOL    HW116409   1.690   3.510   5.123
 5170SOL    HW216410   1.569   3.610   5.168
 5171SOL     OW16411   6.844   4.314   6.035
 5171SOL    HW116412   6.873   4.252   6.108
 5171SOL    HW216413   6.852   4.267   5.947
 5172SOL     OW16414   1.645   3.868   2.941
 5172SOL    HW116415   1.647   3.793   2.875
 5172SOL    HW216416   1.596   3.839   3.023
 5173SOL     OW16417   4.446   5.354   5.308
 5173SOL    HW116418   4.350   5.347   5.280
 5173SOL    HW216419   4.453   5.409   5.391
 5174SOL     OW16420   2.278   4.877   3.692
 5174SOL    HW116421   2.261   4.785   3.658
 5174SOL    HW216422   2.369   4.908   3.663
 5175SOL     OW16423   2.356   3.908   6.784
 5175SOL    HW116424   2.280   3.953   6.738
 5175SOL    HW216425   2.374   3.955   6.871
 5176SOL     OW16426   4.973   4.671   6.211
 5176SOL    HW116427   4.944   4.705   6.121
 5176SOL    HW216428   4.960   4.572   6.215
 5177SOL     OW16429   5.192   6.893   0.793
 5177SOL    HW116430   5.096   6.917   0.805
 5177SOL    HW216431   5.199   6.797   0.767
 5178SOL     OW16432   1.501   4.593   1.923
 5178SOL    HW116433   1.432   4.637   1.981
 5178SOL    HW216434   1.529   4.655   1.851
 5179SOL     OW16435   4.945   4.628   4.221
 5179SOL    HW116436   4.903   4.703   4.169
 5179SOL    HW216437   4.883   4.598   4.293
 5180SOL     OW16438   3.613   1.012   1.764
 5180SOL    HW116439   3.655   1.019   1.674
 5180SOL    HW216440   3.684   1.011   1.834
 5181SOL     OW16441   6.289   0.621   2.079
 5181SOL    HW116442   6.213   0.628   2.145
 5181SOL    HW216443   6.264   0.555   2.008
 5182SOL     OW16444   4.489   4.488   2.333
 5182SOL    HW116445   4.460   4.526   2.245
 5182SOL    HW216446   4.415   4.500   2.400
 5183SOL     OW16447   3.970   1.872   2.961
 5183SOL    HW116448   3.933   1.783   2.987
 5183SOL    HW216449   3.894   1.936   2.946
 5184SOL     OW16450   1.963   2.257   3.471
 5184SOL    HW116451   2.016   2.260   3.386
 5184SOL    HW216452   1.867   2.273   3.450
 5185SOL     OW16453   4.816   0.985   3.075
 5185SOL    HW116454   4.769   0.971   3.162
 5185SOL    HW216455   4.754   0.963   3.000
 5186SOL     OW16456   5.901   2.216   6.395
 5186SOL    HW116457   5.938   2.265   6.316
 5186SOL    HW216458   5.863   2.282   6.460
 5187SOL     OW16459   1.092   5.837   5.491
 5187SOL    HW116460   1.051   5.873   5.407
 5187SOL    HW216461   1.145   5.910   5.535
 5188SOL     OW16462   6.304   6.105   1.603
 5188SOL    HW116463   6.222   6.065   1.561
 5188SOL    HW216464   6.283   6.134   1.696
 5189SOL     OW16465   4.591   6.277   0.380
 5189SOL    HW116466   4.567   6.322   0.294
 5189SOL    HW216467   4.577   6.178   0.372
 5190SOL     OW16468   0.638   3.610   3.847
 5190SOL    HW116469   0.555   3.555   3.849
 5190SOL    HW216470   0.644   3.664   3.931
 5191SOL     OW16471   3.207   6.226   2.125
 5191SOL    HW116472   3.251   6.314   2.105
 5191SOL    HW216473   3.277   6.159   2.150
 5192SOL     OW16474   1.762   6.064   1.234
 5192SOL    HW116475   1.795   6.137   1.294
 5192SOL    HW216476   1.712   5.996   1.288
 5193SOL     OW16477   5.265   5.923   5.546
 5193SOL    HW116478   5.324   5.843   5.533
 5193SOL    HW216479   5.171   5.893   5.563
 5194SOL     OW16480   3.640   2.487   6.682
 5194SOL    HW116481   3.730   2.512   6.715
 5194SOL    HW216482   3.570   2.523   6.744
 5195SOL     OW16483   0.389   0.471   4.208
 5195SOL    HW116484   0.321   0.425   4.265
 5195SOL    HW216485   0.347   0.551   4.165
 5196SOL     OW16486   5.193   6.692   2.222
 5196SOL    HW116487   5.262   6.747   2.268
 5196SOL    HW216488   5.126   6.660   2.288
 5197SOL     OW16489   2.188   4.003   6.601
 5197SOL    HW116490   2.179   3.972   6.506
 5197SOL    HW216491   2.104   3.983   6.651
 5198SOL     OW16492   4.745   5.892   2.869
 5198SOL    HW116493   4.675   5.909   2.939
 5198SOL    HW216494   4.703   5.841   2.794
 5199SOL     OW16495   1.205   5.956   0.724
 5199SOL    HW116496   1.277   6.014   0.762
 5199SOL    HW216497   1.162   6.002   0.646
 5200SOL     OW16498   6.787   3.754   4.919
 5200SOL    HW116499   6.690   3.757   4.895
 5200SOL    HW216500   6.829   3.842   4.897
 5201SOL     OW16501   0.792   6.503   3.077
 5201SOL    HW116502   0.821   6.580   3.021
 5201SOL    HW216503   0.798   6.418   3.024
 5202SOL     OW16504   4.834   2.694   6.700
 5202SOL    HW116505   4.832   2.794   6.702
 5202SOL    HW216506   4.925   2.663   6.671
 5203SOL     OW16507   2.405   2.020   6.339
 5203SOL    HW116508   2.437   2.038   6.246
 5203SOL    HW216509   2.308   2.040   6.346
 5204SOL     OW16510   3.585   5.212   0.184
 5204SOL    HW116511   3.559   5.132   0.239
 5204SOL    HW216512   3.537   5.293   0.219
 5205SOL     OW16513   1.133   6.758   0.289
 5205SOL    HW116514   1.070   6.798   0.356
 5205SOL    HW216515   1.176   6.677   0.328
 5206SOL     OW16516   0.377   4.640   4.807
 5206SOL    HW116517   0.412   4.610   4.718
 5206SOL    HW216518   0.454   4.672   4.863
 5207SOL     OW16519   1.285   6.078   3.521
 5207SOL    HW116520   1.303   6.172   3.549
 5207SOL    HW216521   1.189   6.057   3.533
 5208SOL     OW16522   3.404   1.744   6.695
 5208SOL    HW116523   3.469   1.724   6.768
 5208SOL    HW216524   3.402   1.667   6.630
 5209SOL     OW16525   5.799   5.900   3.538
 5209SOL    HW116526   5.787   5.814   3.489
 5209SOL    HW216527   5.823   5.973   3.473
 5210SOL     OW16528   5.496   2.299   5.652
 5210SOL    HW116529   5.588   2.335   5.667
 5210SOL    HW216530   5.439   2.369   5.609
 5211SOL     OW16531   3.976   3.091   4.796
 5211SOL    HW116532   4.020   3.181   4.787
 5211SOL    HW216533   3.962   3.070   4.893
 5212SOL     OW16534   6.012   1.332   0.153
 5212SOL    HW116535   6.105   1.317   0.187
 5212SOL    HW216536   5.982   1.424   0.177
 5213SOL     OW16537   4.851   3.865   6.475
 5213SOL    HW116538   4.794   3.906   6.547
 5213SOL    HW216539   4.926   3.927   6.453
 5214SOL     OW16540   4.975   1.630   6.008
 5214SOL    HW116541   5.020   1.562   5.950
 5214SOL    HW216542   5.004   1.617   6.103
 5215SOL     OW16543   5.691   4.885   3.540
 5215SOL    HW116544   5.724   4.973   3.506
 5215SOL    HW216545   5.607   4.860   3.493
 5216SOL     OW16546   4.141   5.596   1.819
 5216SOL    HW116547   4.238   5.619   1.824
 5216SOL    HW216548   4.091   5.650   1.887
 5217SOL     OW16549   3.221   5.274   4.035
 5217SOL    HW116550   3.211   5.331   3.953
 5217SOL    HW216551   3.150   5.204   4.035
 5218SOL     OW16552   0.713   1.232   3.444
 5218SOL    HW116553   0.728   1.308   3.508
 5218SOL    HW216554   0.779   1.238   3.370
 5219SOL     OW16555   4.156   0.469   5.683
 5219SOL    HW116556   4.256   0.461   5.675
 5219SOL    HW216557   4.117   0.487   5.593
 5220SOL     OW16558   1.220   6.212   2.688
 5220SOL    HW116559   1.282   6.160   2.629
 5220SOL    HW216560   1.144   6.153   2.717
 5221SOL     OW16561   5.634   1.938   3.674
 5221SOL    HW116562   5.712   1.952   3.612
 5221SOL    HW216563   5.629   2.014   3.738
 5222SOL     OW16564   3.050   6.486   3.537
 5222SOL    HW116565   2.994   6.521   3.613
 5222SOL    HW216566   3.009   6.402   3.502
 5223SOL     OW16567   5.455   1.276   0.830
 5223SOL    HW116568   5.521   1.208   0.860
 5223SOL    HW216569   5.438   1.341   0.904
 5224SOL     OW16570   0.007   2.397   4.076
 5224SOL    HW116571   0.044   2.436   4.160
 5224SOL    HW216572   7.016   2.298   4.087
 5225SOL     OW16573   0.413   0.011   3.342
 5225SOL    HW116574   0.342   0.025   3.411
 5225SOL    HW216575   0.426   0.095   3.289
 5226SOL     OW16576   0.539   5.501   4.676
 5226SOL    HW116577   0.503   5.542   4.760
 5226SOL    HW216578   0.580   5.413   4.697
 5227SOL     OW16579   1.559   4.642   4.128
 5227SOL    HW116580   1.585   4.614   4.035
 5227SOL    HW216581   1.591   4.735   4.145
 5228SOL     OW16582   6.607   2.241   1.060
 5228SOL    HW116583   6.595   2.196   0.972
 5228SOL    HW216584   6.603   2.341   1.047
 5229SOL     OW16585   1.710   4.522   0.149
 5229SOL    HW116586   1.755   4.503   0.062
 5229SOL    HW216587   1.776   4.515   0.223
 5230SOL     OW16588   0.506   6.280   1.002
 5230SOL    HW116589   0.596   6.255   1.037
 5230SOL    HW216590   0.509   6.285   0.902
 5231SOL     OW16591   3.941   3.631   4.895
 5231SOL    HW116592   3.924   3.665   4.802
 5231SOL    HW216593   4.023   3.676   4.932
 5232SOL     OW16594   3.283   1.787   5.767
 5232SOL    HW116595   3.185   1.791   5.784
 5232SOL    HW216596   3.329   1.858   5.820
 5233SOL     OW16597   5.644   0.116   1.777
 5233SOL    HW116598   5.720   0.180   1.787
 5233SOL    HW216599   5.558   0.163   1.795
 5234SOL     OW16600   2.230   0.667   0.003
 5234SOL    HW116601   2.265   0.645   6.932
 5234SOL    HW216602   2.149   0.610   0.022
 5235SOL     OW16603   1.760   3.128   1.314
 5235SOL    HW116604   1.801   3.175   1.393
 5235SOL    HW216605   1.772   3.184   1.232
 5236SOL     OW16606   6.113   3.874   2.285
 5236SOL    HW116607   6.165   3.954   2.254
 5236SOL    HW216608   6.168   3.821   2.349
 5237SOL     OW16609   2.318   0.828   5.659
 5237SOL    HW116610   2.324   0.830   5.759
 5237SOL    HW216611   2.243   0.768   5.631
 5238SOL     OW16612   1.367   4.727   0.646
 5238SOL    HW116613   1.362   4.735   0.745
 5238SOL    HW216614   1.309   4.651   0.615
 5239SOL     OW16615   3.928   3.887   4.403
 5239SOL    HW116616   3.845   3.831   4.403
 5239SOL    HW216617   3.934   3.939   4.488
 5240SOL     OW16618   3.090   1.880   6.529
 5240SOL    HW116619   3.134   1.809   6.475
 5240SOL    HW216620   3.156   1.917   6.595
 5241SOL     OW16621   0.683   5.139   6.209
 5241SOL    HW116622   0.689   5.157   6.307
 5241SOL    HW216623   0.687   5.040   6.193
 5242SOL     OW16624   0.433   6.192   5.521
 5242SOL    HW116625   0.343   6.235   5.517
 5242SOL    HW216626   0.503   6.263   5.515
 5243SOL     OW16627   1.130   5.667   2.068
 5243SOL    HW116628   1.060   5.697   2.003
 5243SOL    HW216629   1.218   5.659   2.020
 5244SOL     OW16630   3.229   3.837   6.035
 5244SOL    HW116631   3.204   3.933   6.044
 5244SOL    HW216632   3.292   3.826   5.958
 5245SOL     OW16633   4.875   4.371   0.138
 5245SOL    HW116634   4.950   4.390   0.074
 5245SOL    HW216635   4.852   4.455   0.188
 5246SOL     OW16636   5.591   4.592   2.228
 5246SOL    HW116637   5.593   4.493   2.244
 5246SOL    HW216638   5.648   4.638   2.296
 5247SOL     OW16639   1.236   6.539   0.472
 5247SOL    HW116640   1.299   6.550   0.549
 5247SOL    HW216641   1.184   6.454   0.482
 5248SOL     OW16642   6.076   0.286   4.817
 5248SOL    HW116643   6.087   0.201   4.868
 5248SOL    HW216644   6.112   0.274   4.724
 5249SOL     OW16645   0.555   4.895   4.427
 5249SOL    HW116646   0.495   4.874   4.350
 5249SOL    HW216647   0.500   4.908   4.509
 5250SOL     OW16648   1.011   0.939   5.392
 5250SOL    HW116649   0.924   0.904   5.359
 5250SOL    HW216650   1.000   1.033   5.424
 5251SOL     OW16651   0.423   3.282   0.877
 5251SOL    HW116652   0.351   3.343   0.909
 5251SOL    HW216653   0.459   3.229   0.954
 5252SOL     OW16654   2.107   5.332   1.047
 5252SOL    HW116655   2.164   5.366   0.972
 5252SOL    HW216656   2.012   5.323   1.016
 5253SOL     OW16657   5.950   3.616   4.690
 5253SOL    HW116658   5.878   3.670   4.649
 5253SOL    HW216659   5.911   3.536   4.736
 5254SOL     OW16660   5.362   0.729   3.152
 5254SOL    HW116661   5.360   0.680   3.240
 5254SOL    HW216662   5.350   0.827   3.169
 5255SOL     OW16663   4.600   0.109   6.223
 5255SOL    HW116664   4.646   0.021   6.208
 5255SOL    HW216665   4.601   0.162   6.138
 5256SOL     OW16666   4.755   0.431   3.475
 5256SOL    HW116667   4.790   0.513   3.430
 5256SOL    HW216668   4.820   0.401   3.545
 5257SOL     OW16669   4.735   6.873   2.429
 5257SOL    HW116670   4.685   6.885   2.515
 5257SOL    HW216671   4.786   6.957   2.409
 5258SOL     OW16672   5.118   3.353   1.133
 5258SOL    HW116673   5.050   3.300   1.184
 5258SOL    HW216674   5.153   3.426   1.191
 5259SOL     OW16675   4.225   5.874   1.272
 5259SOL    HW116676   4.237   5.869   1.371
 5259SOL    HW216677   4.144   5.929   1.251
 5260SOL     OW16678   5.303   3.848   1.261
 5260SOL    HW116679   5.291   3.947   1.261
 5260SOL    HW216680   5.229   3.805   1.209
 5261SOL     OW16681   1.719   3.221   6.675
 5261SOL    HW116682   1.679   3.188   6.589
 5261SOL    HW216683   1.713   3.148   6.744
 5262SOL     OW16684   2.632   0.480   2.934
 5262SOL    HW116685   2.715   0.439   2.973
 5262SOL    HW216686   2.589   0.414   2.872
 5263SOL     OW16687   1.367   0.918   5.462
 5263SOL    HW116688   1.331   1.002   5.423
 5263SOL    HW216689   1.291   0.862   5.496
 5264SOL     OW16690   6.463   0.651   2.677
 5264SOL    HW116691   6.452   0.749   2.697
 5264SOL    HW216692   6.559   0.626   2.687
 5265SOL     OW16693   4.963   4.654   3.096
 5265SOL    HW116694   4.979   4.647   3.194
 5265SOL    HW216695   4.972   4.564   3.054
 5266SOL     OW16696   2.474   0.303   2.287
 5266SOL    HW116697   2.402   0.274   2.224
 5266SOL    HW216698   2.433   0.336   2.372
 5267SOL     OW16699   4.599   4.839   6.201
 5267SOL    HW116700   4.556   4.882   6.122
 5267SOL    HW216701   4.540   4.851   6.281
 5268SOL     OW16702   6.194   6.587   5.777
 5268SOL    HW116703   6.280   6.607   5.825
 5268SOL    HW216704   6.214   6.545   5.688
 5269SOL     OW16705   2.087   6.877   4.543
 5269SOL    HW116706   2.176   6.833   4.534
 5269SOL    HW216707   2.038   6.871   4.456
 5270SOL     OW16708   5.136   1.733   2.353
 5270SOL    HW116709   5.077   1.655   2.369
 5270SOL    HW216710   5.205   1.739   2.426
 5271SOL     OW16711   5.364   5.057   5.213
 5271SOL    HW116712   5.392   5.044   5.118
 5271SOL    HW216713   5.383   4.973   5.265
 5272SOL     OW16714   1.754   6.153   2.626
 5272SOL    HW116715   1.852   6.133   2.625
 5272SOL    HW216716   1.726   6.176   2.719
 5273SOL     OW16717   6.748   3.364   3.013
 5273SOL    HW116718   6.693   3.372   2.929
 5273SOL    HW216719   6.777   3.269   3.025
 5274SOL     OW16720   6.386   5.554   2.641
 5274SOL    HW116721   6.354   5.631   2.586
 5274SOL    HW216722   6.370   5.573   2.738
 5275SOL     OW16723   3.672   1.489   6.199
 5275SOL    HW116724   3.607   1.416   6.222
 5275SOL    HW216725   3.629   1.551   6.133
 5276SOL     OW16726   1.462   0.283   1.061
 5276SOL    HW116727   1.428   0.190   1.050
 5276SOL    HW216728   1.421   0.342   0.991
 5277SOL     OW16729   1.893   2.745   2.934
 5277SOL    HW116730   1.802   2.776   2.962
 5277SOL    HW216731   1.952   2.738   3.014
 5278SOL     OW16732   5.327   0.283   4.358
 5278SOL    HW116733   5.328   0.183   4.361
 5278SOL    HW216734   5.410   0.318   4.402
 5279SOL     OW16735   1.870   5.298   6.633
 5279SOL    HW116736   1.890   5.210   6.591
 5279SOL    HW216737   1.887   5.293   6.731
 5280SOL     OW16738   3.021   6.306   5.725
 5280SOL    HW116739   3.111   6.294   5.682
 5280SOL    HW216740   2.951   6.314   5.654
 5281SOL     OW16741   0.703   1.806   3.365
 5281SOL    HW116742   0.756   1.890   3.378
 5281SOL    HW216743   0.627   1.803   3.430
 5282SOL     OW16744   2.152   1.237   2.969
 5282SOL    HW116745   2.143   1.141   2.942
 5282SOL    HW216746   2.095   1.254   3.050
 5283SOL     OW16747   2.899   0.487   2.029
 5283SOL    HW116748   2.893   0.497   1.929
 5283SOL    HW216749   2.977   0.429   2.052
 5284SOL     OW16750   5.054   3.026   2.631
 5284SOL    HW116751   4.991   3.058   2.561
 5284SOL    HW216752   5.135   2.986   2.588
 5285SOL     OW16753   1.532   4.471   4.710
 5285SOL    HW116754   1.445   4.519   4.698
 5285SOL    HW216755   1.586   4.478   4.627
 5286SOL     OW16756   0.319   3.960   1.489
 5286SOL    HW116757   0.263   3.886   1.526
 5286SOL    HW216758   0.314   4.039   1.550
 5287SOL     OW16759   1.497   5.957   1.625
 5287SOL    HW116760   1.504   5.965   1.526
 5287SOL    HW216761   1.498   6.049   1.666
 5288SOL     OW16762   4.110   0.863   2.533
 5288SOL    HW116763   4.077   0.775   2.499
 5288SOL    HW216764   4.032   0.921   2.556
 5289SOL     OW16765   1.731   5.118   6.129
 5289SOL    HW116766   1.787   5.052   6.080
 5289SOL    HW216767   1.653   5.071   6.170
 5290SOL     OW16768   1.761   3.979   5.759
 5290SOL    HW116769   1.737   3.885   5.781
 5290SOL    HW216770   1.853   3.982   5.719
 5291SOL     OW16771   2.948   4.740   6.049
 5291SOL    HW116772   2.860   4.752   6.094
 5291SOL    HW216773   2.955   4.803   5.971
 5292SOL     OW16774   6.169   4.773   6.820
 5292SOL    HW116775   6.221   4.857   6.838
 5292SOL    HW216776   6.210   4.725   6.743
 5293SOL     OW16777   1.059   0.356   4.360
 5293SOL    HW116778   1.066   0.425   4.287
 5293SOL    HW216779   1.131   0.287   4.348
 5294SOL     OW16780   6.033   2.721   4.399
 5294SOL    HW116781   6.084   2.807   4.394
 5294SOL    HW216782   6.029   2.690   4.493
 5295SOL     OW16783   4.223   1.123   2.735
 5295SOL    HW116784   4.190   1.204   2.784
 5295SOL    HW216785   4.316   1.101   2.763
 5296SOL     OW16786   2.693   5.028   6.861
 5296SOL    HW116787   2.704   5.009   6.763
 5296SOL    HW216788   2.653   5.119   6.872
 5297SOL     OW16789   2.781   2.798   0.773
 5297SOL    HW116790   2.749   2.784   0.867
 5297SOL    HW216791   2.702   2.794   0.711
 5298SOL     OW16792   1.070   5.581   6.988
 5298SOL    HW116793   1.156   5.587   0.019
 5298SOL    HW216794   0.996   5.553   0.030
 5299SOL     OW16795   2.006   2.999   0.952
 5299SOL    HW116796   1.944   3.072   0.924
 5299SOL    HW216797   2.062   2.972   0.874
 5300SOL     OW16798   0.793   6.545   1.063
 5300SOL    HW116799   0.816   6.626   1.117
 5300SOL    HW216800   0.783   6.466   1.124
 5301SOL     OW16801   3.323   2.539   6.717
 5301SOL    HW116802   3.352   2.614   6.658
 5301SOL    HW216803   3.246   2.492   6.675
 5302SOL     OW16804   5.828   5.535   3.975
 5302SOL    HW116805   5.818   5.606   3.906
 5302SOL    HW216806   5.830   5.576   4.066
 5303SOL     OW16807   6.786   5.453   3.356
 5303SOL    HW116808   6.697   5.499   3.361
 5303SOL    HW216809   6.845   5.501   3.290
 5304SOL     OW16810   5.257   1.062   6.731
 5304SOL    HW116811   5.191   1.137   6.728
 5304SOL    HW216812   5.209   0.976   6.713
 5305SOL     OW16813   0.894   5.245   2.915
 5305SOL    HW116814   0.806   5.213   2.950
 5305SOL    HW216815   0.880   5.297   2.831
 5306SOL     OW16816   0.875   4.103   4.671
 5306SOL    HW116817   0.913   4.076   4.759
 5306SOL    HW216818   0.932   4.066   4.597
 5307SOL     OW16819   4.519   1.556   0.260
 5307SOL    HW116820   4.481   1.633   0.311
 5307SOL    HW216821   4.456   1.478   0.266
 5308SOL     OW16822   1.003   5.603   3.440
 5308SOL    HW116823   1.055   5.519   3.425
 5308SOL    HW216824   1.042   5.653   3.517
 5309SOL     OW16825   4.239   4.624   1.468
 5309SOL    HW116826   4.209   4.688   1.397
 5309SOL    HW216827   4.336   4.639   1.487
 5310SOL     OW16828   6.321   3.782   2.447
 5310SOL    HW116829   6.336   3.820   2.538
 5310SOL    HW216830   6.374   3.697   2.438
 5311SOL     OW16831   6.320   5.668   0.135
 5311SOL    HW116832   6.279   5.608   0.066
 5311SOL    HW216833   6.401   5.625   0.173
 5312SOL     OW16834   0.362   5.198   1.841
 5312SOL    HW116835   0.267   5.180   1.815
 5312SOL    HW216836   0.392   5.129   1.907
 5313SOL     OW16837   1.766   3.894   6.437
 5313SOL    HW116838   1.843   3.841   6.402
 5313SOL    HW216839   1.763   3.888   6.537
 5314SOL     OW16840   3.283   6.503   0.242
 5314SOL    HW116841   3.374   6.499   0.283
 5314SOL    HW216842   3.224   6.561   0.297
 5315SOL     OW16843   4.660   3.254   1.664
 5315SOL    HW116844   4.682   3.174   1.720
 5315SOL    HW216845   4.690   3.336   1.712
 5316SOL     OW16846   0.944   4.050   4.938
 5316SOL    HW116847   0.913   3.974   4.995
 5316SOL    HW216848   1.042   4.044   4.924
 5317SOL     OW16849   6.706   6.715   4.999
 5317SOL    HW116850   6.618   6.714   4.953
 5317SOL    HW216851   6.771   6.657   4.949
 5318SOL     OW16852   0.189   2.484   6.596
 5318SOL    HW116853   0.165   2.578   6.570
 5318SOL    HW216854   0.286   2.481   6.621
 5319SOL     OW16855   3.652   6.771   0.075
 5319SOL    HW116856   3.682   6.836   0.006
 5319SOL    HW216857   3.645   6.680   0.033
 5320SOL     OW16858   5.853   4.968   0.117
 5320SOL    HW116859   5.931   5.027   0.138
 5320SOL    HW216860   5.859   4.885   0.172
 5321SOL     OW16861   0.965   4.183   3.735
 5321SOL    HW116862   0.955   4.111   3.666
 5321SOL    HW216863   1.022   4.150   3.810
 5322SOL     OW16864   4.247   6.162   6.444
 5322SOL    HW116865   4.152   6.186   6.464
 5322SOL    HW216866   4.265   6.068   6.475
 5323SOL     OW16867   3.566   2.106   0.024
 5323SOL    HW116868   3.651   2.154   0.046
 5323SOL    HW216869   3.588   2.021   6.995
 5324SOL     OW16870   4.107   2.025   0.889
 5324SOL    HW116871   4.137   1.996   0.980
 5324SOL    HW216872   4.047   2.105   0.897
 5325SOL     OW16873   5.026   0.681   4.701
 5325SOL    HW116874   5.034   0.774   4.735
 5325SOL    HW216875   5.038   0.680   4.602
 5326SOL     OW16876   0.366   5.191   3.643
 5326SOL    HW116877   0.321   5.212   3.557
 5326SOL    HW216878   0.446   5.251   3.654
 5327SOL     OW16879   5.607   2.920   5.085
 5327SOL    HW116880   5.645   2.907   5.177
 5327SOL    HW216881   5.663   2.871   5.019
 5328SOL     OW16882   4.657   2.822   5.396
 5328SOL    HW116883   4.701   2.907   5.369
 5328SOL    HW216884   4.590   2.795   5.328
 5329SOL     OW16885   6.577   4.804   6.601
 5329SOL    HW116886   6.505   4.868   6.574
 5329SOL    HW216887   6.581   4.729   6.534
 5330SOL     OW16888   3.339   4.053   5.493
 5330SOL    HW116889   3.431   4.092   5.496
 5330SOL    HW216890   3.285   4.101   5.424
 5331SOL     OW16891   4.782   1.119   0.744
 5331SOL    HW116892   4.780   1.216   0.768
 5331SOL    HW216893   4.704   1.072   0.786
 5332SOL     OW16894   0.514   3.792   1.381
 5332SOL    HW116895   0.590   3.852   1.356
 5332SOL    HW216896   0.446   3.845   1.432
 5333SOL     OW16897   0.994   1.240   3.326
 5333SOL    HW116898   1.016   1.143   3.313
 5333SOL    HW216899   1.056   1.280   3.393
 5334SOL     OW16900   4.169   0.097   4.013
 5334SOL    HW116901   4.141   0.145   4.097
 5334SOL    HW216902   4.101   0.113   3.942
 5335SOL     OW16903   6.118   5.622   2.290
 5335SOL    HW116904   6.097   5.627   2.192
 5335SOL    HW216905   6.060   5.554   2.334
 5336SOL     OW16906   2.647   2.096   3.156
 5336SOL    HW116907   2.611   2.041   3.231
 5336SOL    HW216908   2.735   2.059   3.127
 5337SOL     OW16909   5.228   3.869   1.882
 5337SOL    HW116910   5.268   3.821   1.804
 5337SOL    HW216911   5.282   3.951   1.901
 5338SOL     OW16912   5.855   1.221   5.671
 5338SOL    HW116913   5.830   1.124   5.664
 5338SOL    HW216914   5.912   1.235   5.752
 5339SOL     OW16915   6.620   2.160   4.097
 5339SOL    HW116916   6.537   2.194   4.054
 5339SOL    HW216917   6.692   2.150   4.028
 5340SOL     OW16918   5.410   2.320   0.762
 5340SOL    HW116919   5.396   2.386   0.836
 5340SOL    HW216920   5.425   2.229   0.800
 5341SOL     OW16921   3.758   4.235   6.375
 5341SOL    HW116922   3.673   4.285   6.359
 5341SOL    HW216923   3.749   4.143   6.337
 5342SOL     OW16924   3.962   6.969   3.641
 5342SOL    HW116925   3.869   6.958   3.608
 5342SOL    HW216926   4.019   7.010   3.569
 5343SOL     OW16927   3.742   3.407   4.607
 5343SOL    HW116928   3.841   3.411   4.592
 5343SOL    HW216929   3.721   3.334   4.672
 5344SOL     OW16930   1.851   2.115   1.958
 5344SOL    HW116931   1.915   2.067   1.898
 5344SOL    HW216932   1.885   2.207   1.976
 5345SOL     OW16933   3.225   6.703   0.483
 5345SOL    HW116934   3.141   6.753   0.463
 5345SOL    HW216935   3.212   6.647   0.564
 5346SOL     OW16936   3.451   5.868   4.389
 5346SOL    HW116937   3.487   5.776   4.374
 5346SOL    HW216938   3.511   5.935   4.346
 5347SOL     OW16939   6.766   2.985   1.620
 5347SOL    HW116940   6.850   3.016   1.663
 5347SOL    HW216941   6.781   2.973   1.522
 5348SOL     OW16942   6.696   1.969   1.069
 5348SOL    HW116943   6.754   1.948   1.148
 5348SOL    HW216944   6.694   2.068   1.055
 5349SOL     OW16945   1.781   2.700   0.365
 5349SOL    HW116946   1.771   2.773   0.297
 5349SOL    HW216947   1.875   2.699   0.400
 5350SOL     OW16948   1.640   6.876   5.518
 5350SOL    HW116949   1.668   6.787   5.480
 5350SOL    HW216950   1.664   6.879   5.615
 5351SOL     OW16951   6.633   5.095   2.125
 5351SOL    HW116952   6.683   5.159   2.067
 5351SOL    HW216953   6.602   5.017   2.070
 5352SOL     OW16954   2.362   5.007   3.216
 5352SOL    HW116955   2.366   4.917   3.261
 5352SOL    HW216956   2.283   5.058   3.251
 5353SOL     OW16957   3.774   4.852   4.396
 5353SOL    HW116958   3.843   4.798   4.444
 5353SOL    HW216959   3.744   4.927   4.454
 5354SOL     OW16960   2.482   5.013   1.915
 5354SOL    HW116961   2.478   5.015   2.015
 5354SOL    HW216962   2.529   4.929   1.886
 5355SOL     OW16963   6.918   4.169   4.217
 5355SOL    HW116964   6.825   4.156   4.252
 5355SOL    HW216965   6.939   4.098   4.149
 5356SOL     OW16966   5.784   4.642   2.443
 5356SOL    HW116967   5.815   4.552   2.474
 5356SOL    HW216968   5.847   4.712   2.475
 5357SOL     OW16969   3.333   6.018   0.309
 5357SOL    HW116970   3.405   5.958   0.343
 5357SOL    HW216971   3.256   5.964   0.277
 5358SOL     OW16972   4.723   1.285   6.902
 5358SOL    HW116973   4.685   1.240   6.822
 5358SOL    HW216974   4.801   1.233   6.936
 5359SOL     OW16975   1.282   1.436   5.498
 5359SOL    HW116976   1.313   1.473   5.410
 5359SOL    HW216977   1.195   1.478   5.523
 5360SOL     OW16978   4.037   6.215   4.309
 5360SOL    HW116979   3.990   6.277   4.372
 5360SOL    HW216980   4.104   6.161   4.359
 5361SOL     OW16981   2.629   0.818   5.207
 5361SOL    HW116982   2.543   0.869   5.218
 5361SOL    HW216983   2.700   0.880   5.174
 5362SOL     OW16984   6.691   6.278   3.182
 5362SOL    HW116985   6.683   6.269   3.083
 5362SOL    HW216986   6.693   6.375   3.206
 5363SOL     OW16987   0.076   0.310   5.818
 5363SOL    HW116988   0.128   0.370   5.879
 5363SOL    HW216989   0.133   0.283   5.741
 5364SOL     OW16990   6.636   6.375   2.625
 5364SOL    HW116991   6.605   6.470   2.625
 5364SOL    HW216992   6.734   6.371   2.603
 5365SOL     OW16993   3.768   2.784   0.332
 5365SOL    HW116994   3.795   2.873   0.295
 5365SOL    HW216995   3.849   2.727   0.344
 5366SOL     OW16996   5.770   5.852   1.481
 5366SOL    HW116997   5.825   5.855   1.565
 5366SOL    HW216998   5.830   5.861   1.402
 5367SOL     OW16999   0.526   6.682   0.971
 5367SOL    HW117000   0.617   6.643   0.953
 5367SOL    HW217001   0.458   6.636   0.914
 5368SOL     OW17002   5.832   0.664   2.589
 5368SOL    HW117003   5.788   0.707   2.668
 5368SOL    HW217004   5.809   0.567   2.587
 5369SOL     OW17005   2.845   6.757   1.332
 5369SOL    HW117006   2.772   6.705   1.377
 5369SOL    HW217007   2.881   6.824   1.397
 5370SOL     OW17008   4.536   2.436   1.603
 5370SOL    HW117009   4.499   2.344   1.591
 5370SOL    HW217010   4.625   2.442   1.559
 5371SOL     OW17011   0.667   3.771   5.161
 5371SOL    HW117012   0.577   3.753   5.122
 5371SOL    HW217013   0.683   3.869   5.165
 5372SOL     OW17014   1.946   6.309   3.249
 5372SOL    HW117015   1.853   6.343   3.236
 5372SOL    HW217016   1.954   6.267   3.339
 5373SOL     OW17017   3.730   6.882   4.341
 5373SOL    HW117018   3.693   6.823   4.270
 5373SOL    HW217019   3.826   6.902   4.321
 5374SOL     OW17020   1.982   4.239   0.472
 5374SOL    HW117021   2.028   4.163   0.517
 5374SOL    HW217022   2.022   4.254   0.382
 5375SOL     OW17023   0.833   5.429   4.178
 5375SOL    HW117024   0.763   5.409   4.246
 5375SOL    HW217025   0.795   5.490   4.108
 5376SOL     OW17026   1.715   2.657   1.021
 5376SOL    HW117027   1.648   2.731   1.020
 5376SOL    HW217028   1.800   2.689   1.063
 5377SOL     OW17029   6.626   6.869   2.470
 5377SOL    HW117030   6.710   6.816   2.474
 5377SOL    HW217031   6.627   6.927   2.389
 5378SOL     OW17032   0.055   0.526   2.298
 5378SOL    HW117033   0.024   0.620   2.283
 5378SOL    HW217034   0.124   0.525   2.372
 5379SOL     OW17035   1.133   4.757   4.821
 5379SOL    HW117036   1.084   4.792   4.742
 5379SOL    HW217037   1.126   4.822   4.897
 5380SOL     OW17038   2.751   1.334   2.487
 5380SOL    HW117039   2.791   1.250   2.452
 5380SOL    HW217040   2.753   1.405   2.416
 5381SOL     OW17041   6.438   4.651   2.084
 5381SOL    HW117042   6.399   4.597   2.159
 5381SOL    HW217043   6.514   4.601   2.042
 5382SOL     OW17044   2.769   1.283   1.667
 5382SOL    HW117045   2.797   1.202   1.616
 5382SOL    HW217046   2.833   1.299   1.742
 5383SOL     OW17047   2.064   2.167   4.975
 5383SOL    HW117048   2.147   2.158   5.030
 5383SOL    HW217049   2.023   2.257   4.991
 5384SOL     OW17050   6.232   6.483   5.511
 5384SOL    HW117051   6.159   6.467   5.444
 5384SOL    HW217052   6.289   6.559   5.482
 5385SOL     OW17053   3.341   3.285   4.134
 5385SOL    HW117054   3.350   3.379   4.100
 5385SOL    HW217055   3.244   3.262   4.144
 5386SOL     OW17056   5.188   1.667   4.342
 5386SOL    HW117057   5.148   1.703   4.426
 5386SOL    HW217058   5.284   1.693   4.336
 5387SOL     OW17059   2.337   0.347   3.502
 5387SOL    HW117060   2.393   0.264   3.503
 5387SOL    HW217061   2.255   0.331   3.448
 5388SOL     OW17062   0.229   1.846   4.061
 5388SOL    HW117063   0.183   1.855   3.973
 5388SOL    HW217064   0.211   1.755   4.099
 5389SOL     OW17065   4.190   1.341   3.672
 5389SOL    HW117066   4.159   1.411   3.608
 5389SOL    HW217067   4.234   1.267   3.621
 5390SOL     OW17068   4.756   4.010   3.560
 5390SOL    HW117069   4.669   4.037   3.520
 5390SOL    HW217070   4.782   3.919   3.526
 5391SOL     OW17071   2.135   1.952   0.887
 5391SOL    HW117072   2.064   2.010   0.928
 5391SOL    HW217073   2.220   1.962   0.939
 5392SOL     OW17074   5.203   3.552   1.305
 5392SOL    HW117075   5.238   3.557   1.399
 5392SOL    HW217076   5.155   3.637   1.283
 5393SOL     OW17077   4.656   6.731   5.838
 5393SOL    HW117078   4.595   6.792   5.787
 5393SOL    HW217079   4.602   6.673   5.900
 5394SOL     OW17080   0.519   5.325   0.291
 5394SOL    HW117081   0.451   5.262   0.328
 5394SOL    HW217082   0.590   5.341   0.360
 5395SOL     OW17083   4.123   0.896   1.412
 5395SOL    HW117084   4.051   0.901   1.482
 5395SOL    HW217085   4.087   0.850   1.331
 5396SOL     OW17086   5.295   4.194   1.562
 5396SOL    HW117087   5.237   4.214   1.641
 5396SOL    HW217088   5.372   4.258   1.561
 5397SOL     OW17089   0.351   3.021   1.240
 5397SOL    HW117090   0.304   2.949   1.188
 5397SOL    HW217091   0.320   3.019   1.335
 5398SOL     OW17092   3.631   2.013   3.146
 5398SOL    HW117093   3.563   2.031   3.218
 5398SOL    HW217094   3.634   1.916   3.126
 5399SOL     OW17095   2.799   6.098   1.250
 5399SOL    HW117096   2.780   6.119   1.346
 5399SOL    HW217097   2.882   6.144   1.221
 5400SOL     OW17098   3.143   3.649   6.791
 5400SOL    HW117099   3.126   3.608   6.701
 5400SOL    HW217100   3.121   3.746   6.787
 5401SOL     OW17101   5.711   3.867   1.641
 5401SOL    HW117102   5.696   3.786   1.584
 5401SOL    HW217103   5.658   3.943   1.605
 5402SOL     OW17104   2.565   5.741   1.987
 5402SOL    HW117105   2.594   5.681   2.062
 5402SOL    HW217106   2.530   5.686   1.911
 5403SOL     OW17107   5.585   2.459   6.101
 5403SOL    HW117108   5.516   2.489   6.036
 5403SOL    HW217109   5.546   2.392   6.164
 5404SOL     OW17110   0.720   0.443   2.492
 5404SOL    HW117111   0.672   0.491   2.418
 5404SOL    HW217112   0.818   0.449   2.478
 5405SOL     OW17113   6.034   6.165   0.153
 5405SOL    HW117114   6.133   6.149   0.156
 5405SOL    HW217115   5.993   6.136   0.240
 5406SOL     OW17116   2.300   0.172   5.748
 5406SOL    HW117117   2.334   0.224   5.669
 5406SOL    HW217118   2.200   0.175   5.749
 5407SOL     OW17119   3.788   1.631   1.620
 5407SOL    HW117120   3.774   1.642   1.522
 5407SOL    HW217121   3.879   1.664   1.645
 5408SOL     OW17122   3.303   1.025   5.191
 5408SOL    HW117123   3.239   1.091   5.151
 5408SOL    HW217124   3.258   0.978   5.267
 5409SOL     OW17125   6.800   1.772   3.562
 5409SOL    HW117126   6.804   1.815   3.472
 5409SOL    HW217127   6.755   1.834   3.627
 5410SOL     OW17128   1.067   3.024   6.876
 5410SOL    HW117129   1.031   2.953   6.816
 5410SOL    HW217130   1.136   3.077   6.828
 5411SOL     OW17131   5.911   4.601   5.471
 5411SOL    HW117132   5.982   4.540   5.435
 5411SOL    HW217133   5.916   4.689   5.423
 5412SOL     OW17134   3.696   0.999   6.758
 5412SOL    HW117135   3.670   0.902   6.764
 5412SOL    HW217136   3.768   1.018   6.824
 5413SOL     OW17137   0.711   0.379   1.457
 5413SOL    HW117138   0.751   0.309   1.515
 5413SOL    HW217139   0.749   0.469   1.481
 5414SOL     OW17140   6.951   3.239   5.504
 5414SOL    HW117141   0.012   3.185   5.480
 5414SOL    HW217142   6.889   3.243   5.425
 5415SOL     OW17143   1.106   6.116   1.764
 5415SOL    HW117144   1.136   6.029   1.726
 5415SOL    HW217145   1.180   6.155   1.821
 5416SOL     OW17146   3.442   4.765   6.428
 5416SOL    HW117147   3.495   4.844   6.397
 5416SOL    HW217148   3.473   4.684   6.378
 5417SOL     OW17149   4.576   6.978   4.330
 5417SOL    HW117150   4.656   6.960   4.274
 5417SOL    HW217151   4.493   6.970   4.275
 5418SOL     OW17152   5.271   0.818   4.321
 5418SOL    HW117153   5.251   0.855   4.412
 5418SOL    HW217154   5.281   0.894   4.256
 5419SOL     OW17155   3.118   5.367   0.560
 5419SOL    HW117156   3.082   5.458   0.542
 5419SOL    HW217157   3.153   5.363   0.654
 5420SOL     OW17158   1.876   2.894   1.843
 5420SOL    HW117159   1.967   2.931   1.823
 5420SOL    HW217160   1.828   2.879   1.757
 5421SOL     OW17161   2.381   4.334   3.235
 5421SOL    HW117162   2.287   4.351   3.206
 5421SOL    HW217163   2.440   4.325   3.154
 5422SOL     OW17164   1.228   6.042   5.619
 5422SOL    HW117165   1.232   6.013   5.714
 5422SOL    HW217166   1.301   6.107   5.600
 5423SOL     OW17167   5.393   3.460   6.616
 5423SOL    HW117168   5.461   3.474   6.687
 5423SOL    HW217169   5.346   3.546   6.597
 5424SOL     OW17170   6.005   3.512   4.105
 5424SOL    HW117171   6.046   3.576   4.170
 5424SOL    HW217172   5.907   3.531   4.095
 5425SOL     OW17173   5.467   1.685   4.331
 5425SOL    HW117174   5.509   1.755   4.272
 5425SOL    HW217175   5.459   1.721   4.424
 5426SOL     OW17176   6.308   5.073   3.959
 5426SOL    HW117177   6.364   5.142   3.913
 5426SOL    HW217178   6.227   5.053   3.903
 5427SOL     OW17179   5.326   5.115   0.805
 5427SOL    HW117180   5.307   5.075   0.895
 5427SOL    HW217181   5.411   5.167   0.809
 5428SOL     OW17182   6.193   6.967   2.338
 5428SOL    HW117183   6.203   6.873   2.304
 5428SOL    HW217184   6.108   7.006   2.304
 5429SOL     OW17185   1.544   0.854   5.057
 5429SOL    HW117186   1.476   0.926   5.068
 5429SOL    HW217187   1.577   0.825   5.146
 5430SOL     OW17188   2.410   2.550   5.827
 5430SOL    HW117189   2.497   2.543   5.876
 5430SOL    HW217190   2.345   2.603   5.881
 5431SOL     OW17191   3.460   5.105   6.869
 5431SOL    HW117192   3.483   5.077   6.962
 5431SOL    HW217193   3.541   5.096   6.810
 5432SOL     OW17194   3.833   6.005   5.629
 5432SOL    HW117195   3.825   6.041   5.722
 5432SOL    HW217196   3.907   5.937   5.626
 5433SOL     OW17197   0.207   1.703   2.535
 5433SOL    HW117198   0.225   1.706   2.436
 5433SOL    HW217199   0.165   1.616   2.559
 5434SOL     OW17200   4.316   1.565   4.900
 5434SOL    HW117201   4.274   1.565   4.809
 5434SOL    HW217202   4.342   1.658   4.924
 5435SOL     OW17203   6.219   1.992   1.094
 5435SOL    HW117204   6.166   2.067   1.055
 5435SOL    HW217205   6.304   2.027   1.133
 5436SOL     OW17206   5.545   4.411   4.567
 5436SOL    HW117207   5.447   4.390   4.561
 5436SOL    HW217208   5.597   4.343   4.516
 5437SOL     OW17209   2.556   5.218   5.491
 5437SOL    HW117210   2.637   5.222   5.432
 5437SOL    HW217211   2.550   5.128   5.534
 5438SOL     OW17212   5.970   3.917   2.600
 5438SOL    HW117213   5.891   3.864   2.632
 5438SOL    HW217214   6.052   3.860   2.602
 5439SOL     OW17215   6.860   2.121   0.395
 5439SOL    HW117216   6.817   2.174   0.468
 5439SOL    HW217217   6.894   2.183   0.325
 5440SOL     OW17218   6.929   0.337   3.163
 5440SOL    HW117219   6.914   0.307   3.257
 5440SOL    HW217220   6.842   0.369   3.124
 5441SOL     OW17221   4.788   2.761   3.609
 5441SOL    HW117222   4.699   2.734   3.572
 5441SOL    HW217223   4.840   2.680   3.633
 5442SOL     OW17224   3.297   6.509   3.619
 5442SOL    HW117225   3.198   6.510   3.610
 5442SOL    HW217226   3.329   6.596   3.657
 5443SOL     OW17227   3.107   5.860   3.974
 5443SOL    HW117228   3.129   5.771   4.014
 5443SOL    HW217229   3.191   5.905   3.944
 5444SOL     OW17230   0.306   1.218   2.927
 5444SOL    HW117231   0.366   1.296   2.943
 5444SOL    HW217232   0.356   1.147   2.878
 5445SOL     OW17233   6.606   4.112   3.716
 5445SOL    HW117234   6.690   4.152   3.678
 5445SOL    HW217235   6.602   4.016   3.691
 5446SOL     OW17236   5.672   5.131   4.606
 5446SOL    HW117237   5.611   5.167   4.537
 5446SOL    HW217238   5.659   5.180   4.692
 5447SOL     OW17239   1.113   1.914   0.931
 5447SOL    HW117240   1.102   1.903   1.030
 5447SOL    HW217241   1.103   1.825   0.886
 5448SOL     OW17242   6.072   4.024   4.353
 5448SOL    HW117243   6.048   4.077   4.271
 5448SOL    HW217244   6.017   4.054   4.430
 5449SOL     OW17245   1.423   1.569   0.803
 5449SOL    HW117246   1.465   1.637   0.863
 5449SOL    HW217247   1.486   1.491   0.792
 5450SOL     OW17248   2.658   7.009   1.345
 5450SOL    HW117249   2.712   6.927   1.326
 5450SOL    HW217250   2.719   0.068   1.349
 5451SOL     OW17251   2.207   5.614   3.608
 5451SOL    HW117252   2.151   5.532   3.623
 5451SOL    HW217253   2.152   5.682   3.559
 5452SOL     OW17254   2.635   4.309   0.384
 5452SOL    HW117255   2.610   4.242   0.315
 5452SOL    HW217256   2.688   4.265   0.457
 5453SOL     OW17257   5.471   4.270   1.214
 5453SOL    HW117258   5.507   4.350   1.261
 5453SOL    HW217259   5.546   4.222   1.168
 5454SOL     OW17260   5.898   5.056   5.267
 5454SOL    HW117261   5.915   4.967   5.309
 5454SOL    HW217262   5.937   5.128   5.324
 5455SOL     OW17263   6.843   2.315   2.614
 5455SOL    HW117264   6.849   2.240   2.680
 5455SOL    HW217265   6.915   2.306   2.546
 5456SOL     OW17266   2.599   0.126   0.266
 5456SOL    HW117267   2.534   0.142   0.192
 5456SOL    HW217268   2.553   0.137   0.354
 5457SOL     OW17269   0.223   2.187   1.410
 5457SOL    HW117270   0.249   2.094   1.438
 5457SOL    HW217271   0.130   2.186   1.374
 5458SOL     OW17272   0.366   5.162   0.444
 5458SOL    HW117273   0.304   5.191   0.518
 5458SOL    HW217274   0.345   5.067   0.419
 5459SOL     OW17275   2.856   3.520   6.785
 5459SOL    HW117276   2.758   3.500   6.796
 5459SOL    HW217277   2.872   3.561   6.696
 5460SOL     OW17278   4.027   6.600   2.907
 5460SOL    HW117279   3.980   6.647   2.981
 5460SOL    HW217280   4.012   6.501   2.915
 5461SOL     OW17281   0.635   0.718   5.842
 5461SOL    HW117282   0.593   0.801   5.879
 5461SOL    HW217283   0.701   0.681   5.908
 5462SOL     OW17284   6.344   6.921   1.288
 5462SOL    HW117285   6.264   6.926   1.348
 5462SOL    HW217286   6.357   7.009   1.241
 5463SOL     OW17287   0.203   1.588   6.819
 5463SOL    HW117288   0.182   1.513   6.881
 5463SOL    HW217289   0.194   1.556   6.725
 5464SOL     OW17290   6.896   0.321   4.644
 5464SOL    HW117291   6.935   0.311   4.552
 5464SOL    HW217292   6.912   0.415   4.676
 5465SOL     OW17293   4.915   1.133   4.723
 5465SOL    HW117294   4.944   1.060   4.785
 5465SOL    HW217295   4.986   1.203   4.719
 5466SOL     OW17296   5.470   3.066   4.875
 5466SOL    HW117297   5.411   3.031   4.949
 5466SOL    HW217298   5.558   3.019   4.878
 5467SOL     OW17299   4.880   4.240   3.440
 5467SOL    HW117300   4.906   4.203   3.351
 5467SOL    HW217301   4.845   4.166   3.498
 5468SOL     OW17302   6.680   2.608   3.906
 5468SOL    HW117303   6.627   2.605   3.991
 5468SOL    HW217304   6.666   2.695   3.860
 5469SOL     OW17305   3.167   6.274   5.498
 5469SOL    HW117306   3.246   6.216   5.480
 5469SOL    HW217307   3.185   6.367   5.466
 5470SOL     OW17308   3.865   5.264   2.908
 5470SOL    HW117309   3.852   5.299   3.000
 5470SOL    HW217310   3.962   5.254   2.889
 5471SOL     OW17311   6.062   0.009   3.150
 5471SOL    HW117312   6.044   0.055   3.063
 5471SOL    HW217313   6.029   0.065   3.225
 5472SOL     OW17314   2.423   4.221   6.800
 5472SOL    HW117315   2.397   4.317   6.798
 5472SOL    HW217316   2.343   4.165   6.779
 5473SOL     OW17317   1.317   3.695   1.913
 5473SOL    HW117318   1.381   3.701   1.989
 5473SOL    HW217319   1.306   3.599   1.886
 5474SOL     OW17320   0.909   4.567   3.800
 5474SOL    HW117321   0.827   4.624   3.801
 5474SOL    HW217322   0.925   4.531   3.892
 5475SOL     OW17323   2.378   2.858   0.875
 5475SOL    HW117324   2.309   2.902   0.818
 5475SOL    HW217325   2.357   2.760   0.883
 5476SOL     OW17326   2.444   4.195   5.428
 5476SOL    HW117327   2.416   4.100   5.438
 5476SOL    HW217328   2.398   4.235   5.349
 5477SOL     OW17329   2.310   4.759   2.116
 5477SOL    HW117330   2.214   4.782   2.127
 5477SOL    HW217331   2.319   4.684   2.050
 5478SOL     OW17332   2.878   6.237   4.260
 5478SOL    HW117333   2.837   6.277   4.178
 5478SOL    HW217334   2.921   6.150   4.237
 5479SOL     OW17335   5.690   0.795   6.399
 5479SOL    HW117336   5.762   0.748   6.348
 5479SOL    HW217337   5.648   0.731   6.464
 5480SOL     OW17338   5.485   5.496   4.464
 5480SOL    HW117339   5.474   5.400   4.437
 5480SOL    HW217340   5.467   5.556   4.386
 5481SOL     OW17341   4.712   1.519   4.680
 5481SOL    HW117342   4.743   1.598   4.733
 5481SOL    HW217343   4.639   1.472   4.730
 5482SOL     OW17344   3.561   4.320   1.723
 5482SOL    HW117345   3.570   4.413   1.758
 5482SOL    HW217346   3.548   4.322   1.624
 5483SOL     OW17347   6.846   2.249   5.455
 5483SOL    HW117348   6.804   2.295   5.377
 5483SOL    HW217349   6.943   2.233   5.437
 5484SOL     OW17350   4.222   0.998   3.866
 5484SOL    HW117351   4.210   1.086   3.913
 5484SOL    HW217352   4.136   0.948   3.867
 5485SOL     OW17353   4.203   0.039   4.449
 5485SOL    HW117354   4.189   6.970   4.492
 5485SOL    HW217355   4.261   0.096   4.508
 5486SOL     OW17356   2.572   6.165   5.101
 5486SOL    HW117357   2.583   6.190   5.197
 5486SOL    HW217358   2.650   6.200   5.049
 5487SOL     OW17359   5.480   2.724   6.794
 5487SOL    HW117360   5.531   2.712   6.879
 5487SOL    HW217361   5.544   2.734   6.717
 5488SOL     OW17362   6.140   0.228   1.388
 5488SOL    HW117363   6.113   0.319   1.358
 5488SOL    HW217364   6.207   0.190   1.325
 5489SOL     OW17365   0.262   4.397   1.864
 5489SOL    HW117366   0.243   4.494   1.860
 5489SOL    HW217367   0.330   4.379   1.936
 5490SOL     OW17368   3.175   0.381   1.832
 5490SOL    HW117369   3.147   0.358   1.925
 5490SOL    HW217370   3.095   0.377   1.771
 5491SOL     OW17371   0.939   4.108   0.840
 5491SOL    HW117372   0.990   4.028   0.810
 5491SOL    HW217373   0.879   4.082   0.916
 5492SOL     OW17374   0.346   3.596   6.110
 5492SOL    HW117375   0.309   3.589   6.203
 5492SOL    HW217376   0.384   3.687   6.096
 5493SOL     OW17377   3.067   3.873   4.257
 5493SOL    HW117378   3.117   3.959   4.270
 5493SOL    HW217379   3.037   3.867   4.161
 5494SOL     OW17380   0.605   3.280   5.982
 5494SOL    HW117381   0.689   3.256   5.933
 5494SOL    HW217382   0.608   3.240   6.074
 5495SOL     OW17383   4.494   1.142   1.082
 5495SOL    HW117384   4.478   1.240   1.094
 5495SOL    HW217385   4.438   1.091   1.147
 5496SOL     OW17386   4.071   0.955   3.417
 5496SOL    HW117387   3.981   0.963   3.375
 5496SOL    HW217388   4.067   0.889   3.492
 5497SOL     OW17389   0.032   1.102   5.027
 5497SOL    HW117390   0.104   1.034   5.030
 5497SOL    HW217391   0.072   1.193   5.012
 5498SOL     OW17392   6.520   6.180   0.986
 5498SOL    HW117393   6.449   6.217   1.046
 5498SOL    HW217394   6.500   6.084   0.966
 5499SOL     OW17395   0.461   0.685   4.658
 5499SOL    HW117396   0.451   0.666   4.756
 5499SOL    HW217397   0.528   0.623   4.619
 5500SOL     OW17398   0.955   0.383   0.352
 5500SOL    HW117399   1.012   0.334   0.287
 5500SOL    HW217400   0.859   0.360   0.336
 5501SOL     OW17401   3.025   1.612   0.232
 5501SOL    HW117402   3.029   1.554   0.150
 5501SOL    HW217403   3.108   1.667   0.238
 5502SOL     OW17404   5.125   3.696   0.008
 5502SOL    HW117405   5.171   3.781   0.035
 5502SOL    HW217406   5.048   3.679   0.068
 5503SOL     OW17407   0.032   4.264   1.913
 5503SOL    HW117408   0.013   4.220   1.825
 5503SOL    HW217409   0.113   4.322   1.905
 5504SOL     OW17410   4.867   1.566   5.575
 5504SOL    HW117411   4.874   1.653   5.526
 5504SOL    HW217412   4.777   1.526   5.559
 5505SOL     OW17413   2.189   5.240   4.470
 5505SOL    HW117414   2.242   5.297   4.408
 5505SOL    HW217415   2.112   5.200   4.421
 5506SOL     OW17416   0.682   3.836   0.652
 5506SOL    HW117417   0.606   3.894   0.623
 5506SOL    HW217418   0.685   3.754   0.596
 5507SOL     OW17419   4.110   1.053   4.311
 5507SOL    HW117420   4.195   1.102   4.329
 5507SOL    HW217421   4.121   0.957   4.337
 5508SOL     OW17422   1.007   1.341   0.109
 5508SOL    HW117423   1.021   1.251   0.150
 5508SOL    HW217424   0.913   1.371   0.124
 5509SOL     OW17425   0.330   6.148   6.580
 5509SOL    HW117426   0.325   6.248   6.574
 5509SOL    HW217427   0.412   6.115   6.533
 5510SOL     OW17428   4.534   5.728   0.518
 5510SOL    HW117429   4.573   5.720   0.610
 5510SOL    HW217430   4.604   5.705   0.450
 5511SOL     OW17431   1.389   0.860   3.574
 5511SOL    HW117432   1.469   0.829   3.625
 5511SOL    HW217433   1.341   0.781   3.536
 5512SOL     OW17434   5.079   2.348   0.888
 5512SOL    HW117435   4.988   2.359   0.848
 5512SOL    HW217436   5.077   2.273   0.954
 5513SOL     OW17437   3.656   4.518   6.036
 5513SOL    HW117438   3.651   4.449   5.964
 5513SOL    HW217439   3.752   4.540   6.054
 5514SOL     OW17440   3.946   0.168   4.268
 5514SOL    HW117441   4.043   0.194   4.275
 5514SOL    HW217442   3.891   0.228   4.326
 5515SOL     OW17443   0.672   5.689   2.070
 5515SOL    HW117444   0.675   5.726   2.163
 5515SOL    HW217445   0.730   5.608   2.064
 5516SOL     OW17446   1.716   3.684   6.117
 5516SOL    HW117447   1.648   3.613   6.104
 5516SOL    HW217448   1.672   3.767   6.152
 5517SOL     OW17449   2.104   3.223   2.048
 5517SOL    HW117450   2.026   3.254   2.103
 5517SOL    HW217451   2.153   3.303   2.012
 5518SOL     OW17452   5.948   6.211   6.915
 5518SOL    HW117453   6.032   6.246   6.872
 5518SOL    HW217454   5.963   6.201   7.013
 5519SOL     OW17455   5.754   3.780   3.168
 5519SOL    HW117456   5.731   3.838   3.246
 5519SOL    HW217457   5.849   3.750   3.177
 5520SOL     OW17458   6.209   6.704   2.290
 5520SOL    HW117459   6.280   6.633   2.288
 5520SOL    HW217460   6.159   6.703   2.203
 5521SOL     OW17461   5.434   6.499   2.230
 5521SOL    HW117462   5.414   6.510   2.327
 5521SOL    HW217463   5.405   6.581   2.180
 5522SOL     OW17464   5.867   5.188   0.522
 5522SOL    HW117465   5.909   5.261   0.577
 5522SOL    HW217466   5.829   5.227   0.438
 5523SOL     OW17467   3.925   1.302   2.033
 5523SOL    HW117468   3.915   1.338   2.125
 5523SOL    HW217469   3.977   1.367   1.977
 5524SOL     OW17470   4.685   0.453   4.148
 5524SOL    HW117471   4.651   0.484   4.059
 5524SOL    HW217472   4.679   0.528   4.214
 5525SOL     OW17473   0.226   2.296   0.546
 5525SOL    HW117474   0.172   2.231   0.494
 5525SOL    HW217475   0.281   2.352   0.484
 5526SOL     OW17476   4.694   5.531   3.197
 5526SOL    HW117477   4.690   5.621   3.240
 5526SOL    HW217478   4.739   5.538   3.108
 5527SOL     OW17479   5.002   3.309   4.017
 5527SOL    HW117480   5.013   3.238   3.947
 5527SOL    HW217481   4.932   3.281   4.082
 5528SOL     OW17482   1.000   0.798   0.326
 5528SOL    HW117483   0.912   0.764   0.358
 5528SOL    HW217484   1.032   0.741   0.249
 5529SOL     OW17485   3.827   0.011   4.088
 5529SOL    HW117486   3.728   0.010   4.103
 5529SOL    HW217487   3.871   0.067   4.159
 5530SOL     OW17488   5.427   2.081   0.903
 5530SOL    HW117489   5.512   2.031   0.923
 5530SOL    HW217490   5.359   2.063   0.974
 5531SOL     OW17491   3.593   3.686   2.099
 5531SOL    HW117492   3.665   3.651   2.039
 5531SOL    HW217493   3.594   3.786   2.097
 5532SOL     OW17494   1.052   3.481   0.986
 5532SOL    HW117495   1.129   3.482   1.050
 5532SOL    HW217496   1.067   3.410   0.917
 5533SOL     OW17497   4.031   2.223   2.918
 5533SOL    HW117498   4.098   2.174   2.975
 5533SOL    HW217499   3.941   2.180   2.929
 5534SOL     OW17500   0.773   1.659   6.640
 5534SOL    HW117501   0.771   1.690   6.544
 5534SOL    HW217502   0.811   1.566   6.644
 5535SOL     OW17503   0.492   2.458   3.454
 5535SOL    HW117504   0.508   2.368   3.414
 5535SOL    HW217505   0.555   2.472   3.531
 5536SOL     OW17506   3.622   1.293   3.917
 5536SOL    HW117507   3.651   1.373   3.969
 5536SOL    HW217508   3.522   1.287   3.917
 5537SOL     OW17509   2.674   1.329   2.088
 5537SOL    HW117510   2.725   1.391   2.029
 5537SOL    HW217511   2.578   1.357   2.090
 5538SOL     OW17512   2.786   5.681   5.226
 5538SOL    HW117513   2.790   5.605   5.161
 5538SOL    HW217514   2.761   5.765   5.177
 5539SOL     OW17515   1.007   3.751   1.713
 5539SOL    HW117516   0.932   3.817   1.718
 5539SOL    HW217517   1.079   3.787   1.654
 5540SOL     OW17518   4.595   4.450   3.943
 5540SOL    HW117519   4.681   4.477   3.900
 5540SOL    HW217520   4.597   4.353   3.965
 5541SOL     OW17521   5.202   6.775   6.340
 5541SOL    HW117522   5.162   6.783   6.249
 5541SOL    HW217523   5.142   6.819   6.407
 5542SOL     OW17524   4.623   3.531   6.051
 5542SOL    HW117525   4.706   3.572   6.090
 5542SOL    HW217526   4.548   3.597   6.055
 5543SOL     OW17527   3.283   4.035   6.304
 5543SOL    HW117528   3.211   4.017   6.371
 5543SOL    HW217529   3.242   4.076   6.222
 5544SOL     OW17530   5.184   5.433   0.072
 5544SOL    HW117531   5.180   5.364   0.145
 5544SOL    HW217532   5.149   5.520   0.106
 5545SOL     OW17533   4.815   1.127   2.325
 5545SOL    HW117534   4.868   1.172   2.397
 5545SOL    HW217535   4.720   1.156   2.331
 5546SOL     OW17536   0.385   4.481   4.213
 5546SOL    HW117537   0.483   4.470   4.198
 5546SOL    HW217538   0.370   4.559   4.274
 5547SOL     OW17539   3.075   6.915   5.068
 5547SOL    HW117540   3.086   6.940   5.164
 5547SOL    HW217541   3.080   6.816   5.059
 5548SOL     OW17542   6.433   2.212   5.571
 5548SOL    HW117543   6.525   2.207   5.609
 5548SOL    HW217544   6.366   2.187   5.640
 5549SOL     OW17545   4.962   4.903   6.726
 5549SOL    HW117546   4.959   4.951   6.638
 5549SOL    HW217547   4.929   4.964   6.798
 5550SOL     OW17548   3.145   5.293   2.445
 5550SOL    HW117549   3.237   5.255   2.458
 5550SOL    HW217550   3.085   5.223   2.406
 5551SOL     OW17551   2.137   0.576   2.491
 5551SOL    HW117552   2.066   0.543   2.428
 5551SOL    HW217553   2.128   0.675   2.501
 5552SOL     OW17554   6.755   0.574   7.007
 5552SOL    HW117555   6.746   0.661   0.035
 5552SOL    HW217556   6.665   0.534   6.993
 5553SOL     OW17557   3.700   6.798   0.339
 5553SOL    HW117558   3.619   6.748   0.371
 5553SOL    HW217559   3.695   6.811   0.240
 5554SOL     OW17560   3.060   1.883   4.941
 5554SOL    HW117561   2.985   1.829   4.904
 5554SOL    HW217562   3.026   1.944   5.012
 5555SOL     OW17563   0.316   4.463   3.900
 5555SOL    HW117564   0.286   4.451   3.995
 5555SOL    HW217565   0.236   4.478   3.842
 5556SOL     OW17566   0.174   2.476   4.282
 5556SOL    HW117567   0.133   2.408   4.344
 5556SOL    HW217568   0.268   2.449   4.262
 5557SOL     OW17569   3.815   5.007   3.061
 5557SOL    HW117570   3.802   4.946   2.982
 5557SOL    HW217571   3.820   5.102   3.029
 5558SOL     OW17572   5.199   3.485   6.091
 5558SOL    HW117573   5.139   3.459   6.166
 5558SOL    HW217574   5.283   3.430   6.094
 5559SOL     OW17575   2.385   6.729   2.478
 5559SOL    HW117576   2.401   6.783   2.396
 5559SOL    HW217577   2.472   6.701   2.517
 5560SOL     OW17578   0.581   6.694   3.680
 5560SOL    HW117579   0.481   6.701   3.685
 5560SOL    HW217580   0.623   6.772   3.726
 5561SOL     OW17581   2.439   1.542   4.184
 5561SOL    HW117582   2.372   1.538   4.110
 5561SOL    HW217583   2.530   1.557   4.146
 5562SOL     OW17584   2.071   2.645   6.996
 5562SOL    HW117585   2.113   2.725   0.019
 5562SOL    HW217586   2.143   2.583   6.964
 5563SOL     OW17587   4.851   6.487   2.288
 5563SOL    HW117588   4.768   6.479   2.234
 5563SOL    HW217589   4.863   6.403   2.343
 5564SOL     OW17590   4.723   2.158   1.435
 5564SOL    HW117591   4.681   2.123   1.518
 5564SOL    HW217592   4.652   2.176   1.367
 5565SOL     OW17593   4.634   1.368   5.965
 5565SOL    HW117594   4.618   1.405   6.056
 5565SOL    HW217595   4.601   1.432   5.896
 5566SOL     OW17596   1.895   5.568   1.302
 5566SOL    HW117597   1.916   5.514   1.383
 5566SOL    HW217598   1.969   5.559   1.236
 5567SOL     OW17599   0.749   4.727   1.313
 5567SOL    HW117600   0.804   4.649   1.342
 5567SOL    HW217601   0.775   4.807   1.367
 5568SOL     OW17602   5.040   2.770   2.426
 5568SOL    HW117603   5.045   2.672   2.407
 5568SOL    HW217604   4.953   2.790   2.471
 5569SOL     OW17605   3.596   1.843   1.685
 5569SOL    HW117606   3.510   1.792   1.684
 5569SOL    HW217607   3.666   1.792   1.636
 5570SOL     OW17608   5.984   4.607   4.725
 5570SOL    HW117609   5.920   4.562   4.787
 5570SOL    HW217610   6.016   4.541   4.656
 5571SOL     OW17611   0.409   6.505   6.809
 5571SOL    HW117612   0.431   6.417   6.850
 5571SOL    HW217613   0.450   6.578   6.863
 5572SOL     OW17614   2.327   3.004   6.240
 5572SOL    HW117615   2.308   2.990   6.143
 5572SOL    HW217616   2.326   3.101   6.261
 5573SOL     OW17617   0.689   3.205   0.193
 5573SOL    HW117618   0.780   3.231   0.160
 5573SOL    HW217619   0.630   3.183   0.116
 5574SOL     OW17620   0.182   1.134   4.359
 5574SOL    HW117621   0.107   1.165   4.301
 5574SOL    HW217622   0.260   1.196   4.348
 5575SOL     OW17623   1.420   0.717   1.954
 5575SOL    HW117624   1.477   0.663   1.892
 5575SOL    HW217625   1.394   0.803   1.910
 5576SOL     OW17626   6.494   5.978   1.778
 5576SOL    HW117627   6.419   5.995   1.714
 5576SOL    HW217628   6.456   5.949   1.866
 5577SOL     OW17629   2.859   2.704   6.076
 5577SOL    HW117630   2.776   2.648   6.076
 5577SOL    HW217631   2.939   2.646   6.087
 5578SOL     OW17632   4.088   2.901   1.039
 5578SOL    HW117633   4.097   2.863   1.131
 5578SOL    HW217634   4.010   2.859   0.993
 5579SOL     OW17635   6.523   3.704   5.948
 5579SOL    HW117636   6.528   3.708   6.048
 5579SOL    HW217637   6.435   3.668   5.920
 5580SOL     OW17638   4.910   1.692   6.999
 5580SOL    HW117639   4.878   1.725   6.910
 5580SOL    HW217640   4.852   1.616   0.009
 5581SOL     OW17641   2.505   0.083   1.035
 5581SOL    HW117642   2.429   0.057   0.976
 5581SOL    HW217643   2.483   0.061   1.130
 5582SOL     OW17644   3.432   3.211   3.900
 5582SOL    HW117645   3.400   3.119   3.878
 5582SOL    HW217646   3.403   3.236   3.992
 5583SOL     OW17647   4.285   6.804   2.512
 5583SOL    HW117648   4.240   6.820   2.424
 5583SOL    HW217649   4.216   6.777   2.580
 5584SOL     OW17650   5.263   4.095   4.173
 5584SOL    HW117651   5.325   4.169   4.200
 5584SOL    HW217652   5.186   4.092   4.237
 5585SOL     OW17653   5.352   0.656   4.101
 5585SOL    HW117654   5.445   0.631   4.129
 5585SOL    HW217655   5.304   0.697   4.178
 5586SOL     OW17656   1.260   2.385   6.782
 5586SOL    HW117657   1.219   2.475   6.767
 5586SOL    HW217658   1.203   2.332   6.844
 5587SOL     OW17659   4.150   6.592   2.124
 5587SOL    HW117660   4.184   6.527   2.192
 5587SOL    HW217661   4.178   6.685   2.150
 5588SOL     OW17662   1.610   6.558   4.422
 5588SOL    HW117663   1.589   6.499   4.500
 5588SOL    HW217664   1.691   6.612   4.442
 5589SOL     OW17665   5.006   2.962   6.710
 5589SOL    HW117666   5.085   2.986   6.653
 5589SOL    HW217667   5.036   2.951   6.804
 5590SOL     OW17668   6.846   5.420   2.948
 5590SOL    HW117669   6.839   5.465   2.860
 5590SOL    HW217670   6.764   5.365   2.965
 5591SOL     OW17671   5.795   0.133   6.833
 5591SOL    HW117672   5.702   0.152   6.803
 5591SOL    HW217673   5.860   0.179   6.773
 5592SOL     OW17674   2.225   3.954   2.772
 5592SOL    HW117675   2.209   4.037   2.825
 5592SOL    HW217676   2.307   3.908   2.807
 5593SOL     OW17677   6.737   2.814   5.816
 5593SOL    HW117678   6.739   2.908   5.852
 5593SOL    HW217679   6.811   2.802   5.750
 5594SOL     OW17680   2.210   1.617   0.055
 5594SOL    HW117681   2.182   1.712   0.065
 5594SOL    HW217682   2.251   1.603   6.985
 5595SOL     OW17683   6.557   0.362   5.497
 5595SOL    HW117684   6.469   0.347   5.543
 5595SOL    HW217685   6.580   0.281   5.443
 5596SOL     OW17686   5.685   0.059   3.337
 5596SOL    HW117687   5.657   6.995   3.385
 5596SOL    HW217688   5.631   0.069   3.254
 5597SOL     OW17689   5.284   2.791   5.342
 5597SOL    HW117690   5.231   2.850   5.403
 5597SOL    HW217691   5.330   2.720   5.396
 5598SOL     OW17692   5.214   2.248   3.808
 5598SOL    HW117693   5.115   2.259   3.806
 5598SOL    HW217694   5.257   2.323   3.758
 5599SOL     OW17695   5.664   3.932   2.209
 5599SOL    HW117696   5.671   3.869   2.132
 5599SOL    HW217697   5.569   3.940   2.238
 5600SOL     OW17698   2.504   0.277   2.788
 5600SOL    HW117699   2.537   0.183   2.787
 5600SOL    HW217700   2.411   0.280   2.753
 5601SOL     OW17701   4.460   2.805   6.044
 5601SOL    HW117702   4.484   2.720   5.997
 5601SOL    HW217703   4.408   2.863   5.982
 5602SOL     OW17704   0.245   1.598   3.141
 5602SOL    HW117705   0.274   1.619   3.235
 5602SOL    HW217706   0.233   1.499   3.131
 5603SOL     OW17707   4.451   2.631   5.117
 5603SOL    HW117708   4.435   2.688   5.036
 5603SOL    HW217709   4.549   2.620   5.130
 5604SOL     OW17710   0.989   1.363   4.443
 5604SOL    HW117711   0.910   1.417   4.471
 5604SOL    HW217712   0.986   1.273   4.486
 5605SOL     OW17713   1.125   0.514   5.255
 5605SOL    HW117714   1.054   0.458   5.297
 5605SOL    HW217715   1.084   0.582   5.194
 5606SOL     OW17716   4.095   1.484   0.492
 5606SOL    HW117717   4.069   1.394   0.458
 5606SOL    HW217718   4.025   1.516   0.556
 5607SOL     OW17719   6.022   2.213   3.043
 5607SOL    HW117720   5.943   2.261   3.003
 5607SOL    HW217721   5.989   2.134   3.094
 5608SOL     OW17722   6.401   0.933   3.018
 5608SOL    HW117723   6.452   0.852   3.049
 5608SOL    HW217724   6.317   0.940   3.071
 5609SOL     OW17725   4.646   6.521   0.687
 5609SOL    HW117726   4.707   6.443   0.701
 5609SOL    HW217727   4.688   6.604   0.725
 5610SOL     OW17728   5.675   3.928   0.296
 5610SOL    HW117729   5.766   3.887   0.301
 5610SOL    HW217730   5.649   3.941   0.200
 5611SOL     OW17731   0.531   4.869   2.209
 5611SOL    HW117732   0.474   4.862   2.291
 5611SOL    HW217733   0.624   4.897   2.235
 5612SOL     OW17734   3.067   2.841   0.909
 5612SOL    HW117735   3.114   2.780   0.973
 5612SOL    HW217736   2.970   2.818   0.906
 5613SOL     OW17737   6.568   4.156   4.352
 5613SOL    HW117738   6.480   4.132   4.394
 5613SOL    HW217739   6.641   4.103   4.395
 5614SOL     OW17740   6.412   2.012   4.409
 5614SOL    HW117741   6.441   1.918   4.392
 5614SOL    HW217742   6.442   2.040   4.500
 5615SOL     OW17743   0.239   1.707   2.255
 5615SOL    HW117744   0.332   1.700   2.220
 5615SOL    HW217745   0.191   1.781   2.209
 5616SOL     OW17746   2.407   1.721   5.137
 5616SOL    HW117747   2.430   1.795   5.074
 5616SOL    HW217748   2.310   1.699   5.128
 5617SOL     OW17749   1.441   4.875   4.345
 5617SOL    HW117750   1.468   4.915   4.258
 5617SOL    HW217751   1.522   4.857   4.401
 5618SOL     OW17752   6.010   5.223   3.226
 5618SOL    HW117753   6.098   5.225   3.177
 5618SOL    HW217754   6.027   5.218   3.324
 5619SOL     OW17755   3.710   2.909   3.785
 5619SOL    HW117756   3.747   2.822   3.754
 5619SOL    HW217757   3.785   2.973   3.800
 5620SOL     OW17758   4.605   4.313   5.547
 5620SOL    HW117759   4.667   4.258   5.603
 5620SOL    HW217760   4.529   4.257   5.516
 5621SOL     OW17761   1.571   3.123   6.480
 5621SOL    HW117762   1.498   3.060   6.508
 5621SOL    HW217763   1.652   3.071   6.452
 5622SOL     OW17764   4.267   6.167   5.295
 5622SOL    HW117765   4.194   6.119   5.247
 5622SOL    HW217766   4.325   6.215   5.229
 5623SOL     OW17767   4.820   6.760   4.988
 5623SOL    HW117768   4.871   6.813   4.920
 5623SOL    HW217769   4.831   6.803   5.078
 5624SOL     OW17770   0.959   5.254   3.202
 5624SOL    HW117771   0.941   5.249   3.104
 5624SOL    HW217772   0.889   5.203   3.252
 5625SOL     OW17773   1.099   5.266   4.746
 5625SOL    HW117774   1.191   5.239   4.720
 5625SOL    HW217775   1.043   5.185   4.763
 5626SOL     OW17776   2.056   4.526   4.575
 5626SOL    HW117777   2.074   4.442   4.625
 5626SOL    HW217778   2.141   4.577   4.562
 5627SOL     OW17779   0.304   5.482   5.870
 5627SOL    HW117780   0.329   5.427   5.950
 5627SOL    HW217781   0.262   5.568   5.900
 5628SOL     OW17782   3.043   3.115   0.958
 5628SOL    HW117783   2.949   3.125   0.927
 5628SOL    HW217784   3.067   3.017   0.960
 5629SOL     OW17785   3.767   3.129   1.065
 5629SOL    HW117786   3.751   3.193   1.140
 5629SOL    HW217787   3.794   3.040   1.102
 5630SOL     OW17788   1.409   3.753   5.987
 5630SOL    HW117789   1.430   3.823   6.055
 5630SOL    HW217790   1.433   3.663   6.024
 5631SOL     OW17791   5.346   1.717   2.167
 5631SOL    HW117792   5.317   1.759   2.080
 5631SOL    HW217793   5.288   1.751   2.241
 5632SOL     OW17794   5.164   1.434   6.240
 5632SOL    HW117795   5.164   1.335   6.227
 5632SOL    HW217796   5.070   1.467   6.244
 5633SOL     OW17797   0.164   5.237   4.501
 5633SOL    HW117798   0.207   5.207   4.586
 5633SOL    HW217799   0.207   5.322   4.469
 5634SOL     OW17800   1.977   5.259   4.668
 5634SOL    HW117801   1.907   5.321   4.634
 5634SOL    HW217802   2.059   5.265   4.610
 5635SOL     OW17803   2.841   6.666   6.703
 5635SOL    HW117804   2.747   6.698   6.710
 5635SOL    HW217805   2.882   6.698   6.617
 5636SOL     OW17806   6.032   1.381   5.546
 5636SOL    HW117807   6.088   1.305   5.512
 5636SOL    HW217808   5.971   1.348   5.617
 5637SOL     OW17809   5.508   6.605   4.167
 5637SOL    HW117810   5.510   6.644   4.259
 5637SOL    HW217811   5.456   6.665   4.106
 5638SOL     OW17812   5.680   5.687   1.243
 5638SOL    HW117813   5.655   5.695   1.146
 5638SOL    HW217814   5.778   5.675   1.251
 5639SOL     OW17815   1.275   0.649   1.604
 5639SOL    HW117816   1.233   0.560   1.587
 5639SOL    HW217817   1.206   0.721   1.596
 5640SOL     OW17818   2.636   6.639   2.548
 5640SOL    HW117819   2.631   6.541   2.528
 5640SOL    HW217820   2.710   6.681   2.496
 5641SOL     OW17821   0.568   4.796   5.681
 5641SOL    HW117822   0.513   4.753   5.753
 5641SOL    HW217823   0.657   4.821   5.718
 5642SOL     OW17824   1.185   4.941   5.761
 5642SOL    HW117825   1.190   4.844   5.737
 5642SOL    HW217826   1.197   4.951   5.860
 5643SOL     OW17827   3.155   0.858   4.735
 5643SOL    HW117828   3.162   0.908   4.649
 5643SOL    HW217829   3.066   0.875   4.777
 5644SOL     OW17830   5.064   0.705   3.654
 5644SOL    HW117831   5.090   0.609   3.652
 5644SOL    HW217832   5.117   0.752   3.725
 5645SOL     OW17833   6.215   4.651   2.741
 5645SOL    HW117834   6.131   4.698   2.712
 5645SOL    HW217835   6.283   4.719   2.769
 5646SOL     OW17836   1.974   5.386   3.448
 5646SOL    HW117837   1.913   5.309   3.431
 5646SOL    HW217838   1.969   5.413   3.544
 5647SOL     OW17839   6.267   6.425   6.635
 5647SOL    HW117840   6.358   6.404   6.599
 5647SOL    HW217841   6.248   6.367   6.715
 5648SOL     OW17842   1.756   0.856   2.875
 5648SOL    HW117843   1.777   0.946   2.838
 5648SOL    HW217844   1.752   0.789   2.801
 5649SOL     OW17845   1.415   6.271   5.881
 5649SOL    HW117846   1.438   6.232   5.792
 5649SOL    HW217847   1.434   6.205   5.953
 5650SOL     OW17848   0.661   5.095   1.016
 5650SOL    HW117849   0.593   5.118   1.085
 5650SOL    HW217850   0.648   5.152   0.935
 5651SOL     OW17851   6.877   1.186   1.479
 5651SOL    HW117852   6.961   1.151   1.437
 5651SOL    HW217853   6.801   1.175   1.415
 5652SOL     OW17854   5.270   6.289   2.090
 5652SOL    HW117855   5.337   6.333   2.149
 5652SOL    HW217856   5.316   6.238   2.018
 5653SOL     OW17857   0.382   6.405   6.565
 5653SOL    HW117858   0.404   6.441   6.656
 5653SOL    HW217859   0.433   6.456   6.496
 5654SOL     OW17860   0.157   6.421   5.972
 5654SOL    HW117861   0.117   6.334   5.943
 5654SOL    HW217862   0.208   6.407   6.057
 5655SOL     OW17863   1.353   3.095   4.390
 5655SOL    HW117864   1.297   3.169   4.427
 5655SOL    HW217865   1.401   3.048   4.465
 5656SOL     OW17866   2.376   4.397   0.214
 5656SOL    HW117867   2.432   4.338   0.156
 5656SOL    HW217868   2.411   4.396   0.307
 5657SOL     OW17869   5.431   0.142   1.062
 5657SOL    HW117870   5.357   0.150   0.995
 5657SOL    HW217871   5.479   0.056   1.048
 5658SOL     OW17872   3.314   6.163   5.740
 5658SOL    HW117873   3.339   6.133   5.833
 5658SOL    HW217874   3.240   6.107   5.705
 5659SOL     OW17875   3.169   4.062   3.149
 5659SOL    HW117876   3.188   3.964   3.137
 5659SOL    HW217877   3.126   4.098   3.067
 5660SOL     OW17878   5.345   0.627   5.796
 5660SOL    HW117879   5.278   0.669   5.735
 5660SOL    HW217880   5.299   0.596   5.880
 5661SOL     OW17881   6.837   4.719   6.335
 5661SOL    HW117882   6.815   4.771   6.252
 5661SOL    HW217883   6.802   4.625   6.326
 5662SOL     OW17884   2.847   4.894   4.106
 5662SOL    HW117885   2.867   4.861   4.198
 5662SOL    HW217886   2.855   4.818   4.041
 5663SOL     OW17887   1.316   4.353   6.874
 5663SOL    HW117888   1.384   4.286   6.904
 5663SOL    HW217889   1.242   4.358   6.941
 5664SOL     OW17890   0.161   3.830   3.887
 5664SOL    HW117891   0.133   3.805   3.793
 5664SOL    HW217892   0.127   3.760   3.950
 5665SOL     OW17893   1.841   1.757   6.889
 5665SOL    HW117894   1.936   1.788   6.876
 5665SOL    HW217895   1.801   1.734   6.800
 5666SOL     OW17896   5.243   6.124   0.562
 5666SOL    HW117897   5.238   6.032   0.603
 5666SOL    HW217898   5.171   6.181   0.601
 5667SOL     OW17899   0.845   4.903   3.469
 5667SOL    HW117900   0.905   4.968   3.515
 5667SOL    HW217901   0.766   4.882   3.527
 5668SOL     OW17902   4.958   2.283   6.049
 5668SOL    HW117903   5.004   2.241   6.127
 5668SOL    HW217904   4.886   2.345   6.083
 5669SOL     OW17905   0.505   3.267   6.556
 5669SOL    HW117906   0.409   3.240   6.559
 5669SOL    HW217907   0.513   3.357   6.512
 5670SOL     OW17908   0.398   3.064   3.564
 5670SOL    HW117909   0.458   3.018   3.499
 5670SOL    HW217910   0.436   3.153   3.587
 5671SOL     OW17911   0.978   6.129   6.451
 5671SOL    HW117912   0.926   6.190   6.391
 5671SOL    HW217913   1.054   6.180   6.492
 5672SOL     OW17914   4.283   4.902   6.742
 5672SOL    HW117915   4.239   4.914   6.653
 5672SOL    HW217916   4.270   4.808   6.773
 5673SOL     OW17917   1.291   6.344   2.337
 5673SOL    HW117918   1.243   6.396   2.408
 5673SOL    HW217919   1.327   6.406   2.269
 5674SOL     OW17920   6.944   3.888   3.412
 5674SOL    HW117921   6.993   3.845   3.336
 5674SOL    HW217922   6.918   3.981   3.386
 5675SOL     OW17923   4.176   1.812   6.282
 5675SOL    HW117924   4.254   1.872   6.265
 5675SOL    HW217925   4.180   1.734   6.220
 5676SOL     OW17926   1.704   1.648   1.731
 5676SOL    HW117927   1.798   1.649   1.698
 5676SOL    HW217928   1.684   1.736   1.775
 5677SOL     OW17929   0.680   2.214   2.613
 5677SOL    HW117930   0.728   2.294   2.577
 5677SOL    HW217931   0.704   2.133   2.559
 5678SOL     OW17932   2.880   6.746   3.190
 5678SOL    HW117933   2.785   6.725   3.214
 5678SOL    HW217934   2.905   6.836   3.226
 5679SOL     OW17935   1.083   0.477   3.224
 5679SOL    HW117936   1.033   0.406   3.174
 5679SOL    HW217937   1.175   0.445   3.245
 5680SOL     OW17938   1.555   5.247   0.735
 5680SOL    HW117939   1.488   5.182   0.698
 5680SOL    HW217940   1.647   5.217   0.712
 5681SOL     OW17941   0.645   3.499   6.388
 5681SOL    HW117942   0.585   3.561   6.338
 5681SOL    HW217943   0.727   3.549   6.419
 5682SOL     OW17944   1.938   4.692   5.130
 5682SOL    HW117945   1.845   4.723   5.150
 5682SOL    HW217946   1.975   4.645   5.210
 5683SOL     OW17947   4.051   1.869   6.922
 5683SOL    HW117948   4.092   1.783   6.954
 5683SOL    HW217949   4.052   1.871   6.823
 5684SOL     OW17950   3.948   3.050   4.534
 5684SOL    HW117951   3.981   2.956   4.524
 5684SOL    HW217952   3.944   3.073   4.632
 5685SOL     OW17953   1.157   4.233   2.025
 5685SOL    HW117954   1.206   4.174   2.089
 5685SOL    HW217955   1.216   4.309   1.998
 5686SOL     OW17956   3.216   0.231   6.708
 5686SOL    HW117957   3.133   0.267   6.666
 5686SOL    HW217958   3.202   0.136   6.734
 5687SOL     OW17959   6.789   4.033   4.585
 5687SOL    HW117960   6.767   3.949   4.535
 5687SOL    HW217961   6.824   4.009   4.675
 5688SOL     OW17962   6.856   1.454   6.928
 5688SOL    HW117963   6.841   1.528   6.862
 5688SOL    HW217964   6.948   1.460   6.965
 5689SOL     OW17965   4.108   0.967   0.069
 5689SOL    HW117966   4.022   0.920   0.048
 5689SOL    HW217967   4.103   1.062   0.036
 5690SOL     OW17968   2.171   6.101   0.867
 5690SOL    HW117969   2.249   6.135   0.919
 5690SOL    HW217970   2.171   6.001   0.869
 5691SOL     OW17971   2.572   6.110   2.049
 5691SOL    HW117972   2.622   6.123   1.963
 5691SOL    HW217973   2.583   6.015   2.079
 5692SOL     OW17974   6.757   3.091   5.922
 5692SOL    HW117975   6.847   3.060   5.953
 5692SOL    HW217976   6.766   3.178   5.874
 5693SOL     OW17977   5.937   3.187   2.156
 5693SOL    HW117978   5.926   3.158   2.061
 5693SOL    HW217979   5.848   3.190   2.201
 5694SOL     OW17980   0.750   1.470   3.911
 5694SOL    HW117981   0.843   1.483   3.945
 5694SOL    HW217982   0.699   1.556   3.919
 5695SOL     OW17983   0.683   2.400   2.961
 5695SOL    HW117984   0.603   2.450   2.927
 5695SOL    HW217985   0.666   2.369   3.054
 5696SOL     OW17986   1.700   6.822   3.230
 5696SOL    HW117987   1.680   6.759   3.305
 5696SOL    HW217988   1.631   6.811   3.158
 5697SOL     OW17989   5.673   1.992   1.003
 5697SOL    HW117990   5.721   2.007   1.089
 5697SOL    HW217991   5.740   1.988   0.928
 5698SOL     OW17992   0.352   3.176   2.024
 5698SOL    HW117993   0.392   3.220   1.944
 5698SOL    HW217994   0.425   3.152   2.088
 5699SOL     OW17995   6.312   2.486   3.009
 5699SOL    HW117996   6.280   2.392   2.993
 5699SOL    HW217997   6.257   2.550   2.955
 5700SOL     OW17998   6.453   6.496   4.612
 5700SOL    HW117999   6.394   6.445   4.674
 5700SOL    HW218000   6.399   6.528   4.533
 5701SOL     OW18001   1.687   5.838   3.461
 5701SOL    HW118002   1.607   5.857   3.404
 5701SOL    HW218003   1.764   5.893   3.429
 5702SOL     OW18004   1.552   0.625   5.540
 5702SOL    HW118005   1.580   0.698   5.478
 5702SOL    HW218006   1.621   0.553   5.539
 5703SOL     OW18007   5.129   4.295   0.823
 5703SOL    HW118008   5.213   4.252   0.855
 5703SOL    HW218009   5.150   4.358   0.748
 5704SOL     OW18010   4.121   5.389   2.267
 5704SOL    HW118011   4.186   5.339   2.323
 5704SOL    HW218012   4.157   5.479   2.244
 5705SOL     OW18013   5.235   1.115   0.370
 5705SOL    HW118014   5.219   1.022   0.402
 5705SOL    HW218015   5.186   1.180   0.428
 5706SOL     OW18016   0.713   2.276   0.659
 5706SOL    HW118017   0.726   2.222   0.575
 5706SOL    HW218018   0.787   2.344   0.666
 5707SOL     OW18019   0.849   6.883   0.184
 5707SOL    HW118020   0.904   6.966   0.173
 5707SOL    HW218021   0.903   6.813   0.229
 5708SOL     OW18022   5.225   6.204   1.164
 5708SOL    HW118023   5.286   6.189   1.086
 5708SOL    HW218024   5.276   6.189   1.249
 5709SOL     OW18025   1.157   6.951   3.573
 5709SOL    HW118026   1.091   6.896   3.626
 5709SOL    HW218027   1.245   6.904   3.572
 5710SOL     OW18028   2.969   3.159   5.990
 5710SOL    HW118029   3.038   3.087   5.978
 5710SOL    HW218030   3.005   3.228   6.053
 5711SOL     OW18031   4.855   0.097   3.037
 5711SOL    HW118032   4.914   0.177   3.028
 5711SOL    HW218033   4.759   0.126   3.037
 5712SOL     OW18034   0.750   5.661   6.095
 5712SOL    HW118035   0.814   5.593   6.060
 5712SOL    HW218036   0.744   5.737   6.029
 5713SOL     OW18037   1.196   2.556   1.276
 5713SOL    HW118038   1.227   2.640   1.231
 5713SOL    HW218039   1.275   2.502   1.304
 5714SOL     OW18040   1.101   5.870   0.138
 5714SOL    HW118041   1.133   5.778   0.117
 5714SOL    HW218042   1.169   5.937   0.107
 5715SOL     OW18043   1.292   6.441   3.334
 5715SOL    HW118044   1.234   6.508   3.382
 5715SOL    HW218045   1.256   6.426   3.242
 5716SOL     OW18046   1.121   4.021   6.120
 5716SOL    HW118047   1.205   4.021   6.066
 5716SOL    HW218048   1.054   4.082   6.077
 5717SOL     OW18049   2.115   5.596   0.424
 5717SOL    HW118050   2.087   5.501   0.414
 5717SOL    HW218051   2.034   5.655   0.421
 5718SOL     OW18052   0.981   3.879   6.321
 5718SOL    HW118053   1.014   3.910   6.232
 5718SOL    HW218054   0.959   3.958   6.378
 5719SOL     OW18055   2.400   1.386   5.988
 5719SOL    HW118056   2.397   1.445   6.069
 5719SOL    HW218057   2.495   1.359   5.971
 5720SOL     OW18058   1.257   4.659   4.379
 5720SOL    HW118059   1.330   4.727   4.376
 5720SOL    HW218060   1.250   4.613   4.290
 5721SOL     OW18061   6.848   3.724   1.136
 5721SOL    HW118062   6.831   3.628   1.156
 5721SOL    HW218063   6.871   3.733   1.039
 5722SOL     OW18064   5.772   2.142   4.977
 5722SOL    HW118065   5.868   2.151   4.950
 5722SOL    HW218066   5.760   2.057   5.027
 5723SOL     OW18067   4.055   3.487   0.003
 5723SOL    HW118068   3.962   3.471   6.988
 5723SOL    HW218069   4.052   3.557   0.074
 5724SOL     OW18070   4.015   2.406   5.394
 5724SOL    HW118071   4.007   2.418   5.493
 5724SOL    HW218072   4.078   2.475   5.357
 5725SOL     OW18073   5.956   5.574   3.663
 5725SOL    HW118074   5.887   5.549   3.596
 5725SOL    HW218075   6.047   5.564   3.624
 5726SOL     OW18076   6.502   3.533   3.894
 5726SOL    HW118077   6.407   3.545   3.923
 5726SOL    HW218078   6.518   3.436   3.874
 5727SOL     OW18079   0.792   2.410   4.016
 5727SOL    HW118080   0.702   2.372   3.992
 5727SOL    HW218081   0.781   2.486   4.080
 5728SOL     OW18082   4.547   1.334   6.519
 5728SOL    HW118083   4.516   1.249   6.476
 5728SOL    HW218084   4.472   1.373   6.572
 5729SOL     OW18085   0.829   1.754   0.320
 5729SOL    HW118086   0.889   1.693   0.267
 5729SOL    HW218087   0.867   1.766   0.412
 5730SOL     OW18088   4.007   5.136   5.874
 5730SOL    HW118089   4.035   5.053   5.825
 5730SOL    HW218090   4.088   5.186   5.905
 5731SOL     OW18091   1.739   6.422   3.610
 5731SOL    HW118092   1.654   6.416   3.663
 5731SOL    HW218093   1.774   6.330   3.592
 5732SOL     OW18094   6.636   4.759   5.080
 5732SOL    HW118095   6.537   4.774   5.082
 5732SOL    HW218096   6.661   4.710   4.996
 5733SOL     OW18097   3.261   0.674   5.568
 5733SOL    HW118098   3.350   0.642   5.535
 5733SOL    HW218099   3.192   0.603   5.552
 5734SOL     OW18100   1.641   6.075   6.335
 5734SOL    HW118101   1.666   6.063   6.431
 5734SOL    HW218102   1.549   6.114   6.329
 5735SOL     OW18103   3.913   1.163   3.015
 5735SOL    HW118104   3.873   1.152   3.106
 5735SOL    HW218105   4.012   1.171   3.023
 5736SOL     OW18106   5.478   4.431   0.171
 5736SOL    HW118107   5.426   4.513   0.151
 5736SOL    HW218108   5.517   4.437   0.263
 5737SOL     OW18109   5.749   6.037   6.894
 5737SOL    HW118110   5.815   6.111   6.898
 5737SOL    HW218111   5.707   6.024   6.984
 5738SOL     OW18112   3.403   2.203   6.837
 5738SOL    HW118113   3.450   2.150   6.908
 5738SOL    HW218114   3.456   2.285   6.816
 5739SOL     OW18115   0.979   6.133   5.615
 5739SOL    HW118116   0.961   6.201   5.686
 5739SOL    HW218117   1.078   6.123   5.602
 5740SOL     OW18118   4.397   4.131   0.918
 5740SOL    HW118119   4.333   4.198   0.881
 5740SOL    HW218120   4.431   4.163   1.007
 5741SOL     OW18121   0.106   4.351   4.122
 5741SOL    HW118122   0.038   4.312   4.185
 5741SOL    HW218123   0.063   4.369   4.034
 5742SOL     OW18124   4.329   6.148   2.321
 5742SOL    HW118125   4.410   6.143   2.380
 5742SOL    HW218126   4.269   6.070   2.339
 5743SOL     OW18127   2.343   5.919   5.387
 5743SOL    HW118128   2.357   5.823   5.362
 5743SOL    HW218129   2.252   5.948   5.358
 5744SOL     OW18130   5.229   1.039   1.922
 5744SOL    HW118131   5.149   1.080   1.966
 5744SOL    HW218132   5.234   0.942   1.945
 5745SOL     OW18133   1.997   0.793   3.702
 5745SOL    HW118134   2.040   0.879   3.675
 5745SOL    HW218135   1.992   0.732   3.623
 5746SOL     OW18136   4.925   6.713   1.367
 5746SOL    HW118137   4.924   6.682   1.462
 5746SOL    HW218138   4.965   6.642   1.310
 5747SOL     OW18139   1.443   5.138   1.958
 5747SOL    HW118140   1.532   5.102   1.929
 5747SOL    HW218141   1.419   5.217   1.901
 5748SOL     OW18142   1.365   0.093   1.476
 5748SOL    HW118143   1.351   0.184   1.516
 5748SOL    HW218144   1.401   0.031   1.546
 5749SOL     OW18145   1.906   6.701   5.218
 5749SOL    HW118146   1.969   6.642   5.168
 5749SOL    HW218147   1.958   6.770   5.268
 5750SOL     OW18148   6.091   6.375   4.934
 5750SOL    HW118149   6.019   6.399   4.870
 5750SOL    HW218150   6.086   6.277   4.955
 5751SOL     OW18151   2.471   2.563   4.955
 5751SOL    HW118152   2.543   2.502   4.987
 5751SOL    HW218153   2.484   2.581   4.857
 5752SOL     OW18154   5.356   0.150   0.380
 5752SOL    HW118155   5.401   0.133   0.468
 5752SOL    HW218156   5.259   0.125   0.386
 5753SOL     OW18157   3.430   3.894   4.445
 5753SOL    HW118158   3.451   3.896   4.347
 5753SOL    HW218159   3.400   3.985   4.474
 5754SOL     OW18160   0.550   5.139   1.513
 5754SOL    HW118161   0.542   5.170   1.419
 5754SOL    HW218162   0.563   5.218   1.573
 5755SOL     OW18163   1.492   2.065   6.066
 5755SOL    HW118164   1.564   2.124   6.028
 5755SOL    HW218165   1.442   2.115   6.137
 5756SOL     OW18166   0.427   0.366   2.877
 5756SOL    HW118167   0.496   0.435   2.854
 5756SOL    HW218168   0.345   0.381   2.822
 5757SOL     OW18169   0.193   5.343   3.841
 5757SOL    HW118170   0.231   5.436   3.839
 5757SOL    HW218171   0.259   5.279   3.802
 5758SOL     OW18172   2.116   1.058   2.730
 5758SOL    HW118173   2.198   1.053   2.673
 5758SOL    HW218174   2.090   1.153   2.744
 5759SOL     OW18175   4.918   0.669   6.840
 5759SOL    HW118176   4.939   0.626   6.753
 5759SOL    HW218177   4.929   0.602   6.914
 5760SOL     OW18178   6.192   2.008   0.605
 5760SOL    HW118179   6.145   2.089   0.640
 5760SOL    HW218180   6.124   1.944   0.567
 5761SOL     OW18181   6.143   4.568   5.808
 5761SOL    HW118182   6.090   4.489   5.840
 5761SOL    HW218183   6.172   4.553   5.713
 5762SOL     OW18184   4.999   4.370   1.233
 5762SOL    HW118185   4.914   4.323   1.212
 5762SOL    HW218186   5.011   4.377   1.332
 5763SOL     OW18187   6.368   5.615   1.052
 5763SOL    HW118188   6.362   5.635   1.149
 5763SOL    HW218189   6.331   5.691   0.999
 5764SOL     OW18190   5.101   4.789   4.897
 5764SOL    HW118191   5.151   4.757   4.977
 5764SOL    HW218192   5.005   4.802   4.921
 5765SOL     OW18193   6.481   3.263   0.500
 5765SOL    HW118194   6.580   3.247   0.502
 5765SOL    HW218195   6.462   3.360   0.512
 5766SOL     OW18196   1.657   1.956   5.473
 5766SOL    HW118197   1.605   1.972   5.389
 5766SOL    HW218198   1.717   1.877   5.461
 5767SOL     OW18199   2.304   0.319   0.743
 5767SOL    HW118200   2.296   0.220   0.741
 5767SOL    HW218201   2.226   0.360   0.696
 5768SOL     OW18202   0.939   6.518   4.358
 5768SOL    HW118203   1.035   6.534   4.379
 5768SOL    HW218204   0.913   6.569   4.276
 5769SOL     OW18205   2.359   5.559   4.134
 5769SOL    HW118206   2.437   5.548   4.073
 5769SOL    HW218207   2.279   5.588   4.082
 5770SOL     OW18208   6.743   6.031   6.150
 5770SOL    HW118209   6.684   6.059   6.074
 5770SOL    HW218210   6.688   5.994   6.224
 5771SOL     OW18211   1.251   7.004   4.562
 5771SOL    HW118212   1.291   6.946   4.492
 5771SOL    HW218213   1.307   7.001   4.645
 5772SOL     OW18214   5.239   1.062   1.573
 5772SOL    HW118215   5.210   0.967   1.557
 5772SOL    HW218216   5.318   1.063   1.634
 5773SOL     OW18217   4.461   0.601   3.039
 5773SOL    HW118218   4.506   0.535   3.100
 5773SOL    HW218219   4.362   0.595   3.052
 5774SOL     OW18220   3.029   6.524   4.172
 5774SOL    HW118221   3.095   6.509   4.098
 5774SOL    HW218222   3.073   6.504   4.259
 5775SOL     OW18223   1.330   0.404   2.961
 5775SOL    HW118224   1.316   0.497   2.927
 5775SOL    HW218225   1.385   0.408   3.045
 5776SOL     OW18226   0.571   0.758   3.918
 5776SOL    HW118227   0.528   0.739   3.830
 5776SOL    HW218228   0.626   0.679   3.946
 5777SOL     OW18229   6.953   0.122   5.140
 5777SOL    HW118230   6.898   0.178   5.078
 5777SOL    HW218231   6.944   0.156   5.234
 5778SOL     OW18232   1.315   0.265   0.526
 5778SOL    HW118233   1.253   0.340   0.551
 5778SOL    HW218234   1.293   0.184   0.580
 5779SOL     OW18235   4.536   2.697   1.028
 5779SOL    HW118236   4.457   2.758   1.014
 5779SOL    HW218237   4.584   2.724   1.111
 5780SOL     OW18238   6.355   6.158   4.199
 5780SOL    HW118239   6.449   6.123   4.194
 5780SOL    HW218240   6.296   6.087   4.237
 5781SOL     OW18241   6.705   5.212   4.191
 5781SOL    HW118242   6.739   5.147   4.259
 5781SOL    HW218243   6.617   5.248   4.221
 5782SOL     OW18244   1.418   1.763   1.407
 5782SOL    HW118245   1.385   1.857   1.395
 5782SOL    HW218246   1.458   1.731   1.321
 5783SOL     OW18247   1.127   0.414   1.617
 5783SOL    HW118248   1.081   0.328   1.595
 5783SOL    HW218249   1.125   0.428   1.717
 5784SOL     OW18250   0.086   5.817   5.723
 5784SOL    HW118251   0.130   5.826   5.812
 5784SOL    HW218252   0.151   5.843   5.651
 5785SOL     OW18253   2.066   1.821   0.280
 5785SOL    HW118254   2.031   1.912   0.301
 5785SOL    HW218255   2.148   1.804   0.334
 5786SOL     OW18256   0.654   4.196   0.722
 5786SOL    HW118257   0.629   4.278   0.773
 5786SOL    HW218258   0.749   4.172   0.741
 5787SOL     OW18259   3.303   1.918   4.648
 5787SOL    HW118260   3.281   1.995   4.708
 5787SOL    HW218261   3.221   1.890   4.598
 5788SOL     OW18262   2.864   1.269   1.328
 5788SOL    HW118263   2.897   1.216   1.406
 5788SOL    HW218264   2.774   1.307   1.348
 5789SOL     OW18265   3.311   4.347   6.974
 5789SOL    HW118266   3.268   4.284   6.909
 5789SOL    HW218267   3.366   4.294   0.019
 5790SOL     OW18268   1.207   4.353   4.950
 5790SOL    HW118269   1.204   4.272   5.009
 5790SOL    HW218270   1.124   4.407   4.965
 5791SOL     OW18271   3.602   1.858   2.371
 5791SOL    HW118272   3.560   1.948   2.358
 5791SOL    HW218273   3.681   1.849   2.310
 5792SOL     OW18274   6.420   3.526   2.658
 5792SOL    HW118275   6.394   3.622   2.672
 5792SOL    HW218276   6.340   3.474   2.630
 5793SOL     OW18277   5.275   1.176   4.237
 5793SOL    HW118278   5.282   1.199   4.140
 5793SOL    HW218279   5.241   1.255   4.288
 5794SOL     OW18280   2.363   0.957   0.284
 5794SOL    HW118281   2.391   0.864   0.264
 5794SOL    HW218282   2.264   0.966   0.271
 5795SOL     OW18283   6.151   0.333   6.473
 5795SOL    HW118284   6.230   0.315   6.531
 5795SOL    HW218285   6.164   0.420   6.425
 5796SOL     OW18286   4.901   1.385   6.297
 5796SOL    HW118287   4.806   1.412   6.282
 5796SOL    HW218288   4.917   1.373   6.395
 5797SOL     OW18289   4.742   2.420   6.287
 5797SOL    HW118290   4.713   2.463   6.373
 5797SOL    HW218291   4.665   2.419   6.223
 5798SOL     OW18292   0.683   4.642   5.116
 5798SOL    HW118293   0.696   4.701   5.195
 5798SOL    HW218294   0.727   4.553   5.132
 5799SOL     OW18295   0.439   0.480   3.364
 5799SOL    HW118296   0.478   0.390   3.347
 5799SOL    HW218297   0.512   0.546   3.381
 5800SOL     OW18298   6.251   6.153   1.893
 5800SOL    HW118299   6.208   6.240   1.870
 5800SOL    HW218300   6.304   6.163   1.977
 5801SOL     OW18301   2.208   2.443   3.450
 5801SOL    HW118302   2.253   2.526   3.481
 5801SOL    HW218303   2.138   2.416   3.516
 5802SOL     OW18304   0.932   3.831   2.506
 5802SOL    HW118305   0.998   3.883   2.560
 5802SOL    HW218306   0.952   3.733   2.514
 5803SOL     OW18307   2.754   5.325   2.319
 5803SOL    HW118308   2.693   5.345   2.396
 5803SOL    HW218309   2.759   5.226   2.306
 5804SOL     OW18310   0.759   5.692   3.591
 5804SOL    HW118311   0.808   5.636   3.525
 5804SOL    HW218312   0.752   5.786   3.558
 5805SOL     OW18313   2.313   3.409   6.933
 5805SOL    HW118314   2.359   3.496   6.952
 5805SOL    HW218315   2.230   3.403   6.988
 5806SOL     OW18316   6.976   5.240   4.768
 5806SOL    HW118317   6.970   5.148   4.807
 5806SOL    HW218318   0.052   5.269   4.764
 5807SOL     OW18319   0.611   4.111   2.186
 5807SOL    HW118320   0.705   4.124   2.218
 5807SOL    HW218321   0.587   4.015   2.192
 5808SOL     OW18322   5.834   5.853   4.882
 5808SOL    HW118323   5.927   5.890   4.887
 5808SOL    HW218324   5.838   5.753   4.884
 5809SOL     OW18325   5.756   2.007   4.523
 5809SOL    HW118326   5.794   1.942   4.589
 5809SOL    HW218327   5.737   1.960   4.437
 5810SOL     OW18328   3.984   1.494   4.815
 5810SOL    HW118329   4.012   1.456   4.903
 5810SOL    HW218330   3.938   1.423   4.761
 5811SOL     OW18331   3.070   1.103   4.977
 5811SOL    HW118332   3.162   1.123   4.943
 5811SOL    HW218333   3.004   1.161   4.930
 5812SOL     OW18334   6.499   2.648   4.157
 5812SOL    HW118335   6.515   2.734   4.206
 5812SOL    HW218336   6.425   2.660   4.092
 5813SOL     OW18337   2.052   2.283   0.877
 5813SOL    HW118338   2.016   2.203   0.925
 5813SOL    HW218339   2.077   2.353   0.944
 5814SOL     OW18340   6.311   4.667   1.626
 5814SOL    HW118341   6.305   4.690   1.723
 5814SOL    HW218342   6.396   4.617   1.610
 5815SOL     OW18343   3.790   1.967   4.072
 5815SOL    HW118344   3.692   1.982   4.081
 5815SOL    HW218345   3.830   2.039   4.014
 5816SOL     OW18346   4.422   5.171   0.062
 5816SOL    HW118347   4.386   5.264   0.072
 5816SOL    HW218348   4.350   5.111   0.026
 5817SOL     OW18349   5.492   3.392   5.894
 5817SOL    HW118350   5.496   3.409   5.993
 5817SOL    HW218351   5.485   3.479   5.845
 5818SOL     OW18352   6.570   6.124   4.777
 5818SOL    HW118353   6.572   6.062   4.855
 5818SOL    HW218354   6.641   6.194   4.787
 5819SOL     OW18355   3.458   6.825   6.833
 5819SOL    HW118356   3.500   6.815   6.743
 5819SOL    HW218357   3.447   6.735   6.875
 5820SOL     OW18358   4.299   5.324   3.921
 5820SOL    HW118359   4.359   5.400   3.946
 5820SOL    HW218360   4.259   5.284   4.003
 5821SOL     OW18361   0.163   6.717   1.315
 5821SOL    HW118362   0.164   6.630   1.364
 5821SOL    HW218363   0.114   6.705   1.228
 5822SOL     OW18364   1.550   2.339   1.548
 5822SOL    HW118365   1.538   2.300   1.639
 5822SOL    HW218366   1.554   2.438   1.554
 5823SOL     OW18367   1.941   0.987   5.847
 5823SOL    HW118368   1.995   1.032   5.776
 5823SOL    HW218369   1.922   0.893   5.818
 5824SOL     OW18370   6.646   5.459   2.345
 5824SOL    HW118371   6.700   5.493   2.269
 5824SOL    HW218372   6.663   5.515   2.427
 5825SOL     OW18373   1.268   1.778   5.593
 5825SOL    HW118374   1.350   1.724   5.611
 5825SOL    HW218375   1.188   1.730   5.628
 5826SOL     OW18376   6.838   4.967   5.742
 5826SOL    HW118377   6.883   5.055   5.759
 5826SOL    HW218378   6.898   4.909   5.686
 5827SOL     OW18379   2.296   4.517   5.254
 5827SOL    HW118380   2.292   4.552   5.160
 5827SOL    HW218381   2.310   4.418   5.252
 5828SOL     OW18382   6.442   2.133   1.252
 5828SOL    HW118383   6.503   2.168   1.180
 5828SOL    HW218384   6.494   2.121   1.336
 5829SOL     OW18385   1.621   0.617   3.133
 5829SOL    HW118386   1.640   0.659   3.044
 5829SOL    HW218387   1.598   0.520   3.119
 5830SOL     OW18388   5.056   6.632   5.564
 5830SOL    HW118389   4.965   6.614   5.601
 5830SOL    HW218390   5.048   6.671   5.472
 5831SOL     OW18391   0.770   1.076   5.270
 5831SOL    HW118392   0.749   1.113   5.180
 5831SOL    HW218393   0.730   0.984   5.278
 5832SOL     OW18394   2.973   4.769   6.937
 5832SOL    HW118395   3.048   4.790   6.875
 5832SOL    HW218396   2.952   4.671   6.932
 5833SOL     OW18397   3.343   3.285   4.646
 5833SOL    HW118398   3.284   3.359   4.614
 5833SOL    HW218399   3.413   3.266   4.577
 5834SOL     OW18400   0.145   3.247   6.805
 5834SOL    HW118401   0.106   3.238   6.714
 5834SOL    HW218402   0.195   3.163   6.828
 5835SOL     OW18403   5.211   2.768   3.798
 5835SOL    HW118404   5.173   2.827   3.870
 5835SOL    HW218405   5.270   2.823   3.739
 5836SOL     OW18406   2.816   6.714   2.303
 5836SOL    HW118407   2.790   6.638   2.242
 5836SOL    HW218408   2.747   6.786   2.297
 5837SOL     OW18409   3.960   3.901   5.865
 5837SOL    HW118410   3.882   3.955   5.897
 5837SOL    HW218411   3.926   3.822   5.813
 5838SOL     OW18412   2.680   2.555   0.410
 5838SOL    HW118413   2.698   2.459   0.386
 5838SOL    HW218414   2.711   2.572   0.503
 5839SOL     OW18415   0.741   1.667   2.218
 5839SOL    HW118416   0.788   1.672   2.130
 5839SOL    HW218417   0.803   1.629   2.287
 5840SOL     OW18418   0.344   5.105   6.264
 5840SOL    HW118419   0.394   5.166   6.325
 5840SOL    HW218420   0.365   5.010   6.287
 5841SOL     OW18421   5.128   2.082   2.544
 5841SOL    HW118422   5.188   2.032   2.606
 5841SOL    HW218423   5.145   2.180   2.553
 5842SOL     OW18424   4.545   3.274   1.390
 5842SOL    HW118425   4.572   3.178   1.382
 5842SOL    HW218426   4.590   3.315   1.470
 5843SOL     OW18427   1.920   4.038   3.064
 5843SOL    HW118428   1.939   3.968   2.995
 5843SOL    HW218429   1.884   3.994   3.146
 5844SOL     OW18430   2.061   6.416   5.893
 5844SOL    HW118431   2.087   6.466   5.976
 5844SOL    HW218432   2.022   6.479   5.827
 5845SOL     OW18433   0.053   0.798   2.270
 5845SOL    HW118434   6.998   0.857   2.301
 5845SOL    HW218435   0.118   0.852   2.216
 5846SOL     OW18436   0.057   2.833   4.598
 5846SOL    HW118437   0.005   2.781   4.530
 5846SOL    HW218438   0.001   2.847   4.679
 5847SOL     OW18439   2.473   2.441   2.041
 5847SOL    HW118440   2.385   2.455   1.994
 5847SOL    HW218441   2.546   2.438   1.974
 5848SOL     OW18442   2.395   6.181   3.376
 5848SOL    HW118443   2.346   6.189   3.289
 5848SOL    HW218444   2.356   6.243   3.443
 5849SOL     OW18445   0.304   0.432   5.954
 5849SOL    HW118446   0.268   0.459   6.043
 5849SOL    HW218447   0.354   0.346   5.963
 5850SOL     OW18448   6.923   2.953   1.980
 5850SOL    HW118449   6.969   3.008   1.911
 5850SOL    HW218450   6.856   3.010   2.029
 5851SOL     OW18451   4.839   3.792   3.420
 5851SOL    HW118452   4.818   3.810   3.324
 5851SOL    HW218453   4.911   3.723   3.426
 5852SOL     OW18454   6.660   5.757   3.118
 5852SOL    HW118455   6.757   5.759   3.140
 5852SOL    HW218456   6.638   5.832   3.055
 5853SOL     OW18457   3.707   6.088   4.386
 5853SOL    HW118458   3.751   6.082   4.296
 5853SOL    HW218459   3.750   6.023   4.448
 5854SOL     OW18460   5.058   4.718   5.761
 5854SOL    HW118461   5.006   4.753   5.839
 5854SOL    HW218462   5.101   4.794   5.712
 5855SOL     OW18463   0.451   1.125   5.006
 5855SOL    HW118464   0.439   1.161   4.914
 5855SOL    HW218465   0.455   1.201   5.071
 5856SOL     OW18466   1.985   5.472   3.706
 5856SOL    HW118467   1.898   5.521   3.701
 5856SOL    HW218468   1.993   5.427   3.795
 5857SOL     OW18469   6.655   1.874   6.071
 5857SOL    HW118470   6.603   1.836   6.149
 5857SOL    HW218471   6.591   1.895   5.997
 5858SOL     OW18472   2.628   2.109   2.368
 5858SOL    HW118473   2.684   2.027   2.355
 5858SOL    HW218474   2.667   2.185   2.315
 5859SOL     OW18475   5.704   6.207   1.214
 5859SOL    HW118476   5.767   6.155   1.157
 5859SOL    HW218477   5.638   6.254   1.156
 5860SOL     OW18478   1.187   3.809   2.125
 5860SOL    HW118479   1.111   3.866   2.093
 5860SOL    HW218480   1.237   3.774   2.047
 5861SOL     OW18481   4.405   1.963   4.377
 5861SOL    HW118482   4.383   1.867   4.397
 5861SOL    HW218483   4.347   1.996   4.303
 5862SOL     OW18484   5.151   5.305   1.417
 5862SOL    HW118485   5.111   5.214   1.426
 5862SOL    HW218486   5.170   5.324   1.321
 5863SOL     OW18487   2.880   1.349   4.828
 5863SOL    HW118488   2.960   1.374   4.882
 5863SOL    HW218489   2.849   1.428   4.775
 5864SOL     OW18490   3.988   3.507   1.781
 5864SOL    HW118491   4.067   3.459   1.743
 5864SOL    HW218492   4.015   3.551   1.867
 5865SOL     OW18493   5.880   0.424   5.179
 5865SOL    HW118494   5.823   0.455   5.102
 5865SOL    HW218495   5.937   0.499   5.211
 5866SOL     OW18496   4.312   4.204   0.254
 5866SOL    HW118497   4.352   4.295   0.268
 5866SOL    HW218498   4.231   4.194   0.311
 5867SOL     OW18499   1.286   3.691   0.899
 5867SOL    HW118500   1.257   3.700   0.804
 5867SOL    HW218501   1.232   3.752   0.956
 5868SOL     OW18502   1.055   1.575   5.609
 5868SOL    HW118503   0.965   1.582   5.565
 5868SOL    HW218504   1.047   1.518   5.691
 5869SOL     OW18505   1.880   6.180   3.478
 5869SOL    HW118506   1.911   6.085   3.484
 5869SOL    HW218507   1.780   6.182   3.484
 5870SOL     OW18508   5.227   5.792   4.790
 5870SOL    HW118509   5.320   5.780   4.825
 5870SOL    HW218510   5.230   5.804   4.691
 5871SOL     OW18511   4.115   2.791   1.283
 5871SOL    HW118512   4.171   2.710   1.298
 5871SOL    HW218513   4.144   2.864   1.346
 5872SOL     OW18514   3.670   6.368   1.181
 5872SOL    HW118515   3.678   6.343   1.085
 5872SOL    HW218516   3.758   6.357   1.227
 5873SOL     OW18517   2.875   2.147   1.487
 5873SOL    HW118518   2.875   2.057   1.531
 5873SOL    HW218519   2.924   2.212   1.545
 5874SOL     OW18520   2.897   4.113   6.907
 5874SOL    HW118521   2.905   4.152   6.998
 5874SOL    HW218522   2.800   4.114   6.880
 5875SOL     OW18523   4.417   0.686   6.417
 5875SOL    HW118524   4.345   0.753   6.400
 5875SOL    HW218525   4.488   0.696   6.347
 5876SOL     OW18526   3.166   3.876   0.759
 5876SOL    HW118527   3.169   3.810   0.684
 5876SOL    HW218528   3.121   3.834   0.838
 5877SOL     OW18529   0.221   0.525   1.127
 5877SOL    HW118530   0.310   0.561   1.152
 5877SOL    HW218531   0.215   0.518   1.027
 5878SOL     OW18532   5.925   5.494   4.478
 5878SOL    HW118533   5.973   5.406   4.477
 5878SOL    HW218534   5.861   5.497   4.555
 5879SOL     OW18535   1.741   3.618   0.036
 5879SOL    HW118536   1.665   3.676   0.008
 5879SOL    HW218537   1.796   3.594   6.976
 5880SOL     OW18538   5.531   4.749   6.775
 5880SOL    HW118539   5.487   4.740   6.686
 5880SOL    HW218540   5.608   4.813   6.769
 5881SOL     OW18541   1.148   6.795   1.829
 5881SOL    HW118542   1.153   6.744   1.915
 5881SOL    HW218543   1.176   6.736   1.753
 5882SOL     OW18544   0.516   5.326   6.418
 5882SOL    HW118545   0.604   5.283   6.437
 5882SOL    HW218546   0.526   5.392   6.344
 5883SOL     OW18547   0.321   1.704   6.509
 5883SOL    HW118548   0.262   1.779   6.540
 5883SOL    HW218549   0.372   1.667   6.587
 5884SOL     OW18550   4.746   0.884   4.427
 5884SOL    HW118551   4.765   0.797   4.380
 5884SOL    HW218552   4.823   0.946   4.414
 5885SOL     OW18553   0.314   5.627   2.505
 5885SOL    HW118554   0.229   5.676   2.521
 5885SOL    HW218555   0.386   5.691   2.478
 5886SOL     OW18556   0.758   2.045   3.820
 5886SOL    HW118557   0.831   2.112   3.812
 5886SOL    HW218558   0.797   1.956   3.843
 5887SOL     OW18559   2.330   2.339   1.472
 5887SOL    HW118560   2.425   2.330   1.504
 5887SOL    HW218561   2.309   2.262   1.410
 5888SOL     OW18562   1.989   0.136   0.844
 5888SOL    HW118563   1.954   0.192   0.919
 5888SOL    HW218564   1.933   0.150   0.763
 5889SOL     OW18565   6.680   1.490   6.497
 5889SOL    HW118566   6.735   1.574   6.492
 5889SOL    HW218567   6.587   1.510   6.467
 5890SOL     OW18568   2.378   0.569   2.559
 5890SOL    HW118569   2.385   0.623   2.642
 5890SOL    HW218570   2.283   0.568   2.528
 5891SOL     OW18571   2.652   3.683   0.113
 5891SOL    HW118572   2.642   3.609   0.180
 5891SOL    HW218573   2.743   3.678   0.071
 5892SOL     OW18574   1.110   5.197   2.122
 5892SOL    HW118575   1.116   5.161   2.029
 5892SOL    HW218576   1.202   5.202   2.161
 5893SOL     OW18577   2.287   4.544   1.956
 5893SOL    HW118578   2.243   4.479   2.019
 5893SOL    HW218579   2.332   4.493   1.882
 5894SOL     OW18580   1.065   5.645   4.788
 5894SOL    HW118581   1.006   5.577   4.831
 5894SOL    HW218582   1.011   5.725   4.761
 5895SOL     OW18583   5.397   3.609   3.810
 5895SOL    HW118584   5.369   3.516   3.786
 5895SOL    HW218585   5.332   3.647   3.876
 5896SOL     OW18586   4.566   1.502   1.365
 5896SOL    HW118587   4.642   1.506   1.300
 5896SOL    HW218588   4.595   1.453   1.448
 5897SOL     OW18589   4.035   0.814   1.890
 5897SOL    HW118590   4.034   0.907   1.853
 5897SOL    HW218591   3.943   0.775   1.885
 5898SOL     OW18592   2.813   0.685   4.854
 5898SOL    HW118593   2.855   0.606   4.898
 5898SOL    HW218594   2.741   0.654   4.791
 5899SOL     OW18595   6.193   6.015   6.811
 5899SOL    HW118596   6.125   5.953   6.851
 5899SOL    HW218597   6.215   5.985   6.718
 5900SOL     OW18598   6.985   4.481   2.982
 5900SOL    HW118599   0.064   4.467   2.978
 5900SOL    HW218600   6.943   4.406   3.033
 5901SOL     OW18601   3.396   0.550   0.896
 5901SOL    HW118602   3.301   0.562   0.868
 5901SOL    HW218603   3.408   0.461   0.939
 5902SOL     OW18604   6.101   3.500   5.706
 5902SOL    HW118605   6.163   3.534   5.636
 5902SOL    HW218606   6.126   3.407   5.730
 5903SOL     OW18607   4.655   4.247   6.073
 5903SOL    HW118608   4.608   4.173   6.122
 5903SOL    HW218609   4.720   4.209   6.007
 5904SOL     OW18610   0.760   4.097   1.035
 5904SOL    HW118611   0.668   4.131   1.019
 5904SOL    HW218612   0.811   4.163   1.091
 5905SOL     OW18613   6.821   0.315   3.443
 5905SOL    HW118614   6.802   0.400   3.491
 5905SOL    HW218615   6.750   0.248   3.463
 5906SOL     OW18616   4.487   1.796   3.837
 5906SOL    HW118617   4.451   1.771   3.927
 5906SOL    HW218618   4.526   1.888   3.842
 5907SOL     OW18619   0.881   6.140   0.409
 5907SOL    HW118620   0.844   6.103   0.324
 5907SOL    HW218621   0.965   6.092   0.432
 5908SOL     OW18622   6.290   3.724   0.159
 5908SOL    HW118623   6.299   3.797   0.227
 5908SOL    HW218624   6.261   3.640   0.204
 5909SOL     OW18625   6.227   4.996   6.359
 5909SOL    HW118626   6.158   4.992   6.432
 5909SOL    HW218627   6.318   4.999   6.400
 5910SOL     OW18628   0.513   4.331   1.533
 5910SOL    HW118629   0.533   4.389   1.612
 5910SOL    HW218630   0.486   4.389   1.455
 5911SOL     OW18631   6.442   4.503   6.692
 5911SOL    HW118632   6.532   4.538   6.719
 5911SOL    HW218633   6.385   4.579   6.659
 5912SOL     OW18634   5.932   2.705   6.655
 5912SOL    HW118635   5.963   2.717   6.749
 5912SOL    HW218636   5.981   2.768   6.595
 5913SOL     OW18637   3.250   3.080   6.480
 5913SOL    HW118638   3.187   3.023   6.532
 5913SOL    HW218639   3.199   3.136   6.415
 5914SOL     OW18640   2.621   5.724   6.375
 5914SOL    HW118641   2.675   5.699   6.295
 5914SOL    HW218642   2.528   5.689   6.365
 5915SOL     OW18643   5.506   4.356   1.610
 5915SOL    HW118644   5.590   4.381   1.658
 5915SOL    HW218645   5.457   4.440   1.584
 5916SOL     OW18646   4.655   5.966   5.461
 5916SOL    HW118647   4.628   5.881   5.416
 5916SOL    HW218648   4.652   6.042   5.395
 5917SOL     OW18649   3.715   3.566   3.827
 5917SOL    HW118650   3.641   3.560   3.895
 5917SOL    HW218651   3.795   3.517   3.861
 5918SOL     OW18652   2.066   3.218   5.399
 5918SOL    HW118653   2.137   3.288   5.389
 5918SOL    HW218654   1.978   3.256   5.370
 5919SOL     OW18655   4.126   2.489   1.038
 5919SOL    HW118656   4.132   2.567   0.976
 5919SOL    HW218657   4.080   2.413   0.992
 5920SOL     OW18658   3.786   0.335   0.315
 5920SOL    HW118659   3.721   0.361   0.386
 5920SOL    HW218660   3.783   0.236   0.301
 5921SOL     OW18661   3.523   5.240   5.791
 5921SOL    HW118662   3.608   5.189   5.801
 5921SOL    HW218663   3.447   5.175   5.779
 5922SOL     OW18664   6.797   5.200   3.445
 5922SOL    HW118665   6.712   5.149   3.453
 5922SOL    HW218666   6.782   5.282   3.390
 5923SOL     OW18667   5.508   0.827   0.843
 5923SOL    HW118668   5.465   0.738   0.857
 5923SOL    HW218669   5.550   0.857   0.929
 5924SOL     OW18670   0.185   1.460   4.513
 5924SOL    HW118671   0.187   1.555   4.483
 5924SOL    HW218672   0.276   1.420   4.504
 5925SOL     OW18673   4.080   5.748   2.536
 5925SOL    HW118674   4.024   5.690   2.477
 5925SOL    HW218675   4.050   5.737   2.631
 5926SOL     OW18676   3.907   4.994   2.082
 5926SOL    HW118677   3.821   5.005   2.132
 5926SOL    HW218678   3.889   5.001   1.984
 5927SOL     OW18679   1.587   4.391   2.999
 5927SOL    HW118680   1.511   4.380   3.064
 5927SOL    HW218681   1.606   4.303   2.956
 5928SOL     OW18682   3.357   0.309   1.053
 5928SOL    HW118683   3.445   0.266   1.075
 5928SOL    HW218684   3.336   0.379   1.121
 5929SOL     OW18685   0.824   6.060   6.169
 5929SOL    HW118686   0.785   6.141   6.211
 5929SOL    HW218687   0.770   6.035   6.088
 5930SOL     OW18688   6.857   2.097   3.490
 5930SOL    HW118689   6.762   2.087   3.461
 5930SOL    HW218690   6.861   2.103   3.589
 5931SOL     OW18691   6.154   5.439   3.496
 5931SOL    HW118692   6.140   5.344   3.523
 5931SOL    HW218693   6.252   5.460   3.498
 5932SOL     OW18694   2.104   6.727   0.716
 5932SOL    HW118695   2.160   6.655   0.676
 5932SOL    HW218696   2.055   6.775   0.643
 5933SOL     OW18697   0.756   5.965   3.396
 5933SOL    HW118698   0.833   6.024   3.419
 5933SOL    HW218699   0.790   5.883   3.350
 5934SOL     OW18700   3.632   4.190   4.126
 5934SOL    HW118701   3.695   4.173   4.202
 5934SOL    HW218702   3.632   4.288   4.105
 5935SOL     OW18703   3.942   3.628   5.725
 5935SOL    HW118704   3.884   3.672   5.656
 5935SOL    HW218705   3.977   3.541   5.689
 5936SOL     OW18706   4.296   3.931   0.492
 5936SOL    HW118707   4.365   3.885   0.547
 5936SOL    HW218708   4.224   3.967   0.552
 5937SOL     OW18709   0.617   4.734   2.677
 5937SOL    HW118710   0.554   4.802   2.714
 5937SOL    HW218711   0.625   4.658   2.741
 5938SOL     OW18712   1.120   4.955   4.091
 5938SOL    HW118713   1.096   4.907   4.007
 5938SOL    HW218714   1.077   5.045   4.093
 5939SOL     OW18715   3.171   0.018   3.494
 5939SOL    HW118716   3.119   7.013   3.576
 5939SOL    HW218717   3.233   0.094   3.516
 5940SOL     OW18718   4.121   5.568   1.144
 5940SOL    HW118719   4.178   5.636   1.098
 5940SOL    HW218720   4.054   5.614   1.202
 5941SOL     OW18721   6.163   3.288   1.868
 5941SOL    HW118722   6.154   3.375   1.917
 5941SOL    HW218723   6.259   3.266   1.856
 5942SOL     OW18724   4.659   2.775   0.139
 5942SOL    HW118725   4.727   2.791   0.068
 5942SOL    HW218726   4.582   2.725   0.100
 5943SOL     OW18727   3.567   5.301   0.525
 5943SOL    HW118728   3.519   5.356   0.592
 5943SOL    HW218729   3.665   5.300   0.546
 5944SOL     OW18730   5.776   2.606   1.113
 5944SOL    HW118731   5.774   2.705   1.101
 5944SOL    HW218732   5.867   2.578   1.143
 5945SOL     OW18733   6.055   5.057   5.530
 5945SOL    HW118734   6.120   5.132   5.546
 5945SOL    HW218735   5.965   5.083   5.568
 5946SOL     OW18736   3.218   3.622   5.594
 5946SOL    HW118737   3.225   3.589   5.500
 5946SOL    HW218738   3.310   3.642   5.629
 5947SOL     OW18739   4.088   3.343   2.140
 5947SOL    HW118740   4.095   3.330   2.239
 5947SOL    HW218741   4.140   3.272   2.093
 5948SOL     OW18742   4.036   5.009   3.212
 5948SOL    HW118743   3.946   4.996   3.170
 5948SOL    HW218744   4.093   4.929   3.195
 5949SOL     OW18745   3.761   3.329   1.521
 5949SOL    HW118746   3.745   3.300   1.615
 5949SOL    HW218747   3.840   3.390   1.517
 5950SOL     OW18748   5.134   2.699   5.588
 5950SOL    HW118749   5.113   2.660   5.678
 5950SOL    HW218750   5.064   2.671   5.523
 5951SOL     OW18751   0.118   5.691   4.525
 5951SOL    HW118752   0.201   5.636   4.525
 5951SOL    HW218753   0.058   5.662   4.451
 5952SOL     OW18754   5.339   5.102   4.015
 5952SOL    HW118755   5.321   5.197   4.037
 5952SOL    HW218756   5.382   5.095   3.925
 5953SOL     OW18757   6.351   2.655   5.136
 5953SOL    HW118758   6.259   2.616   5.143
 5953SOL    HW218759   6.364   2.724   5.208
 5954SOL     OW18760   6.915   4.194   5.784
 5954SOL    HW118761   6.875   4.109   5.749
 5954SOL    HW218762   6.959   4.244   5.709
 5955SOL     OW18763   5.097   5.632   2.756
 5955SOL    HW118764   5.051   5.685   2.827
 5955SOL    HW218765   5.038   5.627   2.675
 5956SOL     OW18766   3.436   1.459   5.541
 5956SOL    HW118767   3.358   1.473   5.602
 5956SOL    HW218768   3.517   1.502   5.579
 5957SOL     OW18769   4.434   0.670   5.720
 5957SOL    HW118770   4.517   0.685   5.665
 5957SOL    HW218771   4.438   0.580   5.764
 5958SOL     OW18772   6.202   6.018   2.419
 5958SOL    HW118773   6.162   5.967   2.343
 5958SOL    HW218774   6.266   6.086   2.384
 5959SOL     OW18775   3.892   2.302   5.740
 5959SOL    HW118776   3.905   2.384   5.797
 5959SOL    HW218777   3.962   2.235   5.764
 5960SOL     OW18778   3.937   5.777   4.841
 5960SOL    HW118779   3.844   5.803   4.864
 5960SOL    HW218780   3.994   5.858   4.830
 5961SOL     OW18781   5.301   0.984   3.112
 5961SOL    HW118782   5.223   1.039   3.082
 5961SOL    HW218783   5.385   1.021   3.072
 5962SOL     OW18784   4.805   6.030   1.123
 5962SOL    HW118785   4.767   6.044   1.215
 5962SOL    HW218786   4.854   6.112   1.095
 5963SOL     OW18787   3.795   2.841   4.993
 5963SOL    HW118788   3.859   2.765   5.005
 5963SOL    HW218789   3.718   2.811   4.937
 5964SOL     OW18790   6.998   5.178   5.607
 5964SOL    HW118791   6.976   5.198   5.512
 5964SOL    HW218792   0.071   5.141   5.613
 5965SOL     OW18793   1.051   2.430   0.135
 5965SOL    HW118794   1.026   2.502   0.200
 5965SOL    HW218795   1.063   2.470   0.044
 5966SOL     OW18796   2.195   5.975   4.669
 5966SOL    HW118797   2.125   5.929   4.723
 5966SOL    HW218798   2.229   6.055   4.718
 5967SOL     OW18799   3.923   6.212   0.404
 5967SOL    HW118800   3.953   6.292   0.456
 5967SOL    HW218801   3.953   6.221   0.309
 5968SOL     OW18802   5.028   0.836   1.817
 5968SOL    HW118803   5.013   0.934   1.803
 5968SOL    HW218804   4.943   0.794   1.848
 5969SOL     OW18805   6.883   0.781   6.557
 5969SOL    HW118806   6.845   0.870   6.583
 5969SOL    HW218807   6.882   0.720   6.636
 5970SOL     OW18808   0.659   4.311   2.597
 5970SOL    HW118809   0.656   4.409   2.578
 5970SOL    HW218810   0.700   4.296   2.687
 5971SOL     OW18811   1.359   1.336   3.283
 5971SOL    HW118812   1.397   1.244   3.289
 5971SOL    HW218813   1.333   1.355   3.188
 5972SOL     OW18814   5.401   6.334   6.918
 5972SOL    HW118815   5.330   6.271   6.949
 5972SOL    HW218816   5.408   6.330   6.819
 5973SOL     OW18817   1.803   3.755   2.263
 5973SOL    HW118818   1.903   3.756   2.262
 5973SOL    HW218819   1.770   3.696   2.189
 5974SOL     OW18820   5.459   4.741   6.524
 5974SOL    HW118821   5.424   4.690   6.445
 5974SOL    HW218822   5.559   4.734   6.527
 5975SOL     OW18823   3.465   2.075   0.977
 5975SOL    HW118824   3.562   2.078   1.002
 5975SOL    HW218825   3.455   2.041   0.884
 5976SOL     OW18826   3.045   3.596   4.947
 5976SOL    HW118827   3.013   3.510   4.986
 5976SOL    HW218828   3.145   3.600   4.950
 5977SOL     OW18829   2.470   5.141   1.398
 5977SOL    HW118830   2.473   5.080   1.319
 5977SOL    HW218831   2.550   5.126   1.455
 5978SOL     OW18832   5.023   5.874   3.365
 5978SOL    HW118833   4.960   5.905   3.294
 5978SOL    HW218834   5.117   5.886   3.334
 5979SOL     OW18835   6.505   6.998   2.721
 5979SOL    HW118836   6.428   6.957   2.672
 5979SOL    HW218837   6.479   0.069   2.754
 5980SOL     OW18838   3.561   3.478   0.240
 5980SOL    HW118839   3.650   3.470   0.284
 5980SOL    HW218840   3.565   3.548   0.168
 5981SOL     OW18841   6.037   0.996   1.924
 5981SOL    HW118842   6.087   1.044   1.997
 5981SOL    HW218843   6.100   0.938   1.873
 5982SOL     OW18844   6.910   2.489   1.359
 5982SOL    HW118845   6.973   2.561   1.388
 5982SOL    HW218846   6.861   2.518   1.277
 5983SOL     OW18847   1.751   0.963   4.511
 5983SOL    HW118848   1.843   0.975   4.547
 5983SOL    HW218849   1.706   0.887   4.559
 5984SOL     OW18850   6.698   6.475   5.239
 5984SOL    HW118851   6.690   6.557   5.183
 5984SOL    HW218852   6.764   6.491   5.312
 5985SOL     OW18853   6.542   3.302   4.241
 5985SOL    HW118854   6.450   3.301   4.203
 5985SOL    HW218855   6.538   3.331   4.337
 5986SOL     OW18856   3.293   3.546   4.060
 5986SOL    HW118857   3.359   3.598   4.115
 5986SOL    HW218858   3.200   3.569   4.089
 5987SOL     OW18859   4.520   0.831   4.820
 5987SOL    HW118860   4.463   0.752   4.795
 5987SOL    HW218861   4.549   0.879   4.738
 5988SOL     OW18862   5.385   6.819   5.678
 5988SOL    HW118863   5.378   6.805   5.579
 5988SOL    HW218864   5.481   6.811   5.706
 5989SOL     OW18865   2.884   6.278   0.359
 5989SOL    HW118866   2.888   6.225   0.275
 5989SOL    HW218867   2.789   6.300   0.381
 5990SOL     OW18868   3.765   4.466   0.623
 5990SOL    HW118869   3.832   4.503   0.687
 5990SOL    HW218870   3.798   4.478   0.529
 5991SOL     OW18871   3.647   5.431   5.921
 5991SOL    HW118872   3.665   5.517   5.872
 5991SOL    HW218873   3.601   5.367   5.859
 5992SOL     OW18874   3.466   0.633   2.913
 5992SOL    HW118875   3.402   0.691   2.964
 5992SOL    HW218876   3.543   0.689   2.882
 5993SOL     OW18877   3.408   5.649   5.879
 5993SOL    HW118878   3.454   5.611   5.960
 5993SOL    HW218879   3.327   5.699   5.908
 5994SOL     OW18880   6.812   2.457   2.131
 5994SOL    HW118881   6.906   2.448   2.162
 5994SOL    HW218882   6.751   2.466   2.210
 5995SOL     OW18883   5.693   5.122   2.525
 5995SOL    HW118884   5.698   5.148   2.428
 5995SOL    HW218885   5.756   5.179   2.578
 5996SOL     OW18886   1.074   5.936   0.400
 5996SOL    HW118887   1.059   5.905   0.307
 5996SOL    HW218888   1.100   5.859   0.458
 5997SOL     OW18889   0.828   5.814   3.015
 5997SOL    HW118890   0.896   5.750   2.977
 5997SOL    HW218891   0.836   5.817   3.114
 5998SOL     OW18892   6.259   2.176   1.851
 5998SOL    HW118893   6.172   2.225   1.838
 5998SOL    HW218894   6.245   2.099   1.914
 5999SOL     OW18895   1.587   1.365   2.561
 5999SOL    HW118896   1.681   1.363   2.527
 5999SOL    HW218897   1.532   1.425   2.504
 6000SOL     OW18898   3.929   0.039   1.863
 6000SOL    HW118899   3.860   0.093   1.911
 6000SOL    HW218900   3.945   0.076   1.772
 6001SOL     OW18901   0.368   4.135   6.332
 6001SOL    HW118902   0.466   4.155   6.332
 6001SOL    HW218903   0.350   4.057   6.272
 6002SOL     OW18904   6.697   0.370   1.359
 6002SOL    HW118905   6.713   0.409   1.268
 6002SOL    HW218906   6.748   0.285   1.369
 6003SOL     OW18907   0.250   2.365   3.934
 6003SOL    HW118908   0.175   2.403   3.988
 6003SOL    HW218909   0.324   2.432   3.927
 6004SOL     OW18910   0.488   4.692   3.285
 6004SOL    HW118911   0.394   4.724   3.286
 6004SOL    HW218912   0.549   4.767   3.260
 6005SOL     OW18913   4.744   5.136   4.541
 6005SOL    HW118914   4.651   5.100   4.552
 6005SOL    HW218915   4.802   5.101   4.614
 6006SOL     OW18916   2.509   0.620   6.709
 6006SOL    HW118917   2.505   0.573   6.797
 6006SOL    HW218918   2.581   0.579   6.652
 6007SOL     OW18919   4.982   3.677   5.234
 6007SOL    HW118920   5.031   3.591   5.248
 6007SOL    HW218921   4.913   3.665   5.162
 6008SOL     OW18922   1.979   4.763   5.565
 6008SOL    HW118923   1.960   4.860   5.549
 6008SOL    HW218924   1.893   4.712   5.568
 6009SOL     OW18925   4.284   0.828   4.502
 6009SOL    HW118926   4.193   0.810   4.465
 6009SOL    HW218927   4.353   0.784   4.444
 6010SOL     OW18928   1.606   3.653   3.512
 6010SOL    HW118929   1.573   3.559   3.519
 6010SOL    HW218930   1.551   3.712   3.572
 6011SOL     OW18931   4.886   2.781   2.958
 6011SOL    HW118932   4.890   2.876   2.928
 6011SOL    HW218933   4.802   2.767   3.012
 6012SOL     OW18934   5.219   0.866   0.237
 6012SOL    HW118935   5.209   0.962   0.264
 6012SOL    HW218936   5.306   0.831   0.271
 6013SOL     OW18937   5.969   2.977   2.413
 6013SOL    HW118938   5.909   3.056   2.421
 6013SOL    HW218939   5.986   2.958   2.316
 6014SOL     OW18940   4.340   2.912   0.580
 6014SOL    HW118941   4.341   2.849   0.501
 6014SOL    HW218942   4.427   2.906   0.629
 6015SOL     OW18943   5.532   2.242   4.843
 6015SOL    HW118944   5.529   2.226   4.744
 6015SOL    HW218945   5.619   2.207   4.879
 6016SOL     OW18946   6.623   1.476   6.031
 6016SOL    HW118947   6.639   1.534   5.951
 6016SOL    HW218948   6.697   1.409   6.039
 6017SOL     OW18949   0.209   4.554   2.742
 6017SOL    HW118950   0.128   4.496   2.753
 6017SOL    HW218951   0.279   4.504   2.691
 6018SOL     OW18952   3.122   0.974   6.927
 6018SOL    HW118953   3.205   1.007   6.881
 6018SOL    HW218954   3.143   0.890   6.976
 6019SOL     OW18955   6.339   1.884   4.075
 6019SOL    HW118956   6.326   1.970   4.124
 6019SOL    HW218957   6.401   1.899   3.997
 6020SOL     OW18958   2.219   5.079   1.599
 6020SOL    HW118959   2.260   5.165   1.568
 6020SOL    HW218960   2.290   5.021   1.639
 6021SOL     OW18961   4.119   1.169   2.481
 6021SOL    HW118962   4.167   1.112   2.414
 6021SOL    HW218963   4.157   1.152   2.572
 6022SOL     OW18964   5.066   1.998   4.706
 6022SOL    HW118965   5.148   2.049   4.731
 6022SOL    HW218966   4.993   2.061   4.683
 6023SOL     OW18967   5.709   1.001   1.821
 6023SOL    HW118968   5.797   1.047   1.826
 6023SOL    HW218969   5.723   0.904   1.804
 6024SOL     OW18970   0.519   4.678   3.002
 6024SOL    HW118971   0.477   4.766   3.025
 6024SOL    HW218972   0.542   4.629   3.085
 6025SOL     OW18973   3.658   1.636   2.556
 6025SOL    HW118974   3.603   1.670   2.633
 6025SOL    HW218975   3.635   1.688   2.474
 6026SOL     OW18976   0.066   4.141   4.554
 6026SOL    HW118977   0.014   4.079   4.494
 6026SOL    HW218978   0.054   4.113   4.649
 6027SOL     OW18979   1.254   3.520   6.267
 6027SOL    HW118980   1.326   3.453   6.286
 6027SOL    HW218981   1.256   3.592   6.336
 6028SOL     OW18982   0.965   4.346   0.705
 6028SOL    HW118983   0.869   4.368   0.723
 6028SOL    HW218984   0.989   4.262   0.753
 6029SOL     OW18985   2.251   6.443   4.980
 6029SOL    HW118986   2.269   6.384   4.901
 6029SOL    HW218987   2.298   6.530   4.968
 6030SOL     OW18988   4.228   6.386   2.668
 6030SOL    HW118989   4.171   6.354   2.591
 6030SOL    HW218990   4.178   6.455   2.720
 6031SOL     OW18991   3.827   5.337   3.160
 6031SOL    HW118992   3.859   5.268   3.225
 6031SOL    HW218993   3.824   5.426   3.206
 6032SOL     OW18994   2.223   3.955   3.124
 6032SOL    HW118995   2.126   3.944   3.100
 6032SOL    HW218996   2.256   4.043   3.089
 6033SOL     OW18997   2.984   1.663   2.404
 6033SOL    HW118998   3.065   1.606   2.413
 6033SOL    HW218999   2.907   1.607   2.374
 6034SOL     OW19000   1.190   5.504   4.494
 6034SOL    HW119001   1.264   5.439   4.508
 6034SOL    HW219002   1.166   5.547   4.581
 6035SOL     OW19003   0.162   0.427   2.788
 6035SOL    HW119004   0.081   0.371   2.771
 6035SOL    HW219005   0.158   0.510   2.732
 6036SOL     OW19006   6.463   5.972   4.570
 6036SOL    HW119007   6.374   5.948   4.610
 6036SOL    HW219008   6.504   6.046   4.623
 6037SOL     OW19009   4.253   5.039   6.225
 6037SOL    HW119010   4.316   4.990   6.165
 6037SOL    HW219011   4.305   5.089   6.295
 6038SOL     OW19012   1.291   3.025   6.256
 6038SOL    HW119013   1.298   2.930   6.225
 6038SOL    HW219014   1.360   3.080   6.209
 6039SOL     OW19015   3.169   2.954   2.631
 6039SOL    HW119016   3.188   3.051   2.617
 6039SOL    HW219017   3.094   2.943   2.696
 6040SOL     OW19018   0.486   2.131   6.557
 6040SOL    HW119019   0.494   2.043   6.510
 6040SOL    HW219020   0.420   2.189   6.508
 6041SOL     OW19021   2.209   0.717   5.414
 6041SOL    HW119022   2.203   0.817   5.407
 6041SOL    HW219023   2.287   0.685   5.361
 6042SOL     OW19024   5.420   5.493   2.262
 6042SOL    HW119025   5.379   5.582   2.280
 6042SOL    HW219026   5.502   5.505   2.205
 6043SOL     OW19027   0.922   4.357   5.471
 6043SOL    HW119028   0.855   4.340   5.543
 6043SOL    HW219029   1.014   4.348   5.510
 6044SOL     OW19030   1.720   2.009   1.446
 6044SOL    HW119031   1.734   2.027   1.543
 6044SOL    HW219032   1.725   1.911   1.429
 6045SOL     OW19033   6.527   5.001   0.785
 6045SOL    HW119034   6.515   4.902   0.782
 6045SOL    HW219035   6.467   5.044   0.718
 6046SOL     OW19036   2.973   1.895   0.208
 6046SOL    HW119037   2.996   1.920   0.302
 6046SOL    HW219038   2.985   1.796   0.196
 6047SOL     OW19039   5.953   2.596   2.227
 6047SOL    HW119040   5.964   2.693   2.206
 6047SOL    HW219041   5.990   2.542   2.151
 6048SOL     OW19042   4.601   6.043   4.366
 6048SOL    HW119043   4.680   6.022   4.423
 6048SOL    HW219044   4.537   5.965   4.368
 6049SOL     OW19045   6.030   3.311   5.967
 6049SOL    HW119046   5.971   3.391   5.957
 6049SOL    HW219047   6.005   3.243   5.898
 6050SOL     OW19048   2.929   5.195   4.946
 6050SOL    HW119049   2.894   5.123   5.006
 6050SOL    HW219050   2.852   5.246   4.907
 6051SOL     OW19051   2.331   1.768   4.312
 6051SOL    HW119052   2.383   1.792   4.394
 6051SOL    HW219053   2.364   1.681   4.276
 6052SOL     OW19054   6.325   6.602   0.453
 6052SOL    HW119055   6.368   6.599   0.543
 6052SOL    HW219056   6.229   6.574   0.462
 6053SOL     OW19057   3.290   0.938   6.253
 6053SOL    HW119058   3.219   0.984   6.200
 6053SOL    HW219059   3.332   0.866   6.197
 6054SOL     OW19060   2.417   3.919   0.508
 6054SOL    HW119061   2.354   3.841   0.502
 6054SOL    HW219062   2.509   3.886   0.528
 6055SOL     OW19063   5.339   1.319   5.598
 6055SOL    HW119064   5.418   1.287   5.650
 6055SOL    HW219065   5.306   1.406   5.636
 6056SOL     OW19066   5.081   2.958   4.696
 6056SOL    HW119067   5.057   2.868   4.733
 6056SOL    HW219068   5.030   3.029   4.745
 6057SOL     OW19069   5.346   2.954   4.668
 6057SOL    HW119070   5.401   3.004   4.734
 6057SOL    HW219071   5.250   2.981   4.676
 6058SOL     OW19072   4.920   2.681   1.735
 6058SOL    HW119073   4.985   2.636   1.796
 6058SOL    HW219074   4.903   2.775   1.768
 6059SOL     OW19075   4.978   5.318   4.776
 6059SOL    HW119076   4.990   5.313   4.875
 6059SOL    HW219077   5.013   5.235   4.733
 6060SOL     OW19078   3.483   4.227   6.497
 6060SOL    HW119079   3.399   4.274   6.520
 6060SOL    HW219080   3.482   4.202   6.400
 6061SOL     OW19081   3.827   2.019   1.452
 6061SOL    HW119082   3.771   2.073   1.516
 6061SOL    HW219083   3.910   1.988   1.498
 6062SOL     OW19084   1.549   1.543   4.941
 6062SOL    HW119085   1.524   1.463   4.996
 6062SOL    HW219086   1.574   1.515   4.849
 6063SOL     OW19087   3.227   1.251   6.695
 6063SOL    HW119088   3.161   1.287   6.630
 6063SOL    HW219089   3.278   1.176   6.653
 6064SOL     OW19090   2.478   6.211   1.662
 6064SOL    HW119091   2.551   6.244   1.722
 6064SOL    HW219092   2.500   6.117   1.633
 6065SOL     OW19093   5.857   6.715   2.198
 6065SOL    HW119094   5.945   6.716   2.151
 6065SOL    HW219095   5.808   6.631   2.175
 6066SOL     OW19096   4.608   2.015   6.577
 6066SOL    HW119097   4.655   2.080   6.518
 6066SOL    HW219098   4.640   2.026   6.671
 6067SOL     OW19099   5.350   1.548   6.098
 6067SOL    HW119100   5.426   1.577   6.156
 6067SOL    HW219101   5.275   1.516   6.155
 6068SOL     OW19102   5.748   2.824   4.792
 6068SOL    HW119103   5.662   2.776   4.771
 6068SOL    HW219104   5.757   2.903   4.731
 6069SOL     OW19105   6.768   3.215   5.321
 6069SOL    HW119106   6.768   3.273   5.240
 6069SOL    HW219107   6.699   3.144   5.311
 6070SOL     OW19108   2.242   2.151   0.084
 6070SOL    HW119109   2.165   2.210   0.111
 6070SOL    HW219110   2.308   2.205   0.031
 6071SOL     OW19111   5.913   4.785   4.518
 6071SOL    HW119112   5.815   4.767   4.507
 6071SOL    HW219113   5.942   4.757   4.609
 6072SOL     OW19114   6.959   0.076   2.174
 6072SOL    HW119115   6.914   0.151   2.221
 6072SOL    HW219116   6.930   7.009   2.214
 6073SOL     OW19117   6.144   4.047   0.603
 6073SOL    HW119118   6.191   4.107   0.539
 6073SOL    HW219119   6.063   4.008   0.559
 6074SOL     OW19120   1.333   6.287   4.533
 6074SOL    HW119121   1.250   6.234   4.516
 6074SOL    HW219122   1.309   6.380   4.561
 6075SOL     OW19123   6.928   2.175   0.064
 6075SOL    HW119124   0.007   2.158   0.068
 6075SOL    HW219125   6.879   2.089   0.077
 6076SOL     OW19126   2.179   5.954   4.264
 6076SOL    HW119127   2.239   5.962   4.184
 6076SOL    HW219128   2.199   5.869   4.312
 6077SOL     OW19129   4.816   5.906   1.971
 6077SOL    HW119130   4.889   5.949   1.918
 6077SOL    HW219131   4.811   5.948   2.062
 6078SOL     OW19132   3.965   5.086   1.350
 6078SOL    HW119133   3.930   5.166   1.399
 6078SOL    HW219134   3.889   5.037   1.307
 6079SOL     OW19135   3.070   2.811   6.352
 6079SOL    HW119136   2.981   2.808   6.399
 6079SOL    HW219137   3.060   2.860   6.265
 6080SOL     OW19138   6.834   0.864   1.691
 6080SOL    HW119139   6.787   0.803   1.628
 6080SOL    HW219140   6.793   0.955   1.687
 6081SOL     OW19141   6.185   3.247   5.022
 6081SOL    HW119142   6.261   3.286   5.073
 6081SOL    HW219143   6.122   3.203   5.086
 6082SOL     OW19144   2.580   1.936   3.353
 6082SOL    HW119145   2.658   1.889   3.396
 6082SOL    HW219146   2.495   1.893   3.384
 6083SOL     OW19147   0.231   5.107   6.701
 6083SOL    HW119148   0.142   5.150   6.712
 6083SOL    HW219149   0.220   5.009   6.687
 6084SOL     OW19150   0.189   5.622   3.528
 6084SOL    HW119151   0.127   5.574   3.465
 6084SOL    HW219152   0.282   5.586   3.518
 6085SOL     OW19153   0.388   4.355   0.338
 6085SOL    HW119154   0.472   4.326   0.384
 6085SOL    HW219155   0.393   4.453   0.319
 6086SOL     OW19156   3.053   1.717   5.330
 6086SOL    HW119157   3.136   1.673   5.296
 6086SOL    HW219158   3.077   1.805   5.372
 6087SOL     OW19159   4.287   5.759   0.384
 6087SOL    HW119160   4.377   5.728   0.413
 6087SOL    HW219161   4.265   5.720   0.295
 6088SOL     OW19162   5.913   6.467   4.751
 6088SOL    HW119163   5.905   6.399   4.679
 6088SOL    HW219164   5.822   6.488   4.788
 6089SOL     OW19165   6.708   3.296   1.360
 6089SOL    HW119166   6.640   3.323   1.428
 6089SOL    HW219167   6.705   3.197   1.347
 6090SOL     OW19168   2.264   6.501   5.634
 6090SOL    HW119169   2.209   6.448   5.698
 6090SOL    HW219170   2.204   6.547   5.568
 6091SOL     OW19171   2.308   1.766   2.176
 6091SOL    HW119172   2.283   1.715   2.094
 6091SOL    HW219173   2.267   1.857   2.173
 6092SOL     OW19174   3.183   0.343   3.237
 6092SOL    HW119175   3.276   0.379   3.223
 6092SOL    HW219176   3.122   0.418   3.262
 6093SOL     OW19177   0.928   3.312   3.031
 6093SOL    HW119178   0.976   3.396   3.058
 6093SOL    HW219179   0.891   3.267   3.113
 6094SOL     OW19180   4.022   1.038   1.723
 6094SOL    HW119181   3.964   0.974   1.672
 6094SOL    HW219182   4.095   1.072   1.663
 6095SOL     OW19183   4.083   3.855   6.749
 6095SOL    HW119184   4.107   3.926   6.683
 6095SOL    HW219185   4.159   3.791   6.758
 6096SOL     OW19186   5.887   0.682   4.195
 6096SOL    HW119187   5.909   0.602   4.139
 6096SOL    HW219188   5.900   0.660   4.291
 6097SOL     OW19189   1.690   0.257   2.256
 6097SOL    HW119190   1.626   0.313   2.308
 6097SOL    HW219191   1.750   0.315   2.202
 6098SOL     OW19192   1.466   2.336   6.579
 6098SOL    HW119193   1.533   2.262   6.585
 6098SOL    HW219194   1.402   2.330   6.655
 6099SOL     OW19195   0.058   5.924   0.595
 6099SOL    HW119196   0.048   6.023   0.596
 6099SOL    HW219197   0.113   5.894   0.673
 6100SOL     OW19198   4.876   3.638   0.137
 6100SOL    HW119199   4.870   3.540   0.155
 6100SOL    HW219200   4.891   3.687   0.223
 6101SOL     OW19201   6.464   1.964   4.686
 6101SOL    HW119202   6.439   1.867   4.679
 6101SOL    HW219203   6.418   2.004   4.766
 6102SOL     OW19204   3.547   0.208   3.442
 6102SOL    HW119205   3.457   0.233   3.478
 6102SOL    HW219206   3.618   0.239   3.505
 6103SOL     OW19207   0.701   2.596   2.354
 6103SOL    HW119208   0.720   2.548   2.268
 6103SOL    HW219209   0.697   2.694   2.337
 6104SOL     OW19210   6.081   1.673   5.762
 6104SOL    HW119211   6.027   1.689   5.679
 6104SOL    HW219212   6.091   1.759   5.812
 6105SOL     OW19213   1.795   0.867   5.548
 6105SOL    HW119214   1.823   0.817   5.630
 6105SOL    HW219215   1.800   0.965   5.567
 6106SOL     OW19216   1.636   3.717   5.768
 6106SOL    HW119217   1.682   3.630   5.754
 6106SOL    HW219218   1.563   3.706   5.836
 6107SOL     OW19219   2.559   4.685   4.192
 6107SOL    HW119220   2.537   4.704   4.097
 6107SOL    HW219221   2.515   4.601   4.221
 6108SOL     OW19222   0.845   2.700   2.050
 6108SOL    HW119223   0.779   2.735   1.983
 6108SOL    HW219224   0.861   2.769   2.120
 6109SOL     OW19225   4.836   2.943   6.487
 6109SOL    HW119226   4.894   2.960   6.566
 6109SOL    HW219227   4.804   3.030   6.449
 6110SOL     OW19228   3.483   2.782   6.813
 6110SOL    HW119229   3.388   2.809   6.831
 6110SOL    HW219230   3.524   2.848   6.750
 6111SOL     OW19231   2.455   4.516   2.238
 6111SOL    HW119232   2.473   4.448   2.309
 6111SOL    HW219233   2.408   4.473   2.161
 6112SOL     OW19234   3.304   0.282   3.505
 6112SOL    HW119235   3.260   0.289   3.595
 6112SOL    HW219236   3.250   0.334   3.438
 6113SOL     OW19237   0.993   1.159   5.976
 6113SOL    HW119238   1.050   1.114   6.045
 6113SOL    HW219239   0.964   1.091   5.908
 6114SOL     OW19240   4.866   4.956   0.882
 6114SOL    HW119241   4.860   4.985   0.977
 6114SOL    HW219242   4.814   5.019   0.824
 6115SOL     OW19243   5.377   6.618   3.474
 6115SOL    HW119244   5.468   6.625   3.515
 6115SOL    HW219245   5.326   6.703   3.491
 6116SOL     OW19246   2.565   0.768   0.058
 6116SOL    HW119247   2.629   0.842   0.080
 6116SOL    HW219248   2.495   0.762   0.129
 6117SOL     OW19249   6.992   0.701   6.003
 6117SOL    HW119250   6.940   0.734   6.082
 6117SOL    HW219251   6.928   0.679   5.928
 6118SOL     OW19252   6.478   0.746   1.399
 6118SOL    HW119253   6.477   0.699   1.311
 6118SOL    HW219254   6.547   0.704   1.458
 6119SOL     OW19255   0.316   3.495   5.139
 6119SOL    HW119256   0.282   3.578   5.184
 6119SOL    HW219257   0.403   3.468   5.180
 6120SOL     OW19258   4.396   6.985   4.141
 6120SOL    HW119259   4.479   7.005   4.088
 6120SOL    HW219260   4.321   0.023   4.108
 6121SOL     OW19261   0.454   3.357   4.920
 6121SOL    HW119262   0.439   3.455   4.937
 6121SOL    HW219263   0.395   3.327   4.845
 6122SOL     OW19264   3.877   6.939   1.544
 6122SOL    HW119265   3.809   6.996   1.591
 6122SOL    HW219266   3.967   6.984   1.550
 6123SOL     OW19267   6.813   0.343   6.647
 6123SOL    HW119268   6.911   0.324   6.639
 6123SOL    HW219269   6.761   0.269   6.604
 6124SOL     OW19270   1.741   1.148   0.061
 6124SOL    HW119271   1.835   1.148   0.095
 6124SOL    HW219272   1.687   1.216   0.111
 6125SOL     OW19273   2.847   5.616   0.254
 6125SOL    HW119274   2.818   5.521   0.244
 6125SOL    HW219275   2.915   5.638   0.185
 6126SOL     OW19276   6.770   6.629   4.292
 6126SOL    HW119277   6.848   6.570   4.270
 6126SOL    HW219278   6.702   6.622   4.219
 6127SOL     OW19279   2.646   0.124   2.395
 6127SOL    HW119280   2.656   0.151   2.491
 6127SOL    HW219281   2.589   0.190   2.347
 6128SOL     OW19282   6.221   3.529   0.386
 6128SOL    HW119283   6.135   3.516   0.435
 6128SOL    HW219284   6.234   3.453   0.322
 6129SOL     OW19285   6.459   3.857   3.080
 6129SOL    HW119286   6.453   3.943   3.029
 6129SOL    HW219287   6.502   3.787   3.023
 6130SOL     OW19288   6.087   2.159   4.160
 6130SOL    HW119289   6.102   2.185   4.064
 6130SOL    HW219290   6.132   2.225   4.219
 6131SOL     OW19291   6.906   1.511   5.145
 6131SOL    HW119292   6.947   1.586   5.196
 6131SOL    HW219293   6.914   1.426   5.196
 6132SOL     OW19294   4.848   1.221   0.227
 6132SOL    HW119295   4.837   1.168   0.311
 6132SOL    HW219296   4.880   1.313   0.249
 6133SOL     OW19297   0.850   2.425   2.569
 6133SOL    HW119298   0.821   2.476   2.488
 6133SOL    HW219299   0.942   2.389   2.555
 6134SOL     OW19300   3.894   4.455   6.741
 6134SOL    HW119301   3.938   4.413   6.661
 6134SOL    HW219302   3.898   4.392   6.818
 6135SOL     OW19303   0.149   0.036   1.647
 6135SOL    HW119304   0.138   0.133   1.669
 6135SOL    HW219305   0.165   0.026   1.549
 6136SOL     OW19306   0.981   2.458   1.963
 6136SOL    HW119307   0.915   2.390   1.931
 6136SOL    HW219308   0.933   2.536   2.003
 6137SOL     OW19309   5.760   1.918   4.143
 6137SOL    HW119310   5.790   1.903   4.049
 6137SOL    HW219311   5.729   2.012   4.154
 6138SOL     OW19312   4.275   6.190   1.959
 6138SOL    HW119313   4.360   6.139   1.975
 6138SOL    HW219314   4.283   6.243   1.875
 6139SOL     OW19315   2.405   2.093   5.664
 6139SOL    HW119316   2.381   2.189   5.651
 6139SOL    HW219317   2.323   2.041   5.687
 6140SOL     OW19318   0.436   6.172   1.766
 6140SOL    HW119319   0.382   6.225   1.831
 6140SOL    HW219320   0.534   6.189   1.782
 6141SOL     OW19321   5.789   5.866   6.058
 6141SOL    HW119322   5.696   5.895   6.080
 6141SOL    HW219323   5.843   5.945   6.031
 6142SOL     OW19324   6.930   5.211   0.802
 6142SOL    HW119325   6.836   5.241   0.823
 6142SOL    HW219326   6.927   5.141   0.731
 6143SOL     OW19327   6.187   4.771   0.487
 6143SOL    HW119328   6.265   4.707   0.480
 6143SOL    HW219329   6.196   4.824   0.571
 6144SOL     OW19330   5.952   4.861   2.764
 6144SOL    HW119331   5.937   4.943   2.819
 6144SOL    HW219332   5.986   4.888   2.674
 6145SOL     OW19333   4.646   5.634   4.251
 6145SOL    HW119334   4.709   5.650   4.326
 6145SOL    HW219335   4.629   5.536   4.242
 6146SOL     OW19336   3.641   0.561   3.464
 6146SOL    HW119337   3.680   0.470   3.474
 6146SOL    HW219338   3.546   0.554   3.432
 6147SOL     OW19339   1.525   4.067   4.108
 6147SOL    HW119340   1.535   4.124   4.027
 6147SOL    HW219341   1.490   3.977   4.082
 6148SOL     OW19342   0.232   6.676   4.912
 6148SOL    HW119343   0.166   6.653   4.841
 6148SOL    HW219344   0.204   6.761   4.957
 6149SOL     OW19345   3.617   5.137   2.021
 6149SOL    HW119346   3.683   5.114   1.949
 6149SOL    HW219347   3.577   5.227   2.002
 6150SOL     OW19348   3.851   4.612   6.433
 6150SOL    HW119349   3.947   4.585   6.424
 6150SOL    HW219350   3.826   4.612   6.530
 6151SOL     OW19351   6.310   3.702   5.528
 6151SOL    HW119352   6.296   3.791   5.573
 6151SOL    HW219353   6.238   3.689   5.460
 6152SOL     OW19354   5.869   5.570   5.271
 6152SOL    HW119355   5.806   5.582   5.348
 6152SOL    HW219356   5.944   5.636   5.279
 6153SOL     OW19357   4.704   3.540   1.713
 6153SOL    HW119358   4.774   3.611   1.725
 6153SOL    HW219359   4.635   3.572   1.648
 6154SOL     OW19360   6.038   1.731   2.685
 6154SOL    HW119361   6.105   1.799   2.715
 6154SOL    HW219362   5.985   1.769   2.609
 6155SOL     OW19363   1.988   2.156   4.406
 6155SOL    HW119364   2.057   2.084   4.400
 6155SOL    HW219365   2.032   2.245   4.408
 6156SOL     OW19366   4.526   5.109   2.437
 6156SOL    HW119367   4.456   5.042   2.413
 6156SOL    HW219368   4.502   5.154   2.523
 6157SOL     OW19369   1.409   1.562   4.185
 6157SOL    HW119370   1.472   1.485   4.173
 6157SOL    HW219371   1.364   1.583   4.098
 6158SOL     OW19372   4.272   0.885   5.782
 6158SOL    HW119373   4.318   0.797   5.773
 6158SOL    HW219374   4.337   0.959   5.767
 6159SOL     OW19375   4.768   2.226   1.737
 6159SOL    HW119376   4.683   2.200   1.785
 6159SOL    HW219377   4.748   2.296   1.669
 6160SOL     OW19378   4.397   6.665   6.565
 6160SOL    HW119379   4.481   6.687   6.614
 6160SOL    HW219380   4.340   6.747   6.555
 6161SOL     OW19381   6.313   1.648   5.177
 6161SOL    HW119382   6.269   1.613   5.260
 6161SOL    HW219383   6.391   1.590   5.154
 6162SOL     OW19384   1.342   6.345   3.582
 6162SOL    HW119385   1.366   6.379   3.492
 6162SOL    HW219386   1.393   6.395   3.652
 6163SOL     OW19387   5.565   6.051   1.401
 6163SOL    HW119388   5.610   6.117   1.340
 6163SOL    HW219389   5.633   5.986   1.435
 6164SOL     OW19390   3.004   2.990   1.656
 6164SOL    HW119391   2.930   2.933   1.690
 6164SOL    HW219392   2.982   3.021   1.563
 6165SOL     OW19393   4.750   0.341   6.550
 6165SOL    HW119394   4.797   0.272   6.496
 6165SOL    HW219395   4.706   0.298   6.630
 6166SOL     OW19396   4.054   0.480   6.222
 6166SOL    HW119397   4.116   0.551   6.190
 6166SOL    HW219398   3.982   0.521   6.277
 6167SOL     OW19399   1.297   4.133   3.020
 6167SOL    HW119400   1.385   4.140   3.068
 6167SOL    HW219401   1.308   4.075   2.940
 6168SOL     OW19402   0.729   3.173   1.292
 6168SOL    HW119403   0.762   3.264   1.317
 6168SOL    HW219404   0.704   3.172   1.195
 6169SOL     OW19405   1.557   3.200   1.470
 6169SOL    HW119406   1.629   3.165   1.409
 6169SOL    HW219407   1.566   3.299   1.479
 6170SOL     OW19408   0.853   3.809   5.388
 6170SOL    HW119409   0.878   3.830   5.294
 6170SOL    HW219410   0.832   3.894   5.437
 6171SOL     OW19411   0.672   2.491   0.414
 6171SOL    HW119412   0.640   2.533   0.499
 6171SOL    HW219413   0.612   2.414   0.389
 6172SOL     OW19414   1.376   2.892   2.454
 6172SOL    HW119415   1.467   2.896   2.496
 6172SOL    HW219416   1.381   2.838   2.370
 6173SOL     OW19417   6.593   5.016   2.960
 6173SOL    HW119418   6.535   5.093   2.986
 6173SOL    HW219419   6.656   5.045   2.888
 6174SOL     OW19420   5.316   5.872   3.827
 6174SOL    HW119421   5.244   5.912   3.884
 6174SOL    HW219422   5.278   5.797   3.773
 6175SOL     OW19423   4.022   0.590   3.972
 6175SOL    HW119424   4.072   0.665   4.015
 6175SOL    HW219425   3.940   0.569   4.026
 6176SOL     OW19426   5.647   3.940   5.680
 6176SOL    HW119427   5.678   3.871   5.615
 6176SOL    HW219428   5.600   3.895   5.757
 6177SOL     OW19429   5.785   1.673   1.766
 6177SOL    HW119430   5.830   1.707   1.684
 6177SOL    HW219431   5.789   1.573   1.767
 6178SOL     OW19432   5.212   5.014   1.955
 6178SOL    HW119433   5.287   5.067   1.996
 6178SOL    HW219434   5.248   4.928   1.918
 6179SOL     OW19435   6.788   4.581   2.836
 6179SOL    HW119436   6.867   4.563   2.894
 6179SOL    HW219437   6.810   4.654   2.771
 6180SOL     OW19438   2.604   4.909   0.934
 6180SOL    HW119439   2.656   4.986   0.971
 6180SOL    HW219440   2.615   4.830   0.994
 6181SOL     OW19441   4.791   6.461   5.957
 6181SOL    HW119442   4.707   6.407   5.962
 6181SOL    HW219443   4.785   6.525   5.881
 6182SOL     OW19444   4.128   2.886   6.367
 6182SOL    HW119445   4.206   2.848   6.416
 6182SOL    HW219446   4.045   2.837   6.392
 6183SOL     OW19447   1.845   2.401   2.949
 6183SOL    HW119448   1.887   2.466   2.886
 6183SOL    HW219449   1.837   2.312   2.905
 6184SOL     OW19450   3.229   6.530   6.206
 6184SOL    HW119451   3.261   6.622   6.228
 6184SOL    HW219452   3.132   6.522   6.228
 6185SOL     OW19453   0.551   3.817   6.439
 6185SOL    HW119454   0.644   3.841   6.464
 6185SOL    HW219455   0.500   3.788   6.520
 6186SOL     OW19456   5.783   1.092   0.662
 6186SOL    HW119457   5.730   1.134   0.736
 6186SOL    HW219458   5.854   1.034   0.701
 6187SOL     OW19459   5.146   2.789   4.094
 6187SOL    HW119460   5.225   2.779   4.154
 6187SOL    HW219461   5.123   2.699   4.055
 6188SOL     OW19462   1.490   1.889   6.371
 6188SOL    HW119463   1.452   1.956   6.307
 6188SOL    HW219464   1.441   1.802   6.361
 6189SOL     OW19465   4.410   4.900   2.830
 6189SOL    HW119466   4.509   4.897   2.820
 6189SOL    HW219467   4.384   4.852   2.914
 6190SOL     OW19468   0.108   3.874   5.086
 6190SOL    HW119469   0.139   3.934   5.013
 6190SOL    HW219470   0.021   3.907   5.122
 6191SOL     OW19471   2.775   2.740   6.459
 6191SOL    HW119472   2.711   2.788   6.398
 6191SOL    HW219473   2.735   2.735   6.550
 6192SOL     OW19474   2.597   2.197   6.536
 6192SOL    HW119475   2.695   2.178   6.547
 6192SOL    HW219476   2.553   2.120   6.491
 6193SOL     OW19477   4.437   6.051   1.236
 6193SOL    HW119478   4.360   5.988   1.241
 6193SOL    HW219479   4.476   6.050   1.144
 6194SOL     OW19480   6.708   0.468   6.414
 6194SOL    HW119481   6.758   0.474   6.500
 6194SOL    HW219482   6.721   0.378   6.373
 6195SOL     OW19483   5.123   6.011   3.992
 6195SOL    HW119484   5.180   6.089   4.015
 6195SOL    HW219485   5.034   6.042   3.960
 6196SOL     OW19486   4.864   3.939   2.428
 6196SOL    HW119487   4.944   3.999   2.427
 6196SOL    HW219488   4.818   3.944   2.339
 6197SOL     OW19489   2.138   5.568   1.785
 6197SOL    HW119490   2.168   5.474   1.801
 6197SOL    HW219491   2.200   5.613   1.721
 6198SOL     OW19492   4.568   0.082   0.793
 6198SOL    HW119493   4.590   0.151   0.862
 6198SOL    HW219494   4.580   7.011   0.832
 6199SOL     OW19495   0.292   0.903   0.301
 6199SOL    HW119496   0.227   0.902   0.377
 6199SOL    HW219497   0.248   0.944   0.221
 6200SOL     OW19498   0.745   1.752   5.256
 6200SOL    HW119499   0.836   1.744   5.216
 6200SOL    HW219500   0.714   1.847   5.249
 6201SOL     OW19501   0.498   3.340   5.304
 6201SOL    HW119502   0.556   3.299   5.234
 6201SOL    HW219503   0.532   3.431   5.327
 6202SOL     OW19504   4.987   1.114   2.080
 6202SOL    HW119505   4.964   1.140   2.174
 6202SOL    HW219506   4.930   1.166   2.016
 6203SOL     OW19507   5.973   5.974   1.972
 6203SOL    HW119508   6.043   6.045   1.975
 6203SOL    HW219509   5.915   5.987   1.891
 6204SOL     OW19510   1.172   5.681   5.124
 6204SOL    HW119511   1.097   5.737   5.088
 6204SOL    HW219512   1.192   5.607   5.060
 6205SOL     OW19513   6.258   4.675   1.188
 6205SOL    HW119514   6.163   4.686   1.217
 6205SOL    HW219515   6.301   4.764   1.181
 6206SOL     OW19516   6.079   1.351   1.976
 6206SOL    HW119517   6.053   1.405   2.056
 6206SOL    HW219518   6.075   1.408   1.895
 6207SOL     OW19519   2.482   6.343   5.555
 6207SOL    HW119520   2.436   6.256   5.570
 6207SOL    HW219521   2.419   6.418   5.575
 6208SOL     OW19522   3.735   2.343   5.369
 6208SOL    HW119523   3.698   2.285   5.297
 6208SOL    HW219524   3.835   2.336   5.369
 6209SOL     OW19525   3.196   5.678   0.094
 6209SOL    HW119526   3.179   5.580   0.082
 6209SOL    HW219527   3.224   5.718   0.006
 6210SOL     OW19528   4.983   3.915   3.137
 6210SOL    HW119529   5.015   3.836   3.085
 6210SOL    HW219530   5.041   3.926   3.219
 6211SOL     OW19531   3.145   6.531   5.349
 6211SOL    HW119532   3.217   6.592   5.380
 6211SOL    HW219533   3.056   6.572   5.368
 6212SOL     OW19534   2.370   4.882   4.326
 6212SOL    HW119535   2.405   4.974   4.346
 6212SOL    HW219536   2.442   4.828   4.283
 6213SOL     OW19537   4.343   6.961   0.234
 6213SOL    HW119538   4.261   6.914   0.201
 6213SOL    HW219539   4.388   6.904   0.302
 6214SOL     OW19540   5.721   5.887   5.615
 6214SOL    HW119541   5.649   5.932   5.562
 6214SOL    HW219542   5.687   5.869   5.708
 6215SOL     OW19543   3.201   2.790   6.791
 6215SOL    HW119544   3.186   2.695   6.763
 6215SOL    HW219545   3.132   2.849   6.749
 6216SOL     OW19546   6.165   1.953   2.014
 6216SOL    HW119547   6.077   1.915   1.985
 6216SOL    HW219548   6.149   2.027   2.080
 6217SOL     OW19549   0.803   4.242   3.256
 6217SOL    HW119550   0.893   4.231   3.297
 6217SOL    HW219551   0.763   4.330   3.283
 6218SOL     OW19552   3.630   0.188   0.084
 6218SOL    HW119553   3.566   0.138   0.027
 6218SOL    HW219554   3.712   0.210   0.032
 6219SOL     OW19555   1.437   1.143   4.836
 6219SOL    HW119556   1.380   1.135   4.754
 6219SOL    HW219557   1.391   1.099   4.913
 6220SOL     OW19558   3.108   1.309   5.586
 6220SOL    HW119559   3.107   1.348   5.493
 6220SOL    HW219560   3.173   1.359   5.642
 6221SOL     OW19561   5.868   6.961   6.978
 6221SOL    HW119562   5.829   0.016   6.924
 6221SOL    HW219563   5.885   6.991   0.051
 6222SOL     OW19564   0.496   0.555   2.615
 6222SOL    HW119565   0.581   0.526   2.572
 6222SOL    HW219566   0.515   0.585   2.708
 6223SOL     OW19567   1.668   5.222   3.157
 6223SOL    HW119568   1.571   5.195   3.157
 6223SOL    HW219569   1.684   5.289   3.085
 6224SOL     OW19570   3.711   1.219   5.648
 6224SOL    HW119571   3.695   1.317   5.633
 6224SOL    HW219572   3.798   1.193   5.607
 6225SOL     OW19573   4.035   2.440   6.902
 6225SOL    HW119574   4.099   2.365   6.888
 6225SOL    HW219575   4.042   2.474   6.995
 6226SOL     OW19576   1.261   1.447   3.861
 6226SOL    HW119577   1.255   1.547   3.861
 6226SOL    HW219578   1.344   1.418   3.813
 6227SOL     OW19579   3.676   5.143   5.384
 6227SOL    HW119580   3.765   5.110   5.355
 6227SOL    HW219581   3.627   5.070   5.432
 6228SOL     OW19582   0.738   2.603   2.769
 6228SOL    HW119583   0.761   2.508   2.748
 6228SOL    HW219584   0.811   2.644   2.823
 6229SOL     OW19585   0.600   3.164   5.047
 6229SOL    HW119586   0.700   3.172   5.040
 6229SOL    HW219587   0.557   3.233   4.989
 6230SOL     OW19588   1.043   2.109   3.301
 6230SOL    HW119589   1.008   2.099   3.208
 6230SOL    HW219590   1.118   2.176   3.302
 6231SOL     OW19591   5.874   5.338   0.266
 6231SOL    HW119592   5.946   5.273   0.242
 6231SOL    HW219593   5.905   5.431   0.246
 6232SOL     OW19594   6.641   1.268   0.281
 6232SOL    HW119595   6.588   1.222   0.210
 6232SOL    HW219596   6.658   1.204   0.357
 6233SOL     OW19597   5.875   2.822   1.855
 6233SOL    HW119598   5.866   2.776   1.766
 6233SOL    HW219599   5.901   2.917   1.841
 6234SOL     OW19600   0.356   6.858   5.159
 6234SOL    HW119601   0.269   6.903   5.137
 6234SOL    HW219602   0.431   6.909   5.116
 6235SOL     OW19603   0.172   0.584   1.675
 6235SOL    HW119604   0.254   0.536   1.644
 6235SOL    HW219605   0.197   0.650   1.747
 6236SOL     OW19606   0.167   5.208   0.650
 6236SOL    HW119607   0.095   5.272   0.623
 6236SOL    HW219608   0.142   5.116   0.620
 6237SOL     OW19609   3.717   0.394   6.854
 6237SOL    HW119610   3.783   0.320   6.865
 6237SOL    HW219611   3.750   0.476   6.902
 6238SOL     OW19612   4.525   6.576   3.200
 6238SOL    HW119613   4.619   6.600   3.175
 6238SOL    HW219614   4.514   6.586   3.299
 6239SOL     OW19615   4.060   0.786   1.123
 6239SOL    HW119616   4.121   0.779   1.043
 6239SOL    HW219617   3.971   0.820   1.093
 6240SOL     OW19618   3.299   3.821   5.306
 6240SOL    HW119619   3.216   3.875   5.323
 6240SOL    HW219620   3.358   3.823   5.387
 6241SOL     OW19621   4.221   0.516   3.378
 6241SOL    HW119622   4.144   0.531   3.440
 6241SOL    HW219623   4.271   0.434   3.406
 6242SOL     OW19624   3.104   0.475   2.707
 6242SOL    HW119625   3.203   0.459   2.709
 6242SOL    HW219626   3.074   0.508   2.796
 6243SOL     OW19627   6.977   0.041   5.893
 6243SOL    HW119628   6.979   0.125   5.840
 6243SOL    HW219629   6.949   6.985   5.835
 6244SOL     OW19630   5.144   3.629   3.518
 6244SOL    HW119631   5.222   3.673   3.474
 6244SOL    HW219632   5.111   3.687   3.593
 6245SOL     OW19633   1.028   4.508   1.970
 6245SOL    HW119634   0.930   4.485   1.968
 6245SOL    HW219635   1.077   4.453   1.903
 6246SOL     OW19636   0.961   0.910   4.814
 6246SOL    HW119637   1.011   0.977   4.869
 6246SOL    HW219638   0.995   0.912   4.720
 6247SOL     OW19639   1.690   6.631   3.446
 6247SOL    HW119640   1.705   6.574   3.527
 6247SOL    HW219641   1.724   6.584   3.365
 6248SOL     OW19642   3.235   3.980   0.119
 6248SOL    HW119643   3.164   4.046   0.145
 6248SOL    HW219644   3.213   3.891   0.159
 6249SOL     OW19645   6.807   2.544   0.779
 6249SOL    HW119646   6.860   2.622   0.747
 6249SOL    HW219647   6.868   2.469   0.801
 6250SOL     OW19648   6.777   6.834   0.627
 6250SOL    HW119649   6.794   6.743   0.665
 6250SOL    HW219650   6.843   6.852   0.554
 6251SOL     OW19651   3.822   6.343   4.739
 6251SOL    HW119652   3.883   6.310   4.666
 6251SOL    HW219653   3.873   6.405   4.799
 6252SOL     OW19654   2.595   4.522   6.969
 6252SOL    HW119655   2.668   4.519   0.018
 6252SOL    HW219656   2.620   4.462   6.893
 6253SOL     OW19657   2.374   5.129   4.643
 6253SOL    HW119658   2.470   5.148   4.622
 6253SOL    HW219659   2.316   5.171   4.574
 6254SOL     OW19660   6.779   0.106   0.601
 6254SOL    HW119661   6.785   0.008   0.619
 6254SOL    HW219662   6.833   0.129   0.520
 6255SOL     OW19663   2.299   1.935   0.664
 6255SOL    HW119664   2.248   1.931   0.750
 6255SOL    HW219665   2.319   2.031   0.642
 6256SOL     OW19666   4.490   5.261   2.672
 6256SOL    HW119667   4.431   5.219   2.741
 6256SOL    HW219668   4.540   5.337   2.712
 6257SOL     OW19669   3.863   2.987   0.182
 6257SOL    HW119670   3.954   2.969   0.144
 6257SOL    HW219671   3.840   3.083   0.169
 6258SOL     OW19672   3.561   6.871   4.557
 6258SOL    HW119673   3.643   6.856   4.502
 6258SOL    HW219674   3.555   6.800   4.628
 6259SOL     OW19675   2.123   1.005   6.322
 6259SOL    HW119676   2.101   0.908   6.324
 6259SOL    HW219677   2.068   1.050   6.251
 6260SOL     OW19678   3.331   0.372   0.631
 6260SOL    HW119679   3.417   0.336   0.668
 6260SOL    HW219680   3.256   0.351   0.694
 6261SOL     OW19681   4.488   6.563   0.464
 6261SOL    HW119682   4.533   6.562   0.554
 6261SOL    HW219683   4.550   6.525   0.396
 6262SOL     OW19684   1.546   5.998   2.222
 6262SOL    HW119685   1.594   5.949   2.295
 6262SOL    HW219686   1.455   6.024   2.254
 6263SOL     OW19687   0.839   6.659   5.490
 6263SOL    HW119688   0.804   6.578   5.443
 6263SOL    HW219689   0.827   6.740   5.431
 6264SOL     OW19690   1.728   0.222   1.882
 6264SOL    HW119691   1.675   0.157   1.936
 6264SOL    HW219692   1.824   0.219   1.911
 6265SOL     OW19693   4.183   3.467   0.808
 6265SOL    HW119694   4.132   3.457   0.723
 6265SOL    HW219695   4.266   3.412   0.804
 6266SOL     OW19696   4.508   6.307   3.117
 6266SOL    HW119697   4.542   6.284   3.026
 6266SOL    HW219698   4.539   6.399   3.141
 6267SOL     OW19699   1.813   0.059   4.848
 6267SOL    HW119700   1.715   0.071   4.839
 6267SOL    HW219701   1.834   0.018   4.937
 6268SOL     OW19702   2.948   0.942   1.826
 6268SOL    HW119703   2.924   0.879   1.900
 6268SOL    HW219704   2.913   1.033   1.846
 6269SOL     OW19705   6.010   0.031   2.072
 6269SOL    HW119706   5.964   0.085   2.142
 6269SOL    HW219707   6.084   0.085   2.031
 6270SOL     OW19708   0.541   0.015   0.028
 6270SOL    HW119709   0.598   6.955   0.005
 6270SOL    HW219710   0.462   7.005   0.081
 6271SOL     OW19711   6.244   2.734   6.554
 6271SOL    HW119712   6.304   2.811   6.534
 6271SOL    HW219713   6.233   2.726   6.653
 6272SOL     OW19714   0.580   1.524   0.388
 6272SOL    HW119715   0.632   1.495   0.468
 6272SOL    HW219716   0.517   1.598   0.414
 6273SOL     OW19717   0.516   5.613   2.977
 6273SOL    HW119718   0.461   5.689   2.942
 6273SOL    HW219719   0.456   5.541   3.012
 6274SOL     OW19720   3.035   0.077   4.668
 6274SOL    HW119721   3.088   0.089   4.752
 6274SOL    HW219722   3.086   0.019   4.604
 6275SOL     OW19723   2.442   6.037   0.609
 6275SOL    HW119724   2.353   6.062   0.648
 6275SOL    HW219725   2.436   5.947   0.568
 6276SOL     OW19726   3.598   5.531   3.374
 6276SOL    HW119727   3.529   5.601   3.396
 6276SOL    HW219728   3.659   5.520   3.452
 6277SOL     OW19729   4.835   2.060   1.186
 6277SOL    HW119730   4.771   1.987   1.162
 6277SOL    HW219731   4.803   2.105   1.270
 6278SOL     OW19732   4.211   0.941   4.836
 6278SOL    HW119733   4.309   0.957   4.827
 6278SOL    HW219734   4.179   0.886   4.759
 6279SOL     OW19735   3.933   6.283   0.851
 6279SOL    HW119736   3.978   6.197   0.874
 6279SOL    HW219737   3.997   6.359   0.864
 6280SOL     OW19738   0.075   1.440   6.302
 6280SOL    HW119739   7.008   1.393   6.316
 6280SOL    HW219740   0.066   1.504   6.225
 6281SOL     OW19741   6.467   4.565   3.889
 6281SOL    HW119742   6.476   4.566   3.790
 6281SOL    HW219743   6.487   4.655   3.926
 6282SOL     OW19744   6.048   3.052   4.872
 6282SOL    HW119745   5.978   3.069   4.803
 6282SOL    HW219746   6.090   3.139   4.899
 6283SOL     OW19747   0.918   4.478   4.062
 6283SOL    HW119748   0.848   4.441   4.123
 6283SOL    HW219749   1.000   4.502   4.115
 6284SOL     OW19750   1.515   5.333   6.355
 6284SOL    HW119751   1.589   5.326   6.288
 6284SOL    HW219752   1.472   5.244   6.367
 6285SOL     OW19753   1.083   3.031   3.623
 6285SOL    HW119754   1.047   3.118   3.655
 6285SOL    HW219755   1.176   3.044   3.589
 6286SOL     OW19756   0.274   3.547   4.320
 6286SOL    HW119757   0.311   3.632   4.284
 6286SOL    HW219758   0.198   3.567   4.382
 6287SOL     OW19759   3.623   4.825   5.356
 6287SOL    HW119760   3.539   4.781   5.324
 6287SOL    HW219761   3.621   4.831   5.456
 6288SOL     OW19762   5.022   4.629   1.530
 6288SOL    HW119763   5.007   4.530   1.525
 6288SOL    HW219764   4.973   4.674   1.456
 6289SOL     OW19765   2.420   4.868   6.647
 6289SOL    HW119766   2.434   4.966   6.638
 6289SOL    HW219767   2.415   4.844   6.744
 6290SOL     OW19768   5.949   5.284   6.343
 6290SOL    HW119769   5.875   5.217   6.332
 6290SOL    HW219770   5.915   5.363   6.394
 6291SOL     OW19771   3.404   3.663   3.599
 6291SOL    HW119772   3.353   3.697   3.678
 6291SOL    HW219773   3.417   3.564   3.608
 6292SOL     OW19774   2.764   2.053   4.984
 6292SOL    HW119775   2.856   2.080   5.011
 6292SOL    HW219776   2.761   1.955   4.966
 6293SOL     OW19777   4.329   1.452   0.623
 6293SOL    HW119778   4.310   1.419   0.715
 6293SOL    HW219779   4.245   1.450   0.569
 6294SOL     OW19780   4.411   0.211   3.287
 6294SOL    HW119781   4.401   0.190   3.384
 6294SOL    HW219782   4.443   0.130   3.238
 6295SOL     OW19783   5.278   4.924   4.745
 6295SOL    HW119784   5.206   4.865   4.780
 6295SOL    HW219785   5.348   4.936   4.815
 6296SOL     OW19786   0.511   4.235   5.348
 6296SOL    HW119787   0.574   4.285   5.408
 6296SOL    HW219788   0.418   4.242   5.384
 6297SOL     OW19789   5.832   0.142   5.652
 6297SOL    HW119790   5.912   0.152   5.711
 6297SOL    HW219791   5.844   0.196   5.569
 6298SOL     OW19792   6.704   3.920   6.270
 6298SOL    HW119793   6.656   3.966   6.345
 6298SOL    HW219794   6.728   3.987   6.200
 6299SOL     OW19795   5.905   2.666   1.608
 6299SOL    HW119796   5.819   2.649   1.561
 6299SOL    HW219797   5.977   2.683   1.541
 6300SOL     OW19798   5.866   0.572   6.403
 6300SOL    HW119799   5.840   0.482   6.369
 6300SOL    HW219800   5.875   0.569   6.503
 6301SOL     OW19801   3.069   6.249   6.248
 6301SOL    HW119802   3.098   6.327   6.193
 6301SOL    HW219803   2.970   6.239   6.242
 6302SOL     OW19804   2.148   1.429   5.440
 6302SOL    HW119805   2.225   1.493   5.443
 6302SOL    HW219806   2.153   1.368   5.519
 6303SOL     OW19807   0.603   6.431   6.043
 6303SOL    HW119808   0.573   6.362   6.109
 6303SOL    HW219809   0.579   6.522   6.077
 6304SOL     OW19810   4.137   1.528   3.494
 6304SOL    HW119811   4.042   1.540   3.466
 6304SOL    HW219812   4.194   1.593   3.444
 6305SOL     OW19813   6.086   5.969   0.549
 6305SOL    HW119814   6.092   5.870   0.558
 6305SOL    HW219815   6.177   6.007   0.531
 6306SOL     OW19816   0.353   3.783   4.165
 6306SOL    HW119817   0.327   3.854   4.230
 6306SOL    HW219818   0.365   3.824   4.075
 6307SOL     OW19819   3.354   2.960   3.857
 6307SOL    HW119820   3.259   2.954   3.889
 6307SOL    HW219821   3.415   2.932   3.931
 6308SOL     OW19822   1.007   1.879   5.729
 6308SOL    HW119823   1.103   1.851   5.733
 6308SOL    HW219824   0.978   1.888   5.634
 6309SOL     OW19825   0.042   0.096   3.872
 6309SOL    HW119826   0.082   0.072   3.961
 6309SOL    HW219827   0.061   0.193   3.853
 6310SOL     OW19828   2.456   6.329   2.810
 6310SOL    HW119829   2.433   6.423   2.784
 6310SOL    HW219830   2.541   6.329   2.862
 6311SOL     OW19831   4.887   1.938   6.194
 6311SOL    HW119832   4.933   1.856   6.229
 6311SOL    HW219833   4.851   1.919   6.102
 6312SOL     OW19834   1.017   6.419   6.398
 6312SOL    HW119835   0.938   6.467   6.436
 6312SOL    HW219836   1.100   6.452   6.442
 6313SOL     OW19837   6.213   6.893   2.881
 6313SOL    HW119838   6.274   6.882   2.803
 6313SOL    HW219839   6.262   6.939   2.955
 6314SOL     OW19840   3.104   0.336   2.089
 6314SOL    HW119841   3.065   0.348   2.180
 6314SOL    HW219842   3.170   0.260   2.091
 6315SOL     OW19843   2.330   1.457   4.679
 6315SOL    HW119844   2.256   1.524   4.675
 6315SOL    HW219845   2.366   1.441   4.587
 6316SOL     OW19846   4.776   1.979   5.098
 6316SOL    HW119847   4.741   1.885   5.100
 6316SOL    HW219848   4.769   2.019   5.189
 6317SOL     OW19849   4.925   3.616   2.360
 6317SOL    HW119850   4.919   3.523   2.322
 6317SOL    HW219851   4.883   3.680   2.296
 6318SOL     OW19852   4.390   6.933   6.769
 6318SOL    HW119853   4.446   6.951   6.850
 6318SOL    HW219854   4.380   7.017   6.715
 6319SOL     OW19855   6.911   2.205   5.005
 6319SOL    HW119856   6.912   2.305   5.007
 6319SOL    HW219857   6.961   2.169   5.083
 6320SOL     OW19858   0.041   6.331   4.613
 6320SOL    HW119859   6.976   6.368   4.577
 6320SOL    HW219860   0.115   6.397   4.597
 6321SOL     OW19861   4.626   3.214   0.450
 6321SOL    HW119862   4.652   3.126   0.410
 6321SOL    HW219863   4.531   3.234   0.425
 6322SOL     OW19864   3.172   1.792   0.659
 6322SOL    HW119865   3.243   1.746   0.712
 6322SOL    HW219866   3.134   1.728   0.592
 6323SOL     OW19867   1.278   2.162   1.562
 6323SOL    HW119868   1.307   2.116   1.646
 6323SOL    HW219869   1.273   2.095   1.488
 6324SOL     OW19870   4.050   1.848   0.643
 6324SOL    HW119871   4.100   1.808   0.720
 6324SOL    HW219872   4.041   1.947   0.656
 6325SOL     OW19873   2.301   2.827   3.095
 6325SOL    HW119874   2.283   2.821   2.997
 6325SOL    HW219875   2.340   2.741   3.128
 6326SOL     OW19876   5.610   5.461   6.333
 6326SOL    HW119877   5.681   5.444   6.265
 6326SOL    HW219878   5.649   5.515   6.408
 6327SOL     OW19879   0.282   1.694   4.403
 6327SOL    HW119880   0.328   1.677   4.315
 6327SOL    HW219881   0.349   1.688   4.477
 6328SOL     OW19882   4.178   3.532   6.752
 6328SOL    HW119883   4.164   3.507   6.848
 6328SOL    HW219884   4.094   3.569   6.715
 6329SOL     OW19885   0.964   3.163   5.325
 6329SOL    HW119886   1.050   3.182   5.373
 6329SOL    HW219887   0.938   3.068   5.341
 6330SOL     OW19888   5.992   6.691   1.494
 6330SOL    HW119889   5.939   6.653   1.569
 6330SOL    HW219890   5.931   6.719   1.420
 6331SOL     OW19891   6.584   3.508   4.838
 6331SOL    HW119892   6.683   3.509   4.847
 6331SOL    HW219893   6.557   3.447   4.763
 6332SOL     OW19894   1.006   2.954   1.139
 6332SOL    HW119895   0.955   2.953   1.225
 6332SOL    HW219896   1.104   2.957   1.159
 6333SOL     OW19897   4.593   0.158   5.750
 6333SOL    HW119898   4.689   0.167   5.725
 6333SOL    HW219899   4.562   0.065   5.732
 6334SOL     OW19900   3.057   1.330   2.028
 6334SOL    HW119901   3.018   1.419   2.050
 6334SOL    HW219902   3.149   1.342   1.990
 6335SOL     OW19903   4.512   0.864   0.273
 6335SOL    HW119904   4.591   0.893   0.218
 6335SOL    HW219905   4.527   0.771   0.306
 6336SOL     OW19906   0.624   3.031   6.463
 6336SOL    HW119907   0.604   3.093   6.538
 6336SOL    HW219908   0.542   2.979   6.439
 6337SOL     OW19909   4.141   5.498   4.944
 6337SOL    HW119910   4.044   5.519   4.926
 6337SOL    HW219911   4.162   5.406   4.912
 6338SOL     OW19912   3.251   2.022   4.105
 6338SOL    HW119913   3.172   2.083   4.095
 6338SOL    HW219914   3.282   2.025   4.200
 6339SOL     OW19915   0.628   3.795   3.638
 6339SOL    HW119916   0.530   3.814   3.636
 6339SOL    HW219917   0.647   3.723   3.705
 6340SOL     OW19918   2.261   4.013   1.219
 6340SOL    HW119919   2.284   4.110   1.209
 6340SOL    HW219920   2.295   3.963   1.140
 6341SOL     OW19921   0.454   4.128   3.549
 6341SOL    HW119922   0.548   4.158   3.564
 6341SOL    HW219923   0.399   4.206   3.519
 6342SOL     OW19924   3.614   1.647   0.749
 6342SOL    HW119925   3.670   1.687   0.676
 6342SOL    HW219926   3.579   1.558   0.720
 6343SOL     OW19927   4.115   6.784   6.884
 6343SOL    HW119928   4.181   6.709   6.876
 6343SOL    HW219929   4.163   6.871   6.872
 6344SOL     OW19930   5.879   1.813   3.900
 6344SOL    HW119931   5.973   1.806   3.866
 6344SOL    HW219932   5.817   1.768   3.836
 6345SOL     OW19933   4.549   2.954   1.622
 6345SOL    HW119934   4.456   2.919   1.616
 6345SOL    HW219935   4.570   2.978   1.717
 6346SOL     OW19936   0.013   5.011   4.896
 6346SOL    HW119937   7.018   4.915   4.919
 6346SOL    HW219938   0.075   5.053   4.962
 6347SOL     OW19939   1.665   1.458   1.177
 6347SOL    HW119940   1.728   1.498   1.110
 6347SOL    HW219941   1.580   1.511   1.179
 6348SOL     OW19942   1.046   2.841   6.000
 6348SOL    HW119943   1.086   2.777   6.066
 6348SOL    HW219944   0.948   2.822   5.992
 6349SOL     OW19945   1.361   0.453   0.841
 6349SOL    HW119946   1.396   0.541   0.873
 6349SOL    HW219947   1.414   0.424   0.761
 6350SOL     OW19948   0.740   5.132   3.297
 6350SOL    HW119949   0.751   5.049   3.352
 6350SOL    HW219950   0.702   5.108   3.208
 6351SOL     OW19951   6.461   3.645   3.484
 6351SOL    HW119952   6.556   3.628   3.459
 6351SOL    HW219953   6.408   3.561   3.471
 6352SOL     OW19954   2.564   0.608   4.703
 6352SOL    HW119955   2.581   0.611   4.604
 6352SOL    HW219956   2.564   0.514   4.734
 6353SOL     OW19957   2.164   6.219   0.008
 6353SOL    HW119958   2.228   6.144   7.010
 6353SOL    HW219959   2.182   6.258   0.099
 6354SOL     OW19960   4.121   6.123   3.339
 6354SOL    HW119961   4.054   6.186   3.376
 6354SOL    HW219962   4.125   6.041   3.396
 6355SOL     OW19963   2.702   5.831   7.002
 6355SOL    HW119964   2.801   5.842   6.989
 6355SOL    HW219965   2.654   5.905   6.954
 6356SOL     OW19966   5.421   5.062   0.530
 6356SOL    HW119967   5.441   5.155   0.500
 6356SOL    HW219968   5.387   5.064   0.624
 6357SOL     OW19969   6.292   2.750   2.347
 6357SOL    HW119970   6.248   2.830   2.305
 6357SOL    HW219971   6.364   2.716   2.286
 6358SOL     OW19972   0.170   2.007   6.647
 6358SOL    HW119973   0.174   2.034   6.550
 6358SOL    HW219974   0.173   2.090   6.704
 6359SOL     OW19975   6.414   6.330   0.574
 6359SOL    HW119976   6.418   6.419   0.621
 6359SOL    HW219977   6.434   6.343   0.477
 6360SOL     OW19978   0.616   3.762   4.072
 6360SOL    HW119979   0.538   3.738   4.129
 6360SOL    HW219980   0.625   3.861   4.067
 6361SOL     OW19981   1.146   0.948   0.767
 6361SOL    HW119982   1.205   0.899   0.831
 6361SOL    HW219983   1.051   0.943   0.799
 6362SOL     OW19984   1.797   5.810   6.594
 6362SOL    HW119985   1.857   5.765   6.660
 6362SOL    HW219986   1.802   5.762   6.506
 6363SOL     OW19987   3.138   5.312   4.424
 6363SOL    HW119988   3.087   5.298   4.340
 6363SOL    HW219989   3.080   5.291   4.503
 6364SOL     OW19990   2.627   2.859   5.367
 6364SOL    HW119991   2.574   2.778   5.342
 6364SOL    HW219992   2.600   2.936   5.311
 6365SOL     OW19993   5.813   6.441   4.406
 6365SOL    HW119994   5.796   6.357   4.457
 6365SOL    HW219995   5.831   6.419   4.310
 6366SOL     OW19996   0.660   5.904   5.100
 6366SOL    HW119997   0.630   5.831   5.039
 6366SOL    HW219998   0.593   5.917   5.173
 6367SOL     OW19999   3.165   2.146   2.644
 6367SOL    HW120000   3.260   2.167   2.619
 6367SOL    HW220001   3.106   2.160   2.565
 6368SOL     OW20002   4.291   4.743   4.582
 6368SOL    HW120003   4.306   4.733   4.681
 6368SOL    HW220004   4.194   4.758   4.565
 6369SOL     OW20005   1.918   0.329   4.510
 6369SOL    HW120006   1.926   0.261   4.583
 6369SOL    HW220007   1.899   0.283   4.424
 6370SOL     OW20008   5.614   4.179   3.654
 6370SOL    HW120009   5.624   4.143   3.747
 6370SOL    HW220010   5.680   4.134   3.594
 6371SOL     OW20011   5.383   3.973   2.310
 6371SOL    HW120012   5.316   3.910   2.348
 6371SOL    HW220013   5.362   4.066   2.339
 6372SOL     OW20014   1.060   1.697   2.274
 6372SOL    HW120015   1.137   1.652   2.320
 6372SOL    HW220016   1.070   1.796   2.282
 6373SOL     OW20017   5.506   4.293   2.555
 6373SOL    HW120018   5.596   4.256   2.530
 6373SOL    HW220019   5.518   4.366   2.622
 6374SOL     OW20020   4.575   3.606   0.877
 6374SOL    HW120021   4.511   3.680   0.854
 6374SOL    HW220022   4.634   3.588   0.798
 6375SOL     OW20023   0.457   2.229   1.686
 6375SOL    HW120024   0.444   2.233   1.587
 6375SOL    HW220025   0.378   2.182   1.727
 6376SOL     OW20026   3.921   1.693   5.847
 6376SOL    HW120027   3.833   1.740   5.859
 6376SOL    HW220028   3.937   1.633   5.926
 6377SOL     OW20029   0.139   1.955   5.471
 6377SOL    HW120030   0.069   1.928   5.538
 6377SOL    HW220031   0.166   2.049   5.487
 6378SOL     OW20032   5.398   5.247   3.566
 6378SOL    HW120033   5.405   5.197   3.653
 6378SOL    HW220034   5.488   5.285   3.543
 6379SOL     OW20035   0.579   5.109   5.612
 6379SOL    HW120036   0.518   5.120   5.690
 6379SOL    HW220037   0.550   5.031   5.556
 6380SOL     OW20038   6.692   2.634   4.521
 6380SOL    HW120039   6.789   2.630   4.497
 6380SOL    HW220040   6.638   2.586   4.452
 6381SOL     OW20041   4.233   2.483   0.433
 6381SOL    HW120042   4.248   2.387   0.410
 6381SOL    HW220043   4.300   2.511   0.501
 6382SOL     OW20044   3.318   1.849   1.033
 6382SOL    HW120045   3.219   1.863   1.039
 6382SOL    HW220046   3.363   1.937   1.020
 6383SOL     OW20047   1.990   2.898   2.498
 6383SOL    HW120048   1.919   2.829   2.512
 6383SOL    HW220049   1.999   2.918   2.401
 6384SOL     OW20050   6.031   3.437   2.268
 6384SOL    HW120051   6.019   3.338   2.262
 6384SOL    HW220052   5.959   3.476   2.326
 6385SOL     OW20053   6.590   4.282   1.870
 6385SOL    HW120054   6.535   4.198   1.870
 6385SOL    HW220055   6.619   4.303   1.777
 6386SOL     OW20056   1.703   3.642   6.626
 6386SOL    HW120057   1.750   3.655   6.539
 6386SOL    HW220058   1.771   3.631   6.699
 6387SOL     OW20059   5.818   1.539   0.257
 6387SOL    HW120060   5.762   1.483   0.196
 6387SOL    HW220061   5.771   1.553   0.343
 6388SOL     OW20062   6.079   5.377   1.941
 6388SOL    HW120063   6.087   5.361   1.843
 6388SOL    HW220064   6.137   5.311   1.990
 6389SOL     OW20065   0.872   6.996   1.167
 6389SOL    HW120066   0.841   0.029   1.087
 6389SOL    HW220067   0.875   0.036   1.247
 6390SOL     OW20068   6.629   0.138   5.838
 6390SOL    HW120069   6.651   0.228   5.801
 6390SOL    HW220070   6.569   0.090   5.775
 6391SOL     OW20071   1.691   1.024   5.989
 6391SOL    HW120072   1.778   1.021   5.938
 6391SOL    HW220073   1.633   1.096   5.951
 6392SOL     OW20074   3.306   6.118   3.411
 6392SOL    HW120075   3.395   6.072   3.418
 6392SOL    HW220076   3.320   6.214   3.386
 6393SOL     OW20077   5.960   5.888   1.670
 6393SOL    HW120078   5.999   5.962   1.616
 6393SOL    HW220079   6.029   5.852   1.733
 6394SOL     OW20080   2.469   5.462   1.079
 6394SOL    HW120081   2.441   5.374   1.042
 6394SOL    HW220082   2.452   5.465   1.177
 6395SOL     OW20083   6.882   3.242   1.980
 6395SOL    HW120084   6.958   3.307   1.973
 6395SOL    HW220085   6.824   3.250   1.899
 6396SOL     OW20086   6.279   3.899   6.290
 6396SOL    HW120087   6.290   3.802   6.314
 6396SOL    HW220088   6.313   3.955   6.365
 6397SOL     OW20089   6.487   1.287   2.472
 6397SOL    HW120090   6.580   1.279   2.436
 6397SOL    HW220091   6.483   1.363   2.537
 6398SOL     OW20092   2.128   6.615   1.908
 6398SOL    HW120093   2.132   6.570   1.819
 6398SOL    HW220094   2.046   6.671   1.914
 6399SOL     OW20095   1.437   0.415   6.639
 6399SOL    HW120096   1.425   0.317   6.623
 6399SOL    HW220097   1.445   0.462   6.551
 6400SOL     OW20098   2.224   4.864   2.442
 6400SOL    HW120099   2.170   4.877   2.525
 6400SOL    HW220100   2.273   4.949   2.421
 6401SOL     OW20101   5.632   5.009   3.229
 6401SOL    HW120102   5.679   5.098   3.225
 6401SOL    HW220103   5.537   5.020   3.201
 6402SOL     OW20104   2.224   2.973   4.036
 6402SOL    HW120105   2.231   2.892   3.977
 6402SOL    HW220106   2.172   3.044   3.988
 6403SOL     OW20107   6.185   5.983   6.196
 6403SOL    HW120108   6.270   5.938   6.170
 6403SOL    HW220109   6.205   6.064   6.251
 6404SOL     OW20110   4.198   1.636   2.833
 6404SOL    HW120111   4.152   1.707   2.779
 6404SOL    HW220112   4.182   1.653   2.930
 6405SOL     OW20113   4.543   0.998   4.568
 6405SOL    HW120114   4.461   0.949   4.540
 6405SOL    HW220115   4.624   0.951   4.534
 6406SOL     OW20116   1.833   3.268   1.776
 6406SOL    HW120117   1.736   3.286   1.797
 6406SOL    HW220118   1.887   3.350   1.794
 6407SOL     OW20119   2.210   0.053   3.817
 6407SOL    HW120120   2.305   0.064   3.788
 6407SOL    HW220121   2.150   0.059   3.738
 6408SOL     OW20122   5.759   0.397   0.575
 6408SOL    HW120123   5.762   0.313   0.629
 6408SOL    HW220124   5.839   0.400   0.514
 6409SOL     OW20125   6.834   4.793   2.658
 6409SOL    HW120126   6.928   4.783   2.626
 6409SOL    HW220127   6.820   4.887   2.689
 6410SOL     OW20128   2.235   1.236   6.382
 6410SOL    HW120129   2.177   1.155   6.383
 6410SOL    HW220130   2.182   1.316   6.411
 6411SOL     OW20131   1.113   2.685   2.336
 6411SOL    HW120132   1.128   2.772   2.289
 6411SOL    HW220133   1.029   2.689   2.389
 6412SOL     OW20134   2.147   0.385   6.445
 6412SOL    HW120135   2.177   0.469   6.491
 6412SOL    HW220136   2.168   0.391   6.348
 6413SOL     OW20137   3.618   4.987   4.633
 6413SOL    HW120138   3.634   5.082   4.608
 6413SOL    HW220139   3.544   4.949   4.577
 6414SOL     OW20140   6.160   0.247   0.057
 6414SOL    HW120141   6.137   0.242   6.980
 6414SOL    HW220142   6.203   0.162   0.086
 6415SOL     OW20143   1.710   3.422   4.105
 6415SOL    HW120144   1.698   3.411   4.203
 6415SOL    HW220145   1.727   3.333   4.062
 6416SOL     OW20146   2.228   6.778   6.289
 6416SOL    HW120147   2.280   6.692   6.283
 6416SOL    HW220148   2.136   6.758   6.324
 6417SOL     OW20149   4.968   3.052   0.654
 6417SOL    HW120150   4.920   3.139   0.665
 6417SOL    HW220151   4.929   2.984   0.716
 6418SOL     OW20152   5.254   4.195   2.898
 6418SOL    HW120153   5.287   4.114   2.947
 6418SOL    HW220154   5.303   4.276   2.930
 6419SOL     OW20155   1.246   5.101   3.673
 6419SOL    HW120156   1.177   5.151   3.622
 6419SOL    HW220157   1.229   5.003   3.664
 6420SOL     OW20158   2.063   1.442   3.587
 6420SOL    HW120159   1.994   1.397   3.530
 6420SOL    HW220160   2.134   1.482   3.529
 6421SOL     OW20161   4.236   0.484   1.100
 6421SOL    HW120162   4.274   0.575   1.113
 6421SOL    HW220163   4.285   0.418   1.157
 6422SOL     OW20164   6.705   1.680   5.113
 6422SOL    HW120165   6.772   1.612   5.085
 6422SOL    HW220166   6.701   1.753   5.045
 6423SOL     OW20167   4.676   5.368   4.674
 6423SOL    HW120168   4.691   5.308   4.596
 6423SOL    HW220169   4.737   5.341   4.749
 6424SOL     OW20170   1.595   3.850   4.855
 6424SOL    HW120171   1.599   3.950   4.852
 6424SOL    HW220172   1.596   3.814   4.762
 6425SOL     OW20173   6.964   5.531   3.173
 6425SOL    HW120174   6.933   5.472   3.099
 6425SOL    HW220175   6.999   5.617   3.134
 6426SOL     OW20176   5.650   5.291   3.779
 6426SOL    HW120177   5.676   5.284   3.876
 6426SOL    HW220178   5.670   5.383   3.745
 6427SOL     OW20179   3.179   3.568   3.423
 6427SOL    HW120180   3.120   3.489   3.439
 6427SOL    HW220181   3.138   3.649   3.467
 6428SOL     OW20182   5.227   3.390   0.103
 6428SOL    HW120183   5.138   3.351   0.078
 6428SOL    HW220184   5.212   3.478   0.148
 6429SOL     OW20185   0.594   0.995   5.901
 6429SOL    HW120186   0.653   0.971   5.978
 6429SOL    HW220187   0.640   1.062   5.842
 6430SOL     OW20188   6.580   0.629   4.462
 6430SOL    HW120189   6.515   0.556   4.439
 6430SOL    HW220190   6.541   0.718   4.439
 6431SOL     OW20191   4.540   5.729   2.778
 6431SOL    HW120192   4.477   5.800   2.746
 6431SOL    HW220193   4.512   5.698   2.869
 6432SOL     OW20194   4.023   4.178   6.029
 6432SOL    HW120195   4.018   4.204   6.125
 6432SOL    HW220196   3.931   4.154   5.996
 6433SOL     OW20197   3.436   4.957   0.111
 6433SOL    HW120198   3.399   4.900   0.184
 6433SOL    HW220199   3.498   4.902   0.054
 6434SOL     OW20200   2.728   0.335   6.243
 6434SOL    HW120201   2.638   0.296   6.263
 6434SOL    HW220202   2.757   0.306   6.151
 6435SOL     OW20203   6.060   6.886   0.631
 6435SOL    HW120204   6.077   6.930   0.543
 6435SOL    HW220205   5.982   6.824   0.623
 6436SOL     OW20206   1.111   3.492   3.133
 6436SOL    HW120207   1.090   3.522   3.226
 6436SOL    HW220208   1.098   3.569   3.070
 6437SOL     OW20209   1.217   2.778   6.903
 6437SOL    HW120210   1.150   2.852   6.910
 6437SOL    HW220211   1.290   2.805   6.841
 6438SOL     OW20212   0.707   4.887   6.147
 6438SOL    HW120213   0.787   4.926   6.099
 6438SOL    HW220214   0.645   4.846   6.080
 6439SOL     OW20215   4.981   0.941   2.699
 6439SOL    HW120216   5.025   1.013   2.645
 6439SOL    HW220217   5.048   0.902   2.762
 6440SOL     OW20218   2.817   0.995   6.072
 6440SOL    HW120219   2.773   1.035   5.992
 6440SOL    HW220220   2.757   0.925   6.111
 6441SOL     OW20221   0.899   0.568   1.519
 6441SOL    HW120222   0.890   0.668   1.528
 6441SOL    HW220223   0.994   0.545   1.499
 6442SOL     OW20224   2.802   1.584   4.701
 6442SOL    HW120225   2.887   1.581   4.649
 6442SOL    HW220226   2.726   1.604   4.639
 6443SOL     OW20227   3.306   2.409   5.909
 6443SOL    HW120228   3.306   2.408   6.009
 6443SOL    HW220229   3.249   2.484   5.876
 6444SOL     OW20230   6.169   2.368   4.403
 6444SOL    HW120231   6.104   2.381   4.477
 6444SOL    HW220232   6.242   2.307   4.432
 6445SOL     OW20233   3.859   3.378   3.245
 6445SOL    HW120234   3.839   3.430   3.162
 6445SOL    HW220235   3.782   3.317   3.265
 6446SOL     OW20236   0.094   2.048   0.516
 6446SOL    HW120237   0.123   1.967   0.465
 6446SOL    HW220238   0.001   2.073   0.489
 6447SOL     OW20239   6.186   4.214   1.519
 6447SOL    HW120240   6.087   4.222   1.522
 6447SOL    HW220241   6.225   4.301   1.487
 6448SOL     OW20242   5.074   5.023   1.428
 6448SOL    HW120243   5.023   4.943   1.398
 6448SOL    HW220244   5.046   5.048   1.521
 6449SOL     OW20245   2.808   5.349   1.862
 6449SOL    HW120246   2.852   5.335   1.951
 6449SOL    HW220247   2.712   5.324   1.868
 6450SOL     OW20248   0.947   4.245   0.375
 6450SOL    HW120249   0.877   4.211   0.312
 6450SOL    HW220250   0.950   4.186   0.456
 6451SOL     OW20251   2.687   1.183   5.790
 6451SOL    HW120252   2.740   1.108   5.750
 6451SOL    HW220253   2.638   1.151   5.871
 6452SOL     OW20254   4.850   4.103   2.158
 6452SOL    HW120255   4.800   4.190   2.161
 6452SOL    HW220256   4.948   4.121   2.169
 6453SOL     OW20257   2.421   0.221   1.648
 6453SOL    HW120258   2.325   0.226   1.676
 6453SOL    HW220259   2.432   0.267   1.560
 6454SOL     OW20260   0.543   1.361   2.719
 6454SOL    HW120261   0.469   1.320   2.666
 6454SOL    HW220262   0.512   1.380   2.812
 6455SOL     OW20263   6.271   2.807   3.610
 6455SOL    HW120264   6.320   2.722   3.591
 6455SOL    HW220265   6.337   2.881   3.625
 6456SOL     OW20266   1.398   0.667   2.827
 6456SOL    HW120267   1.471   0.603   2.806
 6456SOL    HW220268   1.392   0.736   2.754
 6457SOL     OW20269   5.560   0.129   1.350
 6457SOL    HW120270   5.491   0.183   1.301
 6457SOL    HW220271   5.598   0.061   1.288
 6458SOL     OW20272   1.496   4.977   4.937
 6458SOL    HW120273   1.411   4.995   4.986
 6458SOL    HW220274   1.554   5.059   4.940
 6459SOL     OW20275   6.361   2.945   2.568
 6459SOL    HW120276   6.338   2.905   2.480
 6459SOL    HW220277   6.378   2.872   2.635
 6460SOL     OW20278   5.659   5.362   5.704
 6460SOL    HW120279   5.650   5.311   5.618
 6460SOL    HW220280   5.569   5.396   5.731
 6461SOL     OW20281   2.774   4.509   0.165
 6461SOL    HW120282   2.737   4.446   0.233
 6461SOL    HW220283   2.874   4.508   0.169
 6462SOL     OW20284   1.152   3.247   4.500
 6462SOL    HW120285   1.112   3.163   4.537
 6462SOL    HW220286   1.211   3.289   4.569
 6463SOL     OW20287   5.386   6.627   0.691
 6463SOL    HW120288   5.421   6.676   0.610
 6463SOL    HW220289   5.455   6.631   0.764
 6464SOL     OW20290   1.888   5.896   5.069
 6464SOL    HW120291   1.876   5.987   5.109
 6464SOL    HW220292   1.798   5.857   5.047
 6465SOL     OW20293   7.009   3.149   2.804
 6465SOL    HW120294   6.973   3.065   2.845
 6465SOL    HW220295   6.942   3.186   2.740
 6466SOL     OW20296   6.644   1.243   6.623
 6466SOL    HW120297   6.630   1.331   6.577
 6466SOL    HW220298   6.556   1.209   6.657
 6467SOL     OW20299   4.093   0.148   1.116
 6467SOL    HW120300   4.096   0.216   1.042
 6467SOL    HW220301   4.025   0.176   1.184
 6468SOL     OW20302   3.488   6.668   1.729
 6468SOL    HW120303   3.422   6.649   1.657
 6468SOL    HW220304   3.579   6.635   1.702
 6469SOL     OW20305   4.026   1.995   3.592
 6469SOL    HW120306   4.045   2.017   3.497
 6469SOL    HW220307   4.012   2.079   3.644
 6470SOL     OW20308   5.803   2.546   0.759
 6470SOL    HW120309   5.777   2.539   0.856
 6470SOL    HW220310   5.738   2.605   0.712
 6471SOL     OW20311   0.944   6.410   5.728
 6471SOL    HW120312   1.014   6.428   5.797
 6471SOL    HW220313   0.922   6.496   5.681
 6472SOL     OW20314   6.734   5.768   2.751
 6472SOL    HW120315   6.691   5.797   2.665
 6472SOL    HW220316   6.708   5.830   2.824
 6473SOL     OW20317   1.431   1.500   5.273
 6473SOL    HW120318   1.528   1.504   5.296
 6473SOL    HW220319   1.408   1.408   5.240
 6474SOL     OW20320   3.736   5.329   5.600
 6474SOL    HW120321   3.771   5.360   5.512
 6474SOL    HW220322   3.713   5.232   5.594
 6475SOL     OW20323   6.064   4.121   3.913
 6475SOL    HW120324   6.041   4.217   3.927
 6475SOL    HW220325   6.145   4.114   3.854
 6476SOL     OW20326   4.760   3.158   6.729
 6476SOL    HW120327   4.833   3.094   6.752
 6476SOL    HW220328   4.779   3.247   6.771
 6477SOL     OW20329   5.965   5.396   0.726
 6477SOL    HW120330   6.048   5.397   0.782
 6477SOL    HW220331   5.897   5.337   0.769
 6478SOL     OW20332   3.461   6.633   2.394
 6478SOL    HW120333   3.434   6.631   2.490
 6478SOL    HW220334   3.539   6.571   2.379
 6479SOL     OW20335   3.391   5.408   4.636
 6479SOL    HW120336   3.419   5.380   4.728
 6479SOL    HW220337   3.313   5.471   4.642
 6480SOL     OW20338   1.982   1.435   0.029
 6480SOL    HW120339   1.893   1.479   0.042
 6480SOL    HW220340   2.055   1.502   0.046
 6481SOL     OW20341   3.384   2.357   1.702
 6481SOL    HW120342   3.326   2.276   1.708
 6481SOL    HW220343   3.475   2.336   1.737
 6482SOL     OW20344   6.432   2.449   6.764
 6482SOL    HW120345   6.377   2.480   6.842
 6482SOL    HW220346   6.504   2.516   6.746
 6483SOL     OW20347   0.478   6.361   3.916
 6483SOL    HW120348   0.397   6.399   3.872
 6483SOL    HW220349   0.452   6.312   3.999
 6484SOL     OW20350   3.062   1.240   2.581
 6484SOL    HW120351   2.994   1.308   2.551
 6484SOL    HW220352   3.024   1.148   2.570
 6485SOL     OW20353   2.134   5.693   4.002
 6485SOL    HW120354   2.085   5.611   3.972
 6485SOL    HW220355   2.176   5.738   3.923
 6486SOL     OW20356   0.825   5.447   2.414
 6486SOL    HW120357   0.828   5.546   2.399
 6486SOL    HW220358   0.882   5.401   2.346
 6487SOL     OW20359   1.395   6.514   5.757
 6487SOL    HW120360   1.441   6.579   5.817
 6487SOL    HW220361   1.405   6.422   5.795
 6488SOL     OW20362   4.251   5.745   4.906
 6488SOL    HW120363   4.183   5.807   4.867
 6488SOL    HW220364   4.205   5.662   4.938
 6489SOL     OW20365   3.119   3.328   6.414
 6489SOL    HW120366   3.095   3.365   6.324
 6489SOL    HW220367   3.077   3.383   6.486
 6490SOL     OW20368   2.779   1.165   6.316
 6490SOL    HW120369   2.779   1.111   6.232
 6490SOL    HW220370   2.775   1.262   6.294
 6491SOL     OW20371   3.028   0.785   1.627
 6491SOL    HW120372   3.004   0.852   1.698
 6491SOL    HW220373   3.112   0.738   1.652
 6492SOL     OW20374   3.718   3.537   5.022
 6492SOL    HW120375   3.809   3.569   4.997
 6492SOL    HW220376   3.664   3.521   4.939
 6493SOL     OW20377   1.054   4.614   6.370
 6493SOL    HW120378   1.129   4.614   6.305
 6493SOL    HW220379   0.978   4.668   6.333
 6494SOL     OW20380   6.909   6.468   2.580
 6494SOL    HW120381   6.914   6.556   2.531
 6494SOL    HW220382   6.919   6.484   2.678
 6495SOL     OW20383   6.860   0.852   4.244
 6495SOL    HW120384   6.818   0.943   4.247
 6495SOL    HW220385   6.959   0.861   4.260
 6496SOL     OW20386   5.884   0.496   2.185
 6496SOL    HW120387   5.884   0.397   2.205
 6496SOL    HW220388   5.875   0.510   2.087
 6497SOL     OW20389   1.116   0.555   1.239
 6497SOL    HW120390   1.210   0.521   1.231
 6497SOL    HW220391   1.056   0.483   1.273
 6498SOL     OW20392   0.722   3.833   4.446
 6498SOL    HW120393   0.751   3.825   4.541
 6498SOL    HW220394   0.695   3.743   4.412
 6499SOL     OW20395   5.712   3.615   4.997
 6499SOL    HW120396   5.653   3.645   5.072
 6499SOL    HW220397   5.718   3.687   4.928
 6500SOL     OW20398   0.428   4.114   2.634
 6500SOL    HW120399   0.445   4.069   2.722
 6500SOL    HW220400   0.514   4.124   2.585
 6501SOL     OW20401   0.035   0.952   0.825
 6501SOL    HW120402   0.060   0.944   0.922
 6501SOL    HW220403   6.959   0.928   0.813
 6502SOL     OW20404   0.372   3.757   1.931
 6502SOL    HW120405   0.406   3.665   1.950
 6502SOL    HW220406   0.439   3.806   1.875
 6503SOL     OW20407   6.034   0.980   3.759
 6503SOL    HW120408   5.984   0.913   3.813
 6503SOL    HW220409   6.002   1.072   3.781
 6504SOL     OW20410   3.422   6.189   6.035
 6504SOL    HW120411   3.455   6.279   6.063
 6504SOL    HW220412   3.367   6.149   6.108
 6505SOL     OW20413   4.961   6.282   6.070
 6505SOL    HW120414   4.948   6.195   6.023
 6505SOL    HW220415   4.907   6.353   6.024
 6506SOL     OW20416   7.000   2.459   3.623
 6506SOL    HW120417   0.070   2.500   3.633
 6506SOL    HW220418   6.963   2.434   3.712
 6507SOL     OW20419   2.638   5.978   5.811
 6507SOL    HW120420   2.605   5.891   5.774
 6507SOL    HW220421   2.694   6.025   5.742
 6508SOL     OW20422   1.911   0.373   3.042
 6508SOL    HW120423   1.980   0.433   3.083
 6508SOL    HW220424   1.939   0.350   2.949
 6509SOL     OW20425   4.765   2.034   4.594
 6509SOL    HW120426   4.736   1.938   4.587
 6509SOL    HW220427   4.762   2.062   4.690
 6510SOL     OW20428   5.384   5.505   6.729
 6510SOL    HW120429   5.326   5.425   6.711
 6510SOL    HW220430   5.424   5.497   6.820
 6511SOL     OW20431   4.779   1.411   5.067
 6511SOL    HW120432   4.799   1.316   5.088
 6511SOL    HW220433   4.688   1.418   5.026
 6512SOL     OW20434   3.176   6.915   2.526
 6512SOL    HW120435   3.196   6.977   2.451
 6512SOL    HW220436   3.130   6.833   2.491
 6513SOL     OW20437   1.693   5.593   3.596
 6513SOL    HW120438   1.654   5.586   3.687
 6513SOL    HW220439   1.696   5.689   3.568
 6514SOL     OW20440   5.671   1.051   4.415
 6514SOL    HW120441   5.709   0.984   4.479
 6514SOL    HW220442   5.726   1.053   4.332
 6515SOL     OW20443   1.691   3.259   3.316
 6515SOL    HW120444   1.736   3.194   3.256
 6515SOL    HW220445   1.755   3.292   3.385
 6516SOL     OW20446   6.782   2.932   1.336
 6516SOL    HW120447   6.791   2.927   1.236
 6516SOL    HW220448   6.686   2.921   1.361
 6517SOL     OW20449   6.938   1.913   1.268
 6517SOL    HW120450   6.993   1.962   1.200
 6517SOL    HW220451   6.894   1.979   1.328
 6518SOL     OW20452   0.531   0.484   2.300
 6518SOL    HW120453   0.510   0.399   2.251
 6518SOL    HW220454   0.551   0.557   2.235
 6519SOL     OW20455   0.051   1.830   2.752
 6519SOL    HW120456   0.132   1.787   2.713
 6519SOL    HW220457   6.999   1.761   2.764
 6520SOL     OW20458   0.072   5.386   6.727
 6520SOL    HW120459   0.156   5.392   6.673
 6520SOL    HW220460   0.089   5.420   6.819
 6521SOL     OW20461   1.930   2.702   4.070
 6521SOL    HW120462   1.943   2.603   4.083
 6521SOL    HW220463   1.960   2.750   4.152
 6522SOL     OW20464   2.619   4.787   5.043
 6522SOL    HW120465   2.571   4.773   4.957
 6522SOL    HW220466   2.701   4.731   5.046
 6523SOL     OW20467   3.895   0.599   6.421
 6523SOL    HW120468   3.920   0.696   6.418
 6523SOL    HW220469   3.797   0.591   6.439
 6524SOL     OW20470   2.761   2.829   1.623
 6524SOL    HW120471   2.692   2.776   1.574
 6524SOL    HW220472   2.845   2.776   1.630
 6525SOL     OW20473   1.978   4.978   2.951
 6525SOL    HW120474   1.945   4.980   3.046
 6525SOL    HW220475   1.900   4.968   2.889
 6526SOL     OW20476   0.965   0.341   1.314
 6526SOL    HW120477   0.873   0.370   1.340
 6526SOL    HW220478   1.011   0.300   1.393
 6527SOL     OW20479   6.770   1.944   0.071
 6527SOL    HW120480   6.737   1.990   7.008
 6527SOL    HW220481   6.713   1.972   0.149
 6528SOL     OW20482   6.222   1.582   5.415
 6528SOL    HW120483   6.299   1.582   5.478
 6528SOL    HW220484   6.137   1.590   5.466
 6529SOL     OW20485   1.399   0.347   2.702
 6529SOL    HW120486   1.446   0.262   2.679
 6529SOL    HW220487   1.381   0.351   2.800
 6530SOL     OW20488   0.067   1.671   1.147
 6530SOL    HW120489   0.056   1.753   1.203
 6530SOL    HW220490   0.158   1.672   1.105
 6531SOL     OW20491   5.064   3.596   4.922
 6531SOL    HW120492   4.968   3.608   4.945
 6531SOL    HW220493   5.105   3.685   4.901
 6532SOL     OW20494   1.319   1.339   1.311
 6532SOL    HW120495   1.411   1.307   1.285
 6532SOL    HW220496   1.281   1.393   1.236
 6533SOL     OW20497   4.233   6.046   0.478
 6533SOL    HW120498   4.161   6.092   0.425
 6533SOL    HW220499   4.205   5.952   0.496
 6534SOL     OW20500   4.725   5.132   1.630
 6534SOL    HW120501   4.665   5.174   1.698
 6534SOL    HW220502   4.809   5.101   1.674
 6535SOL     OW20503   6.128   4.446   4.527
 6535SOL    HW120504   6.165   4.511   4.460
 6535SOL    HW220505   6.202   4.413   4.586
 6536SOL     OW20506   0.267   1.674   5.138
 6536SOL    HW120507   0.352   1.664   5.189
 6536SOL    HW220508   0.286   1.714   5.048
 6537SOL     OW20509   6.653   4.546   5.494
 6537SOL    HW120510   6.576   4.603   5.525
 6537SOL    HW220511   6.735   4.573   5.543
 6538SOL     OW20512   1.713   3.461   5.729
 6538SOL    HW120513   1.807   3.427   5.735
 6538SOL    HW220514   1.650   3.383   5.724
 6539SOL     OW20515   5.337   0.394   6.653
 6539SOL    HW120516   5.319   0.378   6.556
 6539SOL    HW220517   5.341   0.492   6.670
 6540SOL     OW20518   3.490   2.671   6.537
 6540SOL    HW120519   3.518   2.766   6.551
 6540SOL    HW220520   3.558   2.610   6.579
 6541SOL     OW20521   5.268   1.864   5.359
 6541SOL    HW120522   5.311   1.953   5.373
 6541SOL    HW220523   5.244   1.825   5.448
 6542SOL     OW20524   1.264   3.498   3.615
 6542SOL    HW120525   1.204   3.424   3.645
 6542SOL    HW220526   1.226   3.585   3.645
 6543SOL     OW20527   4.793   2.822   5.773
 6543SOL    HW120528   4.852   2.748   5.739
 6543SOL    HW220529   4.823   2.849   5.864
 6544SOL     OW20530   1.377   6.748   3.288
 6544SOL    HW120531   1.384   6.829   3.345
 6544SOL    HW220532   1.389   6.666   3.344
 6545SOL     OW20533   4.193   0.763   0.450
 6545SOL    HW120534   4.202   0.735   0.546
 6545SOL    HW220535   4.281   0.753   0.404
 6546SOL     OW20536   2.888   4.122   5.982
 6546SOL    HW120537   2.881   4.045   5.919
 6546SOL    HW220538   2.805   4.177   5.977
 6547SOL     OW20539   5.031   0.653   6.391
 6547SOL    HW120540   5.038   0.602   6.476
 6547SOL    HW220541   4.955   0.718   6.396
 6548SOL     OW20542   1.547   3.615   0.910
 6548SOL    HW120543   1.470   3.679   0.909
 6548SOL    HW220544   1.573   3.593   0.817
 6549SOL     OW20545   4.310   0.483   2.522
 6549SOL    HW120546   4.379   0.555   2.531
 6549SOL    HW220547   4.325   0.415   2.594
 6550SOL     OW20548   0.528   6.719   4.451
 6550SOL    HW120549   0.498   6.629   4.419
 6550SOL    HW220550   0.560   6.712   4.545
 6551SOL     OW20551   2.051   3.660   1.971
 6551SOL    HW120552   1.958   3.628   1.991
 6551SOL    HW220553   2.117   3.590   1.996
 6552SOL     OW20554   1.905   6.562   0.025
 6552SOL    HW120555   1.866   6.655   0.027
 6552SOL    HW220556   1.882   6.515   0.110
 6553SOL     OW20557   0.455   2.675   3.278
 6553SOL    HW120558   0.436   2.594   3.334
 6553SOL    HW220559   0.387   2.679   3.204
 6554SOL     OW20560   1.311   0.406   4.668
 6554SOL    HW120561   1.237   0.339   4.665
 6554SOL    HW220562   1.273   0.499   4.664
 6555SOL     OW20563   5.426   1.826   3.012
 6555SOL    HW120564   5.502   1.781   3.058
 6555SOL    HW220565   5.357   1.851   3.080
 6556SOL     OW20566   5.872   4.074   3.511
 6556SOL    HW120567   5.953   4.131   3.501
 6556SOL    HW220568   5.881   3.992   3.453
 6557SOL     OW20569   2.844   0.674   3.179
 6557SOL    HW120570   2.835   0.741   3.254
 6557SOL    HW220571   2.794   0.707   3.099
 6558SOL     OW20572   6.208   5.490   6.976
 6558SOL    HW120573   6.292   5.491   6.923
 6558SOL    HW220574   6.196   5.401   7.019
 6559SOL     OW20575   0.254   4.528   0.063
 6559SOL    HW120576   0.327   4.511   7.016
 6559SOL    HW220577   0.173   4.474   0.039
 6560SOL     OW20578   4.123   4.753   1.786
 6560SOL    HW120579   4.028   4.773   1.762
 6560SOL    HW220580   4.148   4.663   1.751
 6561SOL     OW20581   3.468   4.089   1.183
 6561SOL    HW120582   3.425   4.014   1.133
 6561SOL    HW220583   3.532   4.137   1.123
 6562SOL     OW20584   5.783   2.037   1.246
 6562SOL    HW120585   5.713   2.085   1.299
 6562SOL    HW220586   5.861   2.099   1.232
 6563SOL     OW20587   5.359   5.854   5.869
 6563SOL    HW120588   5.328   5.760   5.885
 6563SOL    HW220589   5.434   5.854   5.804
 6564SOL     OW20590   6.432   4.054   1.856
 6564SOL    HW120591   6.458   4.030   1.762
 6564SOL    HW220592   6.450   3.976   1.916
 6565SOL     OW20593   6.150   0.905   3.114
 6565SOL    HW120594   6.113   0.913   3.022
 6565SOL    HW220595   6.167   0.996   3.152
 6566SOL     OW20596   3.561   6.799   2.762
 6566SOL    HW120597   3.576   6.786   2.860
 6566SOL    HW220598   3.646   6.782   2.713
 6567SOL     OW20599   5.015   0.433   1.953
 6567SOL    HW120600   5.043   0.450   2.048
 6567SOL    HW220601   4.915   0.434   1.947
 6568SOL     OW20602   3.702   1.784   3.433
 6568SOL    HW120603   3.629   1.769   3.366
 6568SOL    HW220604   3.743   1.874   3.417
 6569SOL     OW20605   2.628   3.018   6.870
 6569SOL    HW120606   2.570   3.099   6.865
 6569SOL    HW220607   2.585   2.950   6.929
 6570SOL     OW20608   3.573   1.180   2.020
 6570SOL    HW120609   3.590   1.199   2.117
 6570SOL    HW220610   3.652   1.134   1.980
 6571SOL     OW20611   2.953   5.080   2.469
 6571SOL    HW120612   2.911   5.018   2.534
 6571SOL    HW220613   2.999   5.027   2.397
 6572SOL     OW20614   7.009   4.380   3.881
 6572SOL    HW120615   6.977   4.288   3.902
 6572SOL    HW220616   7.015   4.391   3.781
 6573SOL     OW20617   0.519   2.100   2.209
 6573SOL    HW120618   0.578   2.180   2.201
 6573SOL    HW220619   0.564   2.031   2.267
 6574SOL     OW20620   2.678   5.941   3.172
 6574SOL    HW120621   2.653   5.869   3.236
 6574SOL    HW220622   2.621   5.934   3.090
 6575SOL     OW20623   0.889   6.860   3.997
 6575SOL    HW120624   0.981   6.899   4.004
 6575SOL    HW220625   0.866   6.845   3.901
 6576SOL     OW20626   3.325   6.259   0.455
 6576SOL    HW120627   3.343   6.167   0.420
 6576SOL    HW220628   3.226   6.274   0.459
 6577SOL     OW20629   1.179   1.887   3.338
 6577SOL    HW120630   1.134   1.973   3.316
 6577SOL    HW220631   1.278   1.898   3.329
 6578SOL     OW20632   0.684   5.984   2.276
 6578SOL    HW120633   0.703   6.082   2.271
 6578SOL    HW220634   0.766   5.937   2.310
 6579SOL     OW20635   6.728   2.494   3.495
 6579SOL    HW120636   6.821   2.512   3.529
 6579SOL    HW220637   6.665   2.487   3.572
 6580SOL     OW20638   0.755   2.088   0.859
 6580SOL    HW120639   0.667   2.070   0.903
 6580SOL    HW220640   0.744   2.162   0.793
 6581SOL     OW20641   2.007   0.723   0.748
 6581SOL    HW120642   2.099   0.760   0.740
 6581SOL    HW220643   1.981   0.716   0.844
 6582SOL     OW20644   6.974   1.131   3.294
 6582SOL    HW120645   6.960   1.088   3.383
 6582SOL    HW220646   6.944   1.226   3.298
 6583SOL     OW20647   4.804   6.581   5.643
 6583SOL    HW120648   4.735   6.651   5.659
 6583SOL    HW220649   4.760   6.499   5.606
 6584SOL     OW20650   4.406   1.804   0.371
 6584SOL    HW120651   4.312   1.833   0.353
 6584SOL    HW220652   4.467   1.883   0.364
 6585SOL     OW20653   6.128   5.769   0.284
 6585SOL    HW120654   6.194   5.731   0.219
 6585SOL    HW220655   6.177   5.817   0.356
 6586SOL     OW20656   6.041   1.251   5.923
 6586SOL    HW120657   6.121   1.192   5.925
 6586SOL    HW220658   6.069   1.347   5.933
 6587SOL     OW20659   1.301   4.938   6.003
 6587SOL    HW120660   1.271   4.890   6.085
 6587SOL    HW220661   1.378   4.890   5.962
 6588SOL     OW20662   0.607   2.801   1.420
 6588SOL    HW120663   0.589   2.897   1.443
 6588SOL    HW220664   0.644   2.795   1.327
 6589SOL     OW20665   4.666   0.007   2.170
 6589SOL    HW120666   4.759   6.994   2.159
 6589SOL    HW220667   4.634   0.048   2.084
 6590SOL     OW20668   0.117   1.171   6.473
 6590SOL    HW120669   0.143   1.257   6.428
 6590SOL    HW220670   0.155   1.169   6.565
 6591SOL     OW20671   5.219   5.651   3.712
 6591SOL    HW120672   5.144   5.606   3.760
 6591SOL    HW220673   5.230   5.611   3.621
 6592SOL     OW20674   5.509   6.699   3.163
 6592SOL    HW120675   5.432   6.763   3.163
 6592SOL    HW220676   5.488   6.621   3.222
 6593SOL     OW20677   2.455   2.406   2.426
 6593SOL    HW120678   2.530   2.387   2.362
 6593SOL    HW220679   2.401   2.323   2.439
 6594SOL     OW20680   3.463   1.294   5.323
 6594SOL    HW120681   3.422   1.327   5.408
 6594SOL    HW220682   3.520   1.365   5.283
 6595SOL     OW20683   1.182   4.156   6.412
 6595SOL    HW120684   1.120   4.226   6.446
 6595SOL    HW220685   1.158   4.132   6.317
 6596SOL     OW20686   3.478   0.282   4.452
 6596SOL    HW120687   3.403   0.338   4.417
 6596SOL    HW220688   3.456   0.185   4.442
 6597SOL     OW20689   1.782   5.269   1.434
 6597SOL    HW120690   1.832   5.189   1.467
 6597SOL    HW220691   1.697   5.279   1.484
 6598SOL     OW20692   1.876   4.589   3.715
 6598SOL    HW120693   1.960   4.544   3.686
 6598SOL    HW220694   1.897   4.682   3.746
 6599SOL     OW20695   3.959   6.363   6.093
 6599SOL    HW120696   4.008   6.411   6.166
 6599SOL    HW220697   3.975   6.409   6.006
 6600SOL     OW20698   3.582   6.502   5.321
 6600SOL    HW120699   3.572   6.482   5.224
 6600SOL    HW220700   3.668   6.552   5.337
 6601SOL     OW20701   0.898   2.217   4.565
 6601SOL    HW120702   0.905   2.177   4.474
 6601SOL    HW220703   0.832   2.292   4.564
 6602SOL     OW20704   1.751   0.475   1.409
 6602SOL    HW120705   1.771   0.401   1.344
 6602SOL    HW220706   1.766   0.442   1.502
 6603SOL     OW20707   0.735   3.037   3.772
 6603SOL    HW120708   0.649   3.004   3.810
 6603SOL    HW220709   0.808   3.027   3.840
 6604SOL     OW20710   1.517   6.971   1.642
 6604SOL    HW120711   1.499   7.004   1.734
 6604SOL    HW220712   1.595   0.001   1.603
 6605SOL     OW20713   5.361   5.193   2.157
 6605SOL    HW120714   5.314   5.281   2.150
 6605SOL    HW220715   5.340   5.151   2.245
 6606SOL     OW20716   6.480   5.243   2.321
 6606SOL    HW120717   6.552   5.184   2.285
 6606SOL    HW220718   6.518   5.334   2.340
 6607SOL     OW20719   1.313   4.839   3.343
 6607SOL    HW120720   1.220   4.810   3.320
 6607SOL    HW220721   1.376   4.763   3.330
 6608SOL     OW20722   6.831   6.742   6.795
 6608SOL    HW120723   6.751   6.684   6.807
 6608SOL    HW220724   6.880   6.715   6.712
 6609SOL     OW20725   5.682   0.436   6.867
 6609SOL    HW120726   5.651   0.362   6.808
 6609SOL    HW220727   5.633   0.432   6.955
 6610SOL     OW20728   2.257   6.598   0.139
 6610SOL    HW120729   2.258   6.694   0.110
 6610SOL    HW220730   2.244   6.539   0.060
 6611SOL     OW20731   4.865   2.826   3.324
 6611SOL    HW120732   4.893   2.919   3.302
 6611SOL    HW220733   4.868   2.813   3.424
 6612SOL     OW20734   6.571   2.193   6.393
 6612SOL    HW120735   6.476   2.167   6.375
 6612SOL    HW220736   6.622   2.192   6.308
 6613SOL     OW20737   6.779   6.330   5.536
 6613SOL    HW120738   6.737   6.254   5.485
 6613SOL    HW220739   6.728   6.345   5.620
 6614SOL     OW20740   4.232   5.990   7.004
 6614SOL    HW120741   4.298   5.995   6.930
 6614SOL    HW220742   4.192   5.898   7.007
 6615SOL     OW20743   1.481   5.976   1.354
 6615SOL    HW120744   1.498   6.064   1.309
 6615SOL    HW220745   1.483   5.903   1.286
 6616SOL     OW20746   4.374   0.310   6.918
 6616SOL    HW120747   4.464   0.333   6.956
 6616SOL    HW220748   4.336   0.390   6.871
 6617SOL     OW20749   4.485   5.539   3.689
 6617SOL    HW120750   4.398   5.588   3.690
 6617SOL    HW220751   4.537   5.560   3.771
 6618SOL     OW20752   1.940   1.977   2.346
 6618SOL    HW120753   1.908   1.945   2.435
 6618SOL    HW220754   1.864   1.981   2.282
 6619SOL     OW20755   5.565   6.867   4.318
 6619SOL    HW120756   5.617   6.937   4.269
 6619SOL    HW220757   5.626   6.818   4.380
 6620SOL     OW20758   1.911   2.818   5.564
 6620SOL    HW120759   1.983   2.884   5.585
 6620SOL    HW220760   1.837   2.826   5.630
 6621SOL     OW20761   3.774   3.279   5.742
 6621SOL    HW120762   3.765   3.358   5.682
 6621SOL    HW220763   3.868   3.246   5.740
 6622SOL     OW20764   5.685   5.881   2.165
 6622SOL    HW120765   5.764   5.944   2.158
 6622SOL    HW220766   5.609   5.929   2.209
 6623SOL     OW20767   4.076   2.979   5.348
 6623SOL    HW120768   3.983   2.978   5.313
 6623SOL    HW220769   4.105   2.885   5.368
 6624SOL     OW20770   0.631   4.590   5.505
 6624SOL    HW120771   0.691   4.637   5.441
 6624SOL    HW220772   0.628   4.641   5.591
 6625SOL     OW20773   5.135   2.362   5.174
 6625SOL    HW120774   5.109   2.269   5.150
 6625SOL    HW220775   5.228   2.362   5.212
 6626SOL     OW20776   2.957   6.840   5.641
 6626SOL    HW120777   3.027   6.907   5.666
 6626SOL    HW220778   2.970   6.757   5.695
 6627SOL     OW20779   1.619   6.758   3.969
 6627SOL    HW120780   1.608   6.708   4.055
 6627SOL    HW220781   1.532   6.798   3.942
 6628SOL     OW20782   5.942   5.048   4.656
 6628SOL    HW120783   5.950   4.969   4.596
 6628SOL    HW220784   5.848   5.081   4.656
 6629SOL     OW20785   4.474   6.309   6.403
 6629SOL    HW120786   4.388   6.262   6.424
 6629SOL    HW220787   4.548   6.242   6.400
 6630SOL     OW20788   3.999   1.412   1.516
 6630SOL    HW120789   4.039   1.492   1.560
 6630SOL    HW220790   3.964   1.349   1.585
 6631SOL     OW20791   2.058   6.099   3.906
 6631SOL    HW120792   2.135   6.060   3.956
 6631SOL    HW220793   2.079   6.100   3.808
 6632SOL     OW20794   0.759   0.729   0.823
 6632SOL    HW120795   0.774   0.686   0.912
 6632SOL    HW220796   0.750   0.659   0.753
 6633SOL     OW20797   2.123   5.176   6.164
 6633SOL    HW120798   2.103   5.249   6.098
 6633SOL    HW220799   2.157   5.096   6.115
 6634SOL     OW20800   5.661   1.524   5.520
 6634SOL    HW120801   5.631   1.467   5.443
 6634SOL    HW220802   5.628   1.483   5.606
 6635SOL     OW20803   5.052   4.434   3.510
 6635SOL    HW120804   5.025   4.449   3.605
 6635SOL    HW220805   4.987   4.372   3.466
 6636SOL     OW20806   4.739   1.485   0.063
 6636SOL    HW120807   4.654   1.532   0.087
 6636SOL    HW220808   4.722   1.421   7.008
 6637SOL     OW20809   1.229   6.888   6.466
 6637SOL    HW120810   1.284   6.814   6.429
 6637SOL    HW220811   1.151   6.850   6.516
 6638SOL     OW20812   3.072   3.546   3.164
 6638SOL    HW120813   3.099   3.571   3.257
 6638SOL    HW220814   3.014   3.618   3.126
 6639SOL     OW20815   4.513   4.527   6.862
 6639SOL    HW120816   4.508   4.576   6.775
 6639SOL    HW220817   4.511   4.428   6.844
 6640SOL     OW20818   6.485   1.885   5.633
 6640SOL    HW120819   6.575   1.857   5.599
 6640SOL    HW220820   6.459   1.825   5.710
 6641SOL     OW20821   2.974   1.411   6.798
 6641SOL    HW120822   2.943   1.433   6.891
 6641SOL    HW220823   2.954   1.315   6.779
 6642SOL     OW20824   2.636   5.990   6.483
 6642SOL    HW120825   2.641   5.895   6.453
 6642SOL    HW220826   2.627   5.994   6.582
 6643SOL     OW20827   5.221   6.163   6.678
 6643SOL    HW120828   5.278   6.145   6.757
 6643SOL    HW220829   5.261   6.236   6.623
 6644SOL     OW20830   2.596   5.958   1.616
 6644SOL    HW120831   2.617   5.928   1.523
 6644SOL    HW220832   2.658   5.914   1.681
 6645SOL     OW20833   5.327   3.724   0.928
 6645SOL    HW120834   5.256   3.751   0.863
 6645SOL    HW220835   5.344   3.626   0.920
 6646SOL     OW20836   4.748   1.696   4.957
 6646SOL    HW120837   4.825   1.758   4.941
 6646SOL    HW220838   4.782   1.605   4.980
 6647SOL     OW20839   4.278   7.010   0.591
 6647SOL    HW120840   4.256   0.011   0.496
 6647SOL    HW220841   4.220   0.045   0.651
 6648SOL     OW20842   3.512   6.818   3.993
 6648SOL    HW120843   3.491   6.783   3.901
 6648SOL    HW220844   3.540   6.741   4.051
 6649SOL     OW20845   6.136   1.920   6.260
 6649SOL    HW120846   6.197   1.966   6.324
 6649SOL    HW220847   6.093   1.988   6.200
 6650SOL     OW20848   3.922   1.519   5.447
 6650SOL    HW120849   3.990   1.592   5.448
 6650SOL    HW220850   3.830   1.558   5.441
 6651SOL     OW20851   1.536   0.787   5.992
 6651SOL    HW120852   1.503   0.801   6.085
 6651SOL    HW220853   1.581   0.871   5.960
 6652SOL     OW20854   0.292   4.779   0.124
 6652SOL    HW120855   0.315   4.816   0.034
 6652SOL    HW220856   0.302   4.680   0.123
 6653SOL     OW20857   3.975   3.531   1.243
 6653SOL    HW120858   3.971   3.508   1.340
 6653SOL    HW220859   3.986   3.447   1.189
 6654SOL     OW20860   1.573   5.296   1.572
 6654SOL    HW120861   1.492   5.295   1.515
 6654SOL    HW220862   1.554   5.347   1.656
 6655SOL     OW20863   0.162   6.723   3.462
 6655SOL    HW120864   0.209   6.721   3.550
 6655SOL    HW220865   0.230   6.719   3.388
 6656SOL     OW20866   6.134   2.242   2.117
 6656SOL    HW120867   6.120   2.241   2.216
 6656SOL    HW220868   6.053   2.279   2.072
 6657SOL     OW20869   6.058   3.908   4.754
 6657SOL    HW120870   6.071   3.941   4.848
 6657SOL    HW220871   6.083   3.811   4.749
 6658SOL     OW20872   5.095   1.230   5.418
 6658SOL    HW120873   5.053   1.185   5.497
 6658SOL    HW220874   5.083   1.329   5.426
 6659SOL     OW20875   1.959   2.953   1.421
 6659SOL    HW120876   1.880   3.008   1.448
 6659SOL    HW220877   2.016   3.005   1.357
 6660SOL     OW20878   1.676   5.240   1.174
 6660SOL    HW120879   1.705   5.248   1.270
 6660SOL    HW220880   1.683   5.330   1.130
 6661SOL     OW20881   2.344   0.450   5.300
 6661SOL    HW120882   2.351   0.541   5.259
 6661SOL    HW220883   2.432   0.403   5.291
 6662SOL     OW20884   1.163   0.730   0.639
 6662SOL    HW120885   1.142   0.824   0.669
 6662SOL    HW220886   1.258   0.726   0.607
 6663SOL     OW20887   6.790   6.293   4.751
 6663SOL    HW120888   6.852   6.284   4.829
 6663SOL    HW220889   6.843   6.316   4.670
 6664SOL     OW20890   1.881   0.192   0.390
 6664SOL    HW120891   1.975   0.164   0.409
 6664SOL    HW220892   1.852   0.260   0.458
 6665SOL     OW20893   1.665   6.404   4.717
 6665SOL    HW120894   1.724   6.346   4.774
 6665SOL    HW220895   1.584   6.431   4.770
 6666SOL     OW20896   6.701   6.311   5.801
 6666SOL    HW120897   6.756   6.389   5.833
 6666SOL    HW220898   6.661   6.264   5.879
 6667SOL     OW20899   0.207   6.331   5.548
 6667SOL    HW120900   0.246   6.394   5.481
 6667SOL    HW220901   0.137   6.378   5.601
 6668SOL     OW20902   6.684   5.771   1.023
 6668SOL    HW120903   6.737   5.821   1.090
 6668SOL    HW220904   6.699   5.673   1.035
 6669SOL     OW20905   2.745   2.118   1.904
 6669SOL    HW120906   2.786   2.193   1.956
 6669SOL    HW220907   2.796   2.104   1.819
 6670SOL     OW20908   2.846   1.340   5.512
 6670SOL    HW120909   2.928   1.284   5.524
 6670SOL    HW220910   2.793   1.306   5.434
 6671SOL     OW20911   3.907   6.983   0.753
 6671SOL    HW120912   3.902   0.012   0.666
 6671SOL    HW220913   3.998   6.942   0.763
 6672SOL     OW20914   6.602   2.057   0.289
 6672SOL    HW120915   6.559   2.010   0.366
 6672SOL    HW220916   6.693   2.089   0.316
 6673SOL     OW20917   4.910   4.356   3.737
 6673SOL    HW120918   4.895   4.443   3.783
 6673SOL    HW220919   4.861   4.283   3.786
 6674SOL     OW20920   0.407   3.883   0.529
 6674SOL    HW120921   0.319   3.928   0.545
 6674SOL    HW220922   0.399   3.786   0.553
 6675SOL     OW20923   5.901   3.025   0.425
 6675SOL    HW120924   5.877   2.979   0.339
 6675SOL    HW220925   5.820   3.032   0.483
 6676SOL     OW20926   0.488   3.861   4.900
 6676SOL    HW120927   0.478   3.915   4.817
 6676SOL    HW220928   0.555   3.788   4.885
 6677SOL     OW20929   0.908   1.524   6.346
 6677SOL    HW120930   0.923   1.611   6.392
 6677SOL    HW220931   0.823   1.527   6.293
 6678SOL     OW20932   2.997   3.999   0.434
 6678SOL    HW120933   2.993   3.955   0.345
 6678SOL    HW220934   3.083   4.048   0.444
 6679SOL     OW20935   3.690   0.508   3.834
 6679SOL    HW120936   3.777   0.465   3.807
 6679SOL    HW220937   3.616   0.471   3.779
 6680SOL     OW20938   4.112   6.950   6.478
 6680SOL    HW120939   4.114   6.939   6.379
 6680SOL    HW220940   4.206   6.952   6.513
 6681SOL     OW20941   4.494   6.007   0.483
 6681SOL    HW120942   4.400   6.041   0.487
 6681SOL    HW220943   4.494   5.910   0.459
 6682SOL     OW20944   1.895   4.895   0.274
 6682SOL    HW120945   1.968   4.831   0.299
 6682SOL    HW220946   1.927   4.989   0.285
 6683SOL     OW20947   6.150   3.288   5.416
 6683SOL    HW120948   6.188   3.281   5.509
 6683SOL    HW220949   6.130   3.196   5.382
 6684SOL     OW20950   3.682   6.433   2.331
 6684SOL    HW120951   3.688   6.390   2.241
 6684SOL    HW220952   3.738   6.515   2.332
 6685SOL     OW20953   4.483   3.085   6.614
 6685SOL    HW120954   4.573   3.121   6.640
 6685SOL    HW220955   4.478   3.076   6.514
 6686SOL     OW20956   5.144   5.708   4.253
 6686SOL    HW120957   5.112   5.725   4.159
 6686SOL    HW220958   5.110   5.619   4.283
 6687SOL     OW20959   0.787   3.190   2.063
 6687SOL    HW120960   0.828   3.130   1.995
 6687SOL    HW220961   0.817   3.284   2.047
 6688SOL     OW20962   4.912   4.790   1.327
 6688SOL    HW120963   4.960   4.763   1.243
 6688SOL    HW220964   4.814   4.783   1.312
 6689SOL     OW20965   4.603   3.984   5.727
 6689SOL    HW120966   4.608   3.957   5.631
 6689SOL    HW220967   4.650   4.072   5.739
 6690SOL     OW20968   0.371   0.166   0.535
 6690SOL    HW120969   0.418   0.223   0.602
 6690SOL    HW220970   0.382   0.206   0.443
 6691SOL     OW20971   1.989   7.018   2.599
 6691SOL    HW120972   2.009   6.978   2.510
 6691SOL    HW220973   2.068   7.006   2.659
 6692SOL     OW20974   3.656   3.769   3.614
 6692SOL    HW120975   3.659   3.702   3.689
 6692SOL    HW220976   3.572   3.756   3.561
 6693SOL     OW20977   4.313   2.381   5.456
 6693SOL    HW120978   4.257   2.406   5.536
 6693SOL    HW220979   4.324   2.282   5.453
 6694SOL     OW20980   3.559   5.863   1.483
 6694SOL    HW120981   3.501   5.784   1.500
 6694SOL    HW220982   3.578   5.910   1.569
 6695SOL     OW20983   2.466   2.358   6.731
 6695SOL    HW120984   2.405   2.398   6.663
 6695SOL    HW220985   2.513   2.279   6.692
 6696SOL     OW20986   3.709   3.035   4.303
 6696SOL    HW120987   3.687   3.132   4.308
 6696SOL    HW220988   3.699   2.994   4.394
 6697SOL     OW20989   4.921   1.470   2.908
 6697SOL    HW120990   4.982   1.507   2.837
 6697SOL    HW220991   4.972   1.407   2.966
 6698SOL     OW20992   3.271   2.395   0.756
 6698SOL    HW120993   3.333   2.396   0.835
 6698SOL    HW220994   3.319   2.430   0.676
 6699SOL     OW20995   2.313   6.147   5.547
 6699SOL    HW120996   2.328   6.073   5.481
 6699SOL    HW220997   2.216   6.153   5.569
 6700SOL     OW20998   0.220   1.407   1.379
 6700SOL    HW120999   0.158   1.405   1.300
 6700SOL    HW221000   0.180   1.464   1.451
 6701SOL     OW21001   5.826   5.311   1.700
 6701SOL    HW121002   5.797   5.216   1.713
 6701SOL    HW221003   5.784   5.348   1.617
 6702SOL     OW21004   2.121   2.431   1.103
 6702SOL    HW121005   2.052   2.427   1.175
 6702SOL    HW221006   2.212   2.442   1.144
 6703SOL     OW21007   6.473   0.247   0.938
 6703SOL    HW121008   6.477   0.182   0.862
 6703SOL    HW221009   6.563   0.254   0.981
 6704SOL     OW21010   4.274   2.296   2.811
 6704SOL    HW121011   4.177   2.314   2.826
 6704SOL    HW221012   4.285   2.206   2.767
 6705SOL     OW21013   6.287   3.405   0.903
 6705SOL    HW121014   6.187   3.410   0.914
 6705SOL    HW221015   6.309   3.352   0.822
 6706SOL     OW21016   0.921   5.699   1.368
 6706SOL    HW121017   1.016   5.726   1.357
 6706SOL    HW221018   0.909   5.605   1.336
 6707SOL     OW21019   5.941   0.055   3.415
 6707SOL    HW121020   5.851   0.041   3.373
 6707SOL    HW221021   5.987   6.986   3.426
 6708SOL     OW21022   5.444   5.426   0.637
 6708SOL    HW121023   5.432   5.415   0.735
 6708SOL    HW221024   5.362   5.394   0.589
 6709SOL     OW21025   1.400   5.929   3.107
 6709SOL    HW121026   1.497   5.909   3.093
 6709SOL    HW221027   1.385   6.028   3.104
 6710SOL     OW21028   3.691   0.959   5.897
 6710SOL    HW121029   3.740   0.949   5.810
 6710SOL    HW221030   3.684   0.870   5.941
 6711SOL     OW21031   5.830   6.666   5.487
 6711SOL    HW121032   5.826   6.606   5.566
 6711SOL    HW221033   5.812   6.760   5.516
 6712SOL     OW21034   5.748   3.481   0.863
 6712SOL    HW121035   5.684   3.524   0.926
 6712SOL    HW221036   5.722   3.502   0.768
 6713SOL     OW21037   2.028   0.666   2.879
 6713SOL    HW121038   1.982   0.648   2.966
 6713SOL    HW221039   2.057   0.579   2.838
 6714SOL     OW21040   6.359   1.200   6.602
 6714SOL    HW121041   6.292   1.135   6.637
 6714SOL    HW221042   6.314   1.286   6.580
 6715SOL     OW21043   0.943   0.526   0.759
 6715SOL    HW121044   0.963   0.574   0.845
 6715SOL    HW221045   0.998   0.565   0.686
 6716SOL     OW21046   0.115   5.866   1.884
 6716SOL    HW121047   0.033   5.814   1.857
 6716SOL    HW221048   0.196   5.814   1.857
 6717SOL     OW21049   2.682   3.148   6.569
 6717SOL    HW121050   2.672   3.123   6.666
 6717SOL    HW221051   2.775   3.128   6.539
 6718SOL     OW21052   5.078   0.151   0.659
 6718SOL    HW121053   4.997   0.117   0.611
 6718SOL    HW221054   5.078   0.251   0.658
 6719SOL     OW21055   3.224   6.552   6.920
 6719SOL    HW121056   3.182   6.623   6.977
 6719SOL    HW221057   3.158   6.521   6.852
 6720SOL     OW21058   1.853   0.408   3.537
 6720SOL    HW121059   1.903   0.493   3.524
 6720SOL    HW221060   1.875   0.345   3.462
 6721SOL     OW21061   6.857   6.336   0.238
 6721SOL    HW121062   6.815   6.366   0.153
 6721SOL    HW221063   6.880   6.415   0.294
 6722SOL     OW21064   6.257   2.687   0.887
 6722SOL    HW121065   6.196   2.711   0.811
 6722SOL    HW221066   6.314   2.766   0.910
 6723SOL     OW21067   1.543   0.130   4.780
 6723SOL    HW121068   1.534   0.190   4.701
 6723SOL    HW221069   1.478   0.054   4.772
 6724SOL     OW21070   2.420   3.536   6.443
 6724SOL    HW121071   2.360   3.461   6.417
 6724SOL    HW221072   2.515   3.503   6.447
 6725SOL     OW21073   6.238   2.862   2.008
 6725SOL    HW121074   6.299   2.927   1.964
 6725SOL    HW221075   6.219   2.786   1.946
 6726SOL     OW21076   1.187   3.050   4.164
 6726SOL    HW121077   1.096   3.057   4.205
 6726SOL    HW221078   1.256   3.076   4.232
 6727SOL     OW21079   0.064   4.721   5.914
 6727SOL    HW121080   0.132   4.689   5.848
 6727SOL    HW221081   0.063   4.821   5.914
 6728SOL     OW21082   4.232   2.315   2.468
 6728SOL    HW121083   4.243   2.353   2.376
 6728SOL    HW221084   4.288   2.368   2.532
 6729SOL     OW21085   6.651   0.515   0.649
 6729SOL    HW121086   6.720   0.444   0.662
 6729SOL    HW221087   6.572   0.496   0.707
 6730SOL     OW21088   1.904   6.981   1.766
 6730SOL    HW121089   2.000   7.002   1.748
 6730SOL    HW221090   1.898   6.918   1.844
 6731SOL     OW21091   1.529   6.897   1.128
 6731SOL    HW121092   1.586   6.866   1.052
 6731SOL    HW221093   1.579   6.964   1.182
 6732SOL     OW21094   5.921   4.086   4.576
 6732SOL    HW121095   5.829   4.106   4.609
 6732SOL    HW221096   5.980   4.059   4.653
 6733SOL     OW21097   3.246   5.541   6.381
 6733SOL    HW121098   3.318   5.606   6.405
 6733SOL    HW221099   3.172   5.589   6.334
 6734SOL     OW21100   6.126   2.209   4.639
 6734SOL    HW121101   6.045   2.220   4.581
 6734SOL    HW221102   6.104   2.151   4.717
 6735SOL     OW21103   6.677   3.820   4.414
 6735SOL    HW121104   6.635   3.744   4.363
 6735SOL    HW221105   6.610   3.858   4.478
 6736SOL     OW21106   2.447   3.198   6.782
 6736SOL    HW121107   2.402   3.158   6.703
 6736SOL    HW221108   2.386   3.265   6.825
 6737SOL     OW21109   1.723   3.114   0.849
 6737SOL    HW121110   1.726   3.015   0.856
 6737SOL    HW221111   1.628   3.144   0.842
 6738SOL     OW21112   1.678   5.533   3.314
 6738SOL    HW121113   1.702   5.438   3.329
 6738SOL    HW221114   1.683   5.584   3.400
 6739SOL     OW21115   4.848   5.977   4.431
 6739SOL    HW121116   4.900   6.017   4.356
 6739SOL    HW221117   4.871   6.024   4.516
 6740SOL     OW21118   0.171   6.870   5.388
 6740SOL    HW121119   0.241   6.848   5.321
 6740SOL    HW221120   0.204   6.940   5.451
 6741SOL     OW21121   3.966   2.547   5.861
 6741SOL    HW121122   4.030   2.573   5.934
 6741SOL    HW221123   3.902   2.622   5.845
 6742SOL     OW21124   5.917   5.437   3.392
 6742SOL    HW121125   6.007   5.432   3.435
 6742SOL    HW221126   5.912   5.371   3.317
 6743SOL     OW21127   4.175   4.567   6.028
 6743SOL    HW121128   4.076   4.568   6.043
 6743SOL    HW221129   4.205   4.473   6.009
 6744SOL     OW21130   6.306   4.308   5.658
 6744SOL    HW121131   6.402   4.318   5.685
 6744SOL    HW221132   6.260   4.247   5.722
 6745SOL     OW21133   0.611   0.053   3.546
 6745SOL    HW121134   0.551   0.122   3.585
 6745SOL    HW221135   0.565   0.007   3.470
 6746SOL     OW21136   0.864   1.238   4.108
 6746SOL    HW121137   0.942   1.301   4.107
 6746SOL    HW221138   0.861   1.189   4.021
 6747SOL     OW21139   5.491   1.280   5.966
 6747SOL    HW121140   5.517   1.203   6.024
 6747SOL    HW221141   5.421   1.334   6.012
 6748SOL     OW21142   3.395   1.894   2.945
 6748SOL    HW121143   3.300   1.922   2.935
 6748SOL    HW221144   3.453   1.975   2.953
 6749SOL     OW21145   3.824   3.965   0.667
 6749SOL    HW121146   3.810   3.933   0.761
 6749SOL    HW221147   3.739   4.005   0.633
 6750SOL     OW21148   3.549   2.127   4.147
 6750SOL    HW121149   3.568   2.224   4.134
 6750SOL    HW221150   3.460   2.106   4.107
 6751SOL     OW21151   5.708   6.995   2.813
 6751SOL    HW121152   5.755   6.924   2.761
 6751SOL    HW221153   5.643   0.022   2.754
 6752SOL     OW21154   1.937   6.963   3.247
 6752SOL    HW121155   1.857   6.915   3.211
 6752SOL    HW221156   1.910   0.003   3.322
 6753SOL     OW21157   3.099   1.253   5.967
 6753SOL    HW121158   3.012   1.301   5.973
 6753SOL    HW221159   3.094   1.183   5.896
 6754SOL     OW21160   0.105   1.214   1.072
 6754SOL    HW121161   0.114   1.224   0.973
 6754SOL    HW221162   0.097   1.305   1.114
 6755SOL     OW21163   4.342   1.017   2.289
 6755SOL    HW121164   4.270   1.006   2.219
 6755SOL    HW221165   4.344   0.935   2.347
 6756SOL     OW21166   4.096   6.005   5.175
 6756SOL    HW121167   4.130   5.910   5.176
 6756SOL    HW221168   3.997   6.005   5.163
 6757SOL     OW21169   3.456   2.536   0.532
 6757SOL    HW121170   3.408   2.453   0.506
 6757SOL    HW221171   3.462   2.597   0.453
 6758SOL     OW21172   5.875   2.253   1.563
 6758SOL    HW121173   5.797   2.277   1.505
 6758SOL    HW221174   5.960   2.281   1.517
 6759SOL     OW21175   1.647   3.783   3.965
 6759SOL    HW121176   1.727   3.761   4.022
 6759SOL    HW221177   1.627   3.706   3.905
 6760SOL     OW21178   6.843   3.684   2.605
 6760SOL    HW121179   6.874   3.734   2.524
 6760SOL    HW221180   6.793   3.602   2.576
 6761SOL     OW21181   6.894   2.280   5.835
 6761SOL    HW121182   6.800   2.315   5.847
 6761SOL    HW221183   6.894   2.181   5.845
 6762SOL     OW21184   0.810   4.454   4.759
 6762SOL    HW121185   0.745   4.520   4.722
 6762SOL    HW221186   0.886   4.441   4.695
 6763SOL     OW21187   6.259   5.752   3.636
 6763SOL    HW121188   6.297   5.659   3.640
 6763SOL    HW221189   6.306   5.809   3.703
 6764SOL     OW21190   1.755   5.621   0.936
 6764SOL    HW121191   1.815   5.542   0.946
 6764SOL    HW221192   1.806   5.705   0.953
 6765SOL     OW21193   5.651   4.904   3.848
 6765SOL    HW121194   5.721   4.922   3.916
 6765SOL    HW221195   5.693   4.899   3.757
 6766SOL     OW21196   5.350   6.482   5.687
 6766SOL    HW121197   5.266   6.435   5.715
 6766SOL    HW221198   5.327   6.560   5.629
 6767SOL     OW21199   1.844   1.243   1.213
 6767SOL    HW121200   1.806   1.335   1.200
 6767SOL    HW221201   1.914   1.226   1.144
 6768SOL     OW21202   1.460   6.530   4.866
 6768SOL    HW121203   1.498   6.603   4.923
 6768SOL    HW221204   1.393   6.478   4.919
 6769SOL     OW21205   2.705   0.568   6.521
 6769SOL    HW121206   2.749   0.595   6.607
 6769SOL    HW221207   2.718   0.640   6.453
 6770SOL     OW21208   6.173   1.386   2.989
 6770SOL    HW121209   6.121   1.315   2.943
 6770SOL    HW221210   6.188   1.463   2.927
 6771SOL     OW21211   4.740   1.484   3.519
 6771SOL    HW121212   4.655   1.521   3.556
 6771SOL    HW221213   4.733   1.384   3.514
 6772SOL     OW21214   4.525   2.296   2.596
 6772SOL    HW121215   4.466   2.304   2.676
 6772SOL    HW221216   4.554   2.387   2.566
 6773SOL     OW21217   6.660   5.762   2.115
 6773SOL    HW121218   6.729   5.718   2.057
 6773SOL    HW221219   6.694   5.851   2.146
 6774SOL     OW21220   0.951   3.868   5.134
 6774SOL    HW121221   1.040   3.822   5.131
 6774SOL    HW221222   0.880   3.804   5.106
 6775SOL     OW21223   2.671   2.342   2.218
 6775SOL    HW121224   2.615   2.342   2.135
 6775SOL    HW221225   2.765   2.365   2.194
 6776SOL     OW21226   5.190   4.117   0.044
 6776SOL    HW121227   5.090   4.119   0.042
 6776SOL    HW221228   5.226   4.152   6.977
 6777SOL     OW21229   5.029   4.781   0.692
 6777SOL    HW121230   4.954   4.829   0.736
 6777SOL    HW221231   5.116   4.809   0.734
 6778SOL     OW21232   5.547   5.279   1.955
 6778SOL    HW121233   5.636   5.243   1.985
 6778SOL    HW221234   5.495   5.206   1.911
 6779SOL     OW21235   5.538   5.978   6.090
 6779SOL    HW121236   5.496   5.930   6.013
 6779SOL    HW221237   5.470   6.033   6.137
 6780SOL     OW21238   1.785   2.585   2.264
 6780SOL    HW121239   1.723   2.509   2.285
 6780SOL    HW221240   1.874   2.549   2.235
 6781SOL     OW21241   6.982   2.124   4.102
 6781SOL    HW121242   6.963   2.047   4.042
 6781SOL    HW221243   6.955   2.101   4.196
 6782SOL     OW21244   0.605   0.925   2.582
 6782SOL    HW121245   0.523   0.876   2.552
 6782SOL    HW221246   0.679   0.860   2.599
 6783SOL     OW21247   6.215   1.309   5.324
 6783SOL    HW121248   6.311   1.293   5.345
 6783SOL    HW221249   6.189   1.401   5.354
 6784SOL     OW21250   1.357   3.314   0.826
 6784SOL    HW121251   1.397   3.277   0.909
 6784SOL    HW221252   1.305   3.397   0.848
 6785SOL     OW21253   5.976   5.753   4.534
 6785SOL    HW121254   5.929   5.800   4.459
 6785SOL    HW221255   5.977   5.655   4.517
 6786SOL     OW21256   1.703   2.282   0.199
 6786SOL    HW121257   1.627   2.344   0.217
 6786SOL    HW221258   1.764   2.324   0.131
 6787SOL     OW21259   2.299   2.923   6.925
 6787SOL    HW121260   2.243   3.006   6.933
 6787SOL    HW221261   2.337   2.901   7.015
 6788SOL     OW21262   1.189   4.362   1.682
 6788SOL    HW121263   1.190   4.423   1.603
 6788SOL    HW221264   1.169   4.269   1.652
 6789SOL     OW21265   0.394   4.942   2.809
 6789SOL    HW121266   0.363   5.024   2.856
 6789SOL    HW221267   0.364   4.945   2.713
 6790SOL     OW21268   0.278   3.457   1.033
 6790SOL    HW121269   0.183   3.424   1.029
 6790SOL    HW221270   0.304   3.471   1.128
 6791SOL     OW21271   3.723   1.769   2.130
 6791SOL    HW121272   3.744   1.701   2.060
 6791SOL    HW221273   3.748   1.860   2.098
 6792SOL     OW21274   6.132   7.010   4.958
 6792SOL    HW121275   6.037   6.987   4.939
 6792SOL    HW221276   6.192   6.937   4.925
 6793SOL     OW21277   1.809   1.814   1.132
 6793SOL    HW121278   1.886   1.878   1.131
 6793SOL    HW221279   1.738   1.845   1.069
 6794SOL     OW21280   4.547   0.939   5.612
 6794SOL    HW121281   4.548   1.023   5.667
 6794SOL    HW221282   4.515   0.960   5.520
 6795SOL     OW21283   2.196   6.223   0.616
 6795SOL    HW121284   2.226   6.315   0.640
 6795SOL    HW221285   2.163   6.176   0.699
 6796SOL     OW21286   6.362   0.543   2.913
 6796SOL    HW121287   6.410   0.602   2.849
 6796SOL    HW221288   6.410   0.543   3.001
 6797SOL     OW21289   6.748   2.316   1.753
 6797SOL    HW121290   6.767   2.305   1.656
 6797SOL    HW221291   6.833   2.338   1.801
 6798SOL     OW21292   5.469   6.687   2.016
 6798SOL    HW121293   5.464   6.761   1.949
 6798SOL    HW221294   5.488   6.601   1.969
 6799SOL     OW21295   6.998   6.906   1.956
 6799SOL    HW121296   7.004   6.996   1.999
 6799SOL    HW221297   6.912   6.862   1.983
 6800SOL     OW21298   2.019   3.405   2.307
 6800SOL    HW121299   1.955   3.368   2.240
 6800SOL    HW221300   2.034   3.337   2.380
 6801SOL     OW21301   0.457   6.994   2.814
 6801SOL    HW121302   0.445   6.988   2.913
 6801SOL    HW221303   0.539   6.945   2.787
 6802SOL     OW21304   3.170   5.906   1.638
 6802SOL    HW121305   3.177   5.840   1.713
 6802SOL    HW221306   3.226   5.986   1.660
 6803SOL     OW21307   4.787   3.043   5.300
 6803SOL    HW121308   4.884   3.049   5.323
 6803SOL    HW221309   4.771   3.081   5.209
 6804SOL     OW21310   3.394   4.915   3.880
 6804SOL    HW121311   3.438   4.966   3.806
 6804SOL    HW221312   3.461   4.892   3.950
 6805SOL     OW21313   0.369   4.863   6.837
 6805SOL    HW121314   0.410   4.939   6.786
 6805SOL    HW221315   0.284   4.836   6.792
 6806SOL     OW21316   6.423   0.689   3.366
 6806SOL    HW121317   6.334   0.701   3.323
 6806SOL    HW221318   6.426   0.600   3.412
 6807SOL     OW21319   3.372   3.553   1.513
 6807SOL    HW121320   3.339   3.642   1.480
 6807SOL    HW221321   3.329   3.532   1.601
 6808SOL     OW21322   0.344   2.225   5.935
 6808SOL    HW121323   0.440   2.220   5.964
 6808SOL    HW221324   0.302   2.134   5.942
 6809SOL     OW21325   0.866   2.944   1.378
 6809SOL    HW121326   0.808   3.011   1.332
 6809SOL    HW221327   0.919   2.990   1.449
 6810SOL     OW21328   1.477   0.859   2.630
 6810SOL    HW121329   1.479   0.959   2.628
 6810SOL    HW221330   1.571   0.824   2.623
 6811SOL     OW21331   5.574   3.559   1.766
 6811SOL    HW121332   5.653   3.511   1.805
 6811SOL    HW221333   5.584   3.564   1.667
 6812SOL     OW21334   3.230   3.516   4.531
 6812SOL    HW121335   3.298   3.533   4.460
 6812SOL    HW221336   3.167   3.444   4.501
 6813SOL     OW21337   5.100   2.999   3.058
 6813SOL    HW121338   5.032   2.989   2.985
 6813SOL    HW221339   5.110   2.912   3.106
 6814SOL     OW21340   3.534   1.529   5.912
 6814SOL    HW121341   3.480   1.460   5.960
 6814SOL    HW221342   3.580   1.487   5.833
 6815SOL     OW21343   3.435   6.338   0.758
 6815SOL    HW121344   3.376   6.258   0.742
 6815SOL    HW221345   3.378   6.419   0.773
 6816SOL     OW21346   6.641   0.136   6.534
 6816SOL    HW121347   6.606   0.090   6.452
 6816SOL    HW221348   6.687   0.069   6.592
 6817SOL     OW21349   2.448   2.603   2.992
 6817SOL    HW121350   2.415   2.519   3.036
 6817SOL    HW221351   2.546   2.595   2.974
 6818SOL     OW21352   2.519   6.361   2.149
 6818SOL    HW121353   2.467   6.428   2.095
 6818SOL    HW221354   2.511   6.271   2.107
 6819SOL     OW21355   4.754   1.495   3.243
 6819SOL    HW121356   4.735   1.472   3.338
 6819SOL    HW221357   4.816   1.573   3.239
 6820SOL     OW21358   2.016   5.738   1.950
 6820SOL    HW121359   2.083   5.681   1.904
 6820SOL    HW221360   1.934   5.747   1.893
 6821SOL     OW21361   3.796   2.107   4.933
 6821SOL    HW121362   3.749   2.136   4.849
 6821SOL    HW221363   3.738   2.125   5.012
 6822SOL     OW21364   5.393   2.591   5.946
 6822SOL    HW121365   5.351   2.561   6.031
 6822SOL    HW221366   5.373   2.688   5.931
 6823SOL     OW21367   4.502   3.655   5.737
 6823SOL    HW121368   4.420   3.694   5.697
 6823SOL    HW221369   4.480   3.613   5.825
 6824SOL     OW21370   1.149   2.352   0.693
 6824SOL    HW121371   1.167   2.331   0.597
 6824SOL    HW221372   1.206   2.295   0.751
 6825SOL     OW21373   4.927   6.987   0.875
 6825SOL    HW121374   4.925   6.948   0.967
 6825SOL    HW221375   4.858   0.038   0.867
 6826SOL     OW21376   1.882   3.122   3.174
 6826SOL    HW121377   1.852   3.132   3.079
 6826SOL    HW221378   1.979   3.100   3.176
 6827SOL     OW21379   4.467   5.255   6.757
 6827SOL    HW121380   4.556   5.291   6.730
 6827SOL    HW221381   4.479   5.167   6.803
 6828SOL     OW21382   2.760   1.722   1.385
 6828SOL    HW121383   2.763   1.786   1.308
 6828SOL    HW221384   2.686   1.656   1.369
 6829SOL     OW21385   5.127   6.065   5.123
 6829SOL    HW121386   5.162   6.129   5.191
 6829SOL    HW221387   5.171   5.976   5.135
 6830SOL     OW21388   4.940   1.039   3.683
 6830SOL    HW121389   4.970   1.133   3.666
 6830SOL    HW221390   4.977   1.008   3.771
 6831SOL     OW21391   1.291   0.278   7.018
 6831SOL    HW121392   1.303   0.353   6.953
 6831SOL    HW221393   1.212   0.223   6.990
 6832SOL     OW21394   2.466   4.218   0.757
 6832SOL    HW121395   2.412   4.262   0.685
 6832SOL    HW221396   2.413   4.144   0.798
 6833SOL     OW21397   3.434   4.627   6.698
 6833SOL    HW121398   3.445   4.646   6.601
 6833SOL    HW221399   3.456   4.531   6.716
 6834SOL     OW21400   4.472   6.624   0.912
 6834SOL    HW121401   4.502   6.590   1.001
 6834SOL    HW221402   4.519   6.710   0.892
 6835SOL     OW21403   4.031   0.688   4.699
 6835SOL    HW121404   4.109   0.660   4.643
 6835SOL    HW221405   4.034   0.641   4.787
 6836SOL     OW21406   2.326   4.645   0.119
 6836SOL    HW121407   2.405   4.695   0.153
 6836SOL    HW221408   2.333   4.549   0.147
 6837SOL     OW21409   0.688   2.341   2.191
 6837SOL    HW121410   0.707   2.379   2.101
 6837SOL    HW221411   0.768   2.291   2.224
 6838SOL     OW21412   3.429   6.354   6.807
 6838SOL    HW121413   3.390   6.432   6.856
 6838SOL    HW221414   3.500   6.311   6.862
 6839SOL     OW21415   5.674   1.158   6.653
 6839SOL    HW121416   5.602   1.202   6.707
 6839SOL    HW221417   5.705   1.075   6.699
 6840SOL     OW21418   3.470   0.989   4.801
 6840SOL    HW121419   3.380   1.031   4.789
 6840SOL    HW221420   3.460   0.889   4.805
 6841SOL     OW21421   4.494   4.661   6.598
 6841SOL    HW121422   4.569   4.715   6.638
 6841SOL    HW221423   4.532   4.587   6.544
 6842SOL     OW21424   3.001   4.108   0.802
 6842SOL    HW121425   3.035   4.143   0.889
 6842SOL    HW221426   3.075   4.059   0.755
 6843SOL     OW21427   6.096   6.509   1.234
 6843SOL    HW121428   6.075   6.464   1.147
 6843SOL    HW221429   6.043   6.467   1.307
 6844SOL     OW21430   5.246   0.496   3.667
 6844SOL    HW121431   5.285   0.571   3.721
 6844SOL    HW221432   5.223   0.420   3.728
 6845SOL     OW21433   6.570   4.173   3.142
 6845SOL    HW121434   6.536   4.154   3.050
 6845SOL    HW221435   6.495   4.203   3.200
 6846SOL     OW21436   3.299   2.979   0.012
 6846SOL    HW121437   3.380   3.024   6.996
 6846SOL    HW221438   3.265   2.912   6.966
 6847SOL     OW21439   0.257   3.258   4.407
 6847SOL    HW121440   0.268   3.338   4.348
 6847SOL    HW221441   0.163   3.253   4.440
 6848SOL     OW21442   4.880   5.742   3.838
 6848SOL    HW121443   4.904   5.823   3.785
 6848SOL    HW221444   4.877   5.662   3.777
 6849SOL     OW21445   4.035   5.177   5.177
 6849SOL    HW121446   3.993   5.094   5.213
 6849SOL    HW221447   4.046   5.169   5.078
 6850SOL     OW21448   5.754   4.152   2.425
 6850SOL    HW121449   5.852   4.159   2.440
 6850SOL    HW221450   5.733   4.065   2.381
 6851SOL     OW21451   0.502   2.084   2.739
 6851SOL    HW121452   0.508   1.987   2.716
 6851SOL    HW221453   0.580   2.133   2.699
 6852SOL     OW21454   2.669   4.897   0.612
 6852SOL    HW121455   2.577   4.866   0.588
 6852SOL    HW221456   2.665   4.951   0.696
 6853SOL     OW21457   5.928   4.760   0.282
 6853SOL    HW121458   5.941   4.660   0.285
 6853SOL    HW221459   6.013   4.805   0.309
 6854SOL     OW21460   4.398   1.070   6.537
 6854SOL    HW121461   4.343   1.083   6.620
 6854SOL    HW221462   4.343   1.022   6.468
 6855SOL     OW21463   4.362   5.685   4.089
 6855SOL    HW121464   4.330   5.613   4.150
 6855SOL    HW221465   4.289   5.710   4.026
 6856SOL     OW21466   5.991   2.780   5.291
 6856SOL    HW121467   6.039   2.693   5.305
 6856SOL    HW221468   5.991   2.803   5.194
 6857SOL     OW21469   2.940   2.206   6.470
 6857SOL    HW121470   2.898   2.286   6.513
 6857SOL    HW221471   2.972   2.143   6.541
 6858SOL     OW21472   4.005   3.743   3.233
 6858SOL    HW121473   4.038   3.673   3.296
 6858SOL    HW221474   3.990   3.828   3.283
 6859SOL     OW21475   0.564   1.754   0.848
 6859SOL    HW121476   0.592   1.782   0.940
 6859SOL    HW221477   0.471   1.787   0.831
 6860SOL     OW21478   6.630   4.841   1.143
 6860SOL    HW121479   6.701   4.774   1.164
 6860SOL    HW221480   6.658   4.894   1.063
 6861SOL     OW21481   3.940   5.009   0.361
 6861SOL    HW121482   4.040   5.010   0.356
 6861SOL    HW221483   3.910   4.925   0.406
 6862SOL     OW21484   1.493   5.035   6.259
 6862SOL    HW121485   1.420   5.072   6.202
 6862SOL    HW221486   1.474   4.939   6.279
 6863SOL     OW21487   5.412   6.663   5.451
 6863SOL    HW121488   5.497   6.700   5.486
 6863SOL    HW221489   5.424   6.638   5.354
 6864SOL     OW21490   2.524   5.144   4.310
 6864SOL    HW121491   2.623   5.132   4.323
 6864SOL    HW221492   2.497   5.235   4.340
 6865SOL     OW21493   1.268   6.170   3.912
 6865SOL    HW121494   1.235   6.082   3.876
 6865SOL    HW221495   1.367   6.175   3.903
 6866SOL     OW21496   5.849   4.975   4.022
 6866SOL    HW121497   5.804   5.017   4.101
 6866SOL    HW221498   5.892   4.890   4.051
 6867SOL     OW21499   2.527   4.658   1.647
 6867SOL    HW121500   2.560   4.660   1.741
 6867SOL    HW221501   2.444   4.602   1.642
 6868SOL     OW21502   1.696   5.500   6.598
 6868SOL    HW121503   1.765   5.430   6.617
 6868SOL    HW221504   1.717   5.545   6.512
 6869SOL     OW21505   5.454   0.934   6.308
 6869SOL    HW121506   5.529   0.899   6.364
 6869SOL    HW221507   5.378   0.870   6.310
 6870SOL     OW21508   0.656   4.959   1.706
 6870SOL    HW121509   0.584   4.894   1.734
 6870SOL    HW221510   0.617   5.028   1.646
 6871SOL     OW21511   6.035   4.502   3.320
 6871SOL    HW121512   6.126   4.463   3.308
 6871SOL    HW221513   5.967   4.429   3.314
 6872SOL     OW21514   0.661   2.432   1.264
 6872SOL    HW121515   0.613   2.519   1.280
 6872SOL    HW221516   0.730   2.419   1.334
 6873SOL     OW21517   6.655   3.573   4.243
 6873SOL    HW121518   6.633   3.481   4.210
 6873SOL    HW221519   6.628   3.640   4.174
 6874SOL     OW21520   6.692   5.223   2.581
 6874SOL    HW121521   6.639   5.306   2.564
 6874SOL    HW221522   6.694   5.167   2.498
 6875SOL     OW21523   2.372   2.702   2.525
 6875SOL    HW121524   2.396   2.709   2.428
 6875SOL    HW221525   2.402   2.613   2.561
 6876SOL     OW21526   3.974   0.468   3.747
 6876SOL    HW121527   4.006   0.502   3.836
 6876SOL    HW221528   4.015   0.379   3.729
 6877SOL     OW21529   2.611   3.844   1.200
 6877SOL    HW121530   2.682   3.815   1.265
 6877SOL    HW221531   2.588   3.768   1.140
 6878SOL     OW21532   3.719   0.973   4.321
 6878SOL    HW121533   3.772   0.920   4.256
 6878SOL    HW221534   3.710   0.922   4.407
 6879SOL     OW21535   0.988   2.773   0.792
 6879SOL    HW121536   0.970   2.675   0.794
 6879SOL    HW221537   0.970   2.813   0.882
 6880SOL     OW21538   2.653   5.662   4.917
 6880SOL    HW121539   2.735   5.625   4.961
 6880SOL    HW221540   2.573   5.638   4.971
 6881SOL     OW21541   1.435   5.161   1.092
 6881SOL    HW121542   1.526   5.174   1.131
 6881SOL    HW221543   1.441   5.097   1.015
 6882SOL     OW21544   2.806   0.571   0.077
 6882SOL    HW121545   2.731   0.541   0.135
 6882SOL    HW221546   2.813   0.510   7.018
 6883SOL     OW21547   4.807   1.733   6.764
 6883SOL    HW121548   4.752   1.813   6.788
 6883SOL    HW221549   4.817   1.728   6.665
 6884SOL     OW21550   1.293   3.958   3.860
 6884SOL    HW121551   1.250   3.908   3.935
 6884SOL    HW221552   1.290   4.056   3.879
 6885SOL     OW21553   4.521   4.687   4.184
 6885SOL    HW121554   4.575   4.617   4.137
 6885SOL    HW221555   4.455   4.726   4.121
 6886SOL     OW21556   6.844   0.552   3.938
 6886SOL    HW121557   6.785   0.628   3.911
 6886SOL    HW221558   6.800   0.466   3.915
 6887SOL     OW21559   5.060   5.905   6.240
 6887SOL    HW121560   5.142   5.903   6.182
 6887SOL    HW221561   5.051   5.996   6.280
 6888SOL     OW21562   5.418   5.660   6.431
 6888SOL    HW121563   5.494   5.724   6.445
 6888SOL    HW221564   5.451   5.580   6.382
 6889SOL     OW21565   1.465   2.799   5.318
 6889SOL    HW121566   1.428   2.715   5.278
 6889SOL    HW221567   1.390   2.864   5.334
 6890SOL     OW21568   4.264   6.685   1.836
 6890SOL    HW121569   4.338   6.699   1.902
 6890SOL    HW221570   4.195   6.624   1.876
 6891SOL     OW21571   1.897   4.178   2.670
 6891SOL    HW121572   1.798   4.172   2.682
 6891SOL    HW221573   1.929   4.101   2.616
 6892SOL     OW21574   3.837   2.058   3.328
 6892SOL    HW121575   3.936   2.068   3.322
 6892SOL    HW221576   3.796   2.086   3.241
 6893SOL     OW21577   4.808   4.666   0.204
 6893SOL    HW121578   4.809   4.734   0.130
 6893SOL    HW221579   4.848   4.705   0.286
 6894SOL     OW21580   6.068   5.156   0.184
 6894SOL    HW121581   6.074   5.092   0.261
 6894SOL    HW221582   6.159   5.171   0.147
 6895SOL     OW21583   3.339   4.970   1.021
 6895SOL    HW121584   3.437   4.951   1.028
 6895SOL    HW221585   3.310   4.960   0.926
 6896SOL     OW21586   2.472   0.477   3.937
 6896SOL    HW121587   2.466   0.490   3.838
 6896SOL    HW221588   2.548   0.416   3.958
 6897SOL     OW21589   4.708   3.381   5.286
 6897SOL    HW121590   4.665   3.341   5.367
 6897SOL    HW221591   4.670   3.472   5.269
 6898SOL     OW21592   4.074   1.683   1.645
 6898SOL    HW121593   4.082   1.772   1.689
 6898SOL    HW221594   4.158   1.631   1.658
 6899SOL     OW21595   4.891   6.164   1.662
 6899SOL    HW121596   4.931   6.255   1.662
 6899SOL    HW221597   4.794   6.170   1.642
 6900SOL     OW21598   6.286   5.639   5.104
 6900SOL    HW121599   6.261   5.557   5.052
 6900SOL    HW221600   6.366   5.620   5.160
 6901SOL     OW21601   6.333   6.275   5.891
 6901SOL    HW121602   6.319   6.219   5.809
 6901SOL    HW221603   6.263   6.254   5.959
 6902SOL     OW21604   6.220   6.277   6.851
 6902SOL    HW121605   6.273   6.302   6.932
 6902SOL    HW221606   6.209   6.177   6.847
 6903SOL     OW21607   3.071   5.106   5.331
 6903SOL    HW121608   3.124   5.142   5.408
 6903SOL    HW221609   3.125   5.039   5.281
 6904SOL     OW21610   6.840   0.713   4.476
 6904SOL    HW121611   6.744   0.689   4.485
 6904SOL    HW221612   6.853   0.769   4.394
 6905SOL     OW21613   5.826   6.202   6.636
 6905SOL    HW121614   5.847   6.134   6.566
 6905SOL    HW221615   5.878   6.181   6.719
 6906SOL     OW21616   4.595   1.537   4.375
 6906SOL    HW121617   4.669   1.587   4.330
 6906SOL    HW221618   4.599   1.440   4.348
 6907SOL     OW21619   5.475   2.791   1.445
 6907SOL    HW121620   5.411   2.757   1.515
 6907SOL    HW221621   5.522   2.872   1.480
 6908SOL     OW21622   1.233   5.281   6.945
 6908SOL    HW121623   1.316   5.270   7.000
 6908SOL    HW221624   1.250   5.346   6.871
 6909SOL     OW21625   4.930   4.337   1.516
 6909SOL    HW121626   4.963   4.245   1.536
 6909SOL    HW221627   4.863   4.364   1.584
 6910SOL     OW21628   0.834   2.942   3.497
 6910SOL    HW121629   0.856   2.961   3.593
 6910SOL    HW221630   0.911   2.973   3.439
 6911SOL     OW21631   4.262   6.522   4.361
 6911SOL    HW121632   4.251   6.616   4.331
 6911SOL    HW221633   4.353   6.489   4.333
 6912SOL     OW21634   3.409   3.713   6.221
 6912SOL    HW121635   3.339   3.760   6.168
 6912SOL    HW221636   3.463   3.653   6.161
 6913SOL     OW21637   5.369   6.058   3.545
 6913SOL    HW121638   5.373   5.992   3.620
 6913SOL    HW221639   5.357   6.009   3.459
 6914SOL     OW21640   6.121   4.169   3.506
 6914SOL    HW121641   6.148   4.238   3.573
 6914SOL    HW221642   6.166   4.082   3.527
 6915SOL     OW21643   5.989   3.096   1.801
 6915SOL    HW121644   5.901   3.143   1.811
 6915SOL    HW221645   6.063   3.158   1.825
 6916SOL     OW21646   5.644   1.920   6.716
 6916SOL    HW121647   5.685   1.943   6.628
 6916SOL    HW221648   5.655   1.822   6.732
 6917SOL     OW21649   3.245   0.141   1.706
 6917SOL    HW121650   3.317   0.083   1.668
 6917SOL    HW221651   3.269   0.237   1.693
 6918SOL     OW21652   0.620   2.829   4.583
 6918SOL    HW121653   0.550   2.827   4.654
 6918SOL    HW221654   0.620   2.919   4.538
 6919SOL     OW21655   5.926   5.777   3.876
 6919SOL    HW121656   5.935   5.736   3.785
 6919SOL    HW221657   6.016   5.787   3.918
 6920SOL     OW21658   4.111   6.113   5.773
 6920SOL    HW121659   4.032   6.095   5.831
 6920SOL    HW221660   4.100   6.202   5.728
 6921SOL     OW21661   5.089   5.741   3.986
 6921SOL    HW121662   5.003   5.734   3.935
 6921SOL    HW221663   5.112   5.837   3.998
 6922SOL     OW21664   1.861   6.290   4.858
 6922SOL    HW121665   1.931   6.314   4.792
 6922SOL    HW221666   1.834   6.371   4.910
 6923SOL     OW21667   5.152   5.462   3.248
 6923SOL    HW121668   5.096   5.474   3.330
 6923SOL    HW221669   5.093   5.448   3.169
 6924SOL     OW21670   1.696   4.475   6.450
 6924SOL    HW121671   1.670   4.406   6.518
 6924SOL    HW221672   1.743   4.430   6.374
 6925SOL     OW21673   4.855   6.039   3.952
 6925SOL    HW121674   4.815   5.948   3.963
 6925SOL    HW221675   4.784   6.108   3.963
 6926SOL     OW21676   2.932   2.281   0.834
 6926SOL    HW121677   2.980   2.357   0.879
 6926SOL    HW221678   2.881   2.229   0.902
 6927SOL     OW21679   3.831   2.823   5.945
 6927SOL    HW121680   3.778   2.869   6.017
 6927SOL    HW221681   3.928   2.838   5.961
 6928SOL     OW21682   5.797   5.967   1.048
 6928SOL    HW121683   5.819   5.922   0.962
 6928SOL    HW221684   5.845   5.922   1.123
 6929SOL     OW21685   5.438   5.803   1.432
 6929SOL    HW121686   5.459   5.895   1.399
 6929SOL    HW221687   5.346   5.777   1.405
 6930SOL     OW21688   1.096   0.666   1.991
 6930SOL    HW121689   1.130   0.697   1.902
 6930SOL    HW221690   1.171   0.626   2.043
 6931SOL     OW21691   2.057   0.836   2.283
 6931SOL    HW121692   2.093   0.906   2.221
 6931SOL    HW221693   2.004   0.879   2.356
 6932SOL     OW21694   4.135   6.816   0.180
 6932SOL    HW121695   4.077   6.775   0.251
 6932SOL    HW221696   4.093   6.799   0.090
 6933SOL     OW21697   3.414   5.738   5.363
 6933SOL    HW121698   3.495   5.787   5.330
 6933SOL    HW221699   3.408   5.747   5.462
 6934SOL     OW21700   4.401   3.706   6.086
 6934SOL    HW121701   4.329   3.754   6.035
 6934SOL    HW221702   4.368   3.687   6.179
 6935SOL     OW21703   4.441   5.722   2.426
 6935SOL    HW121704   4.443   5.663   2.346
 6935SOL    HW221705   4.405   5.672   2.505
 6936SOL     OW21706   6.302   2.121   3.064
 6936SOL    HW121707   6.342   2.167   3.143
 6936SOL    HW221708   6.276   2.190   2.996
 6937SOL     OW21709   6.300   6.133   0.228
 6937SOL    HW121710   6.354   6.071   0.169
 6937SOL    HW221711   6.330   6.227   0.213
 6938SOL     OW21712   6.154   2.449   5.231
 6938SOL    HW121713   6.191   2.363   5.264
 6938SOL    HW221714   6.076   2.432   5.171
 6939SOL     OW21715   1.137   5.078   1.870
 6939SOL    HW121716   1.089   4.990   1.869
 6939SOL    HW221717   1.223   5.070   1.821
 6940SOL     OW21718   3.581   0.512   6.194
 6940SOL    HW121719   3.485   0.491   6.212
 6940SOL    HW221720   3.625   0.544   6.278
 6941SOL     OW21721   2.901   4.144   1.629
 6941SOL    HW121722   2.973   4.213   1.640
 6941SOL    HW221723   2.941   4.053   1.632
 6942SOL     OW21724   6.175   6.502   1.556
 6942SOL    HW121725   6.251   6.492   1.493
 6942SOL    HW221726   6.117   6.579   1.527
 6943SOL     OW21727   3.167   5.784   0.346
 6943SOL    HW121728   3.160   5.755   0.250
 6943SOL    HW221729   3.253   5.751   0.384
 6944SOL     OW21730   0.627   4.329   6.708
 6944SOL    HW121731   0.563   4.258   6.679
 6944SOL    HW221732   0.714   4.287   6.735
 6945SOL     OW21733   6.071   1.203   6.794
 6945SOL    HW121734   6.004   1.171   6.860
 6945SOL    HW221735   6.025   1.231   6.710
 6946SOL     OW21736   4.124   6.684   1.108
 6946SOL    HW121737   4.099   6.640   1.194
 6946SOL    HW221738   4.042   6.692   1.051
 6947SOL     OW21739   3.447   5.722   6.496
 6947SOL    HW121740   3.528   5.778   6.487
 6947SOL    HW221741   3.462   5.652   6.566
 6948SOL     OW21742   0.712   0.169   0.300
 6948SOL    HW121743   0.731   0.108   0.223
 6948SOL    HW221744   0.618   0.201   0.296
 6949SOL     OW21745   3.845   0.233   3.341
 6949SOL    HW121746   3.773   0.166   3.321
 6949SOL    HW221747   3.870   0.282   3.257
 6950SOL     OW21748   1.376   2.101   4.627
 6950SOL    HW121749   1.439   2.027   4.649
 6950SOL    HW221750   1.293   2.093   4.682
 6951SOL     OW21751   5.917   5.317   5.395
 6951SOL    HW121752   5.936   5.384   5.324
 6951SOL    HW221753   5.910   5.363   5.484
 6952SOL     OW21754   0.603   6.333   3.283
 6952SOL    HW121755   0.607   6.374   3.375
 6952SOL    HW221756   0.631   6.401   3.215
 6953SOL     OW21757   4.264   6.533   1.404
 6953SOL    HW121758   4.171   6.559   1.379
 6953SOL    HW221759   4.305   6.604   1.461
 6954SOL     OW21760   6.891   3.992   2.514
 6954SOL    HW121761   6.988   4.012   2.495
 6954SOL    HW221762   6.834   4.039   2.447
 6955SOL     OW21763   5.876   0.160   2.293
 6955SOL    HW121764   5.879   0.211   2.378
 6955SOL    HW221765   5.781   0.152   2.262
 6956SOL     OW21766   5.870   6.036   3.748
 6956SOL    HW121767   5.888   5.959   3.810
 6956SOL    HW221768   5.835   6.001   3.661
 6957SOL     OW21769   6.340   5.428   0.600
 6957SOL    HW121770   6.414   5.459   0.661
 6957SOL    HW221771   6.361   5.337   0.565
 6958SOL     OW21772   4.042   3.391   4.480
 6958SOL    HW121773   3.995   3.343   4.406
 6958SOL    HW221774   4.107   3.456   4.442
 6959SOL     OW21775   2.161   3.104   3.684
 6959SOL    HW121776   2.081   3.073   3.633
 6959SOL    HW221777   2.237   3.117   3.622
 6960SOL     OW21778   1.804   4.432   1.090
 6960SOL    HW121779   1.708   4.424   1.062
 6960SOL    HW221780   1.809   4.426   1.190
 6961SOL     OW21781   5.636   1.245   4.030
 6961SOL    HW121782   5.615   1.341   4.010
 6961SOL    HW221783   5.582   1.186   3.971
 6962SOL     OW21784   5.027   6.049   1.849
 6962SOL    HW121785   5.120   6.066   1.817
 6962SOL    HW221786   4.962   6.087   1.784
 6963SOL     OW21787   5.282   5.922   0.973
 6963SOL    HW121788   5.371   5.967   0.978
 6963SOL    HW221789   5.218   5.966   1.037
 6964SOL     OW21790   3.490   0.924   5.470
 6964SOL    HW121791   3.581   0.912   5.509
 6964SOL    HW221792   3.422   0.889   5.534
 6965SOL     OW21793   1.296   1.206   0.239
 6965SOL    HW121794   1.216   1.149   0.220
 6965SOL    HW221795   1.275   1.271   0.311
 6966SOL     OW21796   1.269   2.260   2.736
 6966SOL    HW121797   1.315   2.339   2.777
 6966SOL    HW221798   1.225   2.206   2.807
 6967SOL     OW21799   2.901   1.004   5.693
 6967SOL    HW121800   2.993   1.023   5.727
 6967SOL    HW221801   2.906   0.943   5.614
 6968SOL     OW21802   3.516   0.310   3.047
 6968SOL    HW121803   3.611   0.339   3.040
 6968SOL    HW221804   3.485   0.273   2.960
 6969SOL     OW21805   3.004   2.355   1.617
 6969SOL    HW121806   2.973   2.413   1.693
 6969SOL    HW221807   3.081   2.299   1.646
 6970SOL     OW21808   4.440   4.539   5.442
 6970SOL    HW121809   4.507   4.503   5.507
 6970SOL    HW221810   4.348   4.511   5.469
 6971SOL     OW21811   6.732   4.561   1.011
 6971SOL    HW121812   6.636   4.574   1.035
 6971SOL    HW221813   6.748   4.595   0.918
 6972SOL     OW21814   5.358   4.685   2.907
 6972SOL    HW121815   5.398   4.754   2.846
 6972SOL    HW221816   5.288   4.727   2.964
 6973SOL     OW21817   1.045   3.319   3.640
 6973SOL    HW121818   1.014   3.285   3.551
 6973SOL    HW221819   0.968   3.362   3.688
 6974SOL     OW21820   2.933   3.754   3.044
 6974SOL    HW121821   2.859   3.764   2.978
 6974SOL    HW221822   3.016   3.798   3.009
 6975SOL     OW21823   1.375   6.159   6.308
 6975SOL    HW121824   1.284   6.195   6.283
 6975SOL    HW221825   1.368   6.107   6.393
 6976SOL     OW21826   5.665   5.074   5.137
 6976SOL    HW121827   5.617   5.161   5.152
 6976SOL    HW221828   5.741   5.067   5.201
 6977SOL     OW21829   3.876   2.956   1.289
 6977SOL    HW121830   3.936   2.881   1.315
 6977SOL    HW221831   3.925   3.019   1.228
 6978SOL     OW21832   5.915   1.735   2.244
 6978SOL    HW121833   5.879   1.746   2.336
 6978SOL    HW221834   5.936   1.639   2.227
 6979SOL     OW21835   0.984   4.207   1.830
 6979SOL    HW121836   1.055   4.217   1.899
 6979SOL    HW221837   1.022   4.158   1.751
 6980SOL     OW21838   2.246   1.568   3.989
 6980SOL    HW121839   2.276   1.520   3.907
 6980SOL    HW221840   2.167   1.626   3.967
 6981SOL     OW21841   3.780   3.003   6.165
 6981SOL    HW121842   3.824   3.089   6.142
 6981SOL    HW221843   3.681   3.014   6.161
 6982SOL     OW21844   1.356   1.050   5.115
 6982SOL    HW121845   1.359   1.102   5.200
 6982SOL    HW221846   1.287   0.978   5.122
 6983SOL     OW21847   4.350   1.877   3.525
 6983SOL    HW121848   4.362   1.861   3.623
 6983SOL    HW221849   4.345   1.975   3.507
 6984SOL     OW21850   1.551   1.581   3.289
 6984SOL    HW121851   1.524   1.655   3.350
 6984SOL    HW221852   1.474   1.519   3.274
 6985SOL     OW21853   5.936   5.049   1.125
 6985SOL    HW121854   6.023   5.025   1.082
 6985SOL    HW221855   5.860   5.010   1.073
 6986SOL     OW21856   2.479   0.228   6.240
 6986SOL    HW121857   2.453   0.134   6.218
 6986SOL    HW221858   2.452   0.289   6.165
 6987SOL     OW21859   6.010   1.468   6.380
 6987SOL    HW121860   6.016   1.406   6.302
 6987SOL    HW221861   6.016   1.562   6.348
 6988SOL     OW21862   0.860   6.746   6.407
 6988SOL    HW121863   0.902   6.758   6.317
 6988SOL    HW221864   0.848   6.835   6.451
 6989SOL     OW21865   0.967   4.037   3.510
 6989SOL    HW121866   1.062   4.040   3.480
 6989SOL    HW221867   0.931   3.945   3.496
 6990SOL     OW21868   4.856   2.750   1.267
 6990SOL    HW121869   4.832   2.812   1.342
 6990SOL    HW221870   4.918   2.679   1.300
 6991SOL     OW21871   4.541   4.679   3.231
 6991SOL    HW121872   4.577   4.597   3.276
 6991SOL    HW221873   4.612   4.718   3.172
 6992SOL     OW21874   5.468   6.850   6.355
 6992SOL    HW121875   5.449   6.850   6.454
 6992SOL    HW221876   5.392   6.807   6.307
 6993SOL     OW21877   6.109   0.531   2.933
 6993SOL    HW121878   6.208   0.547   2.934
 6993SOL    HW221879   6.083   0.490   2.846
 6994SOL     OW21880   0.489   2.457   4.208
 6994SOL    HW121881   0.523   2.515   4.282
 6994SOL    HW221882   0.492   2.362   4.237
 6995SOL     OW21883   0.390   4.645   6.493
 6995SOL    HW121884   0.350   4.606   6.576
 6995SOL    HW221885   0.326   4.634   6.417
 6996SOL     OW21886   1.548   0.147   6.572
 6996SOL    HW121887   1.642   0.176   6.589
 6996SOL    HW221888   1.520   0.177   6.480
 6997SOL     OW21889   0.309   5.657   5.531
 6997SOL    HW121890   0.289   5.754   5.522
 6997SOL    HW221891   0.226   5.608   5.558
 6998SOL     OW21892   2.138   0.472   1.396
 6998SOL    HW121893   2.130   0.475   1.296
 6998SOL    HW221894   2.130   0.564   1.433
 6999SOL     OW21895   2.162   2.281   6.778
 6999SOL    HW121896   2.147   2.183   6.768
 6999SOL    HW221897   2.226   2.312   6.707
 7000SOL     OW21898   5.290   6.760   1.268
 7000SOL    HW121899   5.196   6.783   1.292
 7000SOL    HW221900   5.353   6.821   1.317
 7001SOL     OW21901   2.139   3.322   6.101
 7001SOL    HW121902   2.201   3.334   6.023
 7001SOL    HW221903   2.058   3.273   6.072
 7002SOL     OW21904   1.404   5.313   3.884
 7002SOL    HW121905   1.310   5.302   3.914
 7002SOL    HW221906   1.410   5.294   3.786
 7003SOL     OW21907   4.157   5.754   0.869
 7003SOL    HW121908   4.058   5.753   0.883
 7003SOL    HW221909   4.179   5.704   0.785
 7004SOL     OW21910   0.800   5.454   2.023
 7004SOL    HW121911   0.771   5.371   1.974
 7004SOL    HW221912   0.861   5.429   2.098
 7005SOL     OW21913   0.783   0.116   0.698
 7005SOL    HW121914   0.775   0.024   0.662
 7005SOL    HW221915   0.873   0.153   0.677
 7006SOL     OW21916   4.753   4.928   3.779
 7006SOL    HW121917   4.733   5.000   3.713
 7006SOL    HW221918   4.669   4.878   3.800
 7007SOL     OW21919   4.437   0.559   4.437
 7007SOL    HW121920   4.511   0.504   4.476
 7007SOL    HW221921   4.468   0.604   4.354
 7008SOL     OW21922   0.315   4.201   4.249
 7008SOL    HW121923   0.247   4.266   4.214
 7008SOL    HW221924   0.376   4.248   4.313
 7009SOL     OW21925   4.932   6.363   2.679
 7009SOL    HW121926   4.925   6.462   2.686
 7009SOL    HW221927   4.855   6.321   2.727
 7010SOL     OW21928   5.354   4.267   3.923
 7010SOL    HW121929   5.284   4.266   3.994
 7010SOL    HW221930   5.372   4.174   3.892
 7011SOL     OW21931   3.202   6.196   6.807
 7011SOL    HW121932   3.225   6.117   6.864
 7011SOL    HW221933   3.284   6.250   6.790
 7012SOL     OW21934   0.611   1.760   1.122
 7012SOL    HW121935   0.605   1.845   1.175
 7012SOL    HW221936   0.595   1.682   1.182
 7013SOL     OW21937   1.025   0.067   0.157
 7013SOL    HW121938   0.999   0.085   0.063
 7013SOL    HW221939   1.125   0.061   0.163
 7014SOL     OW21940   4.149   3.441   0.501
 7014SOL    HW121941   4.170   3.345   0.519
 7014SOL    HW221942   4.234   3.491   0.483
 7015SOL     OW21943   6.466   4.257   1.264
 7015SOL    HW121944   6.490   4.173   1.312
 7015SOL    HW221945   6.399   4.309   1.317
 7016SOL     OW21946   3.355   4.926   1.373
 7016SOL    HW121947   3.256   4.916   1.365
 7016SOL    HW221948   3.377   4.960   1.465
 7017SOL     OW21949   2.570   4.993   3.413
 7017SOL    HW121950   2.639   5.060   3.385
 7017SOL    HW221951   2.504   4.981   3.339
 7018SOL     OW21952   5.595   3.518   4.385
 7018SOL    HW121953   5.597   3.450   4.458
 7018SOL    HW221954   5.583   3.609   4.425
 7019SOL     OW21955   3.823   4.145   0.275
 7019SOL    HW121956   3.779   4.076   0.218
 7019SOL    HW221957   3.753   4.201   0.319
 7020SOL     OW21958   6.606   4.305   5.702
 7020SOL    HW121959   6.630   4.401   5.716
 7020SOL    HW221960   6.654   4.248   5.769
 7021SOL     OW21961   1.737   2.233   5.333
 7021SOL    HW121962   1.641   2.250   5.312
 7021SOL    HW221963   1.762   2.141   5.302
 7022SOL     OW21964   4.687   6.664   6.164
 7022SOL    HW121965   4.732   6.599   6.103
 7022SOL    HW221966   4.607   6.620   6.206
 7023SOL     OW21967   1.281   2.505   3.439
 7023SOL    HW121968   1.283   2.602   3.461
 7023SOL    HW221969   1.212   2.459   3.494
 7024SOL     OW21970   2.925   3.496   5.321
 7024SOL    HW121971   3.022   3.497   5.299
 7024SOL    HW221972   2.889   3.403   5.313
 7025SOL     OW21973   3.614   0.671   0.758
 7025SOL    HW121974   3.525   0.638   0.787
 7025SOL    HW221975   3.613   0.689   0.659
 7026SOL     OW21976   3.312   2.093   1.952
 7026SOL    HW121977   3.290   2.087   2.050
 7026SOL    HW221978   3.394   2.039   1.934
 7027SOL     OW21979   2.030   5.152   4.065
 7027SOL    HW121980   2.008   5.094   4.144
 7027SOL    HW221981   2.125   5.137   4.039
 7028SOL     OW21982   2.957   1.558   3.282
 7028SOL    HW121983   2.998   1.617   3.213
 7028SOL    HW221984   3.023   1.539   3.354
 7029SOL     OW21985   4.688   4.587   5.241
 7029SOL    HW121986   4.690   4.686   5.227
 7029SOL    HW221987   4.776   4.548   5.214
 7030SOL     OW21988   1.165   0.860   5.164
 7030SOL    HW121989   1.152   0.842   5.261
 7030SOL    HW221990   1.103   0.801   5.111
 7031SOL     OW21991   3.980   5.774   6.219
 7031SOL    HW121992   4.053   5.714   6.254
 7031SOL    HW221993   3.892   5.726   6.225
 7032SOL     OW21994   4.417   1.577   4.111
 7032SOL    HW121995   4.459   1.648   4.168
 7032SOL    HW221996   4.486   1.540   4.049
 7033SOL     OW21997   1.714   2.386   3.427
 7033SOL    HW121998   1.685   2.468   3.475
 7033SOL    HW221999   1.678   2.305   3.473
 7034SOL     OW22000   0.184   0.905   3.301
 7034SOL    HW122001   0.197   0.808   3.320
 7034SOL    HW222002   0.145   0.950   3.381
 7035SOL     OW22003   1.546   6.919   0.528
 7035SOL    HW122004   1.513   6.946   0.438
 7035SOL    HW222005   1.543   6.819   0.536
 7036SOL     OW22006   0.271   0.607   3.067
 7036SOL    HW122007   0.247   0.510   3.069
 7036SOL    HW222008   0.262   0.646   3.159
 7037SOL     OW22009   1.443   1.537   0.050
 7037SOL    HW122010   1.412   1.609   0.112
 7037SOL    HW222011   1.365   1.482   0.021
 7038SOL     OW22012   2.195   3.560   5.092
 7038SOL    HW122013   2.179   3.657   5.110
 7038SOL    HW222014   2.218   3.547   4.995
 7039SOL     OW22015   1.324   5.541   2.982
 7039SOL    HW122016   1.309   5.628   3.029
 7039SOL    HW222017   1.422   5.529   2.966
 7040SOL     OW22018   5.241   2.351   5.858
 7040SOL    HW122019   5.142   2.340   5.854
 7040SOL    HW222020   5.263   2.446   5.881
 7041SOL     OW22021   6.639   1.385   1.762
 7041SOL    HW122022   6.551   1.385   1.810
 7041SOL    HW222023   6.623   1.376   1.664
 7042SOL     OW22024   4.330   5.762   5.583
 7042SOL    HW122025   4.292   5.841   5.535
 7042SOL    HW222026   4.308   5.767   5.680
 7043SOL     OW22027   2.255   4.911   2.977
 7043SOL    HW122028   2.164   4.952   2.977
 7043SOL    HW222029   2.304   4.940   3.059
 7044SOL     OW22030   6.217   4.762   4.663
 7044SOL    HW122031   6.216   4.747   4.564
 7044SOL    HW222032   6.147   4.705   4.706
 7045SOL     OW22033   4.970   5.274   2.852
 7045SOL    HW122034   4.909   5.345   2.888
 7045SOL    HW222035   5.030   5.314   2.782
 7046SOL     OW22036   2.872   1.814   3.469
 7046SOL    HW122037   2.865   1.825   3.568
 7046SOL    HW222038   2.893   1.719   3.447
 7047SOL     OW22039   6.434   0.841   2.435
 7047SOL    HW122040   6.505   0.868   2.369
 7047SOL    HW222041   6.460   0.871   2.526
 7048SOL     OW22042   5.753   6.727   3.754
 7048SOL    HW122043   5.721   6.676   3.834
 7048SOL    HW222044   5.852   6.743   3.762
 7049SOL     OW22045   3.752   1.981   0.684
 7049SOL    HW122046   3.793   1.950   0.598
 7049SOL    HW222047   3.653   1.975   0.677
 7050SOL     OW22048   4.070   3.759   1.638
 7050SOL    HW122049   4.095   3.775   1.734
 7050SOL    HW222050   3.971   3.770   1.628
 7051SOL     OW22051   6.776   7.001   1.243
 7051SOL    HW122052   6.846   0.000   1.311
 7051SOL    HW222053   6.756   0.064   1.190
 7052SOL     OW22054   5.982   1.436   3.211
 7052SOL    HW122055   5.885   1.431   3.188
 7052SOL    HW222056   6.037   1.404   3.134
 7053SOL     OW22057   1.816   2.950   4.786
 7053SOL    HW122058   1.853   2.930   4.876
 7053SOL    HW222059   1.740   3.015   4.795
 7054SOL     OW22060   6.984   6.924   0.483
 7054SOL    HW122061   0.018   6.858   0.430
 7054SOL    HW222062   6.965   7.004   0.426
 7055SOL     OW22063   2.777   0.195   6.630
 7055SOL    HW122064   2.788   0.110   6.578
 7055SOL    HW222065   2.679   0.217   6.637
 7056SOL     OW22066   6.652   5.256   1.468
 7056SOL    HW122067   6.746   5.239   1.498
 7056SOL    HW222068   6.645   5.351   1.436
 7057SOL     OW22069   2.508   4.703   3.914
 7057SOL    HW122070   2.499   4.797   3.880
 7057SOL    HW222071   2.428   4.650   3.887
 7058SOL     OW22072   5.731   3.122   5.664
 7058SOL    HW122073   5.697   3.128   5.758
 7058SOL    HW222074   5.674   3.059   5.612
 7059SOL     OW22075   0.607   1.705   3.905
 7059SOL    HW122076   0.676   1.754   3.957
 7059SOL    HW222077   0.539   1.769   3.870
 7060SOL     OW22078   3.308   0.129   2.002
 7060SOL    HW122079   3.350   0.040   2.024
 7060SOL    HW222080   3.290   0.134   1.904
 7061SOL     OW22081   0.174   3.469   3.853
 7061SOL    HW122082   0.188   3.401   3.925
 7061SOL    HW222083   0.126   3.428   3.777
 7062SOL     OW22084   3.290   2.341   5.431
 7062SOL    HW122085   3.386   2.314   5.424
 7062SOL    HW222086   3.251   2.348   5.340
 7063SOL     OW22087   1.749   6.176   2.201
 7063SOL    HW122088   1.730   6.235   2.280
 7063SOL    HW222089   1.670   6.116   2.185
 7064SOL     OW22090   3.878   1.946   0.086
 7064SOL    HW122091   3.832   2.022   0.041
 7064SOL    HW222092   3.923   1.889   0.016
 7065SOL     OW22093   4.226   3.759   5.734
 7065SOL    HW122094   4.161   3.683   5.724
 7065SOL    HW222095   4.207   3.807   5.820
 7066SOL     OW22096   3.863   0.069   6.300
 7066SOL    HW122097   3.952   0.113   6.312
 7066SOL    HW222098   3.870   6.992   6.327
 7067SOL     OW22099   1.501   3.309   5.426
 7067SOL    HW122100   1.489   3.285   5.329
 7067SOL    HW222101   1.574   3.376   5.435
 7068SOL     OW22102   6.330   4.400   4.698
 7068SOL    HW122103   6.330   4.479   4.759
 7068SOL    HW222104   6.421   4.357   4.699
 7069SOL     OW22105   5.264   2.552   4.559
 7069SOL    HW122106   5.357   2.582   4.541
 7069SOL    HW222107   5.260   2.452   4.556
 7070SOL     OW22108   0.515   6.754   4.858
 7070SOL    HW122109   0.529   6.837   4.804
 7070SOL    HW222110   0.418   6.734   4.864
 7071SOL     OW22111   3.857   6.157   5.861
 7071SOL    HW122112   3.850   6.250   5.825
 7071SOL    HW222113   3.786   6.142   5.929
 7072SOL     OW22114   1.827   5.915   0.044
 7072SOL    HW122115   1.861   6.005   0.014
 7072SOL    HW222116   1.735   5.901   0.008
 7073SOL     OW22117   5.364   6.956   3.886
 7073SOL    HW122118   5.444   6.993   3.838
 7073SOL    HW222119   5.347   7.010   3.968
 7074SOL     OW22120   6.192   2.722   1.744
 7074SOL    HW122121   6.112   2.665   1.765
 7074SOL    HW222122   6.162   2.818   1.736
 7075SOL     OW22123   1.895   3.972   4.762
 7075SOL    HW122124   1.984   4.015   4.754
 7075SOL    HW222125   1.841   3.990   4.679
 7076SOL     OW22126   5.436   2.900   0.350
 7076SOL    HW122127   5.440   2.916   0.449
 7076SOL    HW222128   5.478   2.812   0.329
 7077SOL     OW22129   1.980   4.268   3.935
 7077SOL    HW122130   1.919   4.318   3.995
 7077SOL    HW222131   2.036   4.205   3.988
 7078SOL     OW22132   7.015   6.120   1.890
 7078SOL    HW122133   0.062   6.048   1.874
 7078SOL    HW222134   6.936   6.081   1.938
 7079SOL     OW22135   0.904   0.134   4.297
 7079SOL    HW122136   0.949   0.077   4.228
 7079SOL    HW222137   0.961   0.214   4.315
 7080SOL     OW22138   3.371   1.657   4.615
 7080SOL    HW122139   3.368   1.755   4.633
 7080SOL    HW222140   3.382   1.641   4.517
 7081SOL     OW22141   1.758   6.160   0.227
 7081SOL    HW122142   1.832   6.144   0.291
 7081SOL    HW222143   1.796   6.187   0.138
 7082SOL     OW22144   6.458   4.617   0.148
 7082SOL    HW122145   6.533   4.665   0.104
 7082SOL    HW222146   6.375   4.628   0.095
 7083SOL     OW22147   1.596   1.115   2.056
 7083SOL    HW122148   1.690   1.084   2.042
 7083SOL    HW222149   1.587   1.154   2.148
 7084SOL     OW22150   0.794   5.562   5.596
 7084SOL    HW122151   0.711   5.507   5.599
 7084SOL    HW222152   0.773   5.653   5.560
 7085SOL     OW22153   0.488   1.672   2.097
 7085SOL    HW122154   0.514   1.637   2.007
 7085SOL    HW222155   0.571   1.693   2.149
 7086SOL     OW22156   5.975   0.706   5.712
 7086SOL    HW122157   5.961   0.756   5.798
 7086SOL    HW222158   5.964   0.608   5.729
 7087SOL     OW22159   6.085   4.138   3.000
 7087SOL    HW122160   6.129   4.104   3.084
 7087SOL    HW222161   6.048   4.229   3.017
 7088SOL     OW22162   4.905   2.503   4.231
 7088SOL    HW122163   4.817   2.551   4.231
 7088SOL    HW222164   4.947   2.510   4.322
 7089SOL     OW22165   2.368   2.632   4.659
 7089SOL    HW122166   2.290   2.570   4.649
 7089SOL    HW222167   2.337   2.720   4.694
 7090SOL     OW22168   1.847   1.012   0.443
 7090SOL    HW122169   1.878   1.076   0.513
 7090SOL    HW222170   1.769   1.051   0.394
 7091SOL     OW22171   0.412   1.393   0.972
 7091SOL    HW122172   0.398   1.487   1.003
 7091SOL    HW222173   0.326   1.356   0.939
 7092SOL     OW22174   4.253   3.068   5.563
 7092SOL    HW122175   4.177   3.042   5.504
 7092SOL    HW222176   4.278   3.164   5.545
 7093SOL     OW22177   3.476   4.105   2.285
 7093SOL    HW122178   3.397   4.095   2.224
 7093SOL    HW222179   3.445   4.102   2.380
 7094SOL     OW22180   0.522   6.152   5.762
 7094SOL    HW122181   0.572   6.234   5.790
 7094SOL    HW222182   0.483   6.166   5.671
 7095SOL     OW22183   2.974   4.425   6.045
 7095SOL    HW122184   2.894   4.484   6.040
 7095SOL    HW222185   3.056   4.477   6.020
 7096SOL     OW22186   6.615   0.159   2.183
 7096SOL    HW122187   6.683   0.185   2.252
 7096SOL    HW222188   6.528   0.141   2.228
 7097SOL     OW22189   4.918   0.475   1.587
 7097SOL    HW122190   4.887   0.490   1.680
 7097SOL    HW222191   4.871   0.395   1.548
 7098SOL     OW22192   2.105   5.449   5.379
 7098SOL    HW122193   2.037   5.519   5.357
 7098SOL    HW222194   2.060   5.374   5.428
 7099SOL     OW22195   3.743   1.830   4.957
 7099SOL    HW122196   3.766   1.923   4.929
 7099SOL    HW222197   3.807   1.799   5.026
 7100SOL     OW22198   6.721   3.408   0.306
 7100SOL    HW122199   6.746   3.479   0.371
 7100SOL    HW222200   6.624   3.415   0.283
 7101SOL     OW22201   2.720   1.773   5.568
 7101SOL    HW122202   2.651   1.777   5.497
 7101SOL    HW222203   2.768   1.685   5.563
 7102SOL     OW22204   5.562   0.463   0.990
 7102SOL    HW122205   5.586   0.485   0.896
 7102SOL    HW222206   5.485   0.399   0.991
 7103SOL     OW22207   5.665   5.600   2.117
 7103SOL    HW122208   5.720   5.565   2.041
 7103SOL    HW222209   5.670   5.700   2.120
 7104SOL     OW22210   6.596   3.606   3.032
 7104SOL    HW122211   6.553   3.564   3.112
 7104SOL    HW222212   6.599   3.540   2.957
 7105SOL     OW22213   2.852   3.241   5.347
 7105SOL    HW122214   2.888   3.186   5.272
 7105SOL    HW222215   2.754   3.224   5.357
 7106SOL     OW22216   3.438   3.054   2.048
 7106SOL    HW122217   3.475   3.062   1.955
 7106SOL    HW222218   3.513   3.040   2.112
 7107SOL     OW22219   4.787   0.484   0.687
 7107SOL    HW122220   4.697   0.474   0.731
 7107SOL    HW222221   4.821   0.577   0.702
 7108SOL     OW22222   3.195   5.838   2.334
 7108SOL    HW122223   3.213   5.746   2.368
 7108SOL    HW222224   3.169   5.897   2.411
 7109SOL     OW22225   2.031   0.210   5.733
 7109SOL    HW122226   1.963   0.155   5.783
 7109SOL    HW222227   1.988   0.294   5.701
 7110SOL     OW22228   3.178   5.875   4.436
 7110SOL    HW122229   3.267   5.861   4.393
 7110SOL    HW222230   3.125   5.790   4.435
 7111SOL     OW22231   0.754   2.477   5.031
 7111SOL    HW122232   0.720   2.526   4.951
 7111SOL    HW222233   0.854   2.470   5.025
 7112SOL     OW22234   1.775   5.060   4.521
 7112SOL    HW122235   1.854   5.024   4.570
 7112SOL    HW222236   1.805   5.123   4.450
 7113SOL     OW22237   3.208   3.775   4.617
 7113SOL    HW122238   3.198   3.677   4.604
 7113SOL    HW222239   3.275   3.811   4.552
 7114SOL     OW22240   4.979   5.696   0.689
 7114SOL    HW122241   5.027   5.694   0.777
 7114SOL    HW222242   4.972   5.602   0.653
 7115SOL     OW22243   4.136   2.851   0.166
 7115SOL    HW122244   4.177   2.803   0.243
 7115SOL    HW222245   4.197   2.926   0.139
 7116SOL     OW22246   5.345   4.396   3.075
 7116SOL    HW122247   5.399   4.478   3.059
 7116SOL    HW222248   5.355   4.368   3.171
 7117SOL     OW22249   0.601   6.329   5.155
 7117SOL    HW122250   0.511   6.362   5.183
 7117SOL    HW222251   0.591   6.263   5.081
 7118SOL     OW22252   3.377   4.446   6.197
 7118SOL    HW122253   3.297   4.453   6.256
 7118SOL    HW222254   3.460   4.461   6.252
 7119SOL     OW22255   5.604   0.836   4.229
 7119SOL    HW122256   5.623   0.774   4.153
 7119SOL    HW222257   5.612   0.930   4.198
 7120SOL     OW22258   3.574   1.977   1.947
 7120SOL    HW122259   3.611   1.947   1.859
 7120SOL    HW222260   3.626   2.057   1.979
 7121SOL     OW22261   0.973   6.584   3.900
 7121SOL    HW122262   1.025   6.498   3.908
 7121SOL    HW222263   0.879   6.568   3.928
 7122SOL     OW22264   1.274   0.892   5.762
 7122SOL    HW122265   1.310   0.980   5.733
 7122SOL    HW222266   1.343   0.842   5.813
 7123SOL     OW22267   1.645   5.187   3.874
 7123SOL    HW122268   1.567   5.249   3.876
 7123SOL    HW222269   1.631   5.117   3.804
 7124SOL     OW22270   0.092   2.617   1.740
 7124SOL    HW122271   0.153   2.631   1.662
 7124SOL    HW222272   0.075   2.519   1.752
 7125SOL     OW22273   0.945   0.057   0.438
 7125SOL    HW122274   0.852   0.080   0.409
 7125SOL    HW222275   1.007   0.065   0.359
 7126SOL     OW22276   3.500   5.022   0.506
 7126SOL    HW122277   3.509   5.120   0.488
 7126SOL    HW222278   3.419   4.987   0.458
 7127SOL     OW22279   2.583   6.302   0.041
 7127SOL    HW122280   2.655   6.246   0.083
 7127SOL    HW222281   2.507   6.243   0.014
 7128SOL     OW22282   3.214   3.932   6.586
 7128SOL    HW122283   3.116   3.953   6.592
 7128SOL    HW222284   3.255   3.937   6.677
 7129SOL     OW22285   2.305   1.119   0.571
 7129SOL    HW122286   2.381   1.072   0.526
 7129SOL    HW222287   2.269   1.062   0.645
 7130SOL     OW22288   3.283   6.148   4.309
 7130SOL    HW122289   3.281   6.067   4.369
 7130SOL    HW222290   3.223   6.133   4.231
 7131SOL     OW22291   2.587   0.975   1.253
 7131SOL    HW122292   2.686   0.956   1.250
 7131SOL    HW222293   2.550   0.944   1.340
 7132SOL     OW22294   4.322   4.190   6.988
 7132SOL    HW122295   4.293   4.094   6.981
 7132SOL    HW222296   4.326   4.216   0.065
 7133SOL     OW22297   4.162   4.704   5.258
 7133SOL    HW122298   4.189   4.613   5.224
 7133SOL    HW222299   4.124   4.695   5.350
 7134SOL     OW22300   4.639   6.841   1.840
 7134SOL    HW122301   4.644   6.763   1.901
 7134SOL    HW222302   4.567   6.903   1.870
 7135SOL     OW22303   2.163   2.503   3.149
 7135SOL    HW122304   2.129   2.480   3.240
 7135SOL    HW222305   2.182   2.420   3.098
 7136SOL     OW22306   3.094   1.576   0.518
 7136SOL    HW122307   3.139   1.488   0.532
 7136SOL    HW222308   3.049   1.577   0.428
 7137SOL     OW22309   2.774   1.604   0.419
 7137SOL    HW122310   2.843   1.556   0.366
 7137SOL    HW222311   2.794   1.702   0.420
 7138SOL     OW22312   1.986   1.980   1.278
 7138SOL    HW122313   2.066   1.945   1.327
 7138SOL    HW222314   1.913   2.001   1.344
 7139SOL     OW22315   5.017   5.085   1.725
 7139SOL    HW122316   5.008   5.184   1.722
 7139SOL    HW222317   5.099   5.060   1.778
 7140SOL     OW22318   6.103   4.044   0.904
 7140SOL    HW122319   6.134   4.023   0.811
 7140SOL    HW222320   6.177   4.087   0.955
 7141SOL     OW22321   3.203   6.796   1.080
 7141SOL    HW122322   3.144   6.771   1.003
 7141SOL    HW222323   3.194   6.894   1.098
 7142SOL     OW22324   4.128   6.635   3.834
 7142SOL    HW122325   4.089   6.611   3.923
 7142SOL    HW222326   4.054   6.657   3.770
 7143SOL     OW22327   2.129   3.521   0.109
 7143SOL    HW122328   2.112   3.617   0.088
 7143SOL    HW222329   2.199   3.515   0.180
 7144SOL     OW22330   1.888   1.237   3.417
 7144SOL    HW122331   1.824   1.162   3.398
 7144SOL    HW222332   1.970   1.226   3.361
 7145SOL     OW22333   3.946   0.868   6.434
 7145SOL    HW122334   3.854   0.891   6.402
 7145SOL    HW222335   3.975   0.936   6.501
 7146SOL     OW22336   1.649   0.672   6.345
 7146SOL    HW122337   1.712   0.692   6.270
 7146SOL    HW222338   1.670   0.733   6.422
 7147SOL     OW22339   0.100   6.082   3.012
 7147SOL    HW122340   0.008   6.059   3.042
 7147SOL    HW222341   0.108   6.181   3.000
 7148SOL     OW22342   6.615   6.002   1.324
 7148SOL    HW122343   6.705   6.026   1.286
 7148SOL    HW222344   6.576   6.082   1.369
 7149SOL     OW22345   0.571   5.914   3.952
 7149SOL    HW122346   0.599   5.929   4.047
 7149SOL    HW222347   0.481   5.956   3.938
 7150SOL     OW22348   3.408   2.972   0.474
 7150SOL    HW122349   3.383   3.018   0.389
 7150SOL    HW222350   3.333   2.914   0.505
 7151SOL     OW22351   3.011   6.735   0.898
 7151SOL    HW122352   2.933   6.769   0.952
 7151SOL    HW222353   2.980   6.714   0.806
 7152SOL     OW22354   7.016   0.311   6.189
 7152SOL    HW122355   6.953   0.322   6.112
 7152SOL    HW222356   6.965   0.301   6.274
 7153SOL     OW22357   4.020   5.137   1.692
 7153SOL    HW122358   4.087   5.203   1.725
 7153SOL    HW222359   4.031   5.124   1.594
 7154SOL     OW22360   4.974   5.913   2.686
 7154SOL    HW122361   4.888   5.949   2.724
 7154SOL    HW222362   5.050   5.936   2.747
 7155SOL     OW22363   3.029   3.541   1.548
 7155SOL    HW122364   3.104   3.551   1.613
 7155SOL    HW222365   2.965   3.472   1.582
 7156SOL     OW22366   6.407   3.813   2.712
 7156SOL    HW122367   6.500   3.833   2.743
 7156SOL    HW222368   6.342   3.845   2.779
 7157SOL     OW22369   0.041   4.946   1.996
 7157SOL    HW122370   0.020   4.890   2.077
 7157SOL    HW222371   7.005   4.915   1.919
 7158SOL     OW22372   1.162   0.114   3.861
 7158SOL    HW122373   1.094   0.137   3.792
 7158SOL    HW222374   1.251   0.150   3.834
 7159SOL     OW22375   1.360   5.028   3.966
 7159SOL    HW122376   1.298   4.979   4.027
 7159SOL    HW222377   1.310   5.057   3.884
 7160SOL     OW22378   6.410   0.023   3.035
 7160SOL    HW122379   6.377   6.980   3.105
 7160SOL    HW222380   6.491   0.072   3.070
 7161SOL     OW22381   3.235   3.823   3.085
 7161SOL    HW122382   3.272   3.730   3.088
 7161SOL    HW222383   3.277   3.873   3.008
 7162SOL     OW22384   1.322   5.193   6.092
 7162SOL    HW122385   1.294   5.102   6.059
 7162SOL    HW222386   1.317   5.258   6.016
 7163SOL     OW22387   2.594   0.660   2.420
 7163SOL    HW122388   2.626   0.609   2.340
 7163SOL    HW222389   2.529   0.604   2.471
 7164SOL     OW22390   2.987   0.783   5.019
 7164SOL    HW122391   3.024   0.871   4.991
 7164SOL    HW222392   2.907   0.761   4.963
 7165SOL     OW22393   5.834   6.410   1.358
 7165SOL    HW122394   5.756   6.466   1.385
 7165SOL    HW222395   5.818   6.370   1.268
 7166SOL     OW22396   5.445   1.517   0.225
 7166SOL    HW122397   5.361   1.465   0.238
 7166SOL    HW222398   5.423   1.611   0.202
 7167SOL     OW22399   4.906   3.131   4.864
 7167SOL    HW122400   4.835   3.065   4.889
 7167SOL    HW222401   4.894   3.214   4.918
 7168SOL     OW22402   2.476   2.011   2.957
 7168SOL    HW122403   2.429   2.073   2.893
 7168SOL    HW222404   2.529   2.064   3.022
 7169SOL     OW22405   6.891   4.435   5.321
 7169SOL    HW122406   6.878   4.527   5.358
 7169SOL    HW222407   6.827   4.372   5.365
 7170SOL     OW22408   4.750   0.147   2.539
 7170SOL    HW122409   4.757   0.222   2.604
 7170SOL    HW222410   4.656   0.112   2.539
 7171SOL     OW22411   5.880   4.110   0.538
 7171SOL    HW122412   5.855   4.119   0.442
 7171SOL    HW222413   5.814   4.050   0.584
 7172SOL     OW22414   1.564   0.320   4.590
 7172SOL    HW122415   1.596   0.332   4.496
 7172SOL    HW222416   1.489   0.384   4.608
 7173SOL     OW22417   6.205   4.602   0.048
 7173SOL    HW122418   6.162   4.513   0.064
 7173SOL    HW222419   6.146   4.657   7.009
 7174SOL     OW22420   0.193   4.084   0.513
 7174SOL    HW122421   0.112   4.133   0.546
 7174SOL    HW222422   0.200   4.094   0.414
 7175SOL     OW22423   5.986   2.899   5.615
 7175SOL    HW122424   6.085   2.902   5.627
 7175SOL    HW222425   5.964   2.872   5.521
 7176SOL     OW22426   6.799   1.846   3.303
 7176SOL    HW122427   6.762   1.928   3.259
 7176SOL    HW222428   6.875   1.810   3.248
 7177SOL     OW22429   1.401   4.655   5.246
 7177SOL    HW122430   1.391   4.626   5.151
 7177SOL    HW222431   1.345   4.737   5.262
 7178SOL     OW22432   6.979   1.747   5.748
 7178SOL    HW122433   7.018   1.655   5.747
 7178SOL    HW222434   0.031   1.814   5.767
 7179SOL     OW22435   1.461   3.777   4.431
 7179SOL    HW122436   1.446   3.709   4.503
 7179SOL    HW222437   1.557   3.776   4.404
 7180SOL     OW22438   2.038   3.906   0.241
 7180SOL    HW122439   1.950   3.911   0.289
 7180SOL    HW222440   2.106   3.959   0.291
 7181SOL     OW22441   2.353   0.483   0.414
 7181SOL    HW122442   2.279   0.490   0.481
 7181SOL    HW222443   2.439   0.465   0.461
 7182SOL     OW22444   0.376   3.900   3.670
 7182SOL    HW122445   0.304   3.908   3.739
 7182SOL    HW222446   0.381   3.985   3.617
 7183SOL     OW22447   1.834   5.739   1.728
 7183SOL    HW122448   1.738   5.715   1.741
 7183SOL    HW222449   1.890   5.656   1.725
 7184SOL     OW22450   6.932   1.550   4.350
 7184SOL    HW122451   7.007   1.577   4.290
 7184SOL    HW222452   6.950   1.459   4.388
 7185SOL     OW22453   5.585   1.293   5.708
 7185SOL    HW122454   5.674   1.252   5.688
 7185SOL    HW222455   5.565   1.283   5.806
 7186SOL     OW22456   6.399   1.726   1.518
 7186SOL    HW122457   6.307   1.714   1.555
 7186SOL    HW222458   6.398   1.706   1.420
 7187SOL     OW22459   3.009   4.005   4.920
 7187SOL    HW122460   2.931   4.039   4.869
 7187SOL    HW222461   2.981   3.926   4.976
 7188SOL     OW22462   4.750   6.044   6.930
 7188SOL    HW122463   4.690   6.123   6.940
 7188SOL    HW222464   4.715   5.984   6.858
 7189SOL     OW22465   6.822   1.951   5.851
 7189SOL    HW122466   6.791   1.928   5.944
 7189SOL    HW222467   6.873   1.874   5.813
 7190SOL     OW22468   6.389   5.454   1.438
 7190SOL    HW122469   6.342   5.396   1.372
 7190SOL    HW222470   6.479   5.480   1.401
 7191SOL     OW22471   1.611   4.720   2.810
 7191SOL    HW122472   1.696   4.680   2.843
 7191SOL    HW222473   1.533   4.663   2.837
 7192SOL     OW22474   1.698   4.338   5.821
 7192SOL    HW122475   1.764   4.388   5.764
 7192SOL    HW222476   1.704   4.240   5.801
 7193SOL     OW22477   1.532   2.291   1.832
 7193SOL    HW122478   1.522   2.192   1.820
 7193SOL    HW222479   1.553   2.310   1.928
 7194SOL     OW22480   1.703   3.036   6.867
 7194SOL    HW122481   1.758   3.079   6.939
 7194SOL    HW222482   1.626   2.987   6.909
 7195SOL     OW22483   6.924   4.150   0.607
 7195SOL    HW122484   6.825   4.145   0.612
 7195SOL    HW222485   6.962   4.148   0.699
 7196SOL     OW22486   2.408   3.655   1.621
 7196SOL    HW122487   2.346   3.733   1.634
 7196SOL    HW222488   2.396   3.590   1.697
 7197SOL     OW22489   1.054   3.424   5.841
 7197SOL    HW122490   0.992   3.349   5.864
 7197SOL    HW222491   1.041   3.499   5.906
 7198SOL     OW22492   0.207   1.201   0.442
 7198SOL    HW122493   0.136   1.158   0.386
 7198SOL    HW222494   0.278   1.238   0.382
 7199SOL     OW22495   0.319   0.212   2.404
 7199SOL    HW122496   0.342   0.154   2.481
 7199SOL    HW222497   0.343   0.307   2.425
 7200SOL     OW22498   1.993   2.662   6.615
 7200SOL    HW122499   1.963   2.737   6.674
 7200SOL    HW222500   2.079   2.687   6.571
 7201SOL     OW22501   1.039   5.965   3.571
 7201SOL    HW122502   0.977   6.008   3.638
 7201SOL    HW222503   1.068   5.876   3.606
 7202SOL     OW22504   4.421   0.060   7.006
 7202SOL    HW122505   4.428   0.056   0.086
 7202SOL    HW222506   4.395   0.153   6.979
 7203SOL     OW22507   6.754   1.288   0.980
 7203SOL    HW122508   6.731   1.224   0.907
 7203SOL    HW222509   6.807   1.239   1.051
 7204SOL     OW22510   0.214   1.137   5.664
 7204SOL    HW122511   0.120   1.166   5.684
 7204SOL    HW222512   0.253   1.093   5.745
 7205SOL     OW22513   1.469   4.227   5.534
 7205SOL    HW122514   1.546   4.208   5.473
 7205SOL    HW222515   1.469   4.162   5.609
 7206SOL     OW22516   1.293   0.517   2.129
 7206SOL    HW122517   1.339   0.598   2.094
 7206SOL    HW222518   1.304   0.513   2.228
 7207SOL     OW22519   3.830   0.473   4.099
 7207SOL    HW122520   3.732   0.475   4.081
 7207SOL    HW222521   3.850   0.404   4.168
 7208SOL     OW22522   4.764   7.000   3.553
 7208SOL    HW122523   4.761   0.055   3.619
 7208SOL    HW222524   4.831   0.002   3.481
 7209SOL     OW22525   2.549   2.991   1.732
 7209SOL    HW122526   2.548   3.088   1.757
 7209SOL    HW222527   2.642   2.963   1.709
 7210SOL     OW22528   3.830   1.673   3.099
 7210SOL    HW122529   3.739   1.700   3.130
 7210SOL    HW222530   3.828   1.578   3.068
 7211SOL     OW22531   1.959   6.192   5.164
 7211SOL    HW122532   1.954   6.193   5.065
 7211SOL    HW222533   2.012   6.271   5.195
 7212SOL     OW22534   0.803   6.455   5.292
 7212SOL    HW122535   0.841   6.522   5.228
 7212SOL    HW222536   0.722   6.413   5.252
 7213SOL     OW22537   3.699   6.513   0.004
 7213SOL    HW122538   3.683   6.427   6.977
 7213SOL    HW222539   3.769   6.565   6.975
 7214SOL     OW22540   6.697   0.215   4.812
 7214SOL    HW122541   6.613   0.256   4.777
 7214SOL    HW222542   6.776   0.267   4.779
 7215SOL     OW22543   6.626   2.850   3.812
 7215SOL    HW122544   6.701   2.914   3.798
 7215SOL    HW222545   6.555   2.894   3.867
 7216SOL     OW22546   3.123   0.274   1.382
 7216SOL    HW122547   3.139   0.176   1.371
 7216SOL    HW222548   3.027   0.289   1.408
 7217SOL     OW22549   2.113   3.677   3.488
 7217SOL    HW122550   2.168   3.753   3.452
 7217SOL    HW222551   2.021   3.710   3.508
 7218SOL     OW22552   6.061   2.548   4.138
 7218SOL    HW122553   6.036   2.563   4.234
 7218SOL    HW222554   6.151   2.506   4.134
 7219SOL     OW22555   3.683   0.821   2.902
 7219SOL    HW122556   3.777   0.792   2.919
 7219SOL    HW222557   3.670   0.836   2.804
 7220SOL     OW22558   6.735   3.894   4.133
 7220SOL    HW122559   6.672   3.968   4.112
 7220SOL    HW222560   6.734   3.877   4.232
 7221SOL     OW22561   3.841   5.910   5.143
 7221SOL    HW122562   3.769   5.862   5.092
 7221SOL    HW222563   3.822   5.903   5.241
 7222SOL     OW22564   6.129   6.199   3.439
 7222SOL    HW122565   6.185   6.127   3.480
 7222SOL    HW222566   6.187   6.272   3.405
 7223SOL     OW22567   2.945   1.620   1.017
 7223SOL    HW122568   3.019   1.589   0.958
 7223SOL    HW222569   2.946   1.720   1.022
 7224SOL     OW22570   5.426   2.179   3.991
 7224SOL    HW122571   5.385   2.189   4.082
 7224SOL    HW222572   5.358   2.203   3.921
 7225SOL     OW22573   1.346   6.160   0.336
 7225SOL    HW122574   1.314   6.187   0.427
 7225SOL    HW222575   1.293   6.083   0.303
 7226SOL     OW22576   5.882   0.244   1.735
 7226SOL    HW122577   5.957   0.194   1.693
 7226SOL    HW222578   5.909   0.274   1.827
 7227SOL     OW22579   2.575   2.049   1.263
 7227SOL    HW122580   2.597   2.030   1.359
 7227SOL    HW222581   2.477   2.066   1.255
 7228SOL     OW22582   1.035   1.648   2.736
 7228SOL    HW122583   0.996   1.715   2.799
 7228SOL    HW222584   0.993   1.559   2.751
 7229SOL     OW22585   1.179   5.729   6.111
 7229SOL    HW122586   1.156   5.826   6.121
 7229SOL    HW222587   1.210   5.693   6.198
 7230SOL     OW22588   3.866   5.529   4.966
 7230SOL    HW122589   3.842   5.577   5.051
 7230SOL    HW222590   3.872   5.595   4.892
 7231SOL     OW22591   3.627   0.224   6.322
 7231SOL    HW122592   3.709   0.168   6.312
 7231SOL    HW222593   3.650   0.311   6.366
 7232SOL     OW22594   5.078   6.091   2.414
 7232SOL    HW122595   4.978   6.093   2.408
 7232SOL    HW222596   5.113   6.185   2.406
 7233SOL     OW22597   1.690   1.826   4.217
 7233SOL    HW122598   1.717   1.912   4.259
 7233SOL    HW222599   1.611   1.789   4.265
 7234SOL     OW22600   6.015   2.939   3.112
 7234SOL    HW122601   5.943   2.879   3.076
 7234SOL    HW222602   6.033   3.012   3.047
 7235SOL     OW22603   6.569   4.848   2.537
 7235SOL    HW122604   6.608   4.932   2.501
 7235SOL    HW222605   6.641   4.789   2.573
 7236SOL     OW22606   2.686   1.862   2.066
 7236SOL    HW122607   2.753   1.854   2.140
 7236SOL    HW222608   2.687   1.955   2.030
 7237SOL     OW22609   4.401   0.600   4.829
 7237SOL    HW122610   4.332   0.625   4.898
 7237SOL    HW222611   4.466   0.536   4.869
 7238SOL     OW22612   3.936   1.969   6.294
 7238SOL    HW122613   3.899   1.999   6.206
 7238SOL    HW222614   4.007   1.901   6.279
 7239SOL     OW22615   0.481   1.922   1.657
 7239SOL    HW122616   0.580   1.932   1.656
 7239SOL    HW222617   0.445   1.950   1.747
 7240SOL     OW22618   1.019   1.426   5.832
 7240SOL    HW122619   1.000   1.339   5.877
 7240SOL    HW222620   1.001   1.501   5.896
 7241SOL     OW22621   2.567   0.443   0.735
 7241SOL    HW122622   2.467   0.435   0.735
 7241SOL    HW222623   2.604   0.403   0.819
 7242SOL     OW22624   6.423   5.722   6.612
 7242SOL    HW122625   6.333   5.710   6.653
 7242SOL    HW222626   6.415   5.727   6.513
 7243SOL     OW22627   6.395   4.297   6.883
 7243SOL    HW122628   6.414   4.355   6.804
 7243SOL    HW222629   6.356   4.211   6.853
 7244SOL     OW22630   6.545   1.037   1.762
 7244SOL    HW122631   6.551   1.017   1.665
 7244SOL    HW222632   6.498   1.124   1.776
 7245SOL     OW22633   1.597   2.764   4.995
 7245SOL    HW122634   1.590   2.694   5.066
 7245SOL    HW222635   1.569   2.853   5.033
 7246SOL     OW22636   1.032   0.594   3.685
 7246SOL    HW122637   1.090   0.663   3.643
 7246SOL    HW222638   1.002   0.625   3.775
 7247SOL     OW22639   2.018   1.897   4.585
 7247SOL    HW122640   1.960   1.834   4.533
 7247SOL    HW222641   2.075   1.950   4.522
 7248SOL     OW22642   2.948   1.278   2.866
 7248SOL    HW122643   2.879   1.225   2.817
 7248SOL    HW222644   2.971   1.360   2.814
 7249SOL     OW22645   5.552   4.986   2.078
 7249SOL    HW122646   5.488   5.049   2.122
 7249SOL    HW222647   5.639   4.987   2.127
 7250SOL     OW22648   5.878   6.104   5.957
 7250SOL    HW122649   5.955   6.079   5.899
 7250SOL    HW222650   5.803   6.136   5.899
 7251SOL     OW22651   0.622   6.386   5.514
 7251SOL    HW122652   0.689   6.353   5.447
 7251SOL    HW222653   0.659   6.376   5.606
 7252SOL     OW22654   3.693   3.040   2.189
 7252SOL    HW122655   3.759   2.983   2.238
 7252SOL    HW222656   3.729   3.133   2.183
 7253SOL     OW22657   1.668   6.360   0.009
 7253SOL    HW122658   1.767   6.367   0.006
 7253SOL    HW222659   1.627   6.421   6.961
 7254SOL     OW22660   4.939   5.045   4.743
 7254SOL    HW122661   4.958   4.977   4.672
 7254SOL    HW222662   4.922   4.998   4.830
 7255SOL     OW22663   4.074   3.695   0.184
 7255SOL    HW122664   4.113   3.785   0.205
 7255SOL    HW222665   4.022   3.663   0.264
 7256SOL     OW22666   2.953   6.026   4.533
 7256SOL    HW122667   3.035   5.971   4.519
 7256SOL    HW222668   2.978   6.111   4.580
 7257SOL     OW22669   6.381   1.669   3.243
 7257SOL    HW122670   6.373   1.765   3.269
 7257SOL    HW222671   6.309   1.616   3.288
 7258SOL     OW22672   4.647   1.440   2.834
 7258SOL    HW122673   4.637   1.402   2.742
 7258SOL    HW222674   4.744   1.442   2.859
 7259SOL     OW22675   1.838   3.552   1.210
 7259SOL    HW122676   1.888   3.632   1.239
 7259SOL    HW222677   1.866   3.472   1.264
 7260SOL     OW22678   4.727   1.429   1.138
 7260SOL    HW122679   4.816   1.465   1.165
 7260SOL    HW222680   4.727   1.329   1.150
 7261SOL     OW22681   1.645   3.903   2.002
 7261SOL    HW122682   1.741   3.884   1.980
 7261SOL    HW222683   1.641   3.964   2.081
 7262SOL     OW22684   5.343   2.571   6.239
 7262SOL    HW122685   5.303   2.656   6.275
 7262SOL    HW222686   5.295   2.493   6.279
 7263SOL     OW22687   0.716   6.554   6.685
 7263SOL    HW122688   0.673   6.469   6.657
 7263SOL    HW222689   0.785   6.535   6.755
 7264SOL     OW22690   4.966   1.930   6.517
 7264SOL    HW122691   4.884   1.894   6.472
 7264SOL    HW222692   4.941   2.011   6.571
 7265SOL     OW22693   5.576   4.796   5.928
 7265SOL    HW122694   5.656   4.749   5.891
 7265SOL    HW222695   5.587   4.895   5.917
 7266SOL     OW22696   5.563   0.406   2.586
 7266SOL    HW122697   5.524   0.469   2.652
 7266SOL    HW222698   5.495   0.383   2.517
 7267SOL     OW22699   6.556   6.243   5.302
 7267SOL    HW122700   6.508   6.200   5.225
 7267SOL    HW222701   6.598   6.328   5.272
 7268SOL     OW22702   6.358   5.302   3.791
 7268SOL    HW122703   6.267   5.321   3.829
 7268SOL    HW222704   6.389   5.381   3.739
 7269SOL     OW22705   0.577   6.107   6.479
 7269SOL    HW122706   0.619   6.036   6.535
 7269SOL    HW222707   0.573   6.077   6.384
 7270SOL     OW22708   0.912   3.439   5.245
 7270SOL    HW122709   0.821   3.480   5.251
 7270SOL    HW222710   0.909   3.346   5.280
 7271SOL     OW22711   0.920   5.530   3.794
 7271SOL    HW122712   0.873   5.558   3.878
 7271SOL    HW222713   0.855   5.526   3.719
 7272SOL     OW22714   5.825   5.202   1.988
 7272SOL    HW122715   5.859   5.134   1.922
 7272SOL    HW222716   5.856   5.293   1.960
 7273SOL     OW22717   5.821   4.503   1.371
 7273SOL    HW122718   5.861   4.429   1.316
 7273SOL    HW222719   5.816   4.474   1.466
 7274SOL     OW22720   0.056   5.279   6.220
 7274SOL    HW122721   0.056   5.353   6.288
 7274SOL    HW222722   0.094   5.196   6.262
 7275SOL     OW22723   0.269   6.424   2.423
 7275SOL    HW122724   0.356   6.376   2.433
 7275SOL    HW222725   0.209   6.372   2.363
 7276SOL     OW22726   4.457   1.047   3.086
 7276SOL    HW122727   4.487   1.143   3.088
 7276SOL    HW222728   4.436   1.017   3.178
 7277SOL     OW22729   4.851   0.823   4.129
 7277SOL    HW122730   4.897   0.737   4.105
 7277SOL    HW222731   4.886   0.856   4.217
 7278SOL     OW22732   3.530   2.463   1.479
 7278SOL    HW122733   3.541   2.379   1.427
 7278SOL    HW222734   3.448   2.458   1.535
 7279SOL     OW22735   4.430   4.634   5.907
 7279SOL    HW122736   4.368   4.559   5.931
 7279SOL    HW222737   4.383   4.699   5.847
 7280SOL     OW22738   0.059   1.937   3.464
 7280SOL    HW122739   6.997   1.992   3.474
 7280SOL    HW222740   0.128   1.989   3.413
 7281SOL     OW22741   1.920   1.220   0.619
 7281SOL    HW122742   1.995   1.216   0.552
 7281SOL    HW222743   1.884   1.313   0.623
 7282SOL     OW22744   5.679   5.218   2.275
 7282SOL    HW122745   5.677   5.209   2.176
 7282SOL    HW222746   5.725   5.303   2.300
 7283SOL     OW22747   5.012   0.552   2.822
 7283SOL    HW122748   5.071   0.546   2.902
 7283SOL    HW222749   5.064   0.591   2.746
 7284SOL     OW22750   0.058   2.514   5.973
 7284SOL    HW122751   0.026   2.434   5.922
 7284SOL    HW222752   0.119   2.568   5.915
 7285SOL     OW22753   5.714   3.215   2.298
 7285SOL    HW122754   5.724   3.207   2.397
 7285SOL    HW222755   5.649   3.288   2.277
 7286SOL     OW22756   2.275   0.801   0.665
 7286SOL    HW122757   2.363   0.796   0.712
 7286SOL    HW222758   2.280   0.746   0.581
 7287SOL     OW22759   0.825   2.603   5.872
 7287SOL    HW122760   0.924   2.612   5.863
 7287SOL    HW222761   0.785   2.693   5.892
 7288SOL     OW22762   1.908   1.130   1.729
 7288SOL    HW122763   1.840   1.200   1.752
 7288SOL    HW222764   1.865   1.039   1.734
 7289SOL     OW22765   5.508   1.869   3.932
 7289SOL    HW122766   5.523   1.812   4.013
 7289SOL    HW222767   5.571   1.841   3.860
 7290SOL     OW22768   3.824   1.299   5.141
 7290SOL    HW122769   3.889   1.375   5.137
 7290SOL    HW222770   3.770   1.297   5.056
 7291SOL     OW22771   1.486   6.636   0.111
 7291SOL    HW122772   1.444   6.622   0.021
 7291SOL    HW222773   1.463   6.558   0.171
 7292SOL     OW22774   3.492   1.261   3.471
 7292SOL    HW122775   3.465   1.319   3.549
 7292SOL    HW222776   3.581   1.219   3.490
 7293SOL     OW22777   1.598   2.269   4.507
 7293SOL    HW122778   1.559   2.190   4.553
 7293SOL    HW222779   1.524   2.325   4.469
 7294SOL     OW22780   2.865   4.756   6.624
 7294SOL    HW122781   2.930   4.744   6.700
 7294SOL    HW222782   2.843   4.853   6.614
 7295SOL     OW22783   5.427   3.275   1.449
 7295SOL    HW122784   5.464   3.338   1.380
 7295SOL    HW222785   5.422   3.322   1.537
 7296SOL     OW22786   3.614   6.069   2.107
 7296SOL    HW122787   3.525   6.103   2.140
 7296SOL    HW222788   3.678   6.146   2.100
 7297SOL     OW22789   4.522   0.165   1.440
 7297SOL    HW122790   4.426   0.191   1.427
 7297SOL    HW222791   4.540   0.079   1.392
 7298SOL     OW22792   5.228   5.517   6.171
 7298SOL    HW122793   5.232   5.547   6.266
 7298SOL    HW222794   5.280   5.432   6.160
 7299SOL     OW22795   0.844   2.475   0.994
 7299SOL    HW122796   0.892   2.388   0.995
 7299SOL    HW222797   0.849   2.518   1.084
 7300SOL     OW22798   0.151   6.746   2.166
 7300SOL    HW122799   0.143   6.842   2.141
 7300SOL    HW222800   0.190   6.739   2.258
 7301SOL     OW22801   6.093   1.487   4.086
 7301SOL    HW122802   6.098   1.396   4.127
 7301SOL    HW222803   5.999   1.504   4.056
 7302SOL     OW22804   0.857   2.481   5.321
 7302SOL    HW122805   0.911   2.398   5.327
 7302SOL    HW222806   0.836   2.500   5.225
 7303SOL     OW22807   3.737   1.069   0.061
 7303SOL    HW122808   3.761   1.159   0.098
 7303SOL    HW222809   3.637   1.060   0.058
 7304SOL     OW22810   3.020   5.789   2.098
 7304SOL    HW122811   3.093   5.780   2.031
 7304SOL    HW222812   3.059   5.791   2.190
 7305SOL     OW22813   5.017   0.271   0.356
 7305SOL    HW122814   5.063   0.298   0.441
 7305SOL    HW222815   4.924   0.305   0.357
 7306SOL     OW22816   4.340   1.784   0.959
 7306SOL    HW122817   4.337   1.774   0.859
 7306SOL    HW222818   4.254   1.752   0.998
 7307SOL     OW22819   2.867   6.485   2.747
 7307SOL    HW122820   2.786   6.493   2.805
 7307SOL    HW222821   2.898   6.576   2.720
 7308SOL     OW22822   6.452   2.806   5.341
 7308SOL    HW122823   6.503   2.890   5.328
 7308SOL    HW222824   6.443   2.786   5.439
 7309SOL     OW22825   3.907   4.909   0.684
 7309SOL    HW122826   4.006   4.925   0.682
 7309SOL    HW222827   3.882   4.848   0.608
 7310SOL     OW22828   2.268   4.007   0.733
 7310SOL    HW122829   2.334   3.974   0.665
 7310SOL    HW222830   2.176   3.980   0.704
 7311SOL     OW22831   1.764   1.952   1.710
 7311SOL    HW122832   1.849   1.904   1.686
 7311SOL    HW222833   1.729   1.915   1.797
 7312SOL     OW22834   1.162   3.700   5.092
 7312SOL    HW122835   1.240   3.747   5.051
 7312SOL    HW222836   1.193   3.622   5.146
 7313SOL     OW22837   1.812   0.785   0.553
 7313SOL    HW122838   1.815   0.872   0.504
 7313SOL    HW222839   1.888   0.780   0.618
 7314SOL     OW22840   6.850   5.000   6.510
 7314SOL    HW122841   6.783   5.044   6.451
 7314SOL    HW222842   6.855   4.902   6.489
 7315SOL     OW22843   6.488   6.139   2.554
 7315SOL    HW122844   6.556   6.212   2.566
 7315SOL    HW222845   6.436   6.156   2.470
 7316SOL     OW22846   3.697   3.622   6.554
 7316SOL    HW122847   3.654   3.575   6.477
 7316SOL    HW222848   3.666   3.717   6.555
 7317SOL     OW22849   4.923   1.227   2.612
 7317SOL    HW122850   4.904   1.325   2.606
 7317SOL    HW222851   5.018   1.214   2.640
 7318SOL     OW22852   2.208   0.328   2.122
 7318SOL    HW122853   2.187   0.425   2.108
 7318SOL    HW222854   2.190   0.304   2.217
 7319SOL     OW22855   6.882   3.422   6.702
 7319SOL    HW122856   6.799   3.370   6.722
 7319SOL    HW222857   6.920   3.392   6.615
 7320SOL     OW22858   0.697   3.786   2.750
 7320SOL    HW122859   0.677   3.747   2.660
 7320SOL    HW222860   0.775   3.738   2.791
 7321SOL     OW22861   1.811   0.414   6.235
 7321SOL    HW122862   1.810   0.439   6.331
 7321SOL    HW222863   1.718   0.418   6.198
 7322SOL     OW22864   6.951   3.024   3.534
 7322SOL    HW122865   6.995   2.935   3.545
 7322SOL    HW222866   6.913   3.032   3.442
 7323SOL     OW22867   1.920   2.671   1.361
 7323SOL    HW122868   1.947   2.692   1.267
 7323SOL    HW222869   1.925   2.753   1.417
 7324SOL     OW22870   5.303   6.049   1.739
 7324SOL    HW122871   5.311   6.028   1.642
 7324SOL    HW222872   5.309   5.964   1.792
 7325SOL     OW22873   2.838   0.619   6.766
 7325SOL    HW122874   2.848   0.701   6.822
 7325SOL    HW222875   2.920   0.562   6.774
 7326SOL     OW22876   2.593   6.110   6.237
 7326SOL    HW122877   2.627   6.034   6.181
 7326SOL    HW222878   2.601   6.085   6.333
 7327SOL     OW22879   6.222   1.662   6.166
 7327SOL    HW122880   6.173   1.743   6.198
 7327SOL    HW222881   6.302   1.646   6.224
 7328SOL     OW22882   3.553   0.733   5.783
 7328SOL    HW122883   3.576   0.770   5.693
 7328SOL    HW222884   3.627   0.673   5.814
 7329SOL     OW22885   0.060   3.848   1.212
 7329SOL    HW122886   0.082   3.819   1.305
 7329SOL    HW222887   6.987   3.819   1.189
 7330SOL     OW22888   1.911   2.844   6.811
 7330SOL    HW122889   1.943   2.783   6.884
 7330SOL    HW222890   1.836   2.900   6.845
 7331SOL     OW22891   5.026   6.104   1.407
 7331SOL    HW122892   5.017   6.120   1.505
 7331SOL    HW222893   5.111   6.147   1.373
 7332SOL     OW22894   3.503   6.210   0.191
 7332SOL    HW122895   3.425   6.169   0.239
 7332SOL    HW222896   3.518   6.303   0.227
 7333SOL     OW22897   6.777   3.298   2.222
 7333SOL    HW122898   6.853   3.242   2.254
 7333SOL    HW222899   6.789   3.317   2.124
 7334SOL     OW22900   2.266   5.744   6.441
 7334SOL    HW122901   2.201   5.815   6.414
 7334SOL    HW222902   2.293   5.692   6.360
 7335SOL     OW22903   1.369   2.773   3.494
 7335SOL    HW122904   1.348   2.790   3.398
 7335SOL    HW222905   1.458   2.813   3.517
 7336SOL     OW22906   1.389   6.432   2.671
 7336SOL    HW122907   1.354   6.525   2.681
 7336SOL    HW222908   1.314   6.367   2.684
 7337SOL     OW22909   0.789   3.279   0.949
 7337SOL    HW122910   0.721   3.345   0.982
 7337SOL    HW222911   0.875   3.327   0.931
 7338SOL     OW22912   4.893   1.964   1.731
 7338SOL    HW122913   4.868   2.061   1.729
 7338SOL    HW222914   4.982   1.953   1.775
 7339SOL     OW22915   6.187   0.293   4.290
 7339SOL    HW122916   6.185   0.197   4.263
 7339SOL    HW222917   6.095   0.323   4.313
 7340SOL     OW22918   3.042   1.170   0.505
 7340SOL    HW122919   3.054   1.078   0.543
 7340SOL    HW222920   2.982   1.223   0.565
 7341SOL     OW22921   0.706   4.319   5.634
 7341SOL    HW122922   0.643   4.275   5.698
 7341SOL    HW222923   0.664   4.403   5.599
 7342SOL     OW22924   6.927   1.264   6.681
 7342SOL    HW122925   6.836   1.287   6.717
 7342SOL    HW222926   6.928   1.277   6.582
 7343SOL     OW22927   6.217   3.921   1.553
 7343SOL    HW122928   6.145   3.873   1.503
 7343SOL    HW222929   6.203   4.020   1.545
 7344SOL     OW22930   1.153   0.997   6.109
 7344SOL    HW122931   1.189   1.084   6.143
 7344SOL    HW222932   1.196   0.921   6.159
 7345SOL     OW22933   4.822   5.112   5.204
 7345SOL    HW122934   4.757   5.170   5.253
 7345SOL    HW222935   4.915   5.136   5.231
 7346SOL     OW22936   4.346   5.072   1.892
 7346SOL    HW122937   4.285   5.144   1.861
 7346SOL    HW222938   4.331   4.990   1.837
 7347SOL     OW22939   6.746   2.445   0.411
 7347SOL    HW122940   6.698   2.474   0.328
 7347SOL    HW222941   6.825   2.504   0.427
 7348SOL     OW22942   1.854   3.955   4.496
 7348SOL    HW122943   1.779   3.970   4.431
 7348SOL    HW222944   1.937   3.929   4.447
 7349SOL     OW22945   4.809   1.250   1.534
 7349SOL    HW122946   4.863   1.311   1.476
 7349SOL    HW222947   4.742   1.304   1.586
 7350SOL     OW22948   2.047   3.038   5.608
 7350SOL    HW122949   2.046   3.096   5.527
 7350SOL    HW222950   2.108   3.078   5.677
 7351SOL     OW22951   5.700   6.277   5.191
 7351SOL    HW122952   5.761   6.238   5.261
 7351SOL    HW222953   5.732   6.250   5.100
 7352SOL     OW22954   2.677   1.566   3.118
 7352SOL    HW122955   2.759   1.528   3.159
 7352SOL    HW222956   2.697   1.657   3.081
 7353SOL     OW22957   1.050   0.467   6.706
 7353SOL    HW122958   1.013   0.490   6.616
 7353SOL    HW222959   0.978   0.426   6.762
 7354SOL     OW22960   0.471   2.112   5.341
 7354SOL    HW122961   0.497   2.199   5.299
 7354SOL    HW222962   0.393   2.126   5.401
 7355SOL     OW22963   1.602   0.826   0.716
 7355SOL    HW122964   1.532   0.800   0.649
 7355SOL    HW222965   1.684   0.857   0.668
 7356SOL     OW22966   3.764   4.172   5.981
 7356SOL    HW122967   3.696   4.180   6.054
 7356SOL    HW222968   3.718   4.182   5.892
 7357SOL     OW22969   3.754   6.703   1.443
 7357SOL    HW122970   3.799   6.790   1.463
 7357SOL    HW222971   3.665   6.721   1.400
 7358SOL     OW22972   6.012   3.643   3.159
 7358SOL    HW122973   5.985   3.578   3.230
 7358SOL    HW222974   6.069   3.714   3.199
 7359SOL     OW22975   3.403   1.631   6.259
 7359SOL    HW122976   3.315   1.643   6.305
 7359SOL    HW222977   3.444   1.544   6.286
 7360SOL     OW22978   2.810   3.833   5.433
 7360SOL    HW122979   2.813   3.879   5.522
 7360SOL    HW222980   2.886   3.769   5.427
 7361SOL     OW22981   4.436   0.042   2.345
 7361SOL    HW122982   4.504   0.011   2.278
 7361SOL    HW222983   4.427   6.993   2.417
 7362SOL     OW22984   1.667   4.189   5.338
 7362SOL    HW122985   1.641   4.161   5.246
 7362SOL    HW222986   1.741   4.256   5.333
 7363SOL     OW22987   4.496   1.945   1.630
 7363SOL    HW122988   4.497   1.875   1.558
 7363SOL    HW222989   4.543   1.910   1.711
 7364SOL     OW22990   4.898   0.746   1.549
 7364SOL    HW122991   4.858   0.748   1.640
 7364SOL    HW222992   4.904   0.651   1.518
 7365SOL     OW22993   0.856   5.632   1.635
 7365SOL    HW122994   0.887   5.654   1.542
 7365SOL    HW222995   0.807   5.545   1.634
 7366SOL     OW22996   2.565   6.013   6.757
 7366SOL    HW122997   2.605   6.097   6.792
 7366SOL    HW222998   2.466   6.023   6.751
 7367SOL     OW22999   4.888   2.676   0.993
 7367SOL    HW123000   4.867   2.584   1.025
 7367SOL    HW223001   4.858   2.743   1.062
 7368SOL     OW23002   3.824   2.910   2.690
 7368SOL    HW123003   3.730   2.876   2.693
 7368SOL    HW223004   3.860   2.916   2.782
 7369SOL     OW23005   3.526   2.433   0.135
 7369SOL    HW123006   3.461   2.360   0.155
 7369SOL    HW223007   3.510   2.468   0.043
 7370SOL     OW23008   2.575   0.676   4.407
 7370SOL    HW123009   2.634   0.654   4.329
 7370SOL    HW223010   2.507   0.744   4.379
 7371SOL     OW23011   2.585   6.819   3.706
 7371SOL    HW123012   2.603   6.834   3.609
 7371SOL    HW223013   2.486   6.815   3.720
 7372SOL     OW23014   4.348   1.178   4.339
 7372SOL    HW123015   4.443   1.150   4.346
 7372SOL    HW223016   4.334   1.226   4.252
 7373SOL     OW23017   6.356   1.354   3.420
 7373SOL    HW123018   6.423   1.413   3.465
 7373SOL    HW223019   6.385   1.336   3.327
 7374SOL     OW23020   2.045   1.886   4.866
 7374SOL    HW123021   2.016   1.798   4.827
 7374SOL    HW223022   2.019   1.960   4.804
 7375SOL     OW23023   2.153   2.122   2.610
 7375SOL    HW123024   2.128   2.201   2.666
 7375SOL    HW223025   2.221   2.149   2.542
 7376SOL     OW23026   2.620   1.903   0.658
 7376SOL    HW123027   2.520   1.902   0.656
 7376SOL    HW223028   2.652   1.827   0.714
 7377SOL     OW23029   5.415   4.433   0.526
 7377SOL    HW123030   5.322   4.463   0.551
 7377SOL    HW223031   5.445   4.362   0.590
 7378SOL     OW23032   0.818   0.809   6.395
 7378SOL    HW123033   0.836   0.845   6.486
 7378SOL    HW223034   0.804   0.710   6.401
 7379SOL     OW23035   3.048   1.682   3.011
 7379SOL    HW123036   3.095   1.647   2.930
 7379SOL    HW223037   2.975   1.744   2.984
 7380SOL     OW23038   6.973   4.686   3.908
 7380SOL    HW123039   0.034   4.722   3.955
 7380SOL    HW223040   6.989   4.591   3.882
 7381SOL     OW23041   3.867   3.775   1.193
 7381SOL    HW123042   3.770   3.754   1.211
 7381SOL    HW223043   3.924   3.706   1.236
 7382SOL     OW23044   0.700   6.664   5.717
 7382SOL    HW123045   0.626   6.604   5.687
 7382SOL    HW223046   0.756   6.689   5.638
 7383SOL     OW23047   1.753   0.077   0.672
 7383SOL    HW123048   1.717   0.171   0.665
 7383SOL    HW223049   1.677   0.013   0.666
 7384SOL     OW23050   6.344   6.447   2.762
 7384SOL    HW123051   6.429   6.490   2.731
 7384SOL    HW223052   6.270   6.471   2.699
 7385SOL     OW23053   3.728   6.322   2.088
 7385SOL    HW123054   3.673   6.364   2.016
 7385SOL    HW223055   3.825   6.333   2.066
 7386SOL     OW23056   0.159   2.253   6.763
 7386SOL    HW123057   0.076   2.229   6.814
 7386SOL    HW223058   0.144   2.338   6.714
 7387SOL     OW23059   6.052   6.645   5.089
 7387SOL    HW123060   6.044   6.550   5.118
 7387SOL    HW223061   5.968   6.672   5.042
 7388SOL     OW23062   1.358   5.384   2.478
 7388SOL    HW123063   1.396   5.477   2.479
 7388SOL    HW223064   1.308   5.367   2.563
 7389SOL     OW23065   6.002   3.810   6.582
 7389SOL    HW123066   5.996   3.875   6.506
 7389SOL    HW223067   6.027   3.859   6.666
 7390SOL     OW23068   1.064   1.863   1.226
 7390SOL    HW123069   1.014   1.945   1.252
 7390SOL    HW223070   1.000   1.795   1.190
 7391SOL     OW23071   4.047   3.529   3.822
 7391SOL    HW123072   4.010   3.614   3.786
 7391SOL    HW223073   4.065   3.466   3.747
 7392SOL     OW23074   2.970   6.827   6.474
 7392SOL    HW123075   2.962   6.749   6.412
 7392SOL    HW223076   2.908   6.900   6.444
 7393SOL     OW23077   5.854   4.350   2.770
 7393SOL    HW123078   5.870   4.389   2.861
 7393SOL    HW223079   5.804   4.263   2.780
 7394SOL     OW23080   2.295   2.345   5.654
 7394SOL    HW123081   2.216   2.381   5.605
 7394SOL    HW223082   2.331   2.415   5.716
 7395SOL     OW23083   1.288   3.250   1.329
 7395SOL    HW123084   1.377   3.251   1.374
 7395SOL    HW223085   1.257   3.344   1.314
 7396SOL     OW23086   1.563   6.536   1.464
 7396SOL    HW123087   1.655   6.531   1.425
 7396SOL    HW223088   1.536   6.632   1.473
 7397SOL     OW23089   4.150   5.404   5.257
 7397SOL    HW123090   4.112   5.312   5.251
 7397SOL    HW223091   4.140   5.450   5.168
 7398SOL     OW23092   2.310   4.648   4.549
 7398SOL    HW123093   2.301   4.710   4.627
 7398SOL    HW223094   2.280   4.695   4.466
 7399SOL     OW23095   0.840   3.220   4.696
 7399SOL    HW123096   0.935   3.214   4.666
 7399SOL    HW223097   0.832   3.184   4.790
 7400SOL     OW23098   4.220   2.374   6.189
 7400SOL    HW123099   4.237   2.396   6.285
 7400SOL    HW223100   4.129   2.334   6.179
 7401SOL     OW23101   1.421   2.163   4.259
 7401SOL    HW123102   1.436   2.261   4.273
 7401SOL    HW223103   1.480   2.130   4.185
 7402SOL     OW23104   3.014   5.626   6.280
 7402SOL    HW123105   2.984   5.614   6.185
 7402SOL    HW223106   2.987   5.717   6.312
 7403SOL     OW23107   1.818   3.594   2.505
 7403SOL    HW123108   1.760   3.516   2.483
 7403SOL    HW223109   1.822   3.655   2.426
 7404SOL     OW23110   2.562   5.288   1.891
 7404SOL    HW123111   2.498   5.354   1.931
 7404SOL    HW223112   2.539   5.196   1.920
 7405SOL     OW23113   3.690   4.934   5.062
 7405SOL    HW123114   3.619   5.004   5.052
 7405SOL    HW223115   3.684   4.894   5.153
 7406SOL     OW23116   0.155   2.893   3.918
 7406SOL    HW123117   0.165   2.856   3.826
 7406SOL    HW223118   0.076   2.955   3.921
 7407SOL     OW23119   0.835   0.120   5.157
 7407SOL    HW123120   0.820   0.132   5.255
 7407SOL    HW223121   0.901   0.188   5.125
 7408SOL     OW23122   2.994   4.189   0.176
 7408SOL    HW123123   3.017   4.287   0.172
 7408SOL    HW223124   2.954   4.168   0.265
 7409SOL     OW23125   5.150   3.224   0.383
 7409SOL    HW123126   5.050   3.233   0.387
 7409SOL    HW223127   5.177   3.204   0.288
 7410SOL     OW23128   0.587   6.798   0.223
 7410SOL    HW123129   0.682   6.829   0.218
 7410SOL    HW223130   0.532   6.867   0.271
 7411SOL     OW23131   1.966   7.001   6.129
 7411SOL    HW123132   1.962   0.078   6.152
 7411SOL    HW223133   1.906   6.950   6.191
 7412SOL     OW23134   5.372   0.185   2.153
 7412SOL    HW123135   5.367   0.274   2.108
 7412SOL    HW223136   5.341   0.114   2.091
 7413SOL     OW23137   4.818   5.476   4.022
 7413SOL    HW123138   4.860   5.565   4.039
 7413SOL    HW223139   4.853   5.410   4.089
 7414SOL     OW23140   0.843   1.035   3.593
 7414SOL    HW123141   0.799   1.098   3.529
 7414SOL    HW223142   0.909   0.978   3.545
 7415SOL     OW23143   1.267   4.625   3.840
 7415SOL    HW123144   1.234   4.605   3.748
 7415SOL    HW223145   1.226   4.710   3.872
 7416SOL     OW23146   1.815   1.021   2.423
 7416SOL    HW123147   1.782   1.051   2.512
 7416SOL    HW223148   1.744   1.033   2.355
 7417SOL     OW23149   1.925   2.081   1.017
 7417SOL    HW123150   1.843   2.033   0.986
 7417SOL    HW223151   1.946   2.053   1.111
 7418SOL     OW23152   2.520   5.750   0.609
 7418SOL    HW123153   2.547   5.682   0.539
 7418SOL    HW223154   2.581   5.742   0.688
 7419SOL     OW23155   6.583   3.061   4.145
 7419SOL    HW123156   6.682   3.077   4.147
 7419SOL    HW223157   6.537   3.131   4.200
 7420SOL     OW23158   0.729   6.636   1.411
 7420SOL    HW123159   0.768   6.673   1.327
 7420SOL    HW223160   0.687   6.709   1.464
 7421SOL     OW23161   3.818   4.312   1.280
 7421SOL    HW123162   3.899   4.280   1.231
 7421SOL    HW223163   3.763   4.370   1.220
 7422SOL     OW23164   0.428   4.484   2.250
 7422SOL    HW123165   0.395   4.510   2.341
 7422SOL    HW223166   0.382   4.401   2.220
 7423SOL     OW23167   6.238   2.223   5.343
 7423SOL    HW123168   6.219   2.198   5.438
 7423SOL    HW223169   6.336   2.218   5.326
 7424SOL     OW23170   6.961   6.778   5.494
 7424SOL    HW123171   6.880   6.773   5.435
 7424SOL    HW223172   0.015   6.825   5.444
 7425SOL     OW23173   4.252   6.479   0.196
 7425SOL    HW123174   4.209   6.451   0.282
 7425SOL    HW223175   4.268   6.578   0.198
 7426SOL     OW23176   2.989   2.039   5.732
 7426SOL    HW123177   2.985   2.049   5.633
 7426SOL    HW223178   2.897   2.035   5.770
 7427SOL     OW23179   4.793   0.663   3.686
 7427SOL    HW123180   4.735   0.737   3.653
 7427SOL    HW223181   4.890   0.687   3.673
 7428SOL     OW23182   4.869   1.837   5.434
 7428SOL    HW123183   4.873   1.780   5.352
 7428SOL    HW223184   4.781   1.883   5.439
 7429SOL     OW23185   0.460   6.515   4.300
 7429SOL    HW123186   0.409   6.555   4.224
 7429SOL    HW223187   0.518   6.441   4.266
 7430SOL     OW23188   1.182   3.696   0.664
 7430SOL    HW123189   1.101   3.754   0.678
 7430SOL    HW223190   1.154   3.609   0.625
 7431SOL     OW23191   1.645   2.789   3.081
 7431SOL    HW123192   1.670   2.742   3.166
 7431SOL    HW223193   1.545   2.791   3.073
 7432SOL     OW23194   0.823   1.010   2.958
 7432SOL    HW123195   0.862   0.922   2.936
 7432SOL    HW223196   0.760   1.039   2.886
 7433SOL     OW23197   4.306   5.481   6.179
 7433SOL    HW123198   4.291   5.526   6.091
 7433SOL    HW223199   4.404   5.476   6.198
 7434SOL     OW23200   4.712   5.500   5.017
 7434SOL    HW123201   4.621   5.476   4.982
 7434SOL    HW223202   4.713   5.598   5.040
 7435SOL     OW23203   3.687   5.563   1.469
 7435SOL    HW123204   3.743   5.536   1.391
 7435SOL    HW223205   3.630   5.641   1.443
 7436SOL     OW23206   4.183   3.871   6.022
 7436SOL    HW123207   4.150   3.887   6.116
 7436SOL    HW223208   4.113   3.902   5.957
 7437SOL     OW23209   1.999   5.799   6.820
 7437SOL    HW123210   1.946   5.825   6.900
 7437SOL    HW223211   2.011   5.700   6.819
 7438SOL     OW23212   1.111   5.692   0.480
 7438SOL    HW123213   1.030   5.633   0.476
 7438SOL    HW223214   1.184   5.646   0.529
 7439SOL     OW23215   2.115   6.659   5.462
 7439SOL    HW123216   2.201   6.636   5.415
 7439SOL    HW223217   2.083   6.748   5.430
 7440SOL     OW23218   0.001   3.132   4.476
 7440SOL    HW123219   6.985   3.203   4.537
 7440SOL    HW223220   6.996   3.042   4.512
 7441SOL     OW23221   4.894   6.704   4.616
 7441SOL    HW123222   4.798   6.678   4.620
 7441SOL    HW223223   4.918   6.759   4.696
 7442SOL     OW23224   6.769   1.247   6.034
 7442SOL    HW123225   6.864   1.216   6.047
 7442SOL    HW223226   6.725   1.191   5.964
 7443SOL     OW23227   6.490   6.208   1.459
 7443SOL    HW123228   6.436   6.286   1.427
 7443SOL    HW223229   6.436   6.155   1.525
 7444SOL     OW23230   5.788   2.275   6.041
 7444SOL    HW123231   5.725   2.209   6.081
 7444SOL    HW223232   5.740   2.361   6.023
 7445SOL     OW23233   3.788   0.408   1.155
 7445SOL    HW123234   3.757   0.477   1.221
 7445SOL    HW223235   3.868   0.443   1.106
 7446SOL     OW23236   5.755   2.781   0.593
 7446SOL    HW123237   5.808   2.760   0.512
 7446SOL    HW223238   5.659   2.757   0.578
 7447SOL     OW23239   6.071   3.284   6.992
 7447SOL    HW123240   6.072   3.188   0.001
 7447SOL    HW223241   5.980   3.308   6.959
 7448SOL     OW23242   6.712   6.865   5.210
 7448SOL    HW123243   6.691   6.960   5.186
 7448SOL    HW223244   6.733   6.814   5.127
 7449SOL     OW23245   0.787   4.415   2.011
 7449SOL    HW123246   0.743   4.350   1.949
 7449SOL    HW223247   0.752   4.403   2.104
 7450SOL     OW23248   5.343   2.503   5.524
 7450SOL    HW123249   5.249   2.507   5.559
 7450SOL    HW223250   5.392   2.585   5.551
 7451SOL     OW23251   6.617   5.933   2.926
 7451SOL    HW123252   6.662   6.019   2.949
 7451SOL    HW223253   6.527   5.952   2.887
 7452SOL     OW23254   5.916   6.517   4.133
 7452SOL    HW123255   5.852   6.520   4.056
 7452SOL    HW223256   5.914   6.605   4.181
 7453SOL     OW23257   5.396   5.678   5.511
 7453SOL    HW123258   5.486   5.635   5.518
 7453SOL    HW223259   5.325   5.608   5.514
 7454SOL     OW23260   1.246   2.382   1.743
 7454SOL    HW123261   1.150   2.358   1.757
 7454SOL    HW223262   1.283   2.332   1.665
 7455SOL     OW23263   6.638   2.751   1.691
 7455SOL    HW123264   6.662   2.719   1.783
 7455SOL    HW223265   6.666   2.847   1.681
 7456SOL     OW23266   1.691   1.202   4.772
 7456SOL    HW123267   1.600   1.180   4.807
 7456SOL    HW223268   1.729   1.122   4.725
 7457SOL     OW23269   3.607   0.852   5.162
 7457SOL    HW123270   3.533   0.805   5.209
 7457SOL    HW223271   3.583   0.865   5.066
 7458SOL     OW23272   2.004   6.642   5.703
 7458SOL    HW123273   2.009   6.742   5.707
 7458SOL    HW223274   2.041   6.611   5.616
 7459SOL     OW23275   5.276   0.031   1.939
 7459SOL    HW123276   5.288   0.077   1.851
 7459SOL    HW223277   5.312   6.958   1.934
 7460SOL     OW23278   0.903   5.297   0.350
 7460SOL    HW123279   0.842   5.220   0.366
 7460SOL    HW223280   0.966   5.275   0.275
 7461SOL     OW23281   6.150   0.198   6.819
 7461SOL    HW123282   6.072   0.174   6.762
 7461SOL    HW223283   6.235   0.181   6.769
 7462SOL     OW23284   1.681   4.186   2.441
 7462SOL    HW123285   1.728   4.273   2.421
 7462SOL    HW223286   1.745   4.110   2.427
 7463SOL     OW23287   3.168   5.029   0.789
 7463SOL    HW123288   3.112   5.036   0.871
 7463SOL    HW223289   3.108   5.016   0.709
 7464SOL     OW23290   5.543   6.287   6.277
 7464SOL    HW123291   5.620   6.237   6.317
 7464SOL    HW223292   5.550   6.384   6.301
 7465SOL     OW23293   2.728   5.460   6.609
 7465SOL    HW123294   2.793   5.422   6.544
 7465SOL    HW223295   2.636   5.426   6.589
 7466SOL     OW23296   0.441   0.348   4.555
 7466SOL    HW123297   0.362   0.384   4.505
 7466SOL    HW223298   0.414   0.265   4.605
 7467SOL     OW23299   0.203   1.623   0.600
 7467SOL    HW123300   0.240   1.545   0.650
 7467SOL    HW223301   0.123   1.658   0.648
 7468SOL     OW23302   5.577   2.401   3.626
 7468SOL    HW123303   5.632   2.378   3.546
 7468SOL    HW223304   5.487   2.433   3.597
 7469SOL     OW23305   6.519   0.453   0.007
 7469SOL    HW123306   6.460   0.398   0.065
 7469SOL    HW223307   6.518   0.415   6.934
 7470SOL     OW23308   6.155   4.090   3.251
 7470SOL    HW123309   6.081   4.101   3.316
 7470SOL    HW223310   6.241   4.123   3.291
 7471SOL     OW23311   5.639   6.811   5.786
 7471SOL    HW123312   5.618   6.861   5.870
 7471SOL    HW223313   5.697   6.733   5.806
 7472SOL     OW23314   6.383   0.618   5.788
 7472SOL    HW123315   6.331   0.687   5.838
 7472SOL    HW223316   6.458   0.662   5.739
 7473SOL     OW23317   5.868   5.657   4.230
 7473SOL    HW123318   5.891   5.594   4.304
 7473SOL    HW223319   5.789   5.713   4.257
 7474SOL     OW23320   0.567   1.700   5.988
 7474SOL    HW123321   0.575   1.725   5.892
 7474SOL    HW223322   0.478   1.657   6.004
 7475SOL     OW23323   4.680   2.790   2.292
 7475SOL    HW123324   4.702   2.694   2.279
 7475SOL    HW223325   4.669   2.835   2.203
 7476SOL     OW23326   3.479   0.964   3.745
 7476SOL    HW123327   3.531   0.987   3.827
 7476SOL    HW223328   3.541   0.932   3.674
 7477SOL     OW23329   0.362   1.613   5.750
 7477SOL    HW123330   0.262   1.606   5.747
 7477SOL    HW223331   0.397   1.554   5.822
 7478SOL     OW23332   5.946   3.772   4.976
 7478SOL    HW123333   5.919   3.801   4.884
 7478SOL    HW223334   5.885   3.699   5.007
 7479SOL     OW23335   4.388   2.431   2.233
 7479SOL    HW123336   4.448   2.496   2.280
 7479SOL    HW223337   4.325   2.482   2.173
 7480SOL     OW23338   1.412   4.620   2.498
 7480SOL    HW123339   1.332   4.590   2.446
 7480SOL    HW223340   1.495   4.603   2.444
 7481SOL     OW23341   5.503   5.732   0.740
 7481SOL    HW123342   5.562   5.779   0.674
 7481SOL    HW223343   5.496   5.636   0.717
 7482SOL     OW23344   4.551   2.606   2.960
 7482SOL    HW123345   4.594   2.633   2.874
 7482SOL    HW223346   4.612   2.627   3.036
 7483SOL     OW23347   4.957   3.515   4.636
 7483SOL    HW123348   5.024   3.531   4.708
 7483SOL    HW223349   4.872   3.563   4.659
 7484SOL     OW23350   1.370   6.733   4.462
 7484SOL    HW123351   1.456   6.684   4.447
 7484SOL    HW223352   1.321   6.692   4.539
 7485SOL     OW23353   3.753   0.330   4.369
 7485SOL    HW123354   3.660   0.298   4.385
 7485SOL    HW223355   3.755   0.430   4.371
 7486SOL     OW23356   1.583   5.791   0.474
 7486SOL    HW123357   1.584   5.783   0.574
 7486SOL    HW223358   1.608   5.885   0.448
 7487SOL     OW23359   2.242   0.252   3.015
 7487SOL    HW123360   2.264   0.166   3.061
 7487SOL    HW223361   2.309   0.321   3.040
 7488SOL     OW23362   2.449   6.243   4.128
 7488SOL    HW123363   2.520   6.308   4.101
 7488SOL    HW223364   2.482   6.188   4.205
 7489SOL     OW23365   5.906   2.676   5.984
 7489SOL    HW123366   5.870   2.683   5.892
 7489SOL    HW223367   5.956   2.589   5.994
 7490SOL     OW23368   1.193   0.046   3.105
 7490SOL    HW123369   1.263   0.092   3.160
 7490SOL    HW223370   1.153   6.991   3.158
 7491SOL     OW23371   4.284   2.940   6.804
 7491SOL    HW123372   4.316   3.011   6.741
 7491SOL    HW223373   4.354   2.923   6.873
 7492SOL     OW23374   1.649   0.321   3.151
 7492SOL    HW123375   1.613   0.228   3.139
 7492SOL    HW223376   1.737   0.329   3.104
 7493SOL     OW23377   0.633   3.250   6.254
 7493SOL    HW123378   0.652   3.342   6.289
 7493SOL    HW223379   0.658   3.182   6.322
 7494SOL     OW23380   5.123   1.486   2.716
 7494SOL    HW123381   5.108   1.579   2.750
 7494SOL    HW223382   5.163   1.490   2.625
 7495SOL     OW23383   1.497   2.314   6.909
 7495SOL    HW123384   1.577   2.337   6.854
 7495SOL    HW223385   1.419   2.367   6.877
 7496SOL     OW23386   6.386   2.948   3.973
 7496SOL    HW123387   6.313   2.907   4.028
 7496SOL    HW223388   6.442   3.007   4.031
 7497SOL     OW23389   2.916   4.761   0.645
 7497SOL    HW123390   2.830   4.807   0.621
 7497SOL    HW223391   2.910   4.664   0.622
 7498SOL     OW23392   3.360   0.721   5.221
 7498SOL    HW123393   3.314   0.768   5.296
 7498SOL    HW223394   3.295   0.707   5.146
 7499SOL     OW23395   4.363   1.368   3.406
 7499SOL    HW123396   4.293   1.298   3.387
 7499SOL    HW223397   4.321   1.446   3.452
 7500SOL     OW23398   3.454   5.748   3.368
 7500SOL    HW123399   3.509   5.830   3.374
 7500SOL    HW223400   3.421   5.736   3.275
 7501SOL     OW23401   5.276   3.974   4.965
 7501SOL    HW123402   5.276   4.071   4.991
 7501SOL    HW223403   5.262   3.967   4.867
 7502SOL     OW23404   3.199   0.976   4.452
 7502SOL    HW123405   3.264   0.900   4.445
 7502SOL    HW223406   3.227   1.050   4.392
 7503SOL     OW23407   1.693   0.061   1.309
 7503SOL    HW123408   1.785   0.025   1.292
 7503SOL    HW223409   1.660   0.028   1.397
 7504SOL     OW23410   1.007   6.207   3.367
 7504SOL    HW123411   1.062   6.222   3.449
 7504SOL    HW223412   0.951   6.288   3.349
 7505SOL     OW23413   1.738   2.775   5.791
 7505SOL    HW123414   1.695   2.833   5.860
 7505SOL    HW223415   1.669   2.747   5.724
 7506SOL     OW23416   5.691   1.704   3.092
 7506SOL    HW123417   5.694   1.605   3.106
 7506SOL    HW223418   5.764   1.732   3.030
 7507SOL     OW23419   0.017   1.960   2.378
 7507SOL    HW123420   0.067   1.914   2.451
 7507SOL    HW223421   0.051   1.930   2.289
 7508SOL     OW23422   1.352   6.460   1.284
 7508SOL    HW123423   1.288   6.402   1.334
 7508SOL    HW223424   1.408   6.510   1.349
 7509SOL     OW23425   5.878   3.590   0.299
 7509SOL    HW123426   5.945   3.664   0.284
 7509SOL    HW223427   5.878   3.565   0.396
 7510SOL     OW23428   3.388   3.365   4.943
 7510SOL    HW123429   3.321   3.307   4.895
 7510SOL    HW223430   3.378   3.460   4.912
 7511SOL     OW23431   2.854   5.932   3.886
 7511SOL    HW123432   2.950   5.903   3.894
 7511SOL    HW223433   2.813   5.936   3.977
 7512SOL     OW23434   2.766   7.007   6.431
 7512SOL    HW123435   2.676   6.973   6.456
 7512SOL    HW223436   2.760   0.036   6.344
 7513SOL     OW23437   1.388   0.977   1.878
 7513SOL    HW123438   1.453   1.035   1.927
 7513SOL    HW223439   1.309   1.032   1.849
 7514SOL     OW23440   2.806   5.184   2.650
 7514SOL    HW123441   2.852   5.163   2.564
 7514SOL    HW223442   2.871   5.228   2.713
 7515SOL     OW23443   6.801   5.740   4.350
 7515SOL    HW123444   6.870   5.777   4.288
 7515SOL    HW223445   6.803   5.640   4.344
 7516SOL     OW23446   6.542   5.652   5.964
 7516SOL    HW123447   6.579   5.661   5.871
 7516SOL    HW223448   6.455   5.603   5.960
 7517SOL     OW23449   6.835   1.811   0.502
 7517SOL    HW123450   6.903   1.792   0.573
 7517SOL    HW223451   6.832   1.909   0.484
 7518SOL     OW23452   4.757   4.104   4.454
 7518SOL    HW123453   4.711   4.112   4.543
 7518SOL    HW223454   4.709   4.161   4.387
 7519SOL     OW23455   0.826   6.274   4.040
 7519SOL    HW123456   0.906   6.317   3.999
 7519SOL    HW223457   0.778   6.222   3.970
 7520SOL     OW23458   2.258   6.994   2.681
 7520SOL    HW123459   2.268   6.918   2.617
 7520SOL    HW223460   2.322   6.983   2.757
 7521SOL     OW23461   4.903   2.696   5.415
 7521SOL    HW123462   4.815   2.745   5.417
 7521SOL    HW223463   4.967   2.746   5.357
 7522SOL     OW23464   1.535   1.288   6.144
 7522SOL    HW123465   1.524   1.264   6.047
 7522SOL    HW223466   1.591   1.370   6.151
 7523SOL     OW23467   5.477   0.487   6.359
 7523SOL    HW123468   5.527   0.533   6.433
 7523SOL    HW223469   5.386   0.526   6.350
 7524SOL     OW23470   0.998   2.913   4.960
 7524SOL    HW123471   1.072   2.862   5.004
 7524SOL    HW223472   0.985   2.880   4.866
 7525SOL     OW23473   3.685   0.853   6.363
 7525SOL    HW123474   3.605   0.857   6.424
 7525SOL    HW223475   3.658   0.816   6.275
 7526SOL     OW23476   3.143   3.524   1.287
 7526SOL    HW123477   3.106   3.516   1.379
 7526SOL    HW223478   3.221   3.462   1.276
 7527SOL     OW23479   3.077   5.738   3.672
 7527SOL    HW123480   2.999   5.766   3.616
 7527SOL    HW223481   3.054   5.748   3.769
 7528SOL     OW23482   5.918   2.199   0.437
 7528SOL    HW123483   5.974   2.267   0.389
 7528SOL    HW223484   5.821   2.224   0.428
 7529SOL     OW23485   5.790   1.635   4.551
 7529SOL    HW123486   5.821   1.546   4.518
 7529SOL    HW223487   5.823   1.706   4.489
 7530SOL     OW23488   0.175   2.833   2.556
 7530SOL    HW123489   0.091   2.852   2.505
 7530SOL    HW223490   0.180   2.735   2.574
 7531SOL     OW23491   5.915   3.020   4.633
 7531SOL    HW123492   5.901   3.089   4.562
 7531SOL    HW223493   5.979   2.950   4.599
 7532SOL     OW23494   4.028   6.111   0.136
 7532SOL    HW123495   4.117   6.081   0.103
 7532SOL    HW223496   4.008   6.202   0.101
 7533SOL     OW23497   3.620   1.410   1.576
 7533SOL    HW123498   3.687   1.484   1.587
 7533SOL    HW223499   3.669   1.322   1.571
 7534SOL     OW23500   4.489   6.377   5.120
 7534SOL    HW123501   4.559   6.345   5.056
 7534SOL    HW223502   4.505   6.474   5.141
 7535SOL     OW23503   2.164   0.279   4.847
 7535SOL    HW123504   2.145   0.238   4.758
 7535SOL    HW223505   2.092   0.344   4.870
 7536SOL     OW23506   5.468   4.066   4.690
 7536SOL    HW123507   5.398   3.996   4.705
 7536SOL    HW223508   5.436   4.132   4.622
 7537SOL     OW23509   2.357   5.460   2.006
 7537SOL    HW123510   2.387   5.492   2.096
 7537SOL    HW223511   2.347   5.537   1.944
 7538SOL     OW23512   2.284   2.604   1.373
 7538SOL    HW123513   2.239   2.525   1.414
 7538SOL    HW223514   2.218   2.654   1.316
 7539SOL     OW23515   1.709   3.225   3.883
 7539SOL    HW123516   1.749   3.153   3.939
 7539SOL    HW223517   1.616   3.200   3.858
 7540SOL     OW23518   4.070   1.161   4.836
 7540SOL    HW123519   4.115   1.072   4.827
 7540SOL    HW223520   4.072   1.191   4.931
 7541SOL     OW23521   0.440   4.352   4.776
 7541SOL    HW123522   0.448   4.296   4.858
 7541SOL    HW223523   0.396   4.439   4.800
 7542SOL     OW23524   0.865   5.267   6.791
 7542SOL    HW123525   0.946   5.279   6.735
 7542SOL    HW223526   0.859   5.171   6.821
 7543SOL     OW23527   4.040   1.282   5.398
 7543SOL    HW123528   4.137   1.302   5.388
 7543SOL    HW223529   3.990   1.367   5.413
 7544SOL     OW23530   6.197   2.341   3.317
 7544SOL    HW123531   6.286   2.311   3.284
 7544SOL    HW223532   6.180   2.435   3.287
 7545SOL     OW23533   0.528   5.847   6.811
 7545SOL    HW123534   0.590   5.887   6.744
 7545SOL    HW223535   0.433   5.868   6.785
 7546SOL     OW23536   4.208   1.999   1.155
 7546SOL    HW123537   4.235   1.929   1.221
 7546SOL    HW223538   4.282   2.065   1.144
 7547SOL     OW23539   5.103   1.248   0.574
 7547SOL    HW123540   5.111   1.344   0.545
 7547SOL    HW223541   5.103   1.244   0.674
 7548SOL     OW23542   4.118   1.900   0.378
 7548SOL    HW123543   4.082   1.873   0.468
 7548SOL    HW223544   4.052   1.961   0.334
 7549SOL     OW23545   2.907   2.439   6.883
 7549SOL    HW123546   2.903   2.463   6.786
 7549SOL    HW223547   2.979   2.371   6.897
 7550SOL     OW23548   2.174   4.532   4.250
 7550SOL    HW123549   2.140   4.582   4.170
 7550SOL    HW223550   2.102   4.472   4.285
 7551SOL     OW23551   5.709   2.820   5.327
 7551SOL    HW123552   5.808   2.804   5.327
 7551SOL    HW223553   5.661   2.733   5.329
 7552SOL     OW23554   1.475   6.269   3.171
 7552SOL    HW123555   1.455   6.347   3.231
 7552SOL    HW223556   1.395   6.249   3.114
 7553SOL     OW23557   4.062   6.654   5.615
 7553SOL    HW123558   3.966   6.653   5.587
 7553SOL    HW223559   4.080   6.736   5.670
 7554SOL     OW23560   5.343   0.690   6.709
 7554SOL    HW123561   5.385   0.747   6.779
 7554SOL    HW223562   5.258   0.734   6.678
 7555SOL     OW23563   2.793   5.049   6.571
 7555SOL    HW123564   2.759   5.093   6.488
 7555SOL    HW223565   2.891   5.064   6.580
 7556SOL     OW23566   2.618   2.847   0.558
 7556SOL    HW123567   2.533   2.801   0.531
 7556SOL    HW223568   2.680   2.850   0.480
 7557SOL     OW23569   5.688   6.929   6.034
 7557SOL    HW123570   5.667   0.006   6.046
 7557SOL    HW223571   5.787   6.915   6.032
 7558SOL     OW23572   1.742   2.576   4.817
 7558SOL    HW123573   1.681   2.626   4.878
 7558SOL    HW223574   1.833   2.616   4.821
 7559SOL     OW23575   4.517   3.679   0.231
 7559SOL    HW123576   4.592   3.697   0.294
 7559SOL    HW223577   4.455   3.757   0.230
 7560SOL     OW23578   4.635   6.853   0.867
 7560SOL    HW123579   4.703   6.854   0.794
 7560SOL    HW223580   4.680   6.836   0.955
 7561SOL     OW23581   0.898   2.973   6.364
 7561SOL    HW123582   0.807   2.997   6.397
 7561SOL    HW223583   0.912   2.874   6.375
 7562SOL     OW23584   0.670   5.768   5.471
 7562SOL    HW123585   0.599   5.733   5.410
 7562SOL    HW223586   0.679   5.867   5.457
 7563SOL     OW23587   2.925   6.925   1.535
 7563SOL    HW123588   2.984   6.872   1.596
 7563SOL    HW223589   2.863   6.981   1.589
 7564SOL     OW23590   4.267   0.379   3.968
 7564SOL    HW123591   4.197   0.339   4.027
 7564SOL    HW223592   4.226   0.452   3.913
 7565SOL     OW23593   5.688   3.128   6.408
 7565SOL    HW123594   5.766   3.145   6.348
 7565SOL    HW223595   5.633   3.211   6.417
 7566SOL     OW23596   6.043   5.069   2.569
 7566SOL    HW123597   6.142   5.083   2.559
 7566SOL    HW223598   6.008   5.129   2.640
 7567SOL     OW23599   1.812   1.301   5.382
 7567SOL    HW123600   1.789   1.397   5.393
 7567SOL    HW223601   1.888   1.292   5.318
 7568SOL     OW23602   5.473   4.914   2.771
 7568SOL    HW123603   5.536   4.950   2.840
 7568SOL    HW223604   5.521   4.902   2.685
 7569SOL     OW23605   3.278   4.377   5.974
 7569SOL    HW123606   3.328   4.394   6.058
 7569SOL    HW223607   3.282   4.458   5.915
 7570SOL     OW23608   5.301   4.232   4.979
 7570SOL    HW123609   5.329   4.262   5.070
 7570SOL    HW223610   5.286   4.313   4.921
 7571SOL     OW23611   4.677   4.435   3.348
 7571SOL    HW123612   4.701   4.367   3.416
 7571SOL    HW223613   4.641   4.390   3.266
 7572SOL     OW23614   4.567   0.840   2.064
 7572SOL    HW123615   4.633   0.795   2.005
 7572SOL    HW223616   4.575   0.804   2.157
 7573SOL     OW23617   0.408   6.586   5.137
 7573SOL    HW123618   0.506   6.605   5.128
 7573SOL    HW223619   0.357   6.672   5.127
 7574SOL     OW23620   4.836   0.742   5.403
 7574SOL    HW123621   4.827   0.790   5.491
 7574SOL    HW223622   4.915   0.778   5.354
 7575SOL     OW23623   5.550   0.219   6.763
 7575SOL    HW123624   5.514   0.126   6.757
 7575SOL    HW223625   5.493   0.281   6.710
 7576SOL     OW23626   4.794   3.412   0.305
 7576SOL    HW123627   4.841   3.485   0.355
 7576SOL    HW223628   4.765   3.341   0.368
 7577SOL     OW23629   0.552   6.827   6.714
 7577SOL    HW123630   0.576   6.730   6.709
 7577SOL    HW223631   0.597   6.868   6.793
 7578SOL     OW23632   3.314   5.390   2.210
 7578SOL    HW123633   3.406   5.365   2.239
 7578SOL    HW223634   3.318   5.451   2.131
 7579SOL     OW23635   0.274   0.683   1.953
 7579SOL    HW123636   0.313   0.736   2.028
 7579SOL    HW223637   0.270   0.587   1.979
 7580SOL     OW23638   0.643   4.452   4.150
 7580SOL    HW123639   0.715   4.466   4.218
 7580SOL    HW223640   0.655   4.362   4.108
 7581SOL     OW23641   0.262   1.882   1.527
 7581SOL    HW123642   0.189   1.931   1.576
 7581SOL    HW223643   0.343   1.879   1.585
 7582SOL     OW23644   3.892   1.209   2.719
 7582SOL    HW123645   3.912   1.168   2.808
 7582SOL    HW223646   3.977   1.237   2.674
 7583SOL     OW23647   5.159   2.972   2.162
 7583SOL    HW123648   5.203   2.924   2.086
 7583SOL    HW223649   5.121   2.905   2.226
 7584SOL     OW23650   3.327   0.758   3.133
 7584SOL    HW123651   3.351   0.818   3.210
 7584SOL    HW223652   3.229   0.764   3.115
 7585SOL     OW23653   1.719   2.629   6.610
 7585SOL    HW123654   1.694   2.580   6.693
 7585SOL    HW223655   1.818   2.646   6.609
 7586SOL     OW23656   2.432   0.101   4.119
 7586SOL    HW123657   2.433   0.001   4.129
 7586SOL    HW223658   2.421   0.143   4.209
 7587SOL     OW23659   2.049   2.025   6.755
 7587SOL    HW123660   2.052   2.070   6.666
 7587SOL    HW223661   2.058   1.926   6.743
 7588SOL     OW23662   1.796   2.559   3.809
 7588SOL    HW123663   1.892   2.583   3.803
 7588SOL    HW223664   1.761   2.582   3.900
 7589SOL     OW23665   7.001   0.409   2.059
 7589SOL    HW123666   6.903   0.395   2.074
 7589SOL    HW223667   0.023   0.445   2.142
 7590SOL     OW23668   4.205   2.082   6.436
 7590SOL    HW123669   4.126   2.034   6.397
 7590SOL    HW223670   4.184   2.179   6.447
 7591SOL     OW23671   5.771   4.232   0.840
 7591SOL    HW123672   5.854   4.242   0.785
 7591SOL    HW223673   5.691   4.245   0.782
 7592SOL     OW23674   6.259   5.855   4.861
 7592SOL    HW123675   6.242   5.896   4.950
 7592SOL    HW223676   6.292   5.761   4.872
 7593SOL     OW23677   6.269   3.128   0.350
 7593SOL    HW123678   6.352   3.168   0.386
 7593SOL    HW223679   6.263   3.032   0.377
 7594SOL     OW23680   1.807   4.409   2.337
 7594SOL    HW123681   1.888   4.350   2.343
 7594SOL    HW223682   1.834   4.504   2.354
 7595SOL     OW23683   6.068   2.904   5.954
 7595SOL    HW123684   6.166   2.885   5.954
 7595SOL    HW223685   6.021   2.835   6.010
 7596SOL     OW23686   3.666   6.290   4.039
 7596SOL    HW123687   3.576   6.325   4.062
 7596SOL    HW223688   3.692   6.218   4.104
 7597SOL     OW23689   1.630   6.588   3.039
 7597SOL    HW123690   1.540   6.631   3.040
 7597SOL    HW223691   1.648   6.550   2.948
 7598SOL     OW23692   6.806   0.765   3.194
 7598SOL    HW123693   6.839   0.854   3.164
 7598SOL    HW223694   6.883   0.705   3.213
 7599SOL     OW23695   5.493   2.741   2.536
 7599SOL    HW123696   5.479   2.780   2.446
 7599SOL    HW223697   5.436   2.789   2.603
 7600SOL     OW23698   1.150   1.644   3.540
 7600SOL    HW123699   1.200   1.715   3.490
 7600SOL    HW223700   1.173   1.555   3.502
 7601SOL     OW23701   2.685   5.059   2.332
 7601SOL    HW123702   2.748   4.982   2.328
 7601SOL    HW223703   2.604   5.038   2.277
 7602SOL     OW23704   1.494   4.206   7.011
 7602SOL    HW123705   1.460   4.112   7.012
 7602SOL    HW223706   1.536   4.226   0.079
 7603SOL     OW23707   1.983   5.499   6.332
 7603SOL    HW123708   2.040   5.506   6.414
 7603SOL    HW223709   1.942   5.407   6.328
 7604SOL     OW23710   1.860   3.023   4.082
 7604SOL    HW123711   1.836   3.031   4.179
 7604SOL    HW223712   1.790   2.970   4.034
 7605SOL     OW23713   1.310   0.860   0.990
 7605SOL    HW123714   1.350   0.930   1.048
 7605SOL    HW223715   1.379   0.793   0.965
 7606SOL     OW23716   6.211   3.230   4.597
 7606SOL    HW123717   6.165   3.282   4.669
 7606SOL    HW223718   6.151   3.222   4.517
 7607SOL     OW23719   3.588   4.741   0.423
 7607SOL    HW123720   3.545   4.822   0.461
 7607SOL    HW223721   3.518   4.673   0.400
 7608SOL     OW23722   4.091   3.949   1.200
 7608SOL    HW123723   4.023   3.876   1.189
 7608SOL    HW223724   4.148   3.930   1.280
 7609SOL     OW23725   1.875   3.364   4.341
 7609SOL    HW123726   1.947   3.334   4.278
 7609SOL    HW223727   1.846   3.286   4.397
 7610SOL     OW23728   4.352   4.262   6.450
 7610SOL    HW123729   4.414   4.339   6.434
 7610SOL    HW223730   4.262   4.285   6.414
 7611SOL     OW23731   5.339   3.807   1.606
 7611SOL    HW123732   5.372   3.713   1.618
 7611SOL    HW223733   5.258   3.806   1.547
 7612SOL     OW23734   5.035   3.349   2.340
 7612SOL    HW123735   5.131   3.376   2.329
 7612SOL    HW223736   5.010   3.286   2.266
 7613SOL     OW23737   0.745   2.193   1.153
 7613SOL    HW123738   0.797   2.206   1.068
 7613SOL    HW223739   0.700   2.279   1.178
 7614SOL     OW23740   5.460   2.967   0.638
 7614SOL    HW123741   5.482   2.869   0.643
 7614SOL    HW223742   5.401   2.991   0.715
 7615SOL     OW23743   4.203   4.445   6.908
 7615SOL    HW123744   4.246   4.356   6.923
 7615SOL    HW223745   4.238   4.484   6.823
 7616SOL     OW23746   6.566   6.383   4.936
 7616SOL    HW123747   6.658   6.389   4.897
 7616SOL    HW223748   6.542   6.286   4.949
 7617SOL     OW23749   3.519   6.494   3.465
 7617SOL    HW123750   3.546   6.432   3.390
 7617SOL    HW223751   3.421   6.484   3.481
 7618SOL     OW23752   0.183   2.289   6.185
 7618SOL    HW123753   0.221   2.287   6.093
 7618SOL    HW223754   0.084   2.303   6.180
 7619SOL     OW23755   6.613   3.022   4.607
 7619SOL    HW123756   6.610   2.956   4.682
 7619SOL    HW223757   6.574   2.980   4.525
 7620SOL     OW23758   3.944   5.629   1.617
 7620SOL    HW123759   4.014   5.629   1.689
 7620SOL    HW223760   3.854   5.623   1.660
 7621SOL     OW23761   6.940   1.103   0.530
 7621SOL    HW123762   6.909   1.198   0.521
 7621SOL    HW223763   6.922   1.071   0.623
 7622SOL     OW23764   4.283   4.731   6.265
 7622SOL    HW123765   4.217   4.774   6.203
 7622SOL    HW223766   4.346   4.675   6.213
 7623SOL     OW23767   4.924   4.016   6.956
 7623SOL    HW123768   4.863   3.938   6.967
 7623SOL    HW223769   4.873   4.092   6.916
 7624SOL     OW23770   6.509   3.841   4.912
 7624SOL    HW123771   6.425   3.882   4.948
 7624SOL    HW223772   6.507   3.845   4.812
 7625SOL     OW23773   5.224   0.887   6.992
 7625SOL    HW123774   5.210   0.897   0.070
 7625SOL    HW223775   5.136   0.898   6.945
 7626SOL     OW23776   6.653   0.165   5.330
 7626SOL    HW123777   6.625   0.154   5.235
 7626SOL    HW223778   6.634   0.081   5.381
 7627SOL     OW23779   4.209   3.156   0.504
 7627SOL    HW123780   4.232   3.073   0.555
 7627SOL    HW223781   4.271   3.166   0.426
 7628SOL     OW23782   3.337   2.763   1.819
 7628SOL    HW123783   3.427   2.726   1.839
 7628SOL    HW223784   3.303   2.814   1.898
 7629SOL     OW23785   6.787   4.873   3.851
 7629SOL    HW123786   6.862   4.811   3.874
 7629SOL    HW223787   6.778   4.879   3.751
 7630SOL     OW23788   0.668   0.526   0.667
 7630SOL    HW123789   0.762   0.506   0.697
 7630SOL    HW223790   0.612   0.444   0.677
 7631SOL     OW23791   1.100   2.121   5.574
 7631SOL    HW123792   1.146   2.083   5.654
 7631SOL    HW223793   1.018   2.169   5.602
 7632SOL     OW23794   5.011   4.053   0.699
 7632SOL    HW123795   5.011   4.129   0.765
 7632SOL    HW223796   5.001   4.089   0.607
 7633SOL     OW23797   5.411   0.434   1.974
 7633SOL    HW123798   5.368   0.406   1.888
 7633SOL    HW223799   5.362   0.513   2.012
 7634SOL     OW23800   2.061   1.296   2.162
 7634SOL    HW123801   2.084   1.382   2.207
 7634SOL    HW223802   2.038   1.227   2.231
 7635SOL     OW23803   3.343   4.989   5.162
 7635SOL    HW123804   3.402   5.051   5.109
 7635SOL    HW223805   3.269   4.956   5.104
 7636SOL     OW23806   1.532   3.111   4.151
 7636SOL    HW123807   1.498   3.175   4.083
 7636SOL    HW223808   1.494   3.135   4.241
 7637SOL     OW23809   2.711   6.150   2.362
 7637SOL    HW123810   2.657   6.136   2.279
 7637SOL    HW223811   2.808   6.132   2.341
 7638SOL     OW23812   2.116   5.617   1.499
 7638SOL    HW123813   2.041   5.555   1.523
 7638SOL    HW223814   2.153   5.591   1.410
 7639SOL     OW23815   0.630   1.091   0.815
 7639SOL    HW123816   0.582   1.114   0.730
 7639SOL    HW223817   0.589   1.142   0.891
 7640SOL     OW23818   2.701   1.459   5.767
 7640SOL    HW123819   2.745   1.490   5.683
 7640SOL    HW223820   2.713   1.360   5.776
 7641SOL     OW23821   1.206   3.503   2.630
 7641SOL    HW123822   1.140   3.524   2.558
 7641SOL    HW223823   1.162   3.447   2.700
 7642SOL     OW23824   3.474   1.720   2.756
 7642SOL    HW123825   3.455   1.768   2.842
 7642SOL    HW223826   3.422   1.762   2.682
 7643SOL     OW23827   5.246   2.298   3.096
 7643SOL    HW123828   5.221   2.270   3.189
 7643SOL    HW223829   5.163   2.312   3.042
 7644SOL     OW23830   4.583   2.481   1.997
 7644SOL    HW123831   4.558   2.398   1.947
 7644SOL    HW223832   4.616   2.550   1.932
 7645SOL     OW23833   5.332   3.955   5.617
 7645SOL    HW123834   5.237   3.926   5.627
 7645SOL    HW223835   5.367   3.984   5.706
 7646SOL     OW23836   1.419   2.836   4.145
 7646SOL    HW123837   1.336   2.830   4.201
 7646SOL    HW223838   1.475   2.913   4.176
 7647SOL     OW23839   6.860   2.412   3.876
 7647SOL    HW123840   6.920   2.411   3.956
 7647SOL    HW223841   6.798   2.490   3.882
 7648SOL     OW23842   2.643   1.784   2.581
 7648SOL    HW123843   2.626   1.780   2.483
 7648SOL    HW223844   2.575   1.842   2.625
 7649SOL     OW23845   1.118   0.885   3.675
 7649SOL    HW123846   1.102   0.974   3.716
 7649SOL    HW223847   1.211   0.880   3.640
 7650SOL     OW23848   5.690   0.514   0.332
 7650SOL    HW123849   5.720   0.474   0.419
 7650SOL    HW223850   5.736   0.601   0.318
 7651SOL     OW23851   2.105   0.501   4.594
 7651SOL    HW123852   2.189   0.480   4.544
 7651SOL    HW223853   2.033   0.438   4.565
 7652SOL     OW23854   5.617   2.582   4.523
 7652SOL    HW123855   5.575   2.642   4.591
 7652SOL    HW223856   5.684   2.633   4.470
 7653SOL     OW23857   0.374   2.045   0.262
 7653SOL    HW123858   0.468   2.011   0.270
 7653SOL    HW223859   0.324   2.022   0.345
 7654SOL     OW23860   5.053   2.862   4.447
 7654SOL    HW123861   5.071   2.891   4.541
 7654SOL    HW223862   5.053   2.762   4.442
 7655SOL     OW23863   4.350   6.481   3.792
 7655SOL    HW123864   4.331   6.414   3.721
 7655SOL    HW223865   4.268   6.535   3.811
 7656SOL     OW23866   4.124   3.972   7.015
 7656SOL    HW123867   4.074   3.890   0.024
 7656SOL    HW223868   4.128   3.975   6.915
 7657SOL     OW23869   1.394   2.142   3.423
 7657SOL    HW123870   1.344   2.194   3.354
 7657SOL    HW223871   1.428   2.057   3.383
 7658SOL     OW23872   2.946   0.078   7.008
 7658SOL    HW123873   3.041   0.047   7.009
 7658SOL    HW223874   2.938   0.161   6.953
 7659SOL     OW23875   5.290   4.973   6.592
 7659SOL    HW123876   5.381   4.938   6.572
 7659SOL    HW223877   5.225   4.898   6.598
 7660SOL     OW23878   0.075   5.803   3.690
 7660SOL    HW123879   7.013   5.807   3.632
 7660SOL    HW223880   0.133   5.727   3.660
 7661SOL     OW23881   5.654   2.246   5.262
 7661SOL    HW123882   5.702   2.184   5.325
 7661SOL    HW223883   5.676   2.222   5.168
 7662SOL     OW23884   1.568   3.379   4.344
 7662SOL    HW123885   1.579   3.328   4.429
 7662SOL    HW223886   1.524   3.467   4.364
 7663SOL     OW23887   6.177   4.899   6.088
 7663SOL    HW123888   6.195   4.956   6.169
 7663SOL    HW223889   6.090   4.850   6.101
 7664SOL     OW23890   4.256   0.607   1.837
 7664SOL    HW123891   4.242   0.568   1.928
 7664SOL    HW223892   4.194   0.685   1.825
 7665SOL     OW23893   6.138   0.655   5.059
 7665SOL    HW123894   6.074   0.652   5.136
 7665SOL    HW223895   6.191   0.740   5.062
 7666SOL     OW23896   0.401   4.803   2.444
 7666SOL    HW123897   0.486   4.760   2.473
 7666SOL    HW223898   0.326   4.737   2.453
 7667SOL     OW23899   4.036   0.255   2.579
 7667SOL    HW123900   3.971   0.331   2.580
 7667SOL    HW223901   4.064   0.234   2.673
 7668SOL     OW23902   2.875   5.233   0.616
 7668SOL    HW123903   2.956   5.291   0.624
 7668SOL    HW223904   2.902   5.137   0.617
 7669SOL     OW23905   4.775   1.243   5.394
 7669SOL    HW123906   4.860   1.248   5.447
 7669SOL    HW223907   4.796   1.212   5.301
 7670SOL     OW23908   0.533   5.041   0.660
 7670SOL    HW123909   0.488   5.113   0.713
 7670SOL    HW223910   0.507   5.049   0.564
 7671SOL     OW23911   3.707   1.211   2.271
 7671SOL    HW123912   3.781   1.277   2.258
 7671SOL    HW223913   3.746   1.123   2.299
 7672SOL     OW23914   0.321   5.799   3.177
 7672SOL    HW123915   0.325   5.892   3.216
 7672SOL    HW223916   0.408   5.778   3.132
 7673SOL     OW23917   2.077   6.023   1.829
 7673SOL    HW123918   2.044   6.039   1.923
 7673SOL    HW223919   2.172   5.991   1.832
 7674SOL     OW23920   5.295   1.258   3.973
 7674SOL    HW123921   5.345   1.229   3.892
 7674SOL    HW223922   5.263   1.352   3.961
 7675SOL     OW23923   5.979   6.511   3.041
 7675SOL    HW123924   6.009   6.599   3.003
 7675SOL    HW223925   5.898   6.479   2.992
 7676SOL     OW23926   2.289   2.135   0.353
 7676SOL    HW123927   2.249   2.101   0.268
 7676SOL    HW223928   2.356   2.206   0.332
 7677SOL     OW23929   0.630   4.276   1.819
 7677SOL    HW123930   0.661   4.255   1.726
 7677SOL    HW223931   0.572   4.201   1.851
 7678SOL     OW23932   2.437   2.738   5.203
 7678SOL    HW123933   2.452   2.672   5.130
 7678SOL    HW223934   2.448   2.831   5.167
 7679SOL     OW23935   2.853   6.331   6.027
 7679SOL    HW123936   2.781   6.330   5.957
 7679SOL    HW223937   2.903   6.244   6.023
 7680SOL     OW23938   1.511   0.694   0.926
 7680SOL    HW123939   1.548   0.730   0.840
 7680SOL    HW223940   1.586   0.674   0.988
 7681SOL     OW23941   2.889   0.266   0.567
 7681SOL    HW123942   2.932   0.205   0.501
 7681SOL    HW223943   2.953   0.286   0.642
 7682SOL     OW23944   3.929   6.929   2.116
 7682SOL    HW123945   3.852   6.874   2.151
 7682SOL    HW223946   3.910   6.955   2.022
 7683SOL     OW23947   0.087   1.641   5.335
 7683SOL    HW123948   0.078   1.728   5.384
 7683SOL    HW223949   0.148   1.653   5.257
 7684SOL     OW23950   4.086   1.740   1.042
 7684SOL    HW123951   4.039   1.820   1.008
 7684SOL    HW223952   4.076   1.735   1.142
 7685SOL     OW23953   2.508   1.652   5.797
 7685SOL    HW123954   2.491   1.708   5.716
 7685SOL    HW223955   2.558   1.569   5.771
 7686SOL     OW23956   6.688   6.767   3.351
 7686SOL    HW123957   6.624   6.694   3.327
 7686SOL    HW223958   6.774   6.727   3.384
 7687SOL     OW23959   6.200   5.551   4.755
 7687SOL    HW123960   6.176   5.455   4.742
 7687SOL    HW223961   6.291   5.569   4.716
 7688SOL     OW23962   0.613   5.967   5.976
 7688SOL    HW123963   0.561   6.037   5.927
 7688SOL    HW223964   0.612   5.882   5.925
 7689SOL     OW23965   6.129   6.719   2.644
 7689SOL    HW123966   6.087   6.738   2.733
 7689SOL    HW223967   6.064   6.671   2.586
 7690SOL     OW23968   5.967   5.262   6.923
 7690SOL    HW123969   5.976   5.221   7.014
 7690SOL    HW223970   5.913   5.346   6.930
 7691SOL     OW23971   5.321   3.981   3.132
 7691SOL    HW123972   5.259   3.972   3.209
 7691SOL    HW223973   5.340   3.891   3.093
 7692SOL     OW23974   0.430   6.459   1.861
 7692SOL    HW123975   0.409   6.556   1.873
 7692SOL    HW223976   0.470   6.444   1.771
 7693SOL     OW23977   3.317   0.607   1.836
 7693SOL    HW123978   3.305   0.629   1.932
 7693SOL    HW223979   3.302   0.509   1.822
 7694SOL     OW23980   5.426   3.838   3.659
 7694SOL    HW123981   5.338   3.887   3.662
 7694SOL    HW223982   5.421   3.757   3.718
 7695SOL     OW23983   4.801   0.252   1.438
 7695SOL    HW123984   4.853   0.167   1.446
 7695SOL    HW223985   4.703   0.231   1.437
 7696SOL     OW23986   0.360   1.522   6.019
 7696SOL    HW123987   0.386   1.426   6.005
 7696SOL    HW223988   0.360   1.541   6.117
 7697SOL     OW23989   2.982   6.991   3.749
 7697SOL    HW123990   2.933   6.925   3.805
 7697SOL    HW223991   3.007   0.051   3.804
 7698SOL     OW23992   5.659   1.377   3.755
 7698SOL    HW123993   5.679   1.393   3.658
 7698SOL    HW223994   5.736   1.409   3.810
 7699SOL     OW23995   2.867   5.843   5.530
 7699SOL    HW123996   2.859   5.939   5.555
 7699SOL    HW223997   2.786   5.815   5.478
 7700SOL     OW23998   4.424   5.672   3.365
 7700SOL    HW123999   4.407   5.751   3.306
 7700SOL    HW224000   4.494   5.695   3.432
 7701SOL     OW24001   6.641   2.641   6.704
 7701SOL    HW124002   6.616   2.721   6.759
 7701SOL    HW224003   6.716   2.592   6.748
 7702SOL     OW24004   4.661   6.156   5.230
 7702SOL    HW124005   4.605   6.233   5.201
 7702SOL    HW224006   4.733   6.140   5.163
 7703SOL     OW24007   5.861   6.048   6.435
 7703SOL    HW124008   5.889   6.132   6.389
 7703SOL    HW224009   5.934   5.980   6.426
 7704SOL     OW24010   6.177   0.579   3.600
 7704SOL    HW124011   6.209   0.663   3.644
 7704SOL    HW224012   6.117   0.601   3.524
 7705SOL     OW24013   2.639   5.804   0.841
 7705SOL    HW124014   2.651   5.881   0.904
 7705SOL    HW224015   2.725   5.785   0.795
 7706SOL     OW24016   3.445   3.195   4.382
 7706SOL    HW124017   3.417   3.101   4.398
 7706SOL    HW224018   3.394   3.233   4.305
 7707SOL     OW24019   0.124   3.802   5.985
 7707SOL    HW124020   0.152   3.757   6.070
 7707SOL    HW224021   0.102   3.897   6.003
 7708SOL     OW24022   1.215   6.544   5.527
 7708SOL    HW124023   1.156   6.470   5.495
 7708SOL    HW224024   1.255   6.519   5.615
 7709SOL     OW24025   6.853   4.867   1.812
 7709SOL    HW124026   6.804   4.952   1.792
 7709SOL    HW224027   6.931   4.859   1.750
 7710SOL     OW24028   2.186   2.427   0.248
 7710SOL    HW124029   2.192   2.477   0.162
 7710SOL    HW224030   2.268   2.370   0.259
 7711SOL     OW24031   6.059   5.848   5.988
 7711SOL    HW124032   6.114   5.915   6.039
 7711SOL    HW224033   5.966   5.845   6.024
 7712SOL     OW24034   6.244   5.051   1.004
 7712SOL    HW124035   6.299   5.042   1.086
 7712SOL    HW224036   6.264   5.137   0.958
 7713SOL     OW24037   1.508   4.325   0.815
 7713SOL    HW124038   1.538   4.387   0.742
 7713SOL    HW224039   1.575   4.251   0.824
 7714SOL     OW24040   6.796   4.690   5.872
 7714SOL    HW124041   6.879   4.721   5.918
 7714SOL    HW224042   6.820   4.634   5.793
 7715SOL     OW24043   2.488   2.266   7.008
 7715SOL    HW124044   2.586   2.246   7.010
 7715SOL    HW224045   2.463   2.297   6.917
 7716SOL     OW24046   6.967   4.527   0.689
 7716SOL    HW124047   6.933   4.474   0.767
 7716SOL    HW224048   0.033   4.487   0.656
 7717SOL     OW24049   1.010   1.194   5.513
 7717SOL    HW124050   0.934   1.252   5.485
 7717SOL    HW224051   0.994   1.161   5.606
 7718SOL     OW24052   6.814   3.942   3.029
 7718SOL    HW124053   6.903   3.933   3.074
 7718SOL    HW224054   6.745   3.968   3.096
 7719SOL     OW24055   0.106   4.164   4.840
 7719SOL    HW124056   0.090   4.261   4.861
 7719SOL    HW224057   0.189   4.133   4.887
 7720SOL     OW24058   6.186   2.482   6.439
 7720SOL    HW124059   6.087   2.479   6.422
 7720SOL    HW224060   6.212   2.574   6.468
 7721SOL     OW24061   0.595   5.237   2.209
 7721SOL    HW124062   0.687   5.250   2.247
 7721SOL    HW224063   0.602   5.225   2.110
 7722SOL     OW24064   1.625   4.153   3.854
 7722SOL    HW124065   1.672   4.067   3.834
 7722SOL    HW224066   1.692   4.222   3.882
 7723SOL     OW24067   3.842   3.339   6.867
 7723SOL    HW124068   3.850   3.250   6.822
 7723SOL    HW224069   3.755   3.381   6.843
 7724SOL     OW24070   2.744   3.997   1.030
 7724SOL    HW124071   2.683   3.942   1.087
 7724SOL    HW224072   2.775   3.943   0.952
 7725SOL     OW24073   5.978   1.338   2.473
 7725SOL    HW124074   5.889   1.372   2.441
 7725SOL    HW224075   5.970   1.241   2.496
 7726SOL     OW24076   1.896   4.974   5.959
 7726SOL    HW124077   1.986   4.940   5.932
 7726SOL    HW224078   1.828   4.944   5.893
 7727SOL     OW24079   6.809   2.773   2.192
 7727SOL    HW124080   6.831   2.785   2.096
 7727SOL    HW224081   6.716   2.736   2.201
 7728SOL     OW24082   2.155   2.875   5.150
 7728SOL    HW124083   2.173   2.787   5.193
 7728SOL    HW224084   2.241   2.917   5.121
 7729SOL     OW24085   5.981   1.368   1.444
 7729SOL    HW124086   6.031   1.318   1.373
 7729SOL    HW224087   6.045   1.403   1.511
 7730SOL     OW24088   6.455   4.961   6.007
 7730SOL    HW124089   6.423   5.048   5.969
 7730SOL    HW224090   6.384   4.892   5.995
 7731SOL     OW24091   5.813   0.191   0.136
 7731SOL    HW124092   5.728   0.234   0.104
 7731SOL    HW224093   5.867   0.258   0.187
 7732SOL     OW24094   3.935   0.086   0.524
 7732SOL    HW124095   3.874   0.068   0.446
 7732SOL    HW224096   4.027   0.107   0.490
 7733SOL     OW24097   5.260   6.060   2.215
 7733SOL    HW124098   5.190   6.066   2.286
 7733SOL    HW224099   5.271   6.150   2.171
 7734SOL     OW24100   1.664   4.824   4.483
 7734SOL    HW124101   1.605   4.842   4.562
 7734SOL    HW224102   1.759   4.845   4.507
 7735SOL     OW24103   4.709   6.180   6.392
 7735SOL    HW124104   4.737   6.131   6.309
 7735SOL    HW224105   4.740   6.275   6.386
 7736SOL     OW24106   2.159   3.137   6.983
 7736SOL    HW124107   2.101   3.143   0.044
 7736SOL    HW224108   2.188   3.229   6.955
 7737SOL     OW24109   3.369   0.479   2.678
 7737SOL    HW124110   3.427   0.487   2.759
 7737SOL    HW224111   3.427   0.470   2.596
 7738SOL     OW24112   3.172   5.322   0.297
 7738SOL    HW124113   3.086   5.279   0.269
 7738SOL    HW224114   3.177   5.322   0.397
 7739SOL     OW24115   0.728   2.584   1.780
 7739SOL    HW124116   0.668   2.528   1.838
 7739SOL    HW224117   0.813   2.535   1.763
 7740SOL     OW24118   2.981   0.899   2.987
 7740SOL    HW124119   2.931   0.929   2.906
 7740SOL    HW224120   3.042   0.972   3.018
 7741SOL     OW24121   0.270   4.649   5.041
 7741SOL    HW124122   0.325   4.650   4.957
 7741SOL    HW224123   0.326   4.616   5.117
 7742SOL     OW24124   4.370   2.430   3.036
 7742SOL    HW124125   4.433   2.508   3.031
 7742SOL    HW224126   4.350   2.398   2.944
 7743SOL     OW24127   4.400   1.755   0.036
 7743SOL    HW124128   4.494   1.747   0.070
 7743SOL    HW224129   4.339   1.702   0.096
 7744SOL     OW24130   1.080   0.522   4.147
 7744SOL    HW124131   1.065   0.611   4.103
 7744SOL    HW224132   1.155   0.474   4.102
 7745SOL     OW24133   3.447   1.058   0.019
 7745SOL    HW124134   3.433   1.023   6.946
 7745SOL    HW224135   3.412   0.992   0.086
 7746SOL     OW24136   0.733   0.728   0.431
 7746SOL    HW124137   0.698   0.820   0.450
 7746SOL    HW224138   0.738   0.675   0.516
 7747SOL     OW24139   6.032   6.369   0.979
 7747SOL    HW124140   6.047   6.271   0.966
 7747SOL    HW224141   6.045   6.417   0.892
 7748SOL     OW24142   3.043   3.860   3.956
 7748SOL    HW124143   3.126   3.838   3.905
 7748SOL    HW224144   2.968   3.877   3.892
 7749SOL     OW24145   3.462   3.025   5.191
 7749SOL    HW124146   3.415   2.953   5.241
 7749SOL    HW224147   3.480   3.102   5.252
 7750SOL     OW24148   6.845   5.792   0.201
 7750SOL    HW124149   6.889   5.725   0.141
 7750SOL    HW224150   6.913   5.831   0.264
 7751SOL     OW24151   1.264   2.539   2.536
 7751SOL    HW124152   1.246   2.585   2.448
 7751SOL    HW224153   1.186   2.552   2.597
 7752SOL     OW24154   5.805   6.433   5.679
 7752SOL    HW124155   5.762   6.352   5.640
 7752SOL    HW224156   5.744   6.474   5.747
 7753SOL     OW24157   2.280   0.532   4.122
 7753SOL    HW124158   2.357   0.497   4.068
 7753SOL    HW224159   2.245   0.615   4.078
 7754SOL     OW24160   4.908   6.942   2.120
 7754SOL    HW124161   4.927   7.001   2.042
 7754SOL    HW224162   4.918   6.846   2.092
 7755SOL     OW24163   1.340   2.287   5.887
 7755SOL    HW124164   1.369   2.216   5.823
 7755SOL    HW224165   1.351   2.377   5.844
 7756SOL     OW24166   3.347   5.089   2.442
 7756SOL    HW124167   3.316   5.018   2.504
 7756SOL    HW224168   3.378   5.047   2.356
 7757SOL     OW24169   5.645   5.329   4.811
 7757SOL    HW124170   5.552   5.315   4.845
 7757SOL    HW224171   5.709   5.327   4.887
 7758SOL     OW24172   1.074   1.920   0.246
 7758SOL    HW124173   1.028   1.839   0.209
 7758SOL    HW224174   1.030   1.947   0.332
 7759SOL     OW24175   0.899   1.934   5.465
 7759SOL    HW124176   0.853   1.944   5.377
 7759SOL    HW224177   0.995   1.963   5.455
 7760SOL     OW24178   5.657   3.388   2.839
 7760SOL    HW124179   5.670   3.487   2.847
 7760SOL    HW224180   5.667   3.346   2.930
 7761SOL     OW24181   1.235   6.866   6.080
 7761SOL    HW124182   1.309   6.848   6.145
 7761SOL    HW224183   1.243   6.803   6.003
 7762SOL     OW24184   4.501   0.272   4.243
 7762SOL    HW124185   4.577   0.327   4.209
 7762SOL    HW224186   4.537   0.198   4.301
 7763SOL     OW24187   1.046   1.615   0.218
 7763SOL    HW124188   1.054   1.531   0.165
 7763SOL    HW224189   1.136   1.640   0.254
 7764SOL     OW24190   3.741   2.916   3.300
 7764SOL    HW124191   3.801   2.923   3.380
 7764SOL    HW224192   3.649   2.889   3.330
 7765SOL     OW24193   6.176   2.136   3.830
 7765SOL    HW124194   6.209   2.081   3.753
 7765SOL    HW224195   6.087   2.175   3.807
 7766SOL     OW24196   5.268   2.386   6.780
 7766SOL    HW124197   5.287   2.460   6.715
 7766SOL    HW224198   5.258   2.300   6.730
 7767SOL     OW24199   4.385   6.408   4.052
 7767SOL    HW124200   4.336   6.409   3.965
 7767SOL    HW224201   4.450   6.484   4.055
 7768SOL     OW24202   4.342   4.837   2.484
 7768SOL    HW124203   4.293   4.822   2.570
 7768SOL    HW224204   4.283   4.813   2.407
 7769SOL     OW24205   4.834   3.127   2.491
 7769SOL    HW124206   4.828   3.134   2.391
 7769SOL    HW224207   4.847   3.218   2.530
 7770SOL     OW24208   1.648   4.257   2.007
 7770SOL    HW124209   1.557   4.296   1.997
 7770SOL    HW224210   1.647   4.186   2.078
 7771SOL     OW24211   3.042   2.076   5.126
 7771SOL    HW124212   3.125   2.129   5.107
 7771SOL    HW224213   2.989   2.122   5.197
 7772SOL     OW24214   5.431   0.799   2.618
 7772SOL    HW124215   5.380   0.720   2.652
 7772SOL    HW224216   5.513   0.813   2.675
 7773SOL     OW24217   2.664   5.617   4.507
 7773SOL    HW124218   2.659   5.716   4.492
 7773SOL    HW224219   2.743   5.596   4.565
 7774SOL     OW24220   5.427   1.811   5.954
 7774SOL    HW124221   5.412   1.743   6.027
 7774SOL    HW224222   5.416   1.767   5.865
 7775SOL     OW24223   4.416   6.330   2.142
 7775SOL    HW124224   4.410   6.272   2.223
 7775SOL    HW224225   4.347   6.301   2.076
 7776SOL     OW24226   1.520   5.037   0.515
 7776SOL    HW124227   1.507   4.939   0.530
 7776SOL    HW224228   1.470   5.066   0.434
 7777SOL     OW24229   1.146   0.676   4.712
 7777SOL    HW124230   1.171   0.624   4.794
 7777SOL    HW224231   1.067   0.634   4.669
 7778SOL     OW24232   5.158   4.492   0.621
 7778SOL    HW124233   5.105   4.492   0.536
 7778SOL    HW224234   5.149   4.582   0.665
 7779SOL     OW24235   3.080   2.457   0.993
 7779SOL    HW124236   3.020   2.505   1.057
 7779SOL    HW224237   3.146   2.522   0.954
 7780SOL     OW24238   0.605   5.377   5.503
 7780SOL    HW124239   0.613   5.279   5.518
 7780SOL    HW224240   0.520   5.410   5.543
 7781SOL     OW24241   1.156   4.856   0.499
 7781SOL    HW124242   1.221   4.838   0.574
 7781SOL    HW224243   1.188   4.933   0.445
 7782SOL     OW24244   6.968   4.607   4.675
 7782SOL    HW124245   0.001   4.684   4.640
 7782SOL    HW224246   6.981   4.528   4.615
 7783SOL     OW24247   0.989   5.817   4.459
 7783SOL    HW124248   0.991   5.724   4.423
 7783SOL    HW224249   1.063   5.870   4.416
 7784SOL     OW24250   2.972   3.042   1.375
 7784SOL    HW124251   2.995   2.946   1.357
 7784SOL    HW224252   3.037   3.101   1.328
 7785SOL     OW24253   1.525   6.182   3.860
 7785SOL    HW124254   1.606   6.240   3.870
 7785SOL    HW224255   1.553   6.086   3.853
 7786SOL     OW24256   3.063   6.454   6.717
 7786SOL    HW124257   2.999   6.531   6.717
 7786SOL    HW224258   3.014   6.370   6.695
 7787SOL     OW24259   2.602   2.892   6.311
 7787SOL    HW124260   2.508   2.923   6.296
 7787SOL    HW224261   2.666   2.959   6.274
 7788SOL     OW24262   2.350   5.310   1.627
 7788SOL    HW124263   2.442   5.277   1.644
 7788SOL    HW224264   2.343   5.344   1.533
 7789SOL     OW24265   2.077   6.622   6.473
 7789SOL    HW124266   2.058   6.619   6.571
 7789SOL    HW224267   2.114   6.534   6.443
 7790SOL     OW24268   5.247   5.215   3.345
 7790SOL    HW124269   5.288   5.208   3.436
 7790SOL    HW224270   5.267   5.305   3.307
 7791SOL     OW24271   2.557   6.236   3.808
 7791SOL    HW124272   2.627   6.223   3.738
 7791SOL    HW224273   2.493   6.159   3.805
 7792SOL     OW24274   1.693   4.769   5.228
 7792SOL    HW124275   1.627   4.810   5.291
 7792SOL    HW224276   1.656   4.683   5.193
 7793SOL     OW24277   3.075   0.706   0.060
 7793SOL    HW124278   3.004   0.745   0.001
 7793SOL    HW224279   3.066   0.606   0.061
 7794SOL     OW24280   5.726   4.763   3.139
 7794SOL    HW124281   5.824   4.769   3.160
 7794SOL    HW224282   5.681   4.848   3.164
 7795SOL     OW24283   2.353   3.691   5.514
 7795SOL    HW124284   2.274   3.747   5.537
 7795SOL    HW224285   2.399   3.730   5.434
 7796SOL     OW24286   3.937   3.924   3.434
 7796SOL    HW124287   3.968   3.877   3.516
 7796SOL    HW224288   3.935   4.023   3.451
 7797SOL     OW24289   1.350   6.973   2.874
 7797SOL    HW124290   1.302   7.018   2.950
 7797SOL    HW224291   1.446   7.001   2.874
 7798SOL     OW24292   2.377   4.373   5.621
 7798SOL    HW124293   2.408   4.332   5.535
 7798SOL    HW224294   2.375   4.303   5.692
 7799SOL     OW24295   0.990   6.061   2.310
 7799SOL    HW124296   1.089   6.073   2.301
 7799SOL    HW224297   0.944   6.150   2.302
 7800SOL     OW24298   1.208   5.642   1.127
 7800SOL    HW124299   1.140   5.665   1.057
 7800SOL    HW224300   1.216   5.542   1.135
 7801SOL     OW24301   2.499   1.694   1.859
 7801SOL    HW124302   2.576   1.713   1.919
 7801SOL    HW224303   2.453   1.610   1.890
 7802SOL     OW24304   5.753   2.253   0.804
 7802SOL    HW124305   5.682   2.190   0.771
 7802SOL    HW224306   5.768   2.326   0.738
 7803SOL     OW24307   4.643   1.496   6.276
 7803SOL    HW124308   4.555   1.518   6.235
 7803SOL    HW224309   4.628   1.445   6.361
 7804SOL     OW24310   4.756   2.242   4.256
 7804SOL    HW124311   4.713   2.315   4.309
 7804SOL    HW224312   4.832   2.203   4.309
 7805SOL     OW24313   5.071   2.134   1.067
 7805SOL    HW124314   4.978   2.111   1.095
 7805SOL    HW224315   5.124   2.050   1.058
 7806SOL     OW24316   5.835   1.959   6.502
 7806SOL    HW124317   5.891   1.885   6.465
 7806SOL    HW224318   5.870   2.047   6.471
 7807SOL     OW24319   1.037   4.570   5.217
 7807SOL    HW124320   1.016   4.572   5.120
 7807SOL    HW224321   0.953   4.567   5.270
 7808SOL     OW24322   6.178   2.839   4.132
 7808SOL    HW124323   6.110   2.896   4.087
 7808SOL    HW224324   6.138   2.751   4.156
 7809SOL     OW24325   2.021   5.411   3.964
 7809SOL    HW124326   1.944   5.452   4.012
 7809SOL    HW224327   2.036   5.318   3.999
 7810SOL     OW24328   3.816   0.816   4.544
 7810SOL    HW124329   3.809   0.907   4.586
 7810SOL    HW224330   3.905   0.777   4.563
 7811SOL     OW24331   1.244   5.384   2.743
 7811SOL    HW124332   1.256   5.287   2.764
 7811SOL    HW224333   1.289   5.439   2.814
 7812SOL     OW24334   1.025   1.755   3.982
 7812SOL    HW124335   1.112   1.707   3.972
 7812SOL    HW224336   1.038   1.853   3.965
 7813SOL     OW24337   4.441   2.655   0.038
 7813SOL    HW124338   4.472   2.560   0.041
 7813SOL    HW224339   4.350   2.659   7.017
 7814SOL     OW24340   6.845   3.142   3.101
 7814SOL    HW124341   6.891   3.068   3.052
 7814SOL    HW224342   6.782   3.103   3.168
 7815SOL     OW24343   5.220   0.640   5.431
 7815SOL    HW124344   5.178   0.713   5.486
 7815SOL    HW224345   5.300   0.604   5.479
 7816SOL     OW24346   1.396   2.182   6.296
 7816SOL    HW124347   1.454   2.244   6.348
 7816SOL    HW224348   1.323   2.147   6.356
 7817SOL     OW24349   5.690   5.002   2.951
 7817SOL    HW124350   5.677   5.094   2.990
 7817SOL    HW224351   5.726   4.941   3.021
 7818SOL     OW24352   4.371   0.807   2.474
 7818SOL    HW124353   4.280   0.842   2.500
 7818SOL    HW224354   4.418   0.773   2.556
 7819SOL     OW24355   6.961   3.617   1.982
 7819SOL    HW124356   7.017   3.600   1.900
 7819SOL    HW224357   7.013   3.591   2.063
 7820SOL     OW24358   1.713   2.479   5.535
 7820SOL    HW124359   1.698   2.386   5.504
 7820SOL    HW224360   1.802   2.486   5.580
 7821SOL     OW24361   5.709   6.358   0.404
 7821SOL    HW124362   5.799   6.315   0.410
 7821SOL    HW224363   5.675   6.353   0.311
 7822SOL     OW24364   1.358   1.640   6.084
 7822SOL    HW124365   1.324   1.548   6.063
 7822SOL    HW224366   1.343   1.660   6.180
 7823SOL     OW24367   2.577   3.787   5.300
 7823SOL    HW124368   2.660   3.818   5.346
 7823SOL    HW224369   2.530   3.866   5.260
 7824SOL     OW24370   6.398   0.723   3.893
 7824SOL    HW124371   6.346   0.710   3.977
 7824SOL    HW224372   6.335   0.739   3.816
 7825SOL     OW24373   1.612   2.711   1.407
 7825SOL    HW124374   1.630   2.747   1.498
 7825SOL    HW224375   1.686   2.650   1.380
 7826SOL     OW24376   6.409   1.675   1.267
 7826SOL    HW124377   6.312   1.671   1.243
 7826SOL    HW224378   6.459   1.721   1.193
 7827SOL     OW24379   2.393   5.849   0.987
 7827SOL    HW124380   2.460   5.834   0.914
 7827SOL    HW224381   2.395   5.946   1.014
 7828SOL     OW24382   0.850   4.092   6.434
 7828SOL    HW124383   0.760   4.113   6.398
 7828SOL    HW224384   0.896   4.177   6.461
 7829SOL     OW24385   2.906   4.286   1.271
 7829SOL    HW124386   2.810   4.282   1.297
 7829SOL    HW224387   2.958   4.220   1.325
 7830SOL     OW24388   2.636   4.989   5.344
 7830SOL    HW124389   2.573   4.912   5.349
 7830SOL    HW224390   2.726   4.957   5.316
 7831SOL     OW24391   2.030   6.880   0.922
 7831SOL    HW124392   2.038   6.810   0.850
 7831SOL    HW224393   1.999   6.966   0.882
 7832SOL     OW24394   5.575   0.985   3.256
 7832SOL    HW124395   5.557   1.077   3.221
 7832SOL    HW224396   5.637   0.937   3.194
 7833SOL     OW24397   1.028   1.087   6.525
 7833SOL    HW124398   1.007   1.148   6.448
 7833SOL    HW224399   0.943   1.056   6.566
 7834SOL     OW24400   6.837   1.545   3.735
 7834SOL    HW124401   6.827   1.620   3.671
 7834SOL    HW224402   6.820   1.458   3.688
 7835SOL     OW24403   3.696   1.984   5.626
 7835SOL    HW124404   3.698   2.079   5.656
 7835SOL    HW224405   3.754   1.929   5.687
 7836SOL     OW24406   3.230   2.811   5.116
 7836SOL    HW124407   3.189   2.722   5.136
 7836SOL    HW224408   3.224   2.870   5.197
 7837SOL     OW24409   5.933   5.505   0.027
 7837SOL    HW124410   5.933   5.602   0.051
 7837SOL    HW224411   6.023   5.478   7.014
 7838SOL     OW24412   3.948   0.457   0.501
 7838SOL    HW124413   4.038   0.415   0.511
 7838SOL    HW224414   3.899   0.413   0.425
 7839SOL     OW24415   6.028   4.134   5.020
 7839SOL    HW124416   6.073   4.210   4.973
 7839SOL    HW224417   5.957   4.170   5.081
 7840SOL     OW24418   6.522   2.385   3.693
 7840SOL    HW124419   6.495   2.293   3.663
 7840SOL    HW224420   6.532   2.386   3.792
 7841SOL     OW24421   3.402   1.894   6.171
 7841SOL    HW124422   3.401   1.796   6.189
 7841SOL    HW224423   3.493   1.930   6.190
 7842SOL     OW24424   2.448   1.992   2.652
 7842SOL    HW124425   2.389   1.929   2.703
 7842SOL    HW224426   2.397   2.029   2.574
 7843SOL     OW24427   0.297   6.014   3.355
 7843SOL    HW124428   0.295   6.108   3.390
 7843SOL    HW224429   0.349   5.956   3.418
 7844SOL     OW24430   3.769   7.012   3.133
 7844SOL    HW124431   3.770   7.014   3.033
 7844SOL    HW224432   3.677   6.991   3.165
 7845SOL     OW24433   5.827   2.133   2.761
 7845SOL    HW124434   5.750   2.078   2.792
 7845SOL    HW224435   5.812   2.229   2.786
 7846SOL     OW24436   0.742   1.298   2.367
 7846SOL    HW124437   0.775   1.204   2.380
 7846SOL    HW224438   0.674   1.299   2.293
 7847SOL     OW24439   6.646   1.629   3.255
 7847SOL    HW124440   6.548   1.645   3.248
 7847SOL    HW224441   6.692   1.713   3.283
 7848SOL     OW24442   3.429   3.932   0.397
 7848SOL    HW124443   3.396   3.859   0.337
 7848SOL    HW224444   3.358   4.002   0.407
 7849SOL     OW24445   6.357   4.275   4.111
 7849SOL    HW124446   6.321   4.363   4.142
 7849SOL    HW224447   6.332   4.203   4.176
 7850SOL     OW24448   0.491   1.660   4.585
 7850SOL    HW124449   0.527   1.574   4.548
 7850SOL    HW224450   0.553   1.735   4.559
 7851SOL     OW24451   6.381   1.263   1.748
 7851SOL    HW124452   6.387   1.300   1.656
 7851SOL    HW224453   6.366   1.338   1.813
 7852SOL     OW24454   2.750   1.432   6.235
 7852SOL    HW124455   2.760   1.483   6.320
 7852SOL    HW224456   2.707   1.490   6.166
 7853SOL     OW24457   5.107   2.544   1.867
 7853SOL    HW124458   5.075   2.562   1.960
 7853SOL    HW224459   5.207   2.538   1.866
 7854SOL     OW24460   3.325   3.299   6.666
 7854SOL    HW124461   3.266   3.272   6.742
 7854SOL    HW224462   3.298   3.250   6.583
 7855SOL     OW24463   5.057   6.461   4.747
 7855SOL    HW124464   5.119   6.537   4.727
 7855SOL    HW224465   4.999   6.443   4.668
 7856SOL     OW24466   6.675   5.116   5.093
 7856SOL    HW124467   6.723   5.064   5.163
 7856SOL    HW224468   6.667   5.060   5.010
 7857SOL     OW24469   4.910   2.163   6.636
 7857SOL    HW124470   4.954   2.158   6.725
 7857SOL    HW224471   4.824   2.214   6.643
 7858SOL     OW24472   6.161   6.519   3.654
 7858SOL    HW124473   6.187   6.451   3.723
 7858SOL    HW224474   6.075   6.492   3.612
 7859SOL     OW24475   3.959   2.645   6.559
 7859SOL    HW124476   3.907   2.644   6.644
 7859SOL    HW224477   3.910   2.701   6.491
 7860SOL     OW24478   3.617   0.910   3.156
 7860SOL    HW124479   3.644   0.888   3.062
 7860SOL    HW224480   3.518   0.894   3.167
 7861SOL     OW24481   3.641   4.854   1.681
 7861SOL    HW124482   3.630   4.802   1.766
 7861SOL    HW224483   3.580   4.816   1.611
 7862SOL     OW24484   1.914   4.566   1.911
 7862SOL    HW124485   1.937   4.485   1.964
 7862SOL    HW224486   1.997   4.603   1.868
 7863SOL     OW24487   0.412   4.535   4.508
 7863SOL    HW124488   0.418   4.435   4.506
 7863SOL    HW224489   0.329   4.564   4.459
 7864SOL     OW24490   0.558   5.651   5.087
 7864SOL    HW124491   0.502   5.626   5.166
 7864SOL    HW224492   0.649   5.610   5.095
 7865SOL     OW24493   6.473   6.363   3.683
 7865SOL    HW124494   6.448   6.327   3.593
 7865SOL    HW224495   6.404   6.337   3.750
 7866SOL     OW24496   1.332   1.365   5.955
 7866SOL    HW124497   1.374   1.357   5.864
 7866SOL    HW224498   1.237   1.395   5.944
 7867SOL     OW24499   6.195   6.042   3.727
 7867SOL    HW124500   6.222   5.970   3.790
 7867SOL    HW224501   6.098   6.033   3.706
 7868SOL     OW24502   4.764   6.059   1.389
 7868SOL    HW124503   4.862   6.051   1.405
 7868SOL    HW224504   4.714   6.023   1.468
 7869SOL     OW24505   5.592   3.669   6.946
 7869SOL    HW124506   5.552   3.735   6.883
 7869SOL    HW224507   5.597   3.580   6.901
 7870SOL     OW24508   4.479   4.912   3.886
 7870SOL    HW124509   4.470   4.989   3.823
 7870SOL    HW224510   4.402   4.850   3.875
 7871SOL     OW24511   4.764   1.778   2.325
 7871SOL    HW124512   4.770   1.685   2.288
 7871SOL    HW224513   4.770   1.844   2.250
 7872SOL     OW24514   1.804   3.532   3.210
 7872SOL    HW124515   1.827   3.561   3.303
 7872SOL    HW224516   1.799   3.432   3.207
 7873SOL     OW24517   5.833   6.682   6.406
 7873SOL    HW124518   5.742   6.641   6.402
 7873SOL    HW224519   5.901   6.610   6.419
 7874SOL     OW24520   5.235   2.026   6.972
 7874SOL    HW124521   5.249   1.948   0.014
 7874SOL    HW224522   5.264   2.001   6.880
 7875SOL     OW24523   4.232   2.771   6.598
 7875SOL    HW124524   4.150   2.714   6.604
 7875SOL    HW224525   4.247   2.818   6.685
 7876SOL     OW24526   1.300   6.994   4.232
 7876SOL    HW124527   1.389   0.012   4.210
 7876SOL    HW224528   1.312   6.911   4.287
 7877SOL     OW24529   0.979   1.886   2.620
 7877SOL    HW124530   0.946   1.911   2.529
 7877SOL    HW224531   0.957   1.791   2.639
 7878SOL     OW24532   5.207   4.478   4.864
 7878SOL    HW124533   5.215   4.552   4.930
 7878SOL    HW224534   5.111   4.453   4.853
 7879SOL     OW24535   4.115   5.417   3.691
 7879SOL    HW124536   4.170   5.398   3.773
 7879SOL    HW224537   4.176   5.433   3.613
 7880SOL     OW24538   1.847   5.336   0.886
 7880SOL    HW124539   1.825   5.250   0.840
 7880SOL    HW224540   1.926   5.379   0.843
 7881SOL     OW24541   6.550   5.021   4.854
 7881SOL    HW124542   6.506   4.942   4.897
 7881SOL    HW224543   6.557   5.007   4.756
 7882SOL     OW24544   1.379   3.073   2.142
 7882SOL    HW124545   1.297   3.017   2.146
 7882SOL    HW224546   1.375   3.133   2.062
 7883SOL     OW24547   1.135   0.481   0.547
 7883SOL    HW124548   1.135   0.575   0.581
 7883SOL    HW224549   1.054   0.466   0.492
 7884SOL     OW24550   2.146   3.845   4.634
 7884SOL    HW124551   2.127   3.856   4.537
 7884SOL    HW224552   2.102   3.762   4.667
 7885SOL     OW24553   6.208   5.263   1.372
 7885SOL    HW124554   6.279   5.227   1.432
 7885SOL    HW224555   6.119   5.227   1.400
 7886SOL     OW24556   3.441   5.430   6.942
 7886SOL    HW124557   3.449   5.330   6.934
 7886SOL    HW224558   3.360   5.453   6.996
 7887SOL     OW24559   3.620   2.302   5.620
 7887SOL    HW124560   3.704   2.311   5.674
 7887SOL    HW224561   3.643   2.305   5.523
 7888SOL     OW24562   6.588   6.866   5.458
 7888SOL    HW124563   6.638   6.836   5.377
 7888SOL    HW224564   6.510   6.805   5.474
 7889SOL     OW24565   1.782   5.006   1.059
 7889SOL    HW124566   1.756   5.099   1.081
 7889SOL    HW224567   1.713   4.964   1.000
 7890SOL     OW24568   1.912   2.553   2.743
 7890SOL    HW124569   1.890   2.630   2.802
 7890SOL    HW224570   1.874   2.568   2.652
 7891SOL     OW24571   1.836   3.430   3.773
 7891SOL    HW124572   1.785   3.368   3.833
 7891SOL    HW224573   1.798   3.522   3.781
 7892SOL     OW24574   1.778   0.730   3.840
 7892SOL    HW124575   1.725   0.654   3.802
 7892SOL    HW224576   1.859   0.745   3.784
 7893SOL     OW24577   6.885   6.067   2.744
 7893SOL    HW124578   6.880   6.080   2.645
 7893SOL    HW224579   6.979   6.041   2.769
 7894SOL     OW24580   3.324   6.850   0.790
 7894SOL    HW124581   3.414   6.819   0.759
 7894SOL    HW224582   3.334   6.900   0.876
 7895SOL     OW24583   6.404   0.610   5.454
 7895SOL    HW124584   6.456   0.527   5.432
 7895SOL    HW224585   6.462   0.673   5.506
 7896SOL     OW24586   5.048   4.163   0.435
 7896SOL    HW124587   5.148   4.166   0.429
 7896SOL    HW224588   5.009   4.140   0.346
 7897SOL     OW24589   2.533   4.224   0.089
 7897SOL    HW124590   2.584   4.139   0.081
 7897SOL    HW224591   2.502   4.254   7.019
 7898SOL     OW24592   4.655   2.094   3.469
 7898SOL    HW124593   4.651   1.997   3.491
 7898SOL    HW224594   4.693   2.106   3.377
 7899SOL     OW24595   5.489   0.910   1.316
 7899SOL    HW124596   5.514   0.879   1.407
 7899SOL    HW224597   5.509   1.008   1.307
 7900SOL     OW24598   1.576   5.026   1.566
 7900SOL    HW124599   1.589   5.125   1.567
 7900SOL    HW224600   1.644   4.983   1.625
 7901SOL     OW24601   4.791   1.424   6.616
 7901SOL    HW124602   4.763   1.409   6.711
 7901SOL    HW224603   4.712   1.413   6.556
 7902SOL     OW24604   5.367   6.621   1.048
 7902SOL    HW124605   5.318   6.539   1.021
 7902SOL    HW224606   5.322   6.663   1.126
 7903SOL     OW24607   5.593   1.519   0.768
 7903SOL    HW124608   5.570   1.422   0.780
 7903SOL    HW224609   5.510   1.569   0.743
 7904SOL     OW24610   5.606   6.527   3.664
 7904SOL    HW124611   5.669   6.602   3.686
 7904SOL    HW224612   5.624   6.450   3.725
 7905SOL     OW24613   4.430   2.374   0.076
 7905SOL    HW124614   4.504   2.388   0.142
 7905SOL    HW224615   4.344   2.358   0.125
 7906SOL     OW24616   6.807   5.799   0.611
 7906SOL    HW124617   6.903   5.823   0.621
 7906SOL    HW224618   6.757   5.876   0.571
 7907SOL     OW24619   5.387   2.763   3.260
 7907SOL    HW124620   5.412   2.860   3.255
 7907SOL    HW224621   5.289   2.753   3.243
 7908SOL     OW24622   0.659   2.003   5.577
 7908SOL    HW124623   0.608   1.982   5.494
 7908SOL    HW224624   0.754   2.023   5.555
 7909SOL     OW24625   5.331   3.586   4.713
 7909SOL    HW124626   5.378   3.641   4.781
 7909SOL    HW224627   5.367   3.492   4.716
 7910SOL     OW24628   2.658   3.561   5.956
 7910SOL    HW124629   2.741   3.583   5.904
 7910SOL    HW224630   2.585   3.537   5.892
 7911SOL     OW24631   1.430   3.035   6.997
 7911SOL    HW124632   1.471   3.125   6.983
 7911SOL    HW224633   1.405   2.995   6.908
 7912SOL     OW24634   6.650   4.779   0.063
 7912SOL    HW124635   6.650   4.855   0.128
 7912SOL    HW224636   6.604   4.807   6.999
 7913SOL     OW24637   1.956   4.798   1.064
 7913SOL    HW124638   1.971   4.768   0.970
 7913SOL    HW224639   1.899   4.880   1.065
 7914SOL     OW24640   0.013   3.979   0.227
 7914SOL    HW124641   0.094   4.036   0.212
 7914SOL    HW224642   7.015   3.924   0.146
 7915SOL     OW24643   4.938   3.136   2.196
 7915SOL    HW124644   5.022   3.089   2.169
 7915SOL    HW224645   4.865   3.113   2.132
 7916SOL     OW24646   0.691   4.035   5.168
 7916SOL    HW124647   0.626   4.083   5.109
 7916SOL    HW224648   0.757   4.101   5.205
 7917SOL     OW24649   3.576   4.169   4.547
 7917SOL    HW124650   3.638   4.181   4.625
 7917SOL    HW224651   3.489   4.133   4.579
 7918SOL     OW24652   6.755   1.757   6.475
 7918SOL    HW124653   6.841   1.780   6.520
 7918SOL    HW224654   6.763   1.775   6.377
 7919SOL     OW24655   2.272   4.305   2.132
 7919SOL    HW124656   2.220   4.226   2.098
 7919SOL    HW224657   2.231   4.337   2.217
 7920SOL     OW24658   0.456   5.550   0.793
 7920SOL    HW124659   0.475   5.625   0.856
 7920SOL    HW224660   0.457   5.584   0.699
 7921SOL     OW24661   4.949   6.476   0.907
 7921SOL    HW124662   5.012   6.526   0.848
 7921SOL    HW224663   4.887   6.421   0.851
 7922SOL     OW24664   6.706   6.428   0.031
 7922SOL    HW124665   6.683   6.520   0.064
 7922SOL    HW224666   6.748   6.435   6.961
 7923SOL     OW24667   3.276   0.635   2.094
 7923SOL    HW124668   3.204   0.569   2.116
 7923SOL    HW224669   3.350   0.627   2.160
 7924SOL     OW24670   4.207   7.002   1.896
 7924SOL    HW124671   4.193   6.916   1.846
 7924SOL    HW224672   4.134   0.046   1.873
 7925SOL     OW24673   0.773   1.854   6.413
 7925SOL    HW124674   0.842   1.902   6.466
 7925SOL    HW224675   0.792   1.865   6.315
 7926SOL     OW24676   5.139   1.767   5.151
 7926SOL    HW124677   5.168   1.809   5.237
 7926SOL    HW224678   5.213   1.775   5.084
 7927SOL     OW24679   4.032   4.798   3.846
 7927SOL    HW124680   4.110   4.830   3.791
 7927SOL    HW224681   3.956   4.774   3.785
 7928SOL     OW24682   1.107   2.031   4.706
 7928SOL    HW124683   1.033   2.093   4.679
 7928SOL    HW224684   1.132   1.973   4.628
 7929SOL     OW24685   4.179   4.191   5.755
 7929SOL    HW124686   4.125   4.258   5.807
 7929SOL    HW224687   4.245   4.148   5.816
 7930SOL     OW24688   4.093   5.277   4.129
 7930SOL    HW124689   4.051   5.261   4.040
 7930SOL    HW224690   4.067   5.205   4.192
 7931SOL     OW24691   1.309   1.897   5.965
 7931SOL    HW124692   1.388   1.931   6.016
 7931SOL    HW224693   1.280   1.809   6.004
 7932SOL     OW24694   2.026   5.869   6.372
 7932SOL    HW124695   2.062   5.893   6.282
 7932SOL    HW224696   1.938   5.822   6.361
 7933SOL     OW24697   0.195   5.689   6.564
 7933SOL    HW124698   0.213   5.720   6.657
 7933SOL    HW224699   0.160   5.765   6.509
 7934SOL     OW24700   2.553   4.751   0.237
 7934SOL    HW124701   2.620   4.725   0.169
 7934SOL    HW224702   2.574   4.842   0.273
 7935SOL     OW24703   5.443   6.329   0.176
 7935SOL    HW124704   5.430   6.364   0.083
 7935SOL    HW224705   5.356   6.334   0.226
 7936SOL     OW24706   3.982   6.213   2.298
 7936SOL    HW124707   4.009   6.255   2.211
 7936SOL    HW224708   3.985   6.113   2.288
 7937SOL     OW24709   6.532   6.930   3.886
 7937SOL    HW124710   6.439   6.945   3.920
 7937SOL    HW224711   6.556   6.833   3.892
 7938SOL     OW24712   6.249   5.368   4.988
 7938SOL    HW124713   6.349   5.358   4.984
 7938SOL    HW224714   6.207   5.303   4.924
 7939SOL     OW24715   1.167   2.571   5.170
 7939SOL    HW124716   1.167   2.601   5.266
 7939SOL    HW224717   1.260   2.542   5.145
 7940SOL     OW24718   2.048   4.073   2.119
 7940SOL    HW124719   2.121   4.023   2.166
 7940SOL    HW224720   2.003   4.012   2.054
 7941SOL     OW24721   6.347   0.402   0.551
 7941SOL    HW124722   6.349   0.499   0.574
 7941SOL    HW224723   6.358   0.348   0.635
 7942SOL     OW24724   6.661   5.517   2.629
 7942SOL    HW124725   6.698   5.591   2.685
 7942SOL    HW224726   6.563   5.506   2.648
 7943SOL     OW24727   5.818   2.967   0.182
 7943SOL    HW124728   5.800   3.065   0.190
 7943SOL    HW224729   5.778   2.933   0.097
 7944SOL     OW24730   0.877   2.681   1.556
 7944SOL    HW124731   0.857   2.741   1.478
 7944SOL    HW224732   0.799   2.679   1.618
 7945SOL     OW24733   5.705   6.114   1.766
 7945SOL    HW124734   5.759   6.167   1.701
 7945SOL    HW224735   5.719   6.016   1.750
 7946SOL     OW24736   2.529   1.779   5.377
 7946SOL    HW124737   2.505   1.756   5.283
 7946SOL    HW224738   2.509   1.876   5.394
 7947SOL     OW24739   3.577   2.113   6.334
 7947SOL    HW124740   3.551   2.201   6.374
 7947SOL    HW224741   3.659   2.079   6.380
 7948SOL     OW24742   1.226   6.210   0.583
 7948SOL    HW124743   1.144   6.252   0.545
 7948SOL    HW224744   1.243   6.247   0.675
 7949SOL     OW24745   4.817   4.481   4.470
 7949SOL    HW124746   4.791   4.558   4.529
 7949SOL    HW224747   4.884   4.423   4.517
 7950SOL     OW24748   6.153   5.002   4.921
 7950SOL    HW124749   6.152   5.025   4.824
 7950SOL    HW224750   6.083   5.056   4.969
 7951SOL     OW24751   2.216   4.288   1.459
 7951SOL    HW124752   2.291   4.236   1.500
 7951SOL    HW224753   2.132   4.273   1.511
 7952SOL     OW24754   0.811   3.370   6.722
 7952SOL    HW124755   0.721   3.335   6.698
 7952SOL    HW224756   0.873   3.361   6.644
 7953SOL     OW24757   1.943   2.670   3.528
 7953SOL    HW124758   1.847   2.643   3.543
 7953SOL    HW224759   1.947   2.769   3.513
 7954SOL     OW24760   4.739   4.146   4.942
 7954SOL    HW124761   4.715   4.144   4.845
 7954SOL    HW224762   4.833   4.178   4.952
 7955SOL     OW24763   1.267   6.087   6.758
 7955SOL    HW124764   1.212   6.169   6.748
 7955SOL    HW224765   1.312   6.065   6.672
 7956SOL     OW24766   3.510   5.917   2.562
 7956SOL    HW124767   3.519   5.825   2.523
 7956SOL    HW224768   3.593   5.969   2.542
 7957SOL     OW24769   1.081   0.862   1.576
 7957SOL    HW124770   1.142   0.925   1.623
 7957SOL    HW224771   0.988   0.899   1.577
 7958SOL     OW24772   3.357   4.989   4.241
 7958SOL    HW124773   3.452   4.979   4.209
 7958SOL    HW224774   3.301   5.025   4.167
 7959SOL     OW24775   3.896   5.696   0.927
 7959SOL    HW124776   3.836   5.621   0.899
 7959SOL    HW224777   3.840   5.771   0.963
 7960SOL     OW24778   3.513   1.434   0.639
 7960SOL    HW124779   3.537   1.372   0.564
 7960SOL    HW224780   3.433   1.399   0.688
 7961SOL     OW24781   0.652   6.976   1.371
 7961SOL    HW124782   0.639   6.910   1.445
 7961SOL    HW224783   0.610   6.941   1.287
 7962SOL     OW24784   1.746   0.052   6.963
 7962SOL    HW124785   1.730   0.066   6.865
 7962SOL    HW224786   1.659   0.037   7.009
 7963SOL     OW24787   6.975   1.194   3.664
 7963SOL    HW124788   0.024   1.263   3.643
 7963SOL    HW224789   6.997   1.109   3.616
 7964SOL     OW24790   0.379   4.965   3.804
 7964SOL    HW124791   0.358   5.040   3.741
 7964SOL    HW224792   0.398   5.002   3.895
 7965SOL     OW24793   3.599   2.976   6.653
 7965SOL    HW124794   3.689   3.018   6.667
 7965SOL    HW224795   3.571   2.987   6.558
 7966SOL     OW24796   0.640   3.010   5.466
 7966SOL    HW124797   0.553   2.988   5.423
 7966SOL    HW224798   0.640   3.106   5.495
 7967SOL     OW24799   2.720   5.904   4.133
 7967SOL    HW124800   2.753   5.859   4.216
 7967SOL    HW224801   2.692   5.997   4.155
 7968SOL     OW24802   2.496   2.330   3.030
 7968SOL    HW124803   2.569   2.330   2.961
 7968SOL    HW224804   2.522   2.271   3.106
 7969SOL     OW24805   4.354   6.494   1.156
 7969SOL    HW124806   4.339   6.501   1.255
 7969SOL    HW224807   4.271   6.520   1.108
 7970SOL     OW24808   0.585   2.911   3.375
 7970SOL    HW124809   0.575   2.814   3.355
 7970SOL    HW224810   0.682   2.935   3.379
 7971SOL     OW24811   4.314   1.387   0.877
 7971SOL    HW124812   4.345   1.430   0.962
 7971SOL    HW224813   4.310   1.288   0.889
 7972SOL     OW24814   1.573   3.488   1.418
 7972SOL    HW124815   1.523   3.536   1.346
 7972SOL    HW224816   1.669   3.480   1.390
 7973SOL     OW24817   5.367   4.251   3.614
 7973SOL    HW124818   5.463   4.224   3.621
 7973SOL    HW224819   5.331   4.268   3.706
 7974SOL     OW24820   5.842   1.248   5.380
 7974SOL    HW124821   5.752   1.286   5.359
 7974SOL    HW224822   5.895   1.315   5.431
 7975SOL     OW24823   5.719   0.726   2.819
 7975SOL    HW124824   5.781   0.693   2.891
 7975SOL    HW224825   5.625   0.702   2.844
 7976SOL     OW24826   0.629   0.496   6.462
 7976SOL    HW124827   0.585   0.420   6.510
 7976SOL    HW224828   0.616   0.580   6.515
 7977SOL     OW24829   4.895   5.716   1.537
 7977SOL    HW124830   4.818   5.779   1.547
 7977SOL    HW224831   4.889   5.645   1.607
 7978SOL     OW24832   5.529   3.823   5.885
 7978SOL    HW124833   5.445   3.771   5.898
 7978SOL    HW224834   5.603   3.779   5.936
 7979SOL     OW24835   3.277   6.991   5.471
 7979SOL    HW124836   3.273   6.932   5.390
 7979SOL    HW224837   3.212   6.958   5.539
 7980SOL     OW24838   2.767   5.570   6.851
 7980SOL    HW124839   2.757   5.664   6.884
 7980SOL    HW224840   2.734   5.565   6.756
 7981SOL     OW24841   0.571   5.396   1.746
 7981SOL    HW124842   0.478   5.362   1.760
 7981SOL    HW224843   0.577   5.491   1.775
 7982SOL     OW24844   0.187   1.810   0.389
 7982SOL    HW124845   0.228   1.795   0.299
 7982SOL    HW224846   0.213   1.735   0.450
 7983SOL     OW24847   5.524   1.532   2.216
 7983SOL    HW124848   5.515   1.452   2.157
 7983SOL    HW224849   5.460   1.603   2.186
 7984SOL     OW24850   1.479   1.998   1.708
 7984SOL    HW124851   1.575   1.984   1.732
 7984SOL    HW224852   1.464   1.971   1.613
 7985SOL     OW24853   2.418   6.586   3.998
 7985SOL    HW124854   2.399   6.551   3.906
 7985SOL    HW224855   2.344   6.557   4.060
 7986SOL     OW24856   3.204   0.707   6.665
 7986SOL    HW124857   3.255   0.785   6.704
 7986SOL    HW224858   3.162   0.735   6.579
 7987SOL     OW24859   1.498   3.786   0.078
 7987SOL    HW124860   1.513   3.835   0.164
 7987SOL    HW224861   1.466   3.693   0.099
 7988SOL     OW24862   1.595   2.221   3.635
 7988SOL    HW124863   1.544   2.300   3.670
 7988SOL    HW224864   1.537   2.169   3.572
 7989SOL     OW24865   3.591   2.585   5.611
 7989SOL    HW124866   3.608   2.488   5.626
 7989SOL    HW224867   3.493   2.600   5.596
 7990SOL     OW24868   6.818   3.337   3.345
 7990SOL    HW124869   6.732   3.367   3.303
 7990SOL    HW224870   6.870   3.284   3.279
 7991SOL     OW24871   6.658   0.366   3.918
 7991SOL    HW124872   6.596   0.357   3.996
 7991SOL    HW224873   6.605   0.379   3.834
 7992SOL     OW24874   1.195   6.716   1.269
 7992SOL    HW124875   1.232   6.696   1.178
 7992SOL    HW224876   1.202   6.814   1.288
 7993SOL     OW24877   1.352   5.703   6.462
 7993SOL    HW124878   1.402   5.692   6.377
 7993SOL    HW224879   1.296   5.622   6.479
 7994SOL     OW24880   5.162   0.129   2.810
 7994SOL    HW124881   5.075   0.082   2.794
 7994SOL    HW224882   5.161   0.174   2.899
 7995SOL     OW24883   4.382   4.982   3.274
 7995SOL    HW124884   4.473   5.020   3.257
 7995SOL    HW224885   4.324   4.998   3.195
 7996SOL     OW24886   2.729   0.304   4.538
 7996SOL    HW124887   2.771   0.251   4.464
 7996SOL    HW224888   2.774   0.393   4.545
 7997SOL     OW24889   0.493   1.073   1.380
 7997SOL    HW124890   0.447   0.991   1.416
 7997SOL    HW224891   0.591   1.064   1.394
 7998SOL     OW24892   3.602   5.259   0.956
 7998SOL    HW124893   3.681   5.206   0.986
 7998SOL    HW224894   3.557   5.213   0.880
 7999SOL     OW24895   1.384   6.708   6.333
 7999SOL    HW124896   1.459   6.773   6.344
 7999SOL    HW224897   1.419   6.626   6.288
 8000SOL     OW24898   5.199   6.803   0.181
 8000SOL    HW124899   5.274   6.770   0.239
 8000SOL    HW224900   5.214   6.772   0.087
 8001SOL     OW24901   3.513   5.737   0.810
 8001SOL    HW124902   3.427   5.777   0.779
 8001SOL    HW224903   3.573   5.810   0.843
 8002SOL     OW24904   1.030   2.526   5.656
 8002SOL    HW124905   1.075   2.575   5.581
 8002SOL    HW224906   0.977   2.451   5.619
 8003SOL     OW24907   2.938   4.850   2.656
 8003SOL    HW124908   2.896   4.804   2.578
 8003SOL    HW224909   2.871   4.856   2.730
 8004SOL     OW24910   2.097   3.589   3.758
 8004SOL    HW124911   2.024   3.520   3.758
 8004SOL    HW224912   2.122   3.611   3.664
 8005SOL     OW24913   3.454   0.830   2.670
 8005SOL    HW124914   3.464   0.929   2.659
 8005SOL    HW224915   3.399   0.812   2.752
 8006SOL     OW24916   2.229   0.051   6.740
 8006SOL    HW124917   2.229   0.035   6.642
 8006SOL    HW224918   2.323   0.046   6.775
 8007SOL     OW24919   0.293   0.957   4.040
 8007SOL    HW124920   0.365   1.000   4.094
 8007SOL    HW224921   0.288   1.001   3.950
 8008SOL     OW24922   4.373   6.116   5.838
 8008SOL    HW124923   4.392   6.133   5.934
 8008SOL    HW224924   4.275   6.127   5.820
 8009SOL     OW24925   6.046   0.868   2.583
 8009SOL    HW124926   5.990   0.789   2.557
 8009SOL    HW224927   6.091   0.905   2.502
 8010SOL     OW24928   1.009   1.515   0.576
 8010SOL    HW124929   0.930   1.454   0.570
 8010SOL    HW224930   1.008   1.580   0.500
 8011SOL     OW24931   3.317   2.642   0.986
 8011SOL    HW124932   3.355   2.616   1.075
 8011SOL    HW224933   3.371   2.601   0.913
 8012SOL     OW24934   1.870   5.496   1.586
 8012SOL    HW124935   1.787   5.551   1.584
 8012SOL    HW224936   1.854   5.408   1.542
 8013SOL     OW24937   1.528   4.399   3.311
 8013SOL    HW124938   1.444   4.383   3.260
 8013SOL    HW224939   1.519   4.361   3.403
 8014SOL     OW24940   0.993   6.275   5.101
 8014SOL    HW124941   0.938   6.353   5.074
 8014SOL    HW224942   0.946   6.223   5.173
 8015SOL     OW24943   2.677   0.974   0.201
 8015SOL    HW124944   2.583   1.007   0.200
 8015SOL    HW224945   2.738   1.044   0.238
 8016SOL     OW24946   4.626   0.144   6.714
 8016SOL    HW124947   4.669   0.128   6.803
 8016SOL    HW224948   4.527   0.146   6.726
 8017SOL     OW24949   6.818   6.598   0.374
 8017SOL    HW124950   6.903   6.635   0.336
 8017SOL    HW224951   6.776   6.667   0.433
 8018SOL     OW24952   3.161   2.152   5.936
 8018SOL    HW124953   3.223   2.227   5.914
 8018SOL    HW224954   3.105   2.131   5.856
 8019SOL     OW24955   2.153   3.872   6.329
 8019SOL    HW124956   2.104   3.807   6.271
 8019SOL    HW224957   2.200   3.939   6.271
 8020SOL     OW24958   6.049   6.106   0.924
 8020SOL    HW124959   6.125   6.120   0.861
 8020SOL    HW224960   5.968   6.078   0.872
 8021SOL     OW24961   1.369   1.699   1.962
 8021SOL    HW124962   1.390   1.675   1.867
 8021SOL    HW224963   1.337   1.793   1.966
 8022SOL     OW24964   4.600   0.171   3.009
 8022SOL    HW124965   4.532   0.105   3.040
 8022SOL    HW224966   4.566   0.263   3.023
 8023SOL     OW24967   6.034   5.181   3.509
 8023SOL    HW124968   5.935   5.176   3.525
 8023SOL    HW224969   6.068   5.089   3.488
 8024SOL     OW24970   2.860   5.329   0.145
 8024SOL    HW124971   2.838   5.235   0.172
 8024SOL    HW224972   2.891   5.331   0.050
 8025SOL     OW24973   2.337   6.280   6.269
 8025SOL    HW124974   2.316   6.265   6.173
 8025SOL    HW224975   2.342   6.191   6.316
 8026SOL     OW24976   0.994   4.340   6.500
 8026SOL    HW124977   0.973   4.325   6.596
 8026SOL    HW224978   1.005   4.438   6.483
 8027SOL     OW24979   4.399   1.907   5.313
 8027SOL    HW124980   4.462   1.832   5.331
 8027SOL    HW224981   4.371   1.905   5.217
 8028SOL     OW24982   3.037   5.069   4.608
 8028SOL    HW124983   3.057   5.006   4.534
 8028SOL    HW224984   2.963   5.033   4.664
 8029SOL     OW24985   4.821   2.922   0.836
 8029SOL    HW124986   4.856   2.840   0.880
 8029SOL    HW224987   4.735   2.902   0.790
 8030SOL     OW24988   4.501   4.264   6.810
 8030SOL    HW124989   4.462   4.229   6.725
 8030SOL    HW224990   4.454   4.223   6.888
 8031SOL     OW24991   5.183   6.293   2.972
 8031SOL    HW124992   5.210   6.265   2.880
 8031SOL    HW224993   5.262   6.331   3.020
 8032SOL     OW24994   5.386   4.133   5.864
 8032SOL    HW124995   5.484   4.144   5.879
 8032SOL    HW224996   5.354   4.202   5.799
 8033SOL     OW24997   5.055   3.683   6.422
 8033SOL    HW124998   4.976   3.743   6.442
 8033SOL    HW224999   5.023   3.589   6.413
 8034SOL     OW25000   6.455   0.805   4.766
 8034SOL    HW125001   6.482   0.731   4.827
 8034SOL    HW225002   6.534   0.864   4.748
 8035SOL     OW25003   5.052   1.743   4.562
 8035SOL    HW125004   5.025   1.825   4.613
 8035SOL    HW225005   5.118   1.690   4.615
 8036SOL     OW25006   0.620   4.507   2.821
 8036SOL    HW125007   0.569   4.420   2.822
 8036SOL    HW225008   0.572   4.574   2.877
 8037SOL     OW25009   2.130   2.873   1.646
 8037SOL    HW125010   2.127   2.955   1.703
 8037SOL    HW225011   2.077   2.888   1.562
 8038SOL     OW25012   4.829   0.629   3.272
 8038SOL    HW125013   4.814   0.624   3.174
 8038SOL    HW225014   4.812   0.722   3.304
 8039SOL     OW25015   0.752   1.158   4.351
 8039SOL    HW125016   0.792   1.188   4.265
 8039SOL    HW225017   0.824   1.124   4.412
 8040SOL     OW25018   1.597   6.054   0.384
 8040SOL    HW125019   1.657   6.086   0.311
 8040SOL    HW225020   1.506   6.094   0.373
 8041SOL     OW25021   3.099   1.808   1.976
 8041SOL    HW125022   3.046   1.887   1.946
 8041SOL    HW225023   3.146   1.768   1.898
 8042SOL     OW25024   3.544   2.968   4.099
 8042SOL    HW125025   3.607   2.967   4.022
 8042SOL    HW225026   3.594   2.986   4.183
 8043SOL     OW25027   3.934   0.114   2.310
 8043SOL    HW125028   4.019   0.148   2.349
 8043SOL    HW225029   3.953   0.039   2.246
 8044SOL     OW25030   3.681   2.979   0.593
 8044SOL    HW125031   3.756   3.035   0.556
 8044SOL    HW225032   3.610   2.969   0.524
 8045SOL     OW25033   5.260   0.790   1.254
 8045SOL    HW125034   5.241   0.735   1.336
 8045SOL    HW225035   5.339   0.848   1.272
 8046SOL     OW25036   6.624   5.237   0.337
 8046SOL    HW125037   6.632   5.250   0.435
 8046SOL    HW225038   6.684   5.301   0.289
 8047SOL     OW25039   3.624   5.282   4.562
 8047SOL    HW125040   3.669   5.355   4.511
 8047SOL    HW225041   3.526   5.301   4.569
 8048SOL     OW25042   5.618   0.173   6.091
 8048SOL    HW125043   5.574   0.201   6.005
 8048SOL    HW225044   5.655   0.254   6.136
 8049SOL     OW25045   1.029   0.219   0.663
 8049SOL    HW125046   1.050   0.315   0.646
 8049SOL    HW225047   1.007   0.174   0.577
 8050SOL     OW25048   1.533   3.835   2.637
 8050SOL    HW125049   1.624   3.793   2.636
 8050SOL    HW225050   1.466   3.767   2.669
 8051SOL     OW25051   4.999   5.738   2.994
 8051SOL    HW125052   5.077   5.777   3.043
 8051SOL    HW225053   4.924   5.805   2.992
 8052SOL     OW25054   4.619   1.321   2.085
 8052SOL    HW125055   4.691   1.275   2.034
 8052SOL    HW225056   4.659   1.392   2.142
 8053SOL     OW25057   3.067   3.990   3.680
 8053SOL    HW125058   3.096   3.985   3.584
 8053SOL    HW225059   3.060   4.086   3.708
 8054SOL     OW25060   5.159   0.342   4.671
 8054SOL    HW125061   5.253   0.372   4.683
 8054SOL    HW225062   5.125   0.373   4.582
 8055SOL     OW25063   6.880   0.501   5.840
 8055SOL    HW125064   6.915   0.407   5.843
 8055SOL    HW225065   6.784   0.502   5.868
 8056SOL     OW25066   4.250   2.009   4.153
 8056SOL    HW125067   4.180   2.045   4.215
 8056SOL    HW225068   4.253   2.065   4.071
 8057SOL     OW25069   3.181   2.041   2.905
 8057SOL    HW125070   3.184   2.088   2.816
 8057SOL    HW225071   3.087   2.018   2.927
 8058SOL     OW25072   4.543   0.717   2.679
 8058SOL    HW125073   4.631   0.709   2.632
 8058SOL    HW225074   4.555   0.766   2.766
 8059SOL     OW25075   4.649   2.376   4.651
 8059SOL    HW125076   4.621   2.305   4.586
 8059SOL    HW225077   4.592   2.369   4.733
 8060SOL     OW25078   0.828   2.680   4.200
 8060SOL    HW125079   0.749   2.688   4.260
 8060SOL    HW225080   0.807   2.719   4.110
 8061SOL     OW25081   6.677   0.087   1.901
 8061SOL    HW125082   6.682   0.118   1.996
 8061SOL    HW225083   6.694   7.009   1.897
 8062SOL     OW25084   2.950   5.322   4.243
 8062SOL    HW125085   2.955   5.291   4.148
 8062SOL    HW225086   2.863   5.368   4.259
 8063SOL     OW25087   0.673   3.026   0.394
 8063SOL    HW125088   0.747   3.036   0.461
 8063SOL    HW225089   0.690   3.087   0.317
 8064SOL     OW25090   0.299   5.231   1.020
 8064SOL    HW125091   0.229   5.301   1.032
 8064SOL    HW225092   0.348   5.247   0.934
 8065SOL     OW25093   3.735   5.856   4.578
 8065SOL    HW125094   3.707   5.766   4.612
 8065SOL    HW225095   3.694   5.928   4.635
 8066SOL     OW25096   0.900   2.206   6.240
 8066SOL    HW125097   0.918   2.115   6.204
 8066SOL    HW225098   0.909   2.273   6.166
 8067SOL     OW25099   4.976   3.097   1.531
 8067SOL    HW125100   4.931   3.028   1.589
 8067SOL    HW225101   4.923   3.110   1.448
 8068SOL     OW25102   6.014   4.465   0.310
 8068SOL    HW125103   6.110   4.462   0.282
 8068SOL    HW225104   5.966   4.385   0.273
 8069SOL     OW25105   2.064   6.168   1.199
 8069SOL    HW125106   2.151   6.214   1.210
 8069SOL    HW225107   2.012   6.172   1.284
 8070SOL     OW25108   2.856   2.797   0.305
 8070SOL    HW125109   2.886   2.782   0.211
 8070SOL    HW225110   2.823   2.710   0.344
 8071SOL     OW25111   3.198   6.842   4.758
 8071SOL    HW125112   3.196   6.892   4.845
 8071SOL    HW225113   3.269   6.771   4.763
 8072SOL     OW25114   3.352   0.942   6.778
 8072SOL    HW125115   3.431   0.881   6.770
 8072SOL    HW225116   3.325   0.975   6.688
 8073SOL     OW25117   4.212   5.566   5.925
 8073SOL    HW125118   4.122   5.539   5.890
 8073SOL    HW225119   4.236   5.656   5.889
 8074SOL     OW25120   3.099   2.630   0.576
 8074SOL    HW125121   3.177   2.687   0.550
 8074SOL    HW225122   3.106   2.606   0.673
 8075SOL     OW25123   6.462   1.359   0.615
 8075SOL    HW125124   6.414   1.293   0.672
 8075SOL    HW225125   6.446   1.337   0.518
 8076SOL     OW25126   5.013   2.324   5.590
 8076SOL    HW125127   4.991   2.342   5.494
 8076SOL    HW225128   5.109   2.298   5.598
 8077SOL     OW25129   1.686   5.554   2.296
 8077SOL    HW125130   1.678   5.466   2.249
 8077SOL    HW225131   1.610   5.564   2.360
 8078SOL     OW25132   5.677   1.115   0.968
 8078SOL    HW125133   5.656   1.028   1.013
 8078SOL    HW225134   5.774   1.137   0.982
 8079SOL     OW25135   5.275   1.557   3.599
 8079SOL    HW125136   5.202   1.565   3.532
 8079SOL    HW225137   5.364   1.556   3.553
 8080SOL     OW25138   0.121   3.479   0.098
 8080SOL    HW125139   0.100   3.507   0.004
 8080SOL    HW225140   0.102   3.556   0.159
 8081SOL     OW25141   4.964   6.980   4.445
 8081SOL    HW125142   5.058   6.982   4.478
 8081SOL    HW225143   4.922   6.893   4.471
 8082SOL     OW25144   5.711   0.486   1.948
 8082SOL    HW125145   5.727   0.548   1.872
 8082SOL    HW225146   5.614   0.463   1.953
 8083SOL     OW25147   5.579   3.449   2.585
 8083SOL    HW125148   5.626   3.407   2.663
 8083SOL    HW225149   5.549   3.377   2.522
 8084SOL     OW25150   5.051   0.001   0.055
 8084SOL    HW125151   5.101   6.949   0.104
 8084SOL    HW225152   5.017   6.984   6.989
 8085SOL     OW25153   6.278   0.268   2.898
 8085SOL    HW125154   6.323   0.357   2.903
 8085SOL    HW225155   6.306   0.212   2.976
 8086SOL     OW25156   4.990   1.010   3.965
 8086SOL    HW125157   4.991   1.090   4.025
 8086SOL    HW225158   4.955   0.931   4.015
 8087SOL     OW25159   2.246   1.083   0.845
 8087SOL    HW125160   2.247   1.008   0.912
 8087SOL    HW225161   2.302   1.159   0.880
 8088SOL     OW25162   5.595   2.404   0.998
 8088SOL    HW125163   5.673   2.453   1.037
 8088SOL    HW225164   5.624   2.351   0.919
 8089SOL     OW25165   4.929   2.560   0.129
 8089SOL    HW125166   4.878   2.623   0.070
 8089SOL    HW225167   4.995   2.508   0.075
 8090SOL     OW25168   3.871   2.161   6.768
 8090SOL    HW125169   3.843   2.139   6.674
 8090SOL    HW225170   3.959   2.209   6.766
 8091SOL     OW25171   2.385   4.237   6.409
 8091SOL    HW125172   2.475   4.202   6.433
 8091SOL    HW225173   2.368   4.322   6.458
 8092SOL     OW25174   0.174   2.412   5.001
 8092SOL    HW125175   0.226   2.492   4.970
 8092SOL    HW225176   0.080   2.417   4.968
 8093SOL     OW25177   4.686   5.843   2.504
 8093SOL    HW125178   4.767   5.789   2.528
 8093SOL    HW225179   4.607   5.782   2.497
 8094SOL     OW25180   1.525   4.009   4.611
 8094SOL    HW125181   1.507   4.026   4.514
 8094SOL    HW225182   1.488   3.920   4.637
 8095SOL     OW25183   5.695   3.999   4.227
 8095SOL    HW125184   5.733   3.909   4.247
 8095SOL    HW225185   5.742   4.038   4.148
 8096SOL     OW25186   3.258   5.523   3.882
 8096SOL    HW125187   3.336   5.547   3.939
 8096SOL    HW225188   3.242   5.597   3.816
 8097SOL     OW25189   5.103   6.528   3.232
 8097SOL    HW125190   5.092   6.549   3.135
 8097SOL    HW225191   5.016   6.542   3.279
 8098SOL     OW25192   2.133   6.713   4.019
 8098SOL    HW125193   2.188   6.705   3.936
 8098SOL    HW225194   2.130   6.809   4.048
 8099SOL     OW25195   5.064   6.600   4.164
 8099SOL    HW125196   5.129   6.646   4.104
 8099SOL    HW225197   5.098   6.602   4.258
 8100SOL     OW25198   7.018   0.127   6.925
 8100SOL    HW125199   0.032   0.036   6.950
 8100SOL    HW225200   6.980   0.125   6.833
 8101SOL     OW25201   2.054   0.296   3.952
 8101SOL    HW125202   2.084   0.201   3.954
 8101SOL    HW225203   2.084   0.342   4.036
 8102SOL     OW25204   0.656   4.633   4.618
 8102SOL    HW125205   0.587   4.605   4.552
 8102SOL    HW225206   0.648   4.731   4.634
 8103SOL     OW25207   4.579   0.641   0.868
 8103SOL    HW125208   4.513   0.715   0.885
 8103SOL    HW225209   4.548   0.558   0.914
 8104SOL     OW25210   2.422   6.990   6.151
 8104SOL    HW125211   2.486   6.945   6.089
 8104SOL    HW225212   2.329   6.957   6.132
 8105SOL     OW25213   1.669   2.465   3.157
 8105SOL    HW125214   1.738   2.448   3.086
 8105SOL    HW225215   1.697   2.420   3.242
 8106SOL     OW25216   3.062   5.809   3.228
 8106SOL    HW125217   2.997   5.733   3.230
 8106SOL    HW225218   3.140   5.784   3.171
 8107SOL     OW25219   0.805   5.184   5.015
 8107SOL    HW125220   0.833   5.099   5.061
 8107SOL    HW225221   0.856   5.261   5.053
 8108SOL     OW25222   6.073   3.376   4.828
 8108SOL    HW125223   6.092   3.473   4.815
 8108SOL    HW225224   6.127   3.341   4.904
 8109SOL     OW25225   1.263   3.555   4.233
 8109SOL    HW125226   1.312   3.584   4.316
 8109SOL    HW225227   1.210   3.473   4.253
 8110SOL     OW25228   3.542   6.042   0.546
 8110SOL    HW125229   3.544   5.968   0.479
 8110SOL    HW225230   3.636   6.063   0.575
 8111SOL     OW25231   4.507   1.133   5.289
 8111SOL    HW125232   4.600   1.155   5.319
 8111SOL    HW225233   4.504   1.134   5.189
 8112SOL     OW25234   1.857   1.751   4.442
 8112SOL    HW125235   1.842   1.653   4.454
 8112SOL    HW225236   1.827   1.778   4.350
 8113SOL     OW25237   3.249   3.164   0.725
 8113SOL    HW125238   3.203   3.164   0.636
 8113SOL    HW225239   3.182   3.147   0.797
 8114SOL     OW25240   2.561   3.570   1.392
 8114SOL    HW125241   2.484   3.575   1.457
 8114SOL    HW225242   2.525   3.559   1.299
 8115SOL     OW25243   4.210   0.387   1.619
 8115SOL    HW125244   4.166   0.460   1.671
 8115SOL    HW225245   4.309   0.404   1.613
 8116SOL     OW25246   5.288   6.614   5.102
 8116SOL    HW125247   5.385   6.611   5.126
 8116SOL    HW225248   5.236   6.642   5.183
 8117SOL     OW25249   2.601   1.014   3.842
 8117SOL    HW125250   2.606   0.916   3.860
 8117SOL    HW225251   2.506   1.043   3.837
 8118SOL     OW25252   6.246   2.863   5.662
 8118SOL    HW125253   6.242   2.910   5.750
 8118SOL    HW225254   6.342   2.850   5.636
 8119SOL     OW25255   6.573   5.883   5.030
 8119SOL    HW125256   6.589   5.832   4.946
 8119SOL    HW225257   6.514   5.830   5.091
 8120SOL     OW25258   3.699   4.523   0.036
 8120SOL    HW125259   3.610   4.481   0.023
 8120SOL    HW225260   3.762   4.489   6.986
 8121SOL     OW25261   6.842   5.241   2.007
 8121SOL    HW125262   6.938   5.230   2.032
 8121SOL    HW225263   6.810   5.331   2.035
 8122SOL     OW25264   1.515   5.755   2.834
 8122SOL    HW125265   1.475   5.786   2.748
 8122SOL    HW225266   1.566   5.830   2.876
 8123SOL     OW25267   0.046   0.318   6.616
 8123SOL    HW125268   0.079   0.235   6.571
 8123SOL    HW225269   0.121   0.359   6.669
 8124SOL     OW25270   0.042   6.136   0.771
 8124SOL    HW125271   0.126   6.184   0.800
 8124SOL    HW225272   7.015   6.191   0.702
 8125SOL     OW25273   0.925   7.001   2.932
 8125SOL    HW125274   0.848   7.005   2.997
 8125SOL    HW225275   1.008   6.975   2.981
 8126SOL     OW25276   6.196   4.074   2.104
 8126SOL    HW125277   6.097   4.083   2.096
 8126SOL    HW225278   6.236   4.061   2.013
 8127SOL     OW25279   2.657   6.185   0.661
 8127SOL    HW125280   2.585   6.135   0.612
 8127SOL    HW225281   2.719   6.120   0.705
 8128SOL     OW25282   2.601   3.288   1.110
 8128SOL    HW125283   2.596   3.228   1.031
 8128SOL    HW225284   2.697   3.308   1.131
 8129SOL     OW25285   4.240   0.750   5.500
 8129SOL    HW125286   4.202   0.839   5.528
 8129SOL    HW225287   4.309   0.722   5.567
 8130SOL     OW25288   0.119   4.816   6.718
 8130SOL    HW125289   0.058   4.797   6.640
 8130SOL    HW225290   0.068   4.868   6.787
 8131SOL     OW25291   3.256   0.945   0.980
 8131SOL    HW125292   3.290   0.851   0.977
 8131SOL    HW225293   3.296   0.997   0.905
 8132SOL     OW25294   5.448   6.364   6.645
 8132SOL    HW125295   5.543   6.354   6.616
 8132SOL    HW225296   5.400   6.423   6.580
 8133SOL     OW25297   3.351   4.856   1.823
 8133SOL    HW125298   3.435   4.810   1.850
 8133SOL    HW225299   3.284   4.788   1.792
 8134SOL     OW25300   0.784   1.798   4.677
 8134SOL    HW125301   0.821   1.708   4.654
 8134SOL    HW225302   0.799   1.816   4.774
 8135SOL     OW25303   2.267   5.745   1.215
 8135SOL    HW125304   2.192   5.811   1.208
 8135SOL    HW225305   2.322   5.748   1.131
 8136SOL     OW25306   4.703   4.584   2.739
 8136SOL    HW125307   4.705   4.584   2.639
 8136SOL    HW225308   4.795   4.568   2.774
 8137SOL     OW25309   2.567   1.291   4.714
 8137SOL    HW125310   2.545   1.197   4.743
 8137SOL    HW225311   2.493   1.352   4.743
 8138SOL     OW25312   5.474   1.814   0.676
 8138SOL    HW125313   5.558   1.785   0.629
 8138SOL    HW225314   5.469   1.770   0.765
 8139SOL     OW25315   2.141   2.295   3.699
 8139SOL    HW125316   2.227   2.244   3.686
 8139SOL    HW225317   2.072   2.260   3.636
 8140SOL     OW25318   3.768   0.063   0.287
 8140SOL    HW125319   3.763   6.984   0.303
 8140SOL    HW225320   3.698   0.089   0.220
 8141SOL     OW25321   4.175   6.970   5.390
 8141SOL    HW125322   4.210   6.921   5.470
 8141SOL    HW225323   4.142   0.041   5.418
 8142SOL     OW25324   1.720   5.205   0.439
 8142SOL    HW125325   1.642   5.162   0.485
 8142SOL    HW225326   1.796   5.141   0.435
 8143SOL     OW25327   5.599   5.627   0.234
 8143SOL    HW125328   5.599   5.554   0.165
 8143SOL    HW225329   5.505   5.656   0.252
 8144SOL     OW25330   0.668   5.757   5.799
 8144SOL    HW125331   0.603   5.688   5.770
 8144SOL    HW225332   0.724   5.785   5.720
 8145SOL     OW25333   5.266   5.860   0.694
 8145SOL    HW125334   5.234   5.893   0.783
 8145SOL    HW225335   5.355   5.816   0.706
 8146SOL     OW25336   5.319   0.282   5.469
 8146SOL    HW125337   5.381   0.358   5.450
 8146SOL    HW225338   5.228   0.302   5.432
 8147SOL     OW25339   6.160   0.720   0.919
 8147SOL    HW125340   6.139   0.680   0.830
 8147SOL    HW225341   6.187   0.648   0.983
 8148SOL     OW25342   5.151   5.244   0.260
 8148SOL    HW125343   5.229   5.192   0.227
 8148SOL    HW225344   5.070   5.185   0.262
 8149SOL     OW25345   1.641   6.827   3.629
 8149SOL    HW125346   1.545   6.806   3.649
 8149SOL    HW225347   1.680   6.756   3.571
 8150SOL     OW25348   1.224   4.010   0.965
 8150SOL    HW125349   1.311   3.977   1.000
 8150SOL    HW225350   1.234   4.103   0.931
 8151SOL     OW25351   5.760   5.147   3.538
 8151SOL    HW125352   5.751   5.164   3.636
 8151SOL    HW225353   5.708   5.215   3.487
 8152SOL     OW25354   6.026   3.035   3.369
 8152SOL    HW125355   6.005   3.131   3.352
 8152SOL    HW225356   5.997   2.980   3.291
 8153SOL     OW25357   1.344   1.122   3.676
 8153SOL    HW125358   1.400   1.146   3.756
 8153SOL    HW225359   1.370   1.032   3.642
 8154SOL     OW25360   3.999   6.333   3.038
 8154SOL    HW125361   4.004   6.262   2.969
 8154SOL    HW225362   3.918   6.320   3.095
 8155SOL     OW25363   1.591   4.089   2.205
 8155SOL    HW125364   1.619   4.132   2.290
 8155SOL    HW225365   1.502   4.045   2.218
 8156SOL     OW25366   4.345   6.299   0.606
 8156SOL    HW125367   4.429   6.260   0.570
 8156SOL    HW225368   4.359   6.327   0.701
 8157SOL     OW25369   6.235   4.650   6.583
 8157SOL    HW125370   6.249   4.680   6.489
 8157SOL    HW225371   6.169   4.575   6.584
 8158SOL     OW25372   5.302   4.188   0.305
 8158SOL    HW125373   5.308   4.167   0.207
 8158SOL    HW225374   5.298   4.287   0.318
 8159SOL     OW25375   2.986   5.573   3.935
 8159SOL    HW125376   2.982   5.517   3.852
 8159SOL    HW225377   3.074   5.560   3.980
 8160SOL     OW25378   5.085   6.956   3.796
 8160SOL    HW125379   5.025   6.879   3.816
 8160SOL    HW225380   5.180   6.929   3.813
 8161SOL     OW25381   6.025   3.654   6.142
 8161SOL    HW125382   5.990   3.580   6.084
 8161SOL    HW225383   6.011   3.630   6.238
 8162SOL     OW25384   6.721   6.076   6.918
 8162SOL    HW125385   6.642   6.059   6.858
 8162SOL    HW225386   6.698   6.049   7.012
 8163SOL     OW25387   2.405   4.798   5.426
 8163SOL    HW125388   2.460   4.719   5.399
 8163SOL    HW225389   2.326   4.806   5.365
 8164SOL     OW25390   4.232   1.079   0.550
 8164SOL    HW125391   4.244   0.997   0.494
 8164SOL    HW225392   4.319   1.128   0.557
 8165SOL     OW25393   6.756   3.958   5.704
 8165SOL    HW125394   6.710   3.924   5.622
 8165SOL    HW225395   6.688   3.996   5.767
 8166SOL     OW25396   1.350   0.335   3.251
 8166SOL    HW125397   1.309   0.274   3.319
 8166SOL    HW225398   1.449   0.335   3.261
 8167SOL     OW25399   0.235   0.667   3.382
 8167SOL    HW125400   0.286   0.581   3.373
 8167SOL    HW225401   0.226   0.690   3.479
 8168SOL     OW25402   2.787   0.464   1.463
 8168SOL    HW125403   2.748   0.495   1.376
 8168SOL    HW225404   2.883   0.493   1.468
 8169SOL     OW25405   4.779   2.177   0.763
 8169SOL    HW125406   4.823   2.167   0.674
 8169SOL    HW225407   4.780   2.089   0.811
 8170SOL     OW25408   1.320   5.062   1.645
 8170SOL    HW125409   1.259   5.124   1.597
 8170SOL    HW225410   1.408   5.058   1.598
 8171SOL     OW25411   1.772   1.930   0.104
 8171SOL    HW125412   1.845   1.896   0.045
 8171SOL    HW225413   1.699   1.969   0.048
 8172SOL     OW25414   6.954   1.822   1.918
 8172SOL    HW125415   6.883   1.848   1.983
 8172SOL    HW225416   6.937   1.729   1.885
 8173SOL     OW25417   5.686   2.568   2.198
 8173SOL    HW125418   5.661   2.612   2.112
 8173SOL    HW225419   5.777   2.599   2.226
 8174SOL     OW25420   6.736   0.099   2.582
 8174SOL    HW125421   6.687   0.015   2.558
 8174SOL    HW225422   6.709   0.128   2.674
 8175SOL     OW25423   0.002   3.066   4.968
 8175SOL    HW125424   0.053   3.152   4.971
 8175SOL    HW225425   7.019   3.027   5.060
 8176SOL     OW25426   2.772   4.711   1.324
 8176SOL    HW125427   2.789   4.681   1.418
 8176SOL    HW225428   2.818   4.798   1.308
 8177SOL     OW25429   5.163   0.127   3.588
 8177SOL    HW125430   5.207   0.197   3.645
 8177SOL    HW225431   5.122   0.058   3.648
 8178SOL     OW25432   2.780   6.930   0.704
 8178SOL    HW125433   2.855   6.907   0.641
 8178SOL    HW225434   2.778   0.009   0.717
 8179SOL     OW25435   5.358   1.302   5.328
 8179SOL    HW125436   5.344   1.312   5.427
 8179SOL    HW225437   5.269   1.292   5.283
 8180SOL     OW25438   6.063   0.661   6.152
 8180SOL    HW125439   5.993   0.696   6.214
 8180SOL    HW225440   6.114   0.737   6.113
 8181SOL     OW25441   1.304   2.045   0.750
 8181SOL    HW125442   1.226   2.018   0.806
 8181SOL    HW225443   1.287   2.017   0.655
 8182SOL     OW25444   3.178   3.183   5.745
 8182SOL    HW125445   3.234   3.117   5.695
 8182SOL    HW225446   3.091   3.196   5.698
 8183SOL     OW25447   6.854   2.309   4.586
 8183SOL    HW125448   6.772   2.298   4.530
 8183SOL    HW225449   6.935   2.302   4.527
 8184SOL     OW25450   0.433   6.968   0.349
 8184SOL    HW125451   0.349   6.969   0.295
 8184SOL    HW225452   0.443   0.036   0.396
 8185SOL     OW25453   1.636   0.420   6.846
 8185SOL    HW125454   1.591   0.395   6.761
 8185SOL    HW225455   1.724   0.463   6.826
 8186SOL     OW25456   2.905   4.611   5.788
 8186SOL    HW125457   2.819   4.596   5.739
 8186SOL    HW225458   2.888   4.606   5.886
 8187SOL     OW25459   2.017   1.500   4.944
 8187SOL    HW125460   2.071   1.439   4.885
 8187SOL    HW225461   1.922   1.501   4.913
 8188SOL     OW25462   4.983   3.182   3.785
 8188SOL    HW125463   4.969   3.100   3.730
 8188SOL    HW225464   4.979   3.263   3.726
 8189SOL     OW25465   5.372   5.286   2.948
 8189SOL    HW125466   5.300   5.298   3.016
 8189SOL    HW225467   5.344   5.215   2.883
 8190SOL     OW25468   4.905   3.854   4.504
 8190SOL    HW125469   4.844   3.920   4.461
 8190SOL    HW225470   4.887   3.763   4.467
 8191SOL     OW25471   3.580   5.831   2.008
 8191SOL    HW125472   3.605   5.766   2.080
 8191SOL    HW225473   3.603   5.924   2.037
 8192SOL     OW25474   2.686   5.382   1.585
 8192SOL    HW125475   2.729   5.399   1.674
 8192SOL    HW225476   2.749   5.329   1.528
 8193SOL     OW25477   5.925   5.401   5.674
 8193SOL    HW125478   5.968   5.381   5.761
 8193SOL    HW225479   5.826   5.399   5.684
 8194SOL     OW25480   5.086   1.115   1.364
 8194SOL    HW125481   5.080   1.215   1.361
 8194SOL    HW225482   5.152   1.087   1.434
 8195SOL     OW25483   0.884   6.464   3.337
 8195SOL    HW125484   0.825   6.468   3.256
 8195SOL    HW225485   0.828   6.452   3.418
 8196SOL     OW25486   3.724   6.132   6.281
 8196SOL    HW125487   3.688   6.217   6.319
 8196SOL    HW225488   3.813   6.112   6.323
 8197SOL     OW25489   3.245   1.097   0.319
 8197SOL    HW125490   3.199   1.142   0.396
 8197SOL    HW225491   3.230   0.999   0.324
 8198SOL     OW25492   3.289   6.086   2.480
 8198SOL    HW125493   3.316   6.178   2.510
 8198SOL    HW225494   3.358   6.020   2.508
 8199SOL     OW25495   5.672   2.756   6.078
 8199SOL    HW125496   5.772   2.754   6.073
 8199SOL    HW225497   5.638   2.666   6.106
 8200SOL     OW25498   5.795   4.763   1.873
 8200SOL    HW125499   5.715   4.760   1.934
 8200SOL    HW225500   5.777   4.709   1.791
 8201SOL     OW25501   5.569   1.039   5.085
 8201SOL    HW125502   5.620   0.966   5.040
 8201SOL    HW225503   5.551   1.113   5.020
 8202SOL     OW25504   0.363   5.566   3.880
 8202SOL    HW125505   0.396   5.502   3.948
 8202SOL    HW225506   0.439   5.622   3.847
 8203SOL     OW25507   2.748   2.175   7.010
 8203SOL    HW125508   2.834   2.224   6.997
 8203SOL    HW225509   2.751   2.089   6.958
 8204SOL     OW25510   3.896   4.832   6.958
 8204SOL    HW125511   3.962   4.776   7.009
 8204SOL    HW225512   3.817   4.852   7.017
 8205SOL     OW25513   0.357   4.887   0.351
 8205SOL    HW125514   0.451   4.858   0.371
 8205SOL    HW225515   0.322   4.834   0.274
 8206SOL     OW25516   5.217   1.820   6.473
 8206SOL    HW125517   5.232   1.760   6.551
 8206SOL    HW225518   5.139   1.880   6.492
 8207SOL     OW25519   3.062   3.310   4.512
 8207SOL    HW125520   2.964   3.300   4.498
 8207SOL    HW225521   3.111   3.238   4.463
 8208SOL     OW25522   1.030   0.162   1.531
 8208SOL    HW125523   1.096   0.134   1.600
 8208SOL    HW225524   0.969   0.086   1.510
 8209SOL     OW25525   0.721   1.147   4.993
 8209SOL    HW125526   0.627   1.136   4.960
 8209SOL    HW225527   0.782   1.091   4.937
 8210SOL     OW25528   2.176   1.428   0.921
 8210SOL    HW125529   2.202   1.386   0.834
 8210SOL    HW225530   2.135   1.518   0.904
 8211SOL     OW25531   3.812   4.186   1.747
 8211SOL    HW125532   3.781   4.114   1.810
 8211SOL    HW225533   3.740   4.254   1.736
 8212SOL     OW25534   2.158   2.264   2.217
 8212SOL    HW125535   2.066   2.299   2.238
 8212SOL    HW225536   2.193   2.309   2.136
 8213SOL     OW25537   7.004   4.173   1.658
 8213SOL    HW125538   6.989   4.076   1.643
 8213SOL    HW225539   6.951   4.226   1.592
 8214SOL     OW25540   5.677   5.981   4.039
 8214SOL    HW125541   5.679   5.881   4.052
 8214SOL    HW225542   5.770   6.018   4.049
 8215SOL     OW25543   2.769   5.384   5.918
 8215SOL    HW125544   2.790   5.288   5.900
 8215SOL    HW225545   2.764   5.434   5.831
 8216SOL     OW25546   5.101   5.247   3.778
 8216SOL    HW125547   5.071   5.197   3.860
 8216SOL    HW225548   5.111   5.182   3.702
 8217SOL     OW25549   1.603   4.301   0.247
 8217SOL    HW125550   1.617   4.397   0.222
 8217SOL    HW225551   1.658   4.280   0.328
 8218SOL     OW25552   0.606   0.203   5.946
 8218SOL    HW125553   0.615   0.107   5.918
 8218SOL    HW225554   0.549   0.208   6.029
 8219SOL     OW25555   4.391   2.576   0.621
 8219SOL    HW125556   4.417   2.518   0.698
 8219SOL    HW225557   4.472   2.622   0.585
 8220SOL     OW25558   3.476   2.909   3.356
 8220SOL    HW125559   3.468   2.920   3.455
 8220SOL    HW225560   3.387   2.926   3.313
 8221SOL     OW25561   5.850   6.506   3.309
 8221SOL    HW125562   5.918   6.476   3.243
 8221SOL    HW225563   5.880   6.482   3.401
 8222SOL     OW25564   5.688   1.381   1.277
 8222SOL    HW125565   5.617   1.316   1.304
 8222SOL    HW225566   5.725   1.424   1.359
 8223SOL     OW25567   0.741   4.799   5.336
 8223SOL    HW125568   0.682   4.877   5.316
 8223SOL    HW225569   0.800   4.820   5.413
 8224SOL     OW25570   6.493   0.936   2.680
 8224SOL    HW125571   6.565   0.943   2.749
 8224SOL    HW225572   6.428   1.011   2.692
 8225SOL     OW25573   3.111   1.508   0.804
 8225SOL    HW125574   3.084   1.532   0.710
 8225SOL    HW225575   3.198   1.552   0.826
 8226SOL     OW25576   4.022   0.530   0.745
 8226SOL    HW125577   4.115   0.563   0.732
 8226SOL    HW225578   3.984   0.503   0.657
 8227SOL     OW25579   6.880   1.658   2.870
 8227SOL    HW125580   6.872   1.591   2.944
 8227SOL    HW225581   6.845   1.617   2.785
 8228SOL     OW25582   6.643   1.618   5.800
 8228SOL    HW125583   6.675   1.691   5.739
 8228SOL    HW225584   6.543   1.614   5.798
 8229SOL     OW25585   4.563   2.853   0.756
 8229SOL    HW125586   4.585   2.762   0.721
 8229SOL    HW225587   4.502   2.845   0.836
 8230SOL     OW25588   4.144   0.082   5.092
 8230SOL    HW125589   4.236   0.052   5.117
 8230SOL    HW225590   4.077   0.013   5.122
 8231SOL     OW25591   2.948   4.304   1.014
 8231SOL    HW125592   2.944   4.311   1.114
 8231SOL    HW225593   2.862   4.265   0.981
 8232SOL     OW25594   4.930   1.565   1.741
 8232SOL    HW125595   5.007   1.550   1.679
 8232SOL    HW225596   4.928   1.492   1.810
 8233SOL     OW25597   1.702   5.622   6.030
 8233SOL    HW125598   1.746   5.533   6.043
 8233SOL    HW225599   1.757   5.677   5.966
 8234SOL     OW25600   2.661   4.171   6.706
 8234SOL    HW125601   2.571   4.198   6.742
 8234SOL    HW225602   2.649   4.131   6.615
 8235SOL     OW25603   0.447   3.122   0.117
 8235SOL    HW125604   0.436   3.098   0.214
 8235SOL    HW225605   0.402   3.053   0.061
 8236SOL     OW25606   0.771   5.080   0.424
 8236SOL    HW125607   0.823   5.067   0.509
 8236SOL    HW225608   0.718   4.997   0.404
 8237SOL     OW25609   4.104   6.506   4.090
 8237SOL    HW125610   4.061   6.532   4.176
 8237SOL    HW225611   4.200   6.481   4.107
 8238SOL     OW25612   0.474   4.867   6.360
 8238SOL    HW125613   0.434   4.786   6.403
 8238SOL    HW225614   0.547   4.839   6.297
 8239SOL     OW25615   6.643   1.018   5.888
 8239SOL    HW125616   6.577   1.026   5.813
 8239SOL    HW225617   6.732   0.989   5.851
 8240SOL     OW25618   3.396   4.121   2.607
 8240SOL    HW125619   3.419   4.165   2.694
 8240SOL    HW225620   3.460   4.045   2.591
 8241SOL     OW25621   4.108   6.869   5.795
 8241SOL    HW125622   4.171   6.945   5.781
 8241SOL    HW225623   4.078   6.867   5.890
 8242SOL     OW25624   0.579   4.714   5.969
 8242SOL    HW125625   0.523   4.648   6.019
 8242SOL    HW225626   0.649   4.665   5.917
 8243SOL     OW25627   0.337   2.467   0.351
 8243SOL    HW125628   0.261   2.479   0.287
 8243SOL    HW225629   0.414   2.425   0.303
 8244SOL     OW25630   0.219   0.328   4.366
 8244SOL    HW125631   0.269   0.251   4.327
 8244SOL    HW225632   0.127   0.298   4.391
 8245SOL     OW25633   4.311   1.995   2.420
 8245SOL    HW125634   4.348   1.918   2.368
 8245SOL    HW225635   4.288   2.069   2.357
 8246SOL     OW25636   0.994   3.389   5.588
 8246SOL    HW125637   0.936   3.466   5.561
 8246SOL    HW225638   1.028   3.404   5.680
 8247SOL     OW25639   1.903   0.297   2.464
 8247SOL    HW125640   1.869   0.220   2.518
 8247SOL    HW225641   1.839   0.316   2.389
 8248SOL     OW25642   6.511   5.507   4.723
 8248SOL    HW125643   6.499   5.536   4.628
 8248SOL    HW225644   6.565   5.422   4.725
 8249SOL     OW25645   1.763   2.741   6.175
 8249SOL    HW125646   1.720   2.666   6.226
 8249SOL    HW225647   1.694   2.787   6.119
 8250SOL     OW25648   3.026   3.784   1.902
 8250SOL    HW125649   3.033   3.884   1.903
 8250SOL    HW225650   3.096   3.745   1.961
 8251SOL     OW25651   4.986   3.235   4.349
 8251SOL    HW125652   5.061   3.170   4.338
 8251SOL    HW225653   4.962   3.242   4.446
 8252SOL     OW25654   2.803   1.779   4.901
 8252SOL    HW125655   2.780   1.755   4.807
 8252SOL    HW225656   2.832   1.697   4.950
 8253SOL     OW25657   4.158   4.851   5.568
 8253SOL    HW125658   4.170   4.923   5.499
 8253SOL    HW225659   4.139   4.764   5.523
 8254SOL     OW25660   4.581   4.289   5.127
 8254SOL    HW125661   4.634   4.236   5.062
 8254SOL    HW225662   4.529   4.228   5.187
 8255SOL     OW25663   2.209   0.200   5.298
 8255SOL    HW125664   2.113   0.229   5.298
 8255SOL    HW225665   2.266   0.272   5.259
 8256SOL     OW25666   6.543   6.624   1.954
 8256SOL    HW125667   6.542   6.620   1.854
 8256SOL    HW225668   6.603   6.552   1.989
 8257SOL     OW25669   5.036   4.394   3.047
 8257SOL    HW125670   5.006   4.311   3.093
 8257SOL    HW225671   5.133   4.409   3.066
 8258SOL     OW25672   5.505   1.771   0.990
 8258SOL    HW125673   5.565   1.848   1.007
 8258SOL    HW225674   5.522   1.699   1.058
 8259SOL     OW25675   3.857   1.716   4.128
 8259SOL    HW125676   3.828   1.798   4.080
 8259SOL    HW225677   3.947   1.731   4.169
 8260SOL     OW25678   2.036   6.548   0.990
 8260SOL    HW125679   1.948   6.517   0.954
 8260SOL    HW225680   2.077   6.614   0.928
 8261SOL     OW25681   6.282   6.561   2.009
 8261SOL    HW125682   6.235   6.521   1.931
 8261SOL    HW225683   6.371   6.597   1.980
 8262SOL     OW25684   0.921   3.497   0.367
 8262SOL    HW125685   0.934   3.439   0.286
 8262SOL    HW225686   0.840   3.468   0.417
 8263SOL     OW25687   0.591   2.686   6.191
 8263SOL    HW125688   0.622   2.621   6.122
 8263SOL    HW225689   0.495   2.710   6.174
 8264SOL     OW25690   2.331   6.250   2.357
 8264SOL    HW125691   2.322   6.262   2.258
 8264SOL    HW225692   2.422   6.281   2.386
 8265SOL     OW25693   6.508   0.591   1.148
 8265SOL    HW125694   6.502   0.492   1.156
 8265SOL    HW225695   6.584   0.615   1.087
 8266SOL     OW25696   2.550   1.439   3.616
 8266SOL    HW125697   2.584   1.434   3.522
 8266SOL    HW225698   2.620   1.407   3.679
 8267SOL     OW25699   1.785   3.269   1.076
 8267SOL    HW125700   1.789   3.368   1.064
 8267SOL    HW225701   1.743   3.227   0.995
 8268SOL     OW25702   1.677   6.410   5.906
 8268SOL    HW125703   1.586   6.376   5.930
 8268SOL    HW225704   1.690   6.501   5.945
 8269SOL     OW25705   4.555   1.126   2.415
 8269SOL    HW125706   4.601   1.045   2.450
 8269SOL    HW225707   4.466   1.100   2.376
 8270SOL     OW25708   3.050   6.586   5.090
 8270SOL    HW125709   2.968   6.550   5.045
 8270SOL    HW225710   3.087   6.517   5.152
 8271SOL     OW25711   0.711   0.395   3.474
 8271SOL    HW125712   0.698   0.487   3.439
 8271SOL    HW225713   0.685   0.392   3.571
 8272SOL     OW25714   6.047   2.353   2.365
 8272SOL    HW125715   6.001   2.413   2.301
 8272SOL    HW225716   6.127   2.399   2.403
 8273SOL     OW25717   1.989   1.194   0.161
 8273SOL    HW125718   2.033   1.200   0.250
 8273SOL    HW225719   1.986   1.285   0.119
 8274SOL     OW25720   5.094   4.904   4.226
 8274SOL    HW125721   5.156   4.932   4.152
 8274SOL    HW225722   5.018   4.852   4.188
 8275SOL     OW25723   6.121   1.043   5.271
 8275SOL    HW125724   6.025   1.041   5.244
 8275SOL    HW225725   6.152   1.138   5.278
 8276SOL     OW25726   0.632   2.765   3.658
 8276SOL    HW125727   0.577   2.847   3.672
 8276SOL    HW225728   0.710   2.787   3.599
 8277SOL     OW25729   0.263   6.167   6.156
 8277SOL    HW125730   0.356   6.143   6.186
 8277SOL    HW225731   0.255   6.150   6.058
 8278SOL     OW25732   3.237   1.262   6.285
 8278SOL    HW125733   3.167   1.196   6.258
 8278SOL    HW225734   3.194   1.349   6.307
 8279SOL     OW25735   1.489   6.120   4.742
 8279SOL    HW125736   1.499   6.154   4.649
 8279SOL    HW225737   1.397   6.141   4.775
 8280SOL     OW25738   2.306   3.526   0.315
 8280SOL    HW125739   2.253   3.523   0.400
 8280SOL    HW225740   2.396   3.485   0.331
 8281SOL     OW25741   3.083   4.377   1.657
 8281SOL    HW125742   3.036   4.425   1.731
 8281SOL    HW225743   3.065   4.424   1.570
 8282SOL     OW25744   4.430   3.561   0.002
 8282SOL    HW125745   4.458   3.618   0.079
 8282SOL    HW225746   4.467   3.600   6.937
 8283SOL     OW25747   2.000   5.245   5.492
 8283SOL    HW125748   1.963   5.305   5.563
 8283SOL    HW225749   1.929   5.182   5.461
 8284SOL     OW25750   0.833   3.495   1.289
 8284SOL    HW125751   0.911   3.517   1.231
 8284SOL    HW225752   0.763   3.450   1.234
 8285SOL     OW25753   3.253   3.909   4.840
 8285SOL    HW125754   3.235   3.848   4.763
 8285SOL    HW225755   3.168   3.955   4.866
 8286SOL     OW25756   5.729   1.781   5.647
 8286SOL    HW125757   5.686   1.871   5.645
 8286SOL    HW225758   5.757   1.755   5.554
 8287SOL     OW25759   1.357   5.273   4.488
 8287SOL    HW125760   1.390   5.185   4.521
 8287SOL    HW225761   1.375   5.281   4.390
 8288SOL     OW25762   3.045   2.074   1.905
 8288SOL    HW125763   3.140   2.081   1.936
 8288SOL    HW225764   2.998   2.160   1.923
 8289SOL     OW25765   0.767   6.040   0.672
 8289SOL    HW125766   0.841   6.051   0.606
 8289SOL    HW225767   0.742   5.944   0.679
 8290SOL     OW25768   5.174   1.421   1.231
 8290SOL    HW125769   5.234   1.365   1.173
 8290SOL    HW225770   5.230   1.469   1.299
 8291SOL     OW25771   4.659   6.282   4.938
 8291SOL    HW125772   4.755   6.253   4.926
 8291SOL    HW225773   4.625   6.318   4.851
 8292SOL     OW25774   3.171   6.975   6.986
 8292SOL    HW125775   3.166   6.945   6.891
 8292SOL    HW225776   3.187   6.896   0.025
 8293SOL     OW25777   2.446   5.306   0.517
 8293SOL    HW125778   2.528   5.292   0.572
 8293SOL    HW225779   2.467   5.367   0.441
 8294SOL     OW25780   5.554   3.281   5.452
 8294SOL    HW125781   5.553   3.187   5.486
 8294SOL    HW225782   5.642   3.323   5.474
 8295SOL     OW25783   4.943   5.336   1.772
 8295SOL    HW125784   5.028   5.388   1.766
 8295SOL    HW225785   4.867   5.392   1.739
 8296SOL     OW25786   1.522   4.371   6.682
 8296SOL    HW125787   1.605   4.365   6.739
 8296SOL    HW225788   1.442   4.376   6.740
 8297SOL     OW25789   0.175   3.182   2.570
 8297SOL    HW125790   0.142   3.168   2.663
 8297SOL    HW225791   0.125   3.122   2.507
 8298SOL     OW25792   6.169   1.321   1.246
 8298SOL    HW125793   6.168   1.303   1.148
 8298SOL    HW225794   6.256   1.363   1.272
 8299SOL     OW25795   0.048   2.402   2.217
 8299SOL    HW125796   0.052   2.500   2.239
 8299SOL    HW225797   0.014   2.351   2.297
 8300SOL     OW25798   0.341   5.467   4.455
 8300SOL    HW125799   0.384   5.480   4.366
 8300SOL    HW225800   0.405   5.495   4.527
 8301SOL     OW25801   3.616   1.669   1.036
 8301SOL    HW125802   3.621   1.664   0.936
 8301SOL    HW225803   3.531   1.627   1.067
 8302SOL     OW25804   5.716   6.860   6.757
 8302SOL    HW125805   5.759   6.880   6.669
 8302SOL    HW225806   5.774   6.896   6.831
 8303SOL     OW25807   6.235   0.813   3.685
 8303SOL    HW125808   6.179   0.879   3.736
 8303SOL    HW225809   6.300   0.863   3.627
 8304SOL     OW25810   6.795   2.934   1.056
 8304SOL    HW125811   6.860   2.901   0.987
 8304SOL    HW225812   6.722   2.986   1.012
 8305SOL     OW25813   4.832   4.817   4.041
 8305SOL    HW125814   4.780   4.883   3.987
 8305SOL    HW225815   4.838   4.730   3.993
 8306SOL     OW25816   5.714   1.955   5.913
 8306SOL    HW125817   5.619   1.980   5.931
 8306SOL    HW225818   5.717   1.874   5.855
 8307SOL     OW25819   3.407   5.359   1.803
 8307SOL    HW125820   3.387   5.436   1.863
 8307SOL    HW225821   3.361   5.277   1.837
 8308SOL     OW25822   3.233   5.365   1.568
 8308SOL    HW125823   3.220   5.282   1.514
 8308SOL    HW225824   3.299   5.348   1.641
 8309SOL     OW25825   6.787   5.630   3.826
 8309SOL    HW125826   6.693   5.616   3.857
 8309SOL    HW225827   6.812   5.560   3.760
 8310SOL     OW25828   0.048   5.312   1.267
 8310SOL    HW125829   0.076   5.389   1.324
 8310SOL    HW225830   0.028   5.344   1.174
 8311SOL     OW25831   1.234   1.976   4.975
 8311SOL    HW125832   1.203   1.996   4.882
 8311SOL    HW225833   1.270   1.883   4.978
 8312SOL     OW25834   5.069   0.353   6.812
 8312SOL    HW125835   5.075   0.429   6.876
 8312SOL    HW225836   5.156   0.342   6.764
 8313SOL     OW25837   5.164   6.996   0.483
 8313SOL    HW125838   5.134   0.015   0.570
 8313SOL    HW225839   5.104   6.921   0.457
 8314SOL     OW25840   5.059   0.504   0.015
 8314SOL    HW125841   5.095   0.423   0.060
 8314SOL    HW225842   5.064   0.582   0.078
 8315SOL     OW25843   4.196   3.334   1.049
 8315SOL    HW125844   4.127   3.278   1.003
 8315SOL    HW225845   4.234   3.400   0.984
 8316SOL     OW25846   1.269   1.974   1.877
 8316SOL    HW125847   1.191   1.972   1.815
 8316SOL    HW225848   1.354   1.976   1.824
 8317SOL     OW25849   1.732   3.119   2.413
 8317SOL    HW125850   1.682   3.080   2.335
 8317SOL    HW225851   1.712   3.064   2.494
 8318SOL     OW25852   4.589   1.727   5.360
 8318SOL    HW125853   4.560   1.741   5.454
 8318SOL    HW225854   4.539   1.650   5.320
 8319SOL     OW25855   1.700   1.938   0.917
 8319SOL    HW125856   1.637   2.016   0.922
 8319SOL    HW225857   1.733   1.928   0.824
 8320SOL     OW25858   3.063   3.679   2.470
 8320SOL    HW125859   3.052   3.673   2.570
 8320SOL    HW225860   3.106   3.595   2.437
 8321SOL     OW25861   6.850   7.009   6.345
 8321SOL    HW125862   6.872   6.958   6.261
 8321SOL    HW225863   6.935   0.008   6.395
 8322SOL     OW25864   6.374   0.168   1.187
 8322SOL    HW125865   6.396   0.233   1.259
 8322SOL    HW225866   6.401   0.205   1.098
 8323SOL     OW25867   5.172   5.418   2.143
 8323SOL    HW125868   5.261   5.460   2.163
 8323SOL    HW225869   5.112   5.486   2.100
 8324SOL     OW25870   5.803   6.507   1.074
 8324SOL    HW125871   5.874   6.436   1.070
 8324SOL    HW225872   5.847   6.597   1.071
 8325SOL     OW25873   2.279   3.982   5.356
 8325SOL    HW125874   2.363   3.996   5.304
 8325SOL    HW225875   2.207   3.947   5.296
 8326SOL     OW25876   4.935   3.345   5.474
 8326SOL    HW125877   4.854   3.353   5.416
 8326SOL    HW225878   4.913   3.290   5.555
 8327SOL     OW25879   5.916   0.834   5.940
 8327SOL    HW125880   5.849   0.907   5.927
 8327SOL    HW225881   5.991   0.868   5.997
 8328SOL     OW25882   2.566   6.336   6.453
 8328SOL    HW125883   2.614   6.287   6.526
 8328SOL    HW225884   2.548   6.272   6.378
 8329SOL     OW25885   1.332   3.312   5.908
 8329SOL    HW125886   1.342   3.373   5.830
 8329SOL    HW225887   1.235   3.305   5.933
 8330SOL     OW25888   2.402   1.521   6.853
 8330SOL    HW125889   2.496   1.533   6.884
 8330SOL    HW225890   2.379   1.423   6.854
 8331SOL     OW25891   2.964   0.653   1.110
 8331SOL    HW125892   2.960   0.691   1.017
 8331SOL    HW225893   3.035   0.701   1.162
 8332SOL     OW25894   5.137   5.245   2.340
 8332SOL    HW125895   5.096   5.173   2.283
 8332SOL    HW225896   5.166   5.321   2.281
 8333SOL     OW25897   0.194   6.400   6.248
 8333SOL    HW125898   0.228   6.312   6.217
 8333SOL    HW225899   0.134   6.387   6.327
 8334SOL     OW25900   3.927   0.834   4.135
 8334SOL    HW125901   3.938   0.931   4.112
 8334SOL    HW225902   3.913   0.781   4.052
 8335SOL     OW25903   5.133   0.232   0.122
 8335SOL    HW125904   5.112   0.139   0.095
 8335SOL    HW225905   5.090   0.252   0.211
 8336SOL     OW25906   0.216   4.754   3.254
 8336SOL    HW125907   0.187   4.755   3.158
 8336SOL    HW225908   0.210   4.846   3.292
 8337SOL     OW25909   2.662   6.538   2.922
 8337SOL    HW125910   2.659   6.636   2.901
 8337SOL    HW225911   2.733   6.520   2.990
 8338SOL     OW25912   3.937   5.578   2.089
 8338SOL    HW125913   3.901   5.502   2.035
 8338SOL    HW225914   3.879   5.594   2.169
 8339SOL     OW25915   6.300   0.336   1.839
 8339SOL    HW125916   6.276   0.304   1.747
 8339SOL    HW225917   6.379   0.398   1.833
 8340SOL     OW25918   4.429   3.349   0.822
 8340SOL    HW125919   4.486   3.431   0.817
 8340SOL    HW225920   4.480   3.270   0.788
 8341SOL     OW25921   3.003   6.514   0.353
 8341SOL    HW125922   3.046   6.463   0.278
 8341SOL    HW225923   2.916   6.470   0.377
 8342SOL     OW25924   4.116   6.481   0.853
 8342SOL    HW125925   4.122   6.502   0.756
 8342SOL    HW225926   4.086   6.562   0.903
 8343SOL     OW25927   1.910   5.644   5.313
 8343SOL    HW125928   1.918   5.687   5.224
 8343SOL    HW225929   1.874   5.710   5.379
 8344SOL     OW25930   4.508   5.756   4.803
 8344SOL    HW125931   4.512   5.695   4.723
 8344SOL    HW225932   4.414   5.789   4.813
 8345SOL     OW25933   4.586   1.357   2.550
 8345SOL    HW125934   4.496   1.390   2.578
 8345SOL    HW225935   4.576   1.272   2.500
 8346SOL     OW25936   3.439   5.433   0.326
 8346SOL    HW125937   3.348   5.392   0.315
 8346SOL    HW225938   3.479   5.404   0.412
 8347SOL     OW25939   3.321   5.420   4.252
 8347SOL    HW125940   3.281   5.363   4.181
 8347SOL    HW225941   3.317   5.372   4.340
 8348SOL     OW25942   2.303   0.153   1.924
 8348SOL    HW125943   2.258   0.193   2.004
 8348SOL    HW225944   2.245   0.082   1.885
 8349SOL     OW25945   5.877   6.267   1.585
 8349SOL    HW125946   5.858   6.296   1.491
 8349SOL    HW225947   5.866   6.345   1.646
 8350SOL     OW25948   3.637   0.163   5.952
 8350SOL    HW125949   3.682   0.232   6.009
 8350SOL    HW225950   3.540   0.158   5.977
 8351SOL     OW25951   5.305   5.383   4.107
 8351SOL    HW125952   5.366   5.441   4.161
 8351SOL    HW225953   5.211   5.414   4.118
 8352SOL     OW25954   0.827   0.193   3.348
 8352SOL    HW125955   0.803   0.112   3.400
 8352SOL    HW225956   0.801   0.275   3.399
 8353SOL     OW25957   6.727   3.503   1.809
 8353SOL    HW125958   6.776   3.515   1.896
 8353SOL    HW225959   6.788   3.462   1.742
 8354SOL     OW25960   4.300   6.745   5.548
 8354SOL    HW125961   4.349   6.691   5.479
 8354SOL    HW225962   4.213   6.700   5.568
 8355SOL     OW25963   2.541   1.093   5.980
 8355SOL    HW125964   2.479   1.030   5.933
 8355SOL    HW225965   2.499   1.125   6.065
 8356SOL     OW25966   0.737   6.486   0.772
 8356SOL    HW125967   0.785   6.491   0.859
 8356SOL    HW225968   0.793   6.526   0.700
 8357SOL     OW25969   4.006   6.865   4.724
 8357SOL    HW125970   4.089   6.851   4.669
 8357SOL    HW225971   3.949   6.935   4.681
 8358SOL     OW25972   1.247   4.388   5.245
 8358SOL    HW125973   1.166   4.446   5.242
 8358SOL    HW225974   1.310   4.415   5.173
 8359SOL     OW25975   3.210   0.630   5.022
 8359SOL    HW125976   3.175   0.539   5.001
 8359SOL    HW225977   3.137   0.698   5.007
 8360SOL     OW25978   3.681   6.666   0.963
 8360SOL    HW125979   3.695   6.568   0.948
 8360SOL    HW225980   3.604   6.679   1.025
 8361SOL     OW25981   2.976   0.363   2.318
 8361SOL    HW125982   2.965   0.317   2.406
 8361SOL    HW225983   2.887   0.399   2.289
 8362SOL     OW25984   4.077   2.158   0.565
 8362SOL    HW125985   4.037   2.234   0.616
 8362SOL    HW225986   4.013   2.129   0.493
 8363SOL     OW25987   6.640   2.646   6.366
 8363SOL    HW125988   6.697   2.655   6.284
 8363SOL    HW225989   6.619   2.549   6.381
 8364SOL     OW25990   1.395   2.490   3.175
 8364SOL    HW125991   1.494   2.488   3.159
 8364SOL    HW225992   1.377   2.508   3.271
 8365SOL     OW25993   1.904   3.903   1.950
 8365SOL    HW125994   1.967   3.826   1.941
 8365SOL    HW225995   1.874   3.933   1.860
 8366SOL     OW25996   2.085   5.995   2.116
 8366SOL    HW125997   2.181   6.015   2.136
 8366SOL    HW225998   2.079   5.912   2.061
 8367SOL     OW25999   3.912   5.493   4.241
 8367SOL    HW126000   3.939   5.587   4.223
 8367SOL    HW226001   3.977   5.430   4.197
 8368SOL     OW26002   2.176   5.569   6.147
 8368SOL    HW126003   2.150   5.604   6.057
 8368SOL    HW226004   2.094   5.560   6.204
 8369SOL     OW26005   1.554   6.481   6.301
 8369SOL    HW126006   1.519   6.388   6.291
 8369SOL    HW226007   1.651   6.479   6.326
 8370SOL     OW26008   3.010   1.767   5.783
 8370SOL    HW126009   2.992   1.865   5.775
 8370SOL    HW226010   2.986   1.721   5.697
 8371SOL     OW26011   2.194   4.526   0.932
 8371SOL    HW126012   2.235   4.589   0.997
 8371SOL    HW226013   2.122   4.473   0.977
 8372SOL     OW26014   1.350   5.217   2.260
 8372SOL    HW126015   1.402   5.133   2.278
 8372SOL    HW226016   1.352   5.275   2.342
 8373SOL     OW26017   1.660   0.116   3.783
 8373SOL    HW126018   1.722   0.192   3.806
 8373SOL    HW226019   1.706   0.029   3.801
 8374SOL     OW26020   0.127   0.409   4.995
 8374SOL    HW126021   0.171   0.337   5.049
 8374SOL    HW226022   0.087   0.477   5.057
 8375SOL     OW26023   3.458   6.416   5.078
 8375SOL    HW126024   3.438   6.318   5.068
 8375SOL    HW226025   3.392   6.469   5.025
 8376SOL     OW26026   1.249   0.874   4.384
 8376SOL    HW126027   1.161   0.889   4.429
 8376SOL    HW226028   1.304   0.958   4.387
 8377SOL     OW26029   4.762   6.288   0.792
 8377SOL    HW126030   4.727   6.204   0.750
 8377SOL    HW226031   4.721   6.300   0.882
 8378SOL     OW26032   4.317   5.570   2.615
 8378SOL    HW126033   4.236   5.623   2.588
 8378SOL    HW226034   4.313   5.552   2.714
 8379SOL     OW26035   5.716   2.847   0.984
 8379SOL    HW126036   5.763   2.865   0.897
 8379SOL    HW226037   5.634   2.792   0.967
 8380SOL     OW26038   6.737   0.657   2.296
 8380SOL    HW126039   6.645   0.618   2.305
 8380SOL    HW226040   6.798   0.589   2.254
 8381SOL     OW26041   0.035   2.939   5.218
 8381SOL    HW126042   0.093   3.020   5.214
 8381SOL    HW226043   0.008   2.921   5.312
 8382SOL     OW26044   3.010   0.601   2.958
 8382SOL    HW126045   3.017   0.700   2.946
 8382SOL    HW226046   2.975   0.582   3.050
 8383SOL     OW26047   2.851   7.000   6.076
 8383SOL    HW126048   2.752   6.996   6.092
 8383SOL    HW226049   2.886   6.908   6.060
 8384SOL     OW26050   6.189   0.511   1.091
 8384SOL    HW126051   6.235   0.458   1.163
 8384SOL    HW226052   6.117   0.455   1.050
 8385SOL     OW26053   5.918   1.944   0.841
 8385SOL    HW126054   5.949   2.038   0.826
 8385SOL    HW226055   5.970   1.882   0.781
 8386SOL     OW26056   2.139   5.408   2.461
 8386SOL    HW126057   2.047   5.419   2.500
 8386SOL    HW226058   2.153   5.477   2.390
 8387SOL     OW26059   1.597   1.282   2.281
 8387SOL    HW126060   1.530   1.343   2.323
 8387SOL    HW226061   1.687   1.300   2.320
 8388SOL     OW26062   2.343   6.219   0.380
 8388SOL    HW126063   2.273   6.264   0.326
 8388SOL    HW226064   2.301   6.174   0.458
 8389SOL     OW26065   0.564   3.649   2.524
 8389SOL    HW126066   0.466   3.650   2.542
 8389SOL    HW226067   0.603   3.562   2.554
 8390SOL     OW26068   4.245   1.126   6.739
 8390SOL    HW126069   4.276   1.217   6.767
 8390SOL    HW226070   4.267   1.060   6.811
 8391SOL     OW26071   6.430   4.737   0.769
 8391SOL    HW126072   6.339   4.779   0.777
 8391SOL    HW226073   6.427   4.644   0.805
 8392SOL     OW26074   6.486   3.840   4.628
 8392SOL    HW126075   6.428   3.919   4.649
 8392SOL    HW226076   6.430   3.767   4.589
 8393SOL     OW26077   0.522   6.668   2.997
 8393SOL    HW126078   0.544   6.758   3.033
 8393SOL    HW226079   0.596   6.604   3.018
 8394SOL     OW26080   6.012   2.500   1.225
 8394SOL    HW126081   6.098   2.513   1.174
 8394SOL    HW226082   6.032   2.456   1.312
 8395SOL     OW26083   2.522   6.923   5.003
 8395SOL    HW126084   2.482   6.936   5.094
 8395SOL    HW226085   2.609   6.971   4.998
 8396SOL     OW26086   4.865   5.373   2.511
 8396SOL    HW126087   4.917   5.342   2.590
 8396SOL    HW226088   4.920   5.436   2.457
 8397SOL     OW26089   1.621   0.512   2.763
 8397SOL    HW126090   1.569   0.429   2.740
 8397SOL    HW226091   1.677   0.539   2.684
 8398SOL     OW26092   4.085   1.772   6.559
 8398SOL    HW126093   4.164   1.778   6.621
 8398SOL    HW226094   4.115   1.790   6.465
 8399SOL     OW26095   6.002   6.567   6.694
 8399SOL    HW126096   6.008   6.664   6.718
 8399SOL    HW226097   6.093   6.532   6.675
 8400SOL     OW26098   1.950   1.046   4.665
 8400SOL    HW126099   2.002   1.124   4.700
 8400SOL    HW226100   1.911   0.995   4.741
 8401SOL     OW26101   2.234   1.222   5.216
 8401SOL    HW126102   2.273   1.312   5.198
 8401SOL    HW226103   2.292   1.172   5.279
 8402SOL     OW26104   4.449   1.844   6.039
 8402SOL    HW126105   4.445   1.924   6.099
 8402SOL    HW226106   4.508   1.863   5.961
 8403SOL     OW26107   0.751   3.062   4.469
 8403SOL    HW126108   0.796   3.113   4.542
 8403SOL    HW226109   0.665   3.107   4.445
 8404SOL     OW26110   3.838   6.972   5.928
 8404SOL    HW126111   3.919   7.002   5.878
 8404SOL    HW226112   3.775   0.028   5.940
 8405SOL     OW26113   1.730   1.120   5.645
 8405SOL    HW126114   1.728   1.188   5.571
 8405SOL    HW226115   1.769   1.161   5.727
 8406SOL     OW26116   4.460   0.623   0.438
 8406SOL    HW126117   4.407   0.566   0.502
 8406SOL    HW226118   4.546   0.651   0.482
 8407SOL     OW26119   3.443   6.783   3.724
 8407SOL    HW126120   3.503   6.716   3.679
 8407SOL    HW226121   3.479   6.875   3.708
 8408SOL     OW26122   5.913   4.126   1.497
 8408SOL    HW126123   5.872   4.183   1.425
 8408SOL    HW226124   5.909   4.030   1.469
 8409SOL     OW26125   5.565   2.061   2.915
 8409SOL    HW126126   5.527   1.985   2.967
 8409SOL    HW226127   5.533   2.147   2.954
 8410SOL     OW26128   5.432   0.662   1.747
 8410SOL    HW126129   5.445   0.681   1.845
 8410SOL    HW226130   5.340   0.627   1.732
 8411SOL     OW26131   1.036   5.198   0.126
 8411SOL    HW126132   0.985   5.131   0.072
 8411SOL    HW226133   1.117   5.228   0.075
 8412SOL     OW26134   3.370   1.769   1.377
 8412SOL    HW126135   3.350   1.822   1.295
 8412SOL    HW226136   3.442   1.702   1.357
 8413SOL     OW26137   3.865   5.601   6.746
 8413SOL    HW126138   3.838   5.627   6.653
 8413SOL    HW226139   3.851   5.679   6.807
 8414SOL     OW26140   4.111   5.771   3.959
 8414SOL    HW126141   4.067   5.683   3.940
 8414SOL    HW226142   4.079   5.805   4.047
 8415SOL     OW26143   0.102   6.191   3.899
 8415SOL    HW126144   0.148   6.227   3.980
 8415SOL    HW226145   0.008   6.225   3.897
 8416SOL     OW26146   6.116   3.242   2.994
 8416SOL    HW126147   6.141   3.338   2.979
 8416SOL    HW226148   6.199   3.187   3.006
 8417SOL     OW26149   1.175   4.100   5.738
 8417SOL    HW126150   1.204   4.142   5.825
 8417SOL    HW226151   1.228   4.016   5.723
 8418SOL     OW26152   5.559   5.245   0.828
 8418SOL    HW126153   5.613   5.170   0.790
 8418SOL    HW226154   5.617   5.302   0.887
 8419SOL     OW26155   5.785   6.925   1.945
 8419SOL    HW126156   5.846   6.963   2.015
 8419SOL    HW226157   5.767   6.995   1.876
 8420SOL     OW26158   4.469   6.744   0.028
 8420SOL    HW126159   4.416   6.681   6.992
 8420SOL    HW226160   4.412   6.824   0.051
 8421SOL     OW26161   2.943   5.324   6.922
 8421SOL    HW126162   2.945   5.417   6.886
 8421SOL    HW226163   2.880   5.268   6.868
 8422SOL     OW26164   4.238   1.363   1.779
 8422SOL    HW126165   4.253   1.306   1.860
 8422SOL    HW226166   4.319   1.418   1.761
 8423SOL     OW26167   2.892   5.131   5.941
 8423SOL    HW126168   2.944   5.123   6.027
 8423SOL    HW226169   2.953   5.110   5.864
 8424SOL     OW26170   2.135   1.989   2.173
 8424SOL    HW126171   2.065   1.949   2.232
 8424SOL    HW226172   2.143   2.087   2.192
 8425SOL     OW26173   4.794   4.697   6.419
 8425SOL    HW126174   4.851   4.708   6.338
 8425SOL    HW226175   4.803   4.604   6.453
 8426SOL     OW26176   3.676   3.186   3.304
 8426SOL    HW126177   3.585   3.150   3.325
 8426SOL    HW226178   3.739   3.110   3.291
 8427SOL     OW26179   3.426   4.195   4.846
 8427SOL    HW126180   3.368   4.162   4.920
 8427SOL    HW226181   3.389   4.164   4.758
 8428SOL     OW26182   0.648   5.951   1.559
 8428SOL    HW126183   0.554   5.936   1.528
 8428SOL    HW226184   0.670   5.887   1.632
 8429SOL     OW26185   1.088   6.012   4.754
 8429SOL    HW126186   1.008   5.955   4.734
 8429SOL    HW226187   1.161   5.990   4.689
 8430SOL     OW26188   3.717   5.715   3.220
 8430SOL    HW126189   3.678   5.633   3.263
 8430SOL    HW226190   3.766   5.768   3.289
 8431SOL     OW26191   3.184   4.163   1.037
 8431SOL    HW126192   3.267   4.219   1.041
 8431SOL    HW226193   3.104   4.221   1.046
 8432SOL     OW26194   6.033   6.357   5.867
 8432SOL    HW126195   6.113   6.410   5.839
 8432SOL    HW226196   5.953   6.389   5.816
 8433SOL     OW26197   4.920   2.634   0.594
 8433SOL    HW126198   4.919   2.559   0.660
 8433SOL    HW226199   5.004   2.687   0.605
 8434SOL     OW26200   2.819   0.187   4.794
 8434SOL    HW126201   2.895   0.154   4.739
 8434SOL    HW226202   2.753   0.234   4.736
 8435SOL     OW26203   6.211   0.782   1.391
 8435SOL    HW126204   6.305   0.756   1.410
 8435SOL    HW226205   6.209   0.874   1.351
 8436SOL     OW26206   3.596   6.407   3.074
 8436SOL    HW126207   3.537   6.328   3.056
 8436SOL    HW226208   3.595   6.469   2.995
 8437SOL     OW26209   2.413   1.391   4.424
 8437SOL    HW126210   2.360   1.306   4.415
 8437SOL    HW226211   2.436   1.425   4.333
 8438SOL     OW26212   2.329   4.710   2.683
 8438SOL    HW126213   2.372   4.795   2.714
 8438SOL    HW226214   2.231   4.727   2.669
 8439SOL     OW26215   5.856   5.171   2.770
 8439SOL    HW126216   5.904   5.226   2.838
 8439SOL    HW226217   5.810   5.094   2.815
 8440SOL     OW26218   2.012   1.965   3.254
 8440SOL    HW126219   2.062   1.938   3.337
 8440SOL    HW226220   2.030   2.061   3.235
 8441SOL     OW26221   5.584   6.703   0.128
 8441SOL    HW126222   5.562   6.646   0.049
 8441SOL    HW226223   5.683   6.715   0.133
 8442SOL     OW26224   3.475   1.676   4.977
 8442SOL    HW126225   3.535   1.747   4.940
 8442SOL    HW226226   3.414   1.715   5.045
 8443SOL     OW26227   2.497   4.532   3.398
 8443SOL    HW126228   2.447   4.466   3.342
 8443SOL    HW226229   2.469   4.523   3.493
 8444SOL     OW26230   3.434   6.520   4.483
 8444SOL    HW126231   3.462   6.431   4.447
 8444SOL    HW226232   3.487   6.592   4.438
 8445SOL     OW26233   3.165   7.013   1.406
 8445SOL    HW126234   3.085   6.975   1.454
 8445SOL    HW226235   3.248   6.990   1.457
 8446SOL     OW26236   5.043   5.712   6.818
 8446SOL    HW126237   5.034   5.643   6.891
 8446SOL    HW226238   5.137   5.712   6.784
 8447SOL     OW26239   5.252   2.162   1.989
 8447SOL    HW126240   5.247   2.227   2.064
 8447SOL    HW226241   5.203   2.198   1.910
 8448SOL     OW26242   4.266   5.469   4.228
 8448SOL    HW126243   4.205   5.408   4.178
 8448SOL    HW226244   4.242   5.468   4.325
 8449SOL     OW26245   0.184   2.881   3.646
 8449SOL    HW126246   0.246   2.944   3.600
 8449SOL    HW226247   0.143   2.819   3.579
 8450SOL     OW26248   0.195   0.247   0.947
 8450SOL    HW126249   0.241   0.223   1.032
 8450SOL    HW226250   0.209   0.175   0.880
 8451SOL     OW26251   3.459   1.581   6.960
 8451SOL    HW126252   3.533   1.516   6.941
 8451SOL    HW226253   3.371   1.539   6.938
 8452SOL     OW26254   6.191   1.905   2.838
 8452SOL    HW126255   6.229   1.829   2.890
 8452SOL    HW226256   6.144   1.968   2.900
 8453SOL     OW26257   0.426   4.413   6.893
 8453SOL    HW126258   0.434   4.327   6.943
 8453SOL    HW226259   0.506   4.425   6.834
 8454SOL     OW26260   6.603   6.628   1.391
 8454SOL    HW126261   6.636   6.701   1.451
 8454SOL    HW226262   6.657   6.545   1.407
 8455SOL     OW26263   6.516   1.762   1.753
 8455SOL    HW126264   6.475   1.749   1.663
 8455SOL    HW226265   6.615   1.751   1.748
 8456SOL     OW26266   4.133   5.897   3.468
 8456SOL    HW126267   4.229   5.870   3.463
 8456SOL    HW226268   4.110   5.922   3.562
 8457SOL     OW26269   6.891   6.563   4.868
 8457SOL    HW126270   6.889   6.470   4.831
 8457SOL    HW226271   6.938   6.624   4.804
 8458SOL     OW26272   3.161   0.443   0.047
 8458SOL    HW126273   3.203   0.354   0.065
 8458SOL    HW226274   3.171   0.466   6.970
 8459SOL     OW26275   2.589   5.866   2.268
 8459SOL    HW126276   2.647   5.785   2.257
 8459SOL    HW226277   2.494   5.843   2.249
 8460SOL     OW26278   4.174   4.255   5.295
 8460SOL    HW126279   4.207   4.328   5.235
 8460SOL    HW226280   4.081   4.229   5.268
 8461SOL     OW26281   1.178   4.055   4.707
 8461SOL    HW126282   1.222   4.142   4.729
 8461SOL    HW226283   1.162   4.050   4.609
 8462SOL     OW26284   2.241   2.702   6.502
 8462SOL    HW126285   2.303   2.741   6.571
 8462SOL    HW226286   2.280   2.714   6.411
 8463SOL     OW26287   6.972   0.318   1.083
 8463SOL    HW126288   0.042   0.306   1.041
 8463SOL    HW226289   6.983   0.359   1.174
 8464SOL     OW26290   5.787   3.773   3.970
 8464SOL    HW126291   5.749   3.726   4.050
 8464SOL    HW226292   5.758   3.725   3.887
 8465SOL     OW26293   1.149   3.208   0.464
 8465SOL    HW126294   1.220   3.143   0.437
 8465SOL    HW226295   1.070   3.158   0.498
 8466SOL     OW26296   0.999   6.231   4.302
 8466SOL    HW126297   0.954   6.219   4.213
 8466SOL    HW226298   0.957   6.306   4.351
 8467SOL     OW26299   3.722   6.942   6.900
 8467SOL    HW126300   3.787   7.017   6.913
 8467SOL    HW226301   3.637   6.977   6.860
 8468SOL     OW26302   3.854   1.619   6.503
 8468SOL    HW126303   3.828   1.569   6.421
 8468SOL    HW226304   3.953   1.631   6.506
 8469SOL     OW26305   3.045   1.629   6.646
 8469SOL    HW126306   3.035   1.712   6.700
 8469SOL    HW226307   3.042   1.549   6.706
 8470SOL     OW26308   0.744   4.346   0.010
 8470SOL    HW126309   0.671   4.281   0.032
 8470SOL    HW226310   0.832   4.299   0.016
 8471SOL     OW26311   3.115   1.059   3.142
 8471SOL    HW126312   3.202   1.088   3.182
 8471SOL    HW226313   3.044   1.126   3.165
 8472SOL     OW26314   0.106   0.874   4.362
 8472SOL    HW126315   0.180   0.827   4.409
 8472SOL    HW226316   0.121   0.972   4.366
 8473SOL     OW26317   6.431   5.424   6.349
 8473SOL    HW126318   6.365   5.365   6.396
 8473SOL    HW226319   6.431   5.403   6.251
 8474SOL     OW26320   3.279   3.511   2.377
 8474SOL    HW126321   3.263   3.428   2.324
 8474SOL    HW226322   3.342   3.491   2.453
 8475SOL     OW26323   0.730   2.296   3.212
 8475SOL    HW126324   0.811   2.272   3.158
 8475SOL    HW226325   0.721   2.232   3.288
 8476SOL     OW26326   6.245   1.857   0.844
 8476SOL    HW126327   6.238   1.921   0.767
 8476SOL    HW226328   6.197   1.895   0.923
 8477SOL     OW26329   4.597   6.809   1.549
 8477SOL    HW126330   4.673   6.745   1.540
 8477SOL    HW226331   4.601   6.853   1.638
 8478SOL     OW26332   1.056   0.370   6.079
 8478SOL    HW126333   0.987   0.350   6.010
 8478SOL    HW226334   1.124   0.297   6.080
 8479SOL     OW26335   6.720   2.607   1.191
 8479SOL    HW126336   6.662   2.631   1.269
 8479SOL    HW226337   6.677   2.640   1.107
 8480SOL     OW26338   4.272   1.370   6.901
 8480SOL    HW126339   4.354   1.329   6.940
 8480SOL    HW226340   4.294   1.408   6.811
 8481SOL     OW26341   4.965   2.269   3.706
 8481SOL    HW126342   4.992   2.178   3.674
 8481SOL    HW226343   4.877   2.293   3.665
 8482SOL     OW26344   4.819   6.255   2.453
 8482SOL    HW126345   4.865   6.285   2.537
 8482SOL    HW226346   4.722   6.240   2.472
 8483SOL     OW26347   4.049   6.347   2.080
 8483SOL    HW126348   4.077   6.438   2.049
 8483SOL    HW226349   4.115   6.279   2.047
 8484SOL     OW26350   0.373   5.807   2.823
 8484SOL    HW126351   0.455   5.795   2.767
 8484SOL    HW226352   0.378   5.896   2.869
 8485SOL     OW26353   3.057   2.974   0.374
 8485SOL    HW126354   3.113   2.913   0.317
 8485SOL    HW226355   2.962   2.942   0.374
 8486SOL     OW26356   4.492   1.116   2.777
 8486SOL    HW126357   4.524   1.085   2.867
 8486SOL    HW226358   4.557   1.089   2.707
 8487SOL     OW26359   5.524   1.454   6.339
 8487SOL    HW126360   5.585   1.376   6.326
 8487SOL    HW226361   5.453   1.430   6.405
 8488SOL     OW26362   5.765   4.970   5.598
 8488SOL    HW126363   5.842   4.918   5.635
 8488SOL    HW226364   5.692   4.907   5.569
 8489SOL     OW26365   6.644   1.112   0.771
 8489SOL    HW126366   6.664   1.112   0.673
 8489SOL    HW226367   6.551   1.146   0.786
 8490SOL     OW26368   3.993   6.545   4.344
 8490SOL    HW126369   3.910   6.524   4.396
 8490SOL    HW226370   4.071   6.500   4.386
 8491SOL     OW26371   1.940   6.893   0.570
 8491SOL    HW126372   1.871   6.825   0.594
 8491SOL    HW226373   1.912   6.983   0.602
 8492SOL     OW26374   4.571   4.431   6.448
 8492SOL    HW126375   4.575   4.480   6.361
 8492SOL    HW226376   4.631   4.351   6.445
 8493SOL     OW26377   2.661   1.995   6.101
 8493SOL    HW126378   2.696   2.082   6.066
 8493SOL    HW226379   2.717   1.965   6.178
 8494SOL     OW26380   2.983   4.527   1.402
 8494SOL    HW126381   2.941   4.496   1.317
 8494SOL    HW226382   2.913   4.541   1.471
 8495SOL     OW26383   6.704   4.418   1.277
 8495SOL    HW126384   6.606   4.400   1.276
 8495SOL    HW226385   6.740   4.417   1.184
 8496SOL     OW26386   0.938   1.648   2.039
 8496SOL    HW126387   0.992   1.662   2.122
 8496SOL    HW226388   1.000   1.633   1.962
 8497SOL     OW26389   6.308   1.160   3.633
 8497SOL    HW126390   6.344   1.075   3.597
 8497SOL    HW226391   6.257   1.208   3.562
 8498SOL     OW26392   0.384   6.209   2.792
 8498SOL    HW126393   0.389   6.140   2.864
 8498SOL    HW226394   0.297   6.202   2.745
 8499SOL     OW26395   2.514   5.068   6.305
 8499SOL    HW126396   2.612   5.084   6.291
 8499SOL    HW226397   2.496   4.970   6.308
 8500SOL     OW26398   2.329   6.614   5.310
 8500SOL    HW126399   2.415   6.628   5.359
 8500SOL    HW226400   2.320   6.517   5.285
 8501SOL     OW26401   0.432   1.989   6.805
 8501SOL    HW126402   0.411   2.043   6.724
 8501SOL    HW226403   0.419   1.892   6.784
 8502SOL     OW26404   1.884   4.666   1.327
 8502SOL    HW126405   1.901   4.730   1.252
 8502SOL    HW226406   1.971   4.643   1.370
 8503SOL     OW26407   1.398   6.873   3.868
 8503SOL    HW126408   1.361   6.963   3.844
 8503SOL    HW226409   1.343   6.833   3.941
 8504SOL     OW26410   2.895   5.449   3.384
 8504SOL    HW126411   2.840   5.465   3.466
 8504SOL    HW226412   2.987   5.420   3.411
 8505SOL     OW26413   4.748   4.157   3.813
 8505SOL    HW126414   4.748   4.123   3.719
 8505SOL    HW226415   4.763   4.080   3.876
 8506SOL     OW26416   6.303   1.329   0.165
 8506SOL    HW126417   6.359   1.410   0.147
 8506SOL    HW226418   6.294   1.275   0.081
 8507SOL     OW26419   3.734   1.140   5.357
 8507SOL    HW126420   3.780   1.196   5.289
 8507SOL    HW226421   3.799   1.109   5.426
 8508SOL     OW26422   6.674   1.840   4.875
 8508SOL    HW126423   6.577   1.846   4.897
 8508SOL    HW226424   6.700   1.915   4.815
 8509SOL     OW26425   4.903   1.700   3.457
 8509SOL    HW126426   4.995   1.665   3.439
 8509SOL    HW226427   4.846   1.626   3.493
 8510SOL     OW26428   5.466   4.552   3.449
 8510SOL    HW126429   5.551   4.540   3.398
 8510SOL    HW226430   5.412   4.468   3.444
 8511SOL     OW26431   6.506   3.975   1.621
 8511SOL    HW126432   6.425   3.946   1.569
 8511SOL    HW226433   6.548   3.895   1.664
 8512SOL     OW26434   3.578   2.209   1.403
 8512SOL    HW126435   3.575   2.199   1.502
 8512SOL    HW226436   3.612   2.124   1.362
 8513SOL     OW26437   4.805   4.044   1.686
 8513SOL    HW126438   4.881   4.076   1.629
 8513SOL    HW226439   4.841   3.981   1.756
 8514SOL     OW26440   3.301   2.150   3.645
 8514SOL    HW126441   3.370   2.110   3.585
 8514SOL    HW226442   3.217   2.166   3.593
 8515SOL     OW26443   5.603   1.114   0.067
 8515SOL    HW126444   5.645   1.201   0.096
 8515SOL    HW226445   5.556   1.073   0.145
 8516SOL     OW26446   6.535   1.313   1.512
 8516SOL    HW126447   6.527   1.357   1.422
 8516SOL    HW226448   6.520   1.214   1.501
 8517SOL     OW26449   1.490   3.291   6.816
 8517SOL    HW126450   1.575   3.263   6.771
 8517SOL    HW226451   1.494   3.390   6.834
 8518SOL     OW26452   4.959   4.400   6.770
 8518SOL    HW126453   4.897   4.471   6.803
 8518SOL    HW226454   5.051   4.417   6.805
 8519SOL     OW26455   1.107   4.109   1.592
 8519SOL    HW126456   1.154   4.022   1.609
 8519SOL    HW226457   1.082   4.115   1.496
 8520SOL     OW26458   3.377   3.229   0.275
 8520SOL    HW126459   3.438   3.304   0.249
 8520SOL    HW226460   3.315   3.209   0.199
 8521SOL     OW26461   2.429   5.041   5.818
 8521SOL    HW126462   2.401   5.072   5.908
 8521SOL    HW226463   2.355   5.056   5.752
 8522SOL     OW26464   1.272   6.194   0.948
 8522SOL    HW126465   1.352   6.232   0.902
 8522SOL    HW226466   1.234   6.262   1.011
 8523SOL     OW26467   2.122   6.474   6.933
 8523SOL    HW126468   2.042   6.514   6.978
 8523SOL    HW226469   2.112   6.375   6.931
 8524SOL     OW26470   0.551   2.977   5.765
 8524SOL    HW126471   0.534   2.988   5.667
 8524SOL    HW226472   0.516   3.057   5.814
 8525SOL     OW26473   6.107   4.405   1.944
 8525SOL    HW126474   6.105   4.387   2.042
 8525SOL    HW226475   6.177   4.349   1.901
 8526SOL     OW26476   4.459   6.362   6.762
 8526SOL    HW126477   4.491   6.392   6.672
 8526SOL    HW226478   4.380   6.302   6.751
 8527SOL     OW26479   2.582   1.002   6.433
 8527SOL    HW126480   2.620   1.075   6.377
 8527SOL    HW226481   2.491   0.977   6.399
 8528SOL     OW26482   3.213   1.426   6.947
 8528SOL    HW126483   3.252   1.372   0.002
 8528SOL    HW226484   3.200   1.368   6.867
 8529SOL     OW26485   0.847   0.265   0.941
 8529SOL    HW126486   0.941   0.295   0.953
 8529SOL    HW226487   0.838   0.217   0.853
 8530SOL     OW26488   3.674   4.185   5.703
 8530SOL    HW126489   3.588   4.154   5.662
 8530SOL    HW226490   3.745   4.189   5.632
 8531SOL     OW26491   6.410   4.861   2.808
 8531SOL    HW126492   6.448   4.881   2.718
 8531SOL    HW226493   6.462   4.910   2.878
 8532SOL     OW26494   4.098   4.869   5.004
 8532SOL    HW126495   4.085   4.840   5.099
 8532SOL    HW226496   4.044   4.952   4.987
 8533SOL     OW26497   1.414   6.936   6.690
 8533SOL    HW126498   1.480   7.006   6.664
 8533SOL    HW226499   1.341   6.931   6.622
 8534SOL     OW26500   6.370   2.623   3.923
 8534SOL    HW126501   6.289   2.624   3.864
 8534SOL    HW226502   6.444   2.575   3.876
 8535SOL     OW26503   6.161   1.423   3.778
 8535SOL    HW126504   6.169   1.331   3.740
 8535SOL    HW226505   6.134   1.417   3.874
 8536SOL     OW26506   0.207   2.436   4.625
 8536SOL    HW126507   0.141   2.503   4.659
 8536SOL    HW226508   0.164   2.347   4.618
 8537SOL     OW26509   5.075   0.531   3.087
 8537SOL    HW126510   5.140   0.606   3.099
 8537SOL    HW226511   5.000   0.542   3.151
 8538SOL     OW26512   0.540   1.017   6.904
 8538SOL    HW126513   0.510   1.109   6.881
 8538SOL    HW226514   0.460   0.960   6.922
 8539SOL     OW26515   5.204   0.828   2.858
 8539SOL    HW126516   5.297   0.794   2.848
 8539SOL    HW226517   5.205   0.914   2.909
 8540SOL     OW26518   5.126   0.136   6.242
 8540SOL    HW126519   5.210   0.085   6.226
 8540SOL    HW226520   5.058   0.077   6.285
 8541SOL     OW26521   2.611   1.614   4.482
 8541SOL    HW126522   2.539   1.682   4.500
 8541SOL    HW226523   2.570   1.526   4.460
 8542SOL     OW26524   4.091   4.669   0.078
 8542SOL    HW126525   4.177   4.720   0.085
 8542SOL    HW226526   4.108   4.582   0.033
 8543SOL     OW26527   2.963   0.884   0.902
 8543SOL    HW126528   3.044   0.936   0.931
 8543SOL    HW226529   2.937   0.914   0.810
 8544SOL     OW26530   5.504   3.035   4.441
 8544SOL    HW126531   5.472   3.024   4.535
 8544SOL    HW226532   5.461   3.115   4.400
 8545SOL     OW26533   4.691   0.001   5.492
 8545SOL    HW126534   4.782   0.034   5.470
 8545SOL    HW226535   4.623   0.064   5.455
 8546SOL     OW26536   0.085   1.524   3.867
 8546SOL    HW126537   7.020   1.573   3.889
 8546SOL    HW226538   0.075   1.478   3.779
 8547SOL     OW26539   1.811   6.661   6.027
 8547SOL    HW126540   1.812   6.606   6.110
 8547SOL    HW226541   1.905   6.677   5.997
 8548SOL     OW26542   5.796   2.100   5.460
 8548SOL    HW126543   5.856   2.079   5.382
 8548SOL    HW226544   5.729   2.026   5.470
 8549SOL     OW26545   1.375   2.897   3.762
 8549SOL    HW126546   1.383   2.852   3.673
 8549SOL    HW226547   1.467   2.919   3.796
 8550SOL     OW26548   1.599   4.783   0.138
 8550SOL    HW126549   1.614   4.685   0.151
 8550SOL    HW226550   1.687   4.831   0.133
 8551SOL     OW26551   3.588   3.872   6.549
 8551SOL    HW126552   3.489   3.872   6.537
 8551SOL    HW226553   3.611   3.897   6.643
 8552SOL     OW26554   2.053   0.420   4.211
 8552SOL    HW126555   2.024   0.469   4.294
 8552SOL    HW226556   2.145   0.448   4.186
 8553SOL     OW26557   4.552   4.631   0.107
 8553SOL    HW126558   4.544   4.599   0.012
 8553SOL    HW226559   4.648   4.637   0.132
 8554SOL     OW26560   0.982   4.729   0.747
 8554SOL    HW126561   0.942   4.714   0.838
 8554SOL    HW226562   1.005   4.826   0.737
 8555SOL     OW26563   2.037   1.320   2.640
 8555SOL    HW126564   2.076   1.411   2.623
 8555SOL    HW226565   1.950   1.329   2.687
 8556SOL     OW26566   1.541   6.276   5.382
 8556SOL    HW126567   1.568   6.371   5.367
 8556SOL    HW226568   1.447   6.263   5.351
 8557SOL     OW26569   5.924   0.093   2.925
 8557SOL    HW126570   5.848   0.036   2.893
 8557SOL    HW226571   5.976   0.127   2.846
 8558SOL     OW26572   3.398   5.085   3.298
 8558SOL    HW126573   3.485   5.036   3.295
 8558SOL    HW226574   3.324   5.021   3.276
 8559SOL     OW26575   0.112   0.642   2.641
 8559SOL    HW126576   0.178   0.637   2.565
 8559SOL    HW226577   0.023   0.667   2.606
 8560SOL     OW26578   6.481   6.218   2.077
 8560SOL    HW126579   6.511   6.124   2.060
 8560SOL    HW226580   6.549   6.282   2.040
 8561SOL     OW26581   3.231   0.934   2.120
 8561SOL    HW126582   3.242   0.979   2.031
 8561SOL    HW226583   3.262   0.839   2.113
 8562SOL     OW26584   3.369   5.027   5.465
 8562SOL    HW126585   3.406   5.003   5.375
 8562SOL    HW226586   3.296   4.964   5.489
 8563SOL     OW26587   1.963   4.298   6.985
 8563SOL    HW126588   2.022   4.370   6.947
 8563SOL    HW226589   1.878   4.293   6.932
 8564SOL     OW26590   3.050   1.254   4.403
 8564SOL    HW126591   3.016   1.190   4.334
 8564SOL    HW226592   2.978   1.271   4.471
 8565SOL     OW26593   4.063   5.437   0.900
 8565SOL    HW126594   4.049   5.475   0.992
 8565SOL    HW226595   4.038   5.506   0.831
 8566SOL     OW26596   1.520   0.635   1.324
 8566SOL    HW126597   1.595   0.582   1.363
 8566SOL    HW226598   1.434   0.605   1.365
 8567SOL     OW26599   0.453   2.286   2.444
 8567SOL    HW126600   0.533   2.273   2.502
 8567SOL    HW226601   0.462   2.230   2.362
 8568SOL     OW26602   5.588   1.118   6.150
 8568SOL    HW126603   5.615   1.171   6.230
 8568SOL    HW226604   5.563   1.025   6.178
 8569SOL     OW26605   5.137   1.225   5.976
 8569SOL    HW126606   5.037   1.230   5.979
 8569SOL    HW226607   5.169   1.161   6.045
 8570SOL     OW26608   1.217   2.729   4.958
 8570SOL    HW126609   1.245   2.670   4.883
 8570SOL    HW226610   1.172   2.674   5.028
 8571SOL     OW26611   1.536   5.532   5.702
 8571SOL    HW126612   1.629   5.567   5.710
 8571SOL    HW226613   1.481   5.568   5.777
 8572SOL     OW26614   3.053   4.944   0.162
 8572SOL    HW126615   3.110   4.995   0.098
 8572SOL    HW226616   3.011   4.866   0.115
 8573SOL     OW26617   3.625   6.498   5.846
 8573SOL    HW126618   3.643   6.463   5.937
 8573SOL    HW226619   3.533   6.472   5.817
 8574SOL     OW26620   6.913   5.498   5.156
 8574SOL    HW126621   6.939   5.480   5.061
 8574SOL    HW226622   6.908   5.596   5.172
 8575SOL     OW26623   2.681   2.424   5.045
 8575SOL    HW126624   2.641   2.347   5.093
 8575SOL    HW226625   2.717   2.394   4.956
 8576SOL     OW26626   1.864   5.294   6.911
 8576SOL    HW126627   1.949   5.288   6.963
 8576SOL    HW226628   1.820   5.205   6.909
 8577SOL     OW26629   6.858   6.234   3.977
 8577SOL    HW126630   6.864   6.170   4.054
 8577SOL    HW226631   6.796   6.197   3.908
 8578SOL     OW26632   5.617   1.197   4.848
 8578SOL    HW126633   5.530   1.214   4.802
 8578SOL    HW226634   5.684   1.267   4.821
 8579SOL     OW26635   1.195   6.898   2.634
 8579SOL    HW126636   1.248   6.903   2.718
 8579SOL    HW226637   1.115   6.958   2.641
 8580SOL     OW26638   2.886   6.346   2.496
 8580SOL    HW126639   2.824   6.349   2.417
 8580SOL    HW226640   2.842   6.390   2.574
 8581SOL     OW26641   3.230   3.981   2.185
 8581SOL    HW126642   3.277   3.893   2.178
 8581SOL    HW226643   3.158   3.975   2.254
 8582SOL     OW26644   4.496   4.463   2.931
 8582SOL    HW126645   4.522   4.367   2.927
 8582SOL    HW226646   4.549   4.515   2.864
 8583SOL     OW26647   5.611   0.782   4.745
 8583SOL    HW126648   5.562   0.777   4.657
 8583SOL    HW226649   5.557   0.735   4.815
 8584SOL     OW26650   0.893   4.084   5.976
 8584SOL    HW126651   0.795   4.079   5.994
 8584SOL    HW226652   0.916   4.025   5.899
 8585SOL     OW26653   0.513   5.992   6.232
 8585SOL    HW126654   0.473   5.904   6.257
 8585SOL    HW226655   0.568   5.980   6.149
 8586SOL     OW26656   2.839   0.388   3.077
 8586SOL    HW126657   2.882   0.416   3.163
 8586SOL    HW226658   2.907   0.347   3.018
 8587SOL     OW26659   1.831   0.007   3.572
 8587SOL    HW126660   1.779   6.945   3.549
 8587SOL    HW226661   1.778   0.063   3.637
 8588SOL     OW26662   2.383   0.700   0.228
 8588SOL    HW126663   2.332   0.689   0.142
 8588SOL    HW226664   2.366   0.621   0.287
 8589SOL     OW26665   4.998   2.713   4.792
 8589SOL    HW126666   4.957   2.642   4.734
 8589SOL    HW226667   5.055   2.669   4.862
 8590SOL     OW26668   0.222   6.290   4.126
 8590SOL    HW126669   0.215   6.390   4.133
 8590SOL    HW226670   0.265   6.254   4.209
 8591SOL     OW26671   6.638   4.210   6.988
 8591SOL    HW126672   6.551   4.260   6.984
 8591SOL    HW226673   6.687   4.236   0.052
 8592SOL     OW26674   6.979   2.875   6.630
 8592SOL    HW126675   0.014   2.834   6.703
 8592SOL    HW226676   6.938   2.960   6.663
 8593SOL     OW26677   2.782   0.068   1.726
 8593SOL    HW126678   2.771   0.166   1.709
 8593SOL    HW226679   2.695   0.022   1.715
 8594SOL     OW26680   3.846   2.628   5.507
 8594SOL    HW126681   3.756   2.619   5.550
 8594SOL    HW226682   3.843   2.587   5.416
 8595SOL     OW26683   1.381   2.745   3.067
 8595SOL    HW126684   1.308   2.747   2.999
 8595SOL    HW226685   1.393   2.651   3.099
 8596SOL     OW26686   6.354   5.076   3.616
 8596SOL    HW126687   6.366   5.161   3.667
 8596SOL    HW226688   6.337   5.001   3.679
 8597SOL     OW26689   4.070   1.074   0.781
 8597SOL    HW126690   4.115   1.063   0.692
 8597SOL    HW226691   3.977   1.110   0.767
 8598SOL     OW26692   6.604   6.602   0.883
 8598SOL    HW126693   6.571   6.692   0.912
 8598SOL    HW226694   6.640   6.554   0.962
 8599SOL     OW26695   1.258   2.698   4.374
 8599SOL    HW126696   1.251   2.749   4.460
 8599SOL    HW226697   1.167   2.683   4.336
 8600SOL     OW26698   4.936   5.092   6.071
 8600SOL    HW126699   4.855   5.144   6.043
 8600SOL    HW226700   5.018   5.135   6.032
 8601SOL     OW26701   0.962   0.704   5.053
 8601SOL    HW126702   0.984   0.740   4.963
 8601SOL    HW226703   0.909   0.619   5.043
 8602SOL     OW26704   3.446   5.345   3.224
 8602SOL    HW126705   3.500   5.390   3.295
 8602SOL    HW226706   3.425   5.252   3.251
 8603SOL     OW26707   3.887   5.343   0.434
 8603SOL    HW126708   3.881   5.293   0.521
 8603SOL    HW226709   3.863   5.282   0.359
 8604SOL     OW26710   0.630   3.286   3.761
 8604SOL    HW126711   0.686   3.279   3.843
 8604SOL    HW226712   0.641   3.204   3.706
 8605SOL     OW26713   2.856   5.569   4.688
 8605SOL    HW126714   2.799   5.513   4.748
 8605SOL    HW226715   2.948   5.530   4.684
 8606SOL     OW26716   1.472   3.154   6.088
 8606SOL    HW126717   1.434   3.208   6.013
 8606SOL    HW226718   1.546   3.206   6.131
 8607SOL     OW26719   3.688   6.143   1.447
 8607SOL    HW126720   3.689   6.051   1.486
 8607SOL    HW226721   3.627   6.145   1.367
 8608SOL     OW26722   4.209   5.537   2.878
 8608SOL    HW126723   4.139   5.602   2.849
 8608SOL    HW226724   4.166   5.449   2.897
 8609SOL     OW26725   5.903   1.049   3.289
 8609SOL    HW126726   5.958   0.985   3.344
 8609SOL    HW226727   5.879   1.007   3.202
 8610SOL     OW26728   1.861   2.146   2.747
 8610SOL    HW126729   1.920   2.140   2.666
 8610SOL    HW226730   1.816   2.058   2.762
 8611SOL     OW26731   2.847   1.733   4.441
 8611SOL    HW126732   2.891   1.704   4.356
 8611SOL    HW226733   2.771   1.671   4.461
 8612SOL     OW26734   3.505   2.961   0.894
 8612SOL    HW126735   3.437   2.980   0.965
 8612SOL    HW226736   3.596   2.982   0.929
 8613SOL     OW26737   2.327   2.119   1.285
 8613SOL    HW126738   2.253   2.110   1.219
 8613SOL    HW226739   2.315   2.054   1.360
 8614SOL     OW26740   1.290   3.532   2.320
 8614SOL    HW126741   1.291   3.435   2.345
 8614SOL    HW226742   1.243   3.544   2.233
 8615SOL     OW26743   5.098   2.100   5.116
 8615SOL    HW126744   4.998   2.100   5.105
 8615SOL    HW226745   5.127   2.012   5.151
 8616SOL     OW26746   3.179   4.651   1.544
 8616SOL    HW126747   3.110   4.612   1.482
 8616SOL    HW226748   3.143   4.650   1.638
 8617SOL     OW26749   0.066   0.872   6.411
 8617SOL    HW126750   0.098   0.966   6.417
 8617SOL    HW226751   7.019   0.854   6.483
 8618SOL     OW26752   6.270   6.223   0.818
 8618SOL    HW126753   6.362   6.215   0.857
 8618SOL    HW226754   6.272   6.287   0.741
 8619SOL     OW26755   3.822   4.889   2.368
 8619SOL    HW126756   3.770   4.905   2.452
 8619SOL    HW226757   3.759   4.872   2.293
 8620SOL     OW26758   0.843   0.241   4.001
 8620SOL    HW126759   0.908   0.275   4.069
 8620SOL    HW226760   0.781   0.175   4.043
 8621SOL     OW26761   6.177   1.507   2.570
 8621SOL    HW126762   6.142   1.576   2.634
 8621SOL    HW226763   6.108   1.436   2.556
 8622SOL     OW26764   4.624   2.707   0.526
 8622SOL    HW126765   4.628   2.781   0.459
 8622SOL    HW226766   4.716   2.677   0.549
 8623SOL     OW26767   0.868   3.775   3.448
 8623SOL    HW126768   0.873   3.803   3.352
 8623SOL    HW226769   0.772   3.766   3.475
 8624SOL     OW26770   0.649   3.641   4.874
 8624SOL    HW126771   0.726   3.627   4.936
 8624SOL    HW226772   0.661   3.583   4.793
 8625SOL     OW26773   4.247   0.071   5.772
 8625SOL    HW126774   4.296   0.072   5.860
 8625SOL    HW226775   4.215   0.163   5.751
 8626SOL     OW26776   3.851   2.895   5.626
 8626SOL    HW126777   3.867   2.809   5.579
 8626SOL    HW226778   3.859   2.882   5.725
 8627SOL     OW26779   0.337   1.448   3.368
 8627SOL    HW126780   0.267   1.401   3.315
 8627SOL    HW226781   0.422   1.452   3.315
 8628SOL     OW26782   6.288   6.288   1.157
 8628SOL    HW126783   6.223   6.345   1.108
 8628SOL    HW226784   6.242   6.206   1.191
 8629SOL     OW26785   1.164   4.807   5.254
 8629SOL    HW126786   1.145   4.865   5.174
 8629SOL    HW226787   1.103   4.728   5.254
 8630SOL     OW26788   5.265   4.325   3.326
 8630SOL    HW126789   5.174   4.357   3.352
 8630SOL    HW226790   5.279   4.233   3.361
 8631SOL     OW26791   2.387   5.808   6.007
 8631SOL    HW126792   2.460   5.786   6.072
 8631SOL    HW226793   2.364   5.727   5.954
 8632SOL     OW26794   3.556   6.127   3.816
 8632SOL    HW126795   3.627   6.123   3.746
 8632SOL    HW226796   3.588   6.181   3.894
 8633SOL     OW26797   5.445   1.963   4.991
 8633SOL    HW126798   5.422   2.015   4.909
 8633SOL    HW226799   5.418   1.868   4.979
 8634SOL     OW26800   5.737   3.286   6.960
 8634SOL    HW126801   5.638   3.274   6.967
 8634SOL    HW226802   5.775   3.300   0.032
 8635SOL     OW26803   5.457   4.563   6.294
 8635SOL    HW126804   5.467   4.643   6.236
 8635SOL    HW226805   5.515   4.489   6.260
 8636SOL     OW26806   5.139   5.863   0.443
 8636SOL    HW126807   5.063   5.798   0.440
 8636SOL    HW226808   5.158   5.888   0.538
 8637SOL     OW26809   1.811   0.831   0.101
 8637SOL    HW126810   1.796   0.745   0.149
 8637SOL    HW226811   1.814   0.906   0.166
 8638SOL     OW26812   2.660   2.708   6.709
 8638SOL    HW126813   2.675   2.691   6.806
 8638SOL    HW226814   2.565   2.734   6.694
 8639SOL     OW26815   5.058   2.254   1.806
 8639SOL    HW126816   5.065   2.353   1.822
 8639SOL    HW226817   4.976   2.235   1.753
 8640SOL     OW26818   4.493   3.818   0.648
 8640SOL    HW126819   4.424   3.799   0.719
 8640SOL    HW226820   4.546   3.899   0.674
 8641SOL     OW26821   5.770   5.054   4.263
 8641SOL    HW126822   5.672   5.033   4.262
 8641SOL    HW226823   5.808   5.033   4.354
 8642SOL     OW26824   2.648   0.180   3.209
 8642SOL    HW126825   2.668   0.235   3.127
 8642SOL    HW226826   2.657   0.237   3.290
 8643SOL     OW26827   2.976   0.549   6.386
 8643SOL    HW126828   2.927   0.528   6.301
 8643SOL    HW226829   2.966   0.646   6.407
 8644SOL     OW26830   4.665   2.031   5.540
 8644SOL    HW126831   4.595   2.103   5.533
 8644SOL    HW226832   4.628   1.952   5.588
 8645SOL     OW26833   4.299   4.529   1.052
 8645SOL    HW126834   4.278   4.447   1.000
 8645SOL    HW226835   4.273   4.516   1.148
 8646SOL     OW26836   6.239   1.009   1.600
 8646SOL    HW126837   6.286   1.082   1.649
 8646SOL    HW226838   6.267   1.010   1.504
 8647SOL     OW26839   2.585   5.712   5.721
 8647SOL    HW126840   2.598   5.678   5.628
 8647SOL    HW226841   2.540   5.642   5.776
 8648SOL     OW26842   6.422   0.932   3.541
 8648SOL    HW126843   6.517   0.932   3.573
 8648SOL    HW226844   6.410   0.860   3.474
 8649SOL     OW26845   5.161   4.501   5.871
 8649SOL    HW126846   5.133   4.574   5.810
 8649SOL    HW226847   5.259   4.483   5.860
 8650SOL     OW26848   2.091   4.900   5.787
 8650SOL    HW126849   2.132   4.967   5.725
 8650SOL    HW226850   2.051   4.826   5.735
 8651SOL     OW26851   3.671   0.432   0.907
 8651SOL    HW126852   3.709   0.438   1.000
 8651SOL    HW226853   3.671   0.522   0.865
 8652SOL     OW26854   1.870   3.663   4.079
 8652SOL    HW126855   1.812   3.582   4.075
 8652SOL    HW226856   1.966   3.635   4.090
 8653SOL     OW26857   6.071   0.937   6.146
 8653SOL    HW126858   6.120   1.014   6.105
 8653SOL    HW226859   6.070   0.948   6.246
 8654SOL     OW26860   0.999   5.116   1.345
 8654SOL    HW126861   1.087   5.094   1.303
 8654SOL    HW226862   0.935   5.148   1.275
 8655SOL     OW26863   6.557   1.478   3.914
 8655SOL    HW126864   6.646   1.452   3.879
 8655SOL    HW226865   6.568   1.525   4.002
 8656SOL     OW26866   6.383   1.198   0.823
 8656SOL    HW126867   6.350   1.107   0.845
 8656SOL    HW226868   6.402   1.249   0.907
 8657SOL     OW26869   5.106   4.494   0.349
 8657SOL    HW126870   5.150   4.576   0.313
 8657SOL    HW226871   5.055   4.449   0.275
 8658SOL     OW26872   3.976   6.690   0.352
 8658SOL    HW126873   3.880   6.717   0.353
 8658SOL    HW226874   3.995   6.631   0.431
 8659SOL     OW26875   4.625   1.297   3.113
 8659SOL    HW126876   4.654   1.296   3.018
 8659SOL    HW226877   4.667   1.376   3.160
 8660SOL     OW26878   5.653   3.615   0.603
 8660SOL    HW126879   5.680   3.711   0.595
 8660SOL    HW226880   5.553   3.609   0.607
 8661SOL     OW26881   5.864   4.289   1.213
 8661SOL    HW126882   5.930   4.321   1.145
 8661SOL    HW226883   5.809   4.215   1.175
 8662SOL     OW26884   4.483   6.078   0.950
 8662SOL    HW126885   4.431   6.162   0.930
 8662SOL    HW226886   4.566   6.076   0.893
 8663SOL     OW26887   2.985   6.080   1.705
 8663SOL    HW126888   3.050   6.005   1.712
 8663SOL    HW226889   3.031   6.166   1.727
 8664SOL     OW26890   3.200   6.322   1.012
 8664SOL    HW126891   3.144   6.400   0.985
 8664SOL    HW226892   3.162   6.280   1.094
 8665SOL     OW26893   5.687   6.254   4.905
 8665SOL    HW126894   5.601   6.209   4.883
 8665SOL    HW226895   5.680   6.351   4.886
 8666SOL     OW26896   5.133   1.342   4.402
 8666SOL    HW126897   5.052   1.401   4.409
 8666SOL    HW226898   5.165   1.318   4.494
 8667SOL     OW26899   5.035   2.315   2.871
 8667SOL    HW126900   5.122   2.277   2.842
 8667SOL    HW226901   5.012   2.394   2.814
 8668SOL     OW26902   5.578   3.857   3.440
 8668SOL    HW126903   5.566   3.833   3.536
 8668SOL    HW226904   5.571   3.956   3.429
 8669SOL     OW26905   2.422   6.048   0.015
 8669SOL    HW126906   2.457   6.046   0.109
 8669SOL    HW226907   2.414   5.955   7.000
 8670SOL     OW26908   3.841   4.299   5.206
 8670SOL    HW126909   3.741   4.299   5.214
 8670SOL    HW226910   3.870   4.220   5.152
 8671SOL     OW26911   5.433   2.134   3.517
 8671SOL    HW126912   5.400   2.095   3.603
 8671SOL    HW226913   5.514   2.083   3.486
 8672SOL     OW26914   1.961   4.805   3.826
 8672SOL    HW126915   2.031   4.762   3.884
 8672SOL    HW226916   1.966   4.904   3.836
 8673SOL     OW26917   6.044   2.596   0.628
 8673SOL    HW126918   6.033   2.497   0.623
 8673SOL    HW226919   5.968   2.636   0.680
 8674SOL     OW26920   5.554   5.572   3.803
 8674SOL    HW126921   5.580   5.592   3.709
 8674SOL    HW226922   5.464   5.528   3.805
 8675SOL     OW26923   3.421   2.067   3.882
 8675SOL    HW126924   3.382   2.117   3.805
 8675SOL    HW226925   3.347   2.035   3.942
 8676SOL     OW26926   4.408   0.269   2.709
 8676SOL    HW126927   4.464   0.192   2.681
 8676SOL    HW226928   4.328   0.236   2.760
 8677SOL     OW26929   2.605   5.912   5.263
 8677SOL    HW126930   2.554   5.945   5.342
 8677SOL    HW226931   2.548   5.921   5.181
 8678SOL     OW26932   6.423   0.343   1.378
 8678SOL    HW126933   6.373   0.390   1.451
 8678SOL    HW226934   6.521   0.358   1.390
 8679SOL     OW26935   0.147   2.536   3.241
 8679SOL    HW126936   0.111   2.466   3.301
 8679SOL    HW226937   0.134   2.508   3.145
 8680SOL     OW26938   1.058   3.884   1.129
 8680SOL    HW126939   1.134   3.924   1.079
 8680SOL    HW226940   1.001   3.831   1.067
 8681SOL     OW26941   4.797   5.337   0.347
 8681SOL    HW126942   4.716   5.353   0.290
 8681SOL    HW226943   4.868   5.293   0.292
 8682SOL     OW26944   5.745   7.009   1.521
 8682SOL    HW126945   5.709   0.079   1.499
 8682SOL    HW226946   5.779   7.008   1.615
 8683SOL     OW26947   2.120   2.363   2.746
 8683SOL    HW126948   2.039   2.420   2.734
 8683SOL    HW226949   2.186   2.384   2.674
 8684SOL     OW26950   0.518   2.754   5.209
 8684SOL    HW126951   0.476   2.844   5.223
 8684SOL    HW226952   0.617   2.763   5.208
 8685SOL     OW26953   0.949   1.978   6.114
 8685SOL    HW126954   0.894   1.959   6.032
 8685SOL    HW226955   1.023   1.912   6.120
 8686SOL     OW26956   0.304   1.212   1.542
 8686SOL    HW126957   0.284   1.275   1.467
 8686SOL    HW226958   0.360   1.137   1.508
 8687SOL     OW26959   4.203   5.649   2.137
 8687SOL    HW126960   4.229   5.743   2.114
 8687SOL    HW226961   4.115   5.627   2.094
 8688SOL     OW26962   2.530   6.017   0.266
 8688SOL    HW126963   2.470   6.061   0.332
 8688SOL    HW226964   2.577   5.940   0.309
 8689SOL     OW26965   3.813   3.801   1.615
 8689SOL    HW126966   3.791   3.869   1.685
 8689SOL    HW226967   3.748   3.725   1.620
 8690SOL     OW26968   1.515   3.093   2.966
 8690SOL    HW126969   1.480   3.138   3.048
 8690SOL    HW226970   1.453   3.111   2.889
 8691SOL     OW26971   3.264   1.968   6.718
 8691SOL    HW126972   3.341   1.905   6.719
 8691SOL    HW226973   3.297   2.062   6.732
 8692SOL     OW26974   2.056   1.745   3.703
 8692SOL    HW126975   2.032   1.779   3.794
 8692SOL    HW226976   2.026   1.650   3.694
 8693SOL     OW26977   6.530   1.115   0.081
 8693SOL    HW126978   6.617   1.130   0.034
 8693SOL    HW226979   6.457   1.105   0.013
 8694SOL     OW26980   4.611   1.172   4.760
 8694SOL    HW126981   4.711   1.171   4.760
 8694SOL    HW226982   4.578   1.129   4.676
 8695SOL     OW26983   3.587   2.454   6.019
 8695SOL    HW126984   3.502   2.403   6.006
 8695SOL    HW226985   3.572   2.551   5.997
 8696SOL     OW26986   2.310   5.659   0.146
 8696SOL    HW126987   2.218   5.622   0.132
 8696SOL    HW226988   2.306   5.729   0.218
 8697SOL     OW26989   6.761   2.749   0.193
 8697SOL    HW126990   6.803   2.790   0.274
 8697SOL    HW226991   6.667   2.782   0.185
 8698SOL     OW26992   5.596   5.872   4.689
 8698SOL    HW126993   5.590   5.883   4.590
 8698SOL    HW226994   5.691   5.851   4.714
 8699SOL     OW26995   2.881   2.389   5.796
 8699SOL    HW126996   2.801   2.332   5.777
 8699SOL    HW226997   2.957   2.359   5.739
 8700SOL     OW26998   0.760   0.780   4.478
 8700SOL    HW126999   0.720   0.803   4.567
 8700SOL    HW227000   0.689   0.745   4.417
 8701SOL     OW27001   0.497   1.274   0.329
 8701SOL    HW127002   0.566   1.210   0.296
 8701SOL    HW227003   0.534   1.367   0.325
 8702SOL     OW27004   4.717   5.223   1.376
 8702SOL    HW127005   4.724   5.174   1.463
 8702SOL    HW227006   4.645   5.292   1.382
 8703SOL     OW27007   3.275   4.886   0.345
 8703SOL    HW127008   3.198   4.928   0.297
 8703SOL    HW227009   3.246   4.798   0.383
 8704SOL     OW27010   6.881   3.616   3.053
 8704SOL    HW127011   6.890   3.538   3.115
 8704SOL    HW227012   6.784   3.631   3.032
 8705SOL     OW27013   5.062   1.087   6.376
 8705SOL    HW127014   4.996   1.038   6.319
 8705SOL    HW227015   5.039   1.074   6.472
 8706SOL     OW27016   4.357   2.005   6.663
 8706SOL    HW127017   4.454   2.013   6.639
 8706SOL    HW227018   4.301   2.029   6.584
 8707SOL     OW27019   6.976   2.674   0.015
 8707SOL    HW127020   6.911   2.750   0.022
 8707SOL    HW227021   6.964   2.613   0.094
 8708SOL     OW27022   4.983   2.585   2.126
 8708SOL    HW127023   4.931   2.523   2.185
 8708SOL    HW227024   4.919   2.642   2.073
 8709SOL     OW27025   6.987   6.081   0.161
 8709SOL    HW127026   6.929   6.029   0.098
 8709SOL    HW227027   6.954   6.175   0.167
 8710SOL     OW27028   2.110   3.033   4.305
 8710SOL    HW127029   2.072   2.945   4.334
 8710SOL    HW227030   2.148   3.024   4.213
 8711SOL     OW27031   1.212   6.466   3.075
 8711SOL    HW127032   1.198   6.379   3.028
 8711SOL    HW227033   1.261   6.528   3.014
 8712SOL     OW27034   4.181   2.307   4.747
 8712SOL    HW127035   4.190   2.364   4.829
 8712SOL    HW227036   4.269   2.263   4.728
 8713SOL     OW27037   0.520   3.158   4.376
 8713SOL    HW127038   0.447   3.185   4.439
 8713SOL    HW227039   0.480   3.114   4.296
 8714SOL     OW27040   1.236   1.236   6.191
 8714SOL    HW127041   1.312   1.275   6.139
 8714SOL    HW227042   1.235   1.275   6.283
 8715SOL     OW27043   4.557   0.247   1.704
 8715SOL    HW127044   4.564   0.163   1.758
 8715SOL    HW227045   4.542   0.225   1.608
 8716SOL     OW27046   0.275   0.270   1.238
 8716SOL    HW127047   0.247   0.362   1.211
 8716SOL    HW227048   0.370   0.273   1.271
 8717SOL     OW27049   3.586   3.613   4.142
 8717SOL    HW127050   3.637   3.529   4.128
 8717SOL    HW227051   3.639   3.691   4.108
 8718SOL     OW27052   0.913   3.610   5.008
 8718SOL    HW127053   1.009   3.636   5.022
 8718SOL    HW227054   0.889   3.538   5.072
 8719SOL     OW27055   3.292   0.504   6.263
 8719SOL    HW127056   3.243   0.559   6.196
 8719SOL    HW227057   3.230   0.436   6.302
 8720SOL     OW27058   6.213   4.886   5.815
 8720SOL    HW127059   6.202   4.917   5.910
 8720SOL    HW227060   6.192   4.788   5.809
 8721SOL     OW27061   6.928   2.908   2.399
 8721SOL    HW127062   6.857   2.947   2.459
 8721SOL    HW227063   6.885   2.850   2.330
 8722SOL     OW27064   4.112   1.609   7.012
 8722SOL    HW127065   4.161   1.522   7.008
 8722SOL    HW227066   4.094   1.634   0.087
 8723SOL     OW27067   4.680   5.792   0.964
 8723SOL    HW127068   4.584   5.821   0.965
 8723SOL    HW227069   4.735   5.855   1.018
 8724SOL     OW27070   4.865   0.330   5.484
 8724SOL    HW127071   4.875   0.416   5.535
 8724SOL    HW227072   4.871   0.253   5.547
 8725SOL     OW27073   1.625   6.863   6.352
 8725SOL    HW127074   1.683   6.799   6.401
 8725SOL    HW227075   1.660   6.956   6.365
 8726SOL     OW27076   6.740   0.453   2.074
 8726SOL    HW127077   6.674   0.526   2.058
 8726SOL    HW227078   6.692   0.365   2.076
 8727SOL     OW27079   0.096   5.779   2.547
 8727SOL    HW127080   0.077   5.772   2.645
 8727SOL    HW227081   0.078   5.873   2.516
 8728SOL     OW27082   5.671   0.345   3.330
 8728SOL    HW127083   5.740   0.394   3.383
 8728SOL    HW227084   5.675   0.248   3.353
 8729SOL     OW27085   4.434   5.458   4.705
 8729SOL    HW127086   4.526   5.423   4.691
 8729SOL    HW227087   4.422   5.482   4.802
 8730SOL     OW27088   6.456   4.156   2.273
 8730SOL    HW127089   6.379   4.125   2.216
 8730SOL    HW227090   6.421   4.184   2.362
 8731SOL     OW27091   2.461   2.485   2.723
 8731SOL    HW127092   2.546   2.472   2.773
 8731SOL    HW227093   2.471   2.448   2.630
 8732SOL     OW27094   5.626   4.691   1.607
 8732SOL    HW127095   5.668   4.778   1.581
 8732SOL    HW227096   5.545   4.676   1.551
 8733SOL     OW27097   1.566   5.484   1.072
 8733SOL    HW127098   1.620   5.529   1.001
 8733SOL    HW227099   1.490   5.433   1.030
 8734SOL     OW27100   2.043   4.826   2.178
 8734SOL    HW127101   2.055   4.918   2.216
 8734SOL    HW227102   1.968   4.826   2.112
 8735SOL     OW27103   1.115   2.631   0.528
 8735SOL    HW127104   1.189   2.568   0.501
 8735SOL    HW227105   1.050   2.582   0.586
 8736SOL     OW27106   1.040   5.866   6.378
 8736SOL    HW127107   1.019   5.962   6.398
 8736SOL    HW227108   1.139   5.855   6.368
 8737SOL     OW27109   2.173   6.871   6.009
 8737SOL    HW127110   2.100   6.927   6.049
 8737SOL    HW227111   2.213   6.813   6.081
 8738SOL     OW27112   2.218   5.694   4.367
 8738SOL    HW127113   2.271   5.624   4.320
 8738SOL    HW227114   2.244   5.697   4.463
 8739SOL     OW27115   5.729   5.419   6.045
 8739SOL    HW127116   5.765   5.405   5.953
 8739SOL    HW227117   5.772   5.500   6.086
 8740SOL     OW27118   4.802   1.080   5.165
 8740SOL    HW127119   4.776   1.014   5.094
 8740SOL    HW227120   4.901   1.078   5.178
 8741SOL     OW27121   2.867   1.649   1.681
 8741SOL    HW127122   2.835   1.661   1.587
 8741SOL    HW227123   2.961   1.614   1.680
 8742SOL     OW27124   5.878   6.085   0.730
 8742SOL    HW127125   5.839   6.177   0.728
 8742SOL    HW227126   5.938   6.072   0.651
 8743SOL     OW27127   1.560   0.468   2.359
 8743SOL    HW127128   1.469   0.478   2.399
 8743SOL    HW227129   1.601   0.558   2.345
 8744SOL     OW27130   3.142   2.575   6.506
 8744SOL    HW127131   3.171   2.514   6.432
 8744SOL    HW227132   3.132   2.668   6.470
 8745SOL     OW27133   5.554   2.986   6.195
 8745SOL    HW127134   5.602   3.011   6.278
 8745SOL    HW227135   5.575   2.891   6.171
 8746SOL     OW27136   5.441   3.727   4.901
 8746SOL    HW127137   5.390   3.807   4.934
 8746SOL    HW227138   5.456   3.664   4.978
 8747SOL     OW27139   0.928   2.743   3.224
 8747SOL    HW127140   1.001   2.682   3.192
 8747SOL    HW227141   0.845   2.690   3.239
 8748SOL     OW27142   0.086   1.373   5.021
 8748SOL    HW127143   0.156   1.359   5.092
 8748SOL    HW227144   0.026   1.448   5.050
 8749SOL     OW27145   2.600   0.774   6.111
 8749SOL    HW127146   2.501   0.781   6.126
 8749SOL    HW227147   2.617   0.750   6.016
 8750SOL     OW27148   3.474   3.645   5.696
 8750SOL    HW127149   3.552   3.704   5.673
 8750SOL    HW227150   3.505   3.571   5.756
 8751SOL     OW27151   5.932   1.450   2.204
 8751SOL    HW127152   5.850   1.415   2.248
 8751SOL    HW227153   6.010   1.441   2.267
 8752SOL     OW27154   2.817   4.126   0.587
 8752SOL    HW127155   2.871   4.076   0.518
 8752SOL    HW227156   2.869   4.132   0.672
 8753SOL     OW27157   4.130   1.695   5.461
 8753SOL    HW127158   4.094   1.767   5.521
 8753SOL    HW227159   4.139   1.730   5.368
 8754SOL     OW27160   1.203   3.273   5.456
 8754SOL    HW127161   1.293   3.291   5.497
 8754SOL    HW227162   1.132   3.313   5.513
 8755SOL     OW27163   2.349   6.916   0.847
 8755SOL    HW127164   2.438   6.872   0.844
 8755SOL    HW227165   2.286   6.862   0.903
 8756SOL     OW27166   1.647   2.869   3.521
 8756SOL    HW127167   1.667   2.949   3.578
 8756SOL    HW227168   1.707   2.869   3.441
 8757SOL     OW27169   4.121   6.347   5.653
 8757SOL    HW127170   4.029   6.385   5.661
 8757SOL    HW227171   4.171   6.396   5.581
 8758SOL     OW27172   5.195   6.265   2.688
 8758SOL    HW127173   5.241   6.295   2.604
 8758SOL    HW227174   5.097   6.275   2.677
 8759SOL     OW27175   4.208   2.273   0.250
 8759SOL    HW127176   4.190   2.193   0.192
 8759SOL    HW227177   4.168   2.355   0.207
 8760SOL     OW27178   1.243   1.393   4.864
 8760SOL    HW127179   1.309   1.407   4.938
 8760SOL    HW227180   1.287   1.413   4.776
 8761SOL     OW27181   5.765   2.853   2.615
 8761SOL    HW127182   5.707   2.780   2.580
 8761SOL    HW227183   5.859   2.839   2.583
 8762SOL     OW27184   1.091   4.268   2.835
 8762SOL    HW127185   0.995   4.245   2.820
 8762SOL    HW227186   1.119   4.236   2.926
 8763SOL     OW27187   6.828   6.515   5.900
 8763SOL    HW127188   6.835   6.613   5.886
 8763SOL    HW227189   6.856   6.492   5.993
 8764SOL     OW27190   5.099   0.774   5.248
 8764SOL    HW127191   5.163   0.811   5.181
 8764SOL    HW227192   5.150   0.723   5.317
 8765SOL     OW27193   5.720   0.144   4.690
 8765SOL    HW127194   5.757   0.222   4.739
 8765SOL    HW227195   5.635   0.114   4.734
 8766SOL     OW27196   4.820   4.606   3.822
 8766SOL    HW127197   4.754   4.650   3.761
 8766SOL    HW227198   4.913   4.635   3.797
 8767SOL     OW27199   4.666   6.307   2.856
 8767SOL    HW127200   4.737   6.303   2.927
 8767SOL    HW227201   4.650   6.402   2.830
 8768SOL     OW27202   1.382   3.040   0.446
 8768SOL    HW127203   1.404   2.999   0.534
 8768SOL    HW227204   1.309   2.988   0.403
 8769SOL     OW27205   0.764   0.548   3.967
 8769SOL    HW127206   0.783   0.469   4.025
 8769SOL    HW227207   0.846   0.605   3.960
 8770SOL     OW27208   5.225   4.371   2.379
 8770SOL    HW127209   5.277   4.455   2.366
 8770SOL    HW227210   5.248   4.330   2.467
 8771SOL     OW27211   1.280   0.487   6.845
 8771SOL    HW127212   1.195   0.494   6.793
 8771SOL    HW227213   1.354   0.458   6.783
 8772SOL     OW27214   4.734   6.796   6.937
 8772SOL    HW127215   4.801   6.734   6.977
 8772SOL    HW227216   4.648   6.789   6.988
 8773SOL     OW27217   4.565   2.591   3.580
 8773SOL    HW127218   4.540   2.559   3.489
 8773SOL    HW227219   4.509   2.545   3.649
 8774SOL     OW27220   1.361   1.438   6.740
 8774SOL    HW127221   1.333   1.412   6.832
 8774SOL    HW227222   1.414   1.364   6.698
 8775SOL     OW27223   6.176   0.027   6.028
 8775SOL    HW127224   6.252   0.084   6.062
 8775SOL    HW227225   6.195   7.019   5.934
 8776SOL     OW27226   3.833   3.551   6.235
 8776SOL    HW127227   3.745   3.546   6.282
 8776SOL    HW227228   3.892   3.477   6.267
 8777SOL     OW27229   0.130   3.761   1.572
 8777SOL    HW127230   0.056   3.826   1.589
 8777SOL    HW227231   0.146   3.706   1.654
 8778SOL     OW27232   6.374   2.767   4.855
 8778SOL    HW127233   6.327   2.847   4.820
 8778SOL    HW227234   6.380   2.772   4.955
 8779SOL     OW27235   2.989   5.430   2.265
 8779SOL    HW127236   2.895   5.395   2.271
 8779SOL    HW227237   3.047   5.383   2.331
 8780SOL     OW27238   0.918   5.767   2.562
 8780SOL    HW127239   0.997   5.714   2.591
 8780SOL    HW227240   0.844   5.756   2.629
 8781SOL     OW27241   5.700   1.420   3.136
 8781SOL    HW127242   5.683   1.398   3.040
 8781SOL    HW227243   5.669   1.345   3.194
 8782SOL     OW27244   5.123   6.586   1.718
 8782SOL    HW127245   5.203   6.634   1.682
 8782SOL    HW227246   5.128   6.582   1.818
 8783SOL     OW27247   6.496   3.896   3.369
 8783SOL    HW127248   6.522   3.903   3.273
 8783SOL    HW227249   6.486   3.800   3.394
 8784SOL     OW27250   5.629   4.308   6.418
 8784SOL    HW127251   5.552   4.330   6.478
 8784SOL    HW227252   5.608   4.224   6.366
 8785SOL     OW27253   6.069   3.211   6.679
 8785SOL    HW127254   6.092   3.302   6.644
 8785SOL    HW227255   6.006   3.166   6.616
 8786SOL     OW27256   1.816   6.928   0.305
 8786SOL    HW127257   1.870   6.862   0.357
 8786SOL    HW227258   1.768   6.990   0.368
 8787SOL     OW27259   2.962   2.663   1.730
 8787SOL    HW127260   3.035   2.636   1.668
 8787SOL    HW227261   2.939   2.587   1.790
 8788SOL     OW27262   0.612   2.165   5.990
 8788SOL    HW127263   0.673   2.160   5.912
 8788SOL    HW227264   0.620   2.081   6.045
 8789SOL     OW27265   6.109   6.855   5.536
 8789SOL    HW127266   6.014   6.860   5.568
 8789SOL    HW227267   6.110   6.827   5.440
 8790SOL     OW27268   0.568   0.733   6.626
 8790SOL    HW127269   0.470   0.719   6.638
 8790SOL    HW227270   0.616   0.711   6.711
 8791SOL     OW27271   5.423   0.198   5.214
 8791SOL    HW127272   5.430   0.219   5.312
 8791SOL    HW227273   5.340   0.241   5.177
 8792SOL     OW27274   3.612   6.743   3.031
 8792SOL    HW127275   3.697   6.710   3.073
 8792SOL    HW227276   3.545   6.762   3.102
 8793SOL     OW27277   2.048   4.595   3.343
 8793SOL    HW127278   1.957   4.629   3.320
 8793SOL    HW227279   2.077   4.527   3.276
 8794SOL     OW27280   3.919   6.357   1.747
 8794SOL    HW127281   3.993   6.340   1.682
 8794SOL    HW227282   3.952   6.416   1.821
 8795SOL     OW27283   1.778   5.789   5.478
 8795SOL    HW127284   1.713   5.783   5.402
 8795SOL    HW227285   1.741   5.850   5.548
 8796SOL     OW27286   4.169   2.269   4.065
 8796SOL    HW127287   4.223   2.205   4.009
 8796SOL    HW227288   4.075   2.270   4.033
 8797SOL     OW27289   0.700   6.875   6.138
 8797SOL    HW127290   0.799   6.880   6.135
 8797SOL    HW227291   0.663   6.958   6.181
 8798SOL     OW27292   5.171   5.601   5.881
 8798SOL    HW127293   5.174   5.572   5.977
 8798SOL    HW227294   5.102   5.548   5.833
 8799SOL     OW27295   2.140   4.770   4.035
 8799SOL    HW127296   2.202   4.849   4.037
 8799SOL    HW227297   2.082   4.772   4.116
 8800SOL     OW27298   5.864   3.559   5.319
 8800SOL    HW127299   5.935   3.563   5.249
 8800SOL    HW227300   5.870   3.471   5.367
 8801SOL     OW27301   0.367   2.267   5.101
 8801SOL    HW127302   0.304   2.332   5.057
 8801SOL    HW227303   0.325   2.177   5.104
 8802SOL     OW27304   1.758   6.674   0.704
 8802SOL    HW127305   1.686   6.673   0.635
 8802SOL    HW227306   1.806   6.586   0.703
 8803SOL     OW27307   6.572   5.282   6.572
 8803SOL    HW127308   6.539   5.334   6.493
 8803SOL    HW227309   6.604   5.346   6.642
 8804SOL     OW27310   2.674   0.477   2.216
 8804SOL    HW127311   2.606   0.411   2.183
 8804SOL    HW227312   2.741   0.495   2.144
 8805SOL     OW27313   2.879   0.017   4.131
 8805SOL    HW127314   2.805   6.980   4.168
 8805SOL    HW227315   2.961   6.981   4.119
 8806SOL     OW27316   2.837   5.511   2.776
 8806SOL    HW127317   2.857   5.534   2.681
 8806SOL    HW227318   2.874   5.420   2.796
 8807SOL     OW27319   5.323   0.030   6.782
 8807SOL    HW127320   5.376   0.025   6.867
 8807SOL    HW227321   5.225   0.033   6.804
 8808SOL     OW27322   5.658   2.669   6.986
 8808SOL    HW127323   5.696   2.592   0.018
 8808SOL    HW227324   5.732   2.729   6.956
 8809SOL     OW27325   4.703   5.217   3.877
 8809SOL    HW127326   4.744   5.207   3.786
 8809SOL    HW227327   4.672   5.311   3.889
 8810SOL     OW27328   5.047   0.742   5.947
 8810SOL    HW127329   5.015   0.650   5.969
 8810SOL    HW227330   5.146   0.748   5.965
 8811SOL     OW27331   2.884   1.191   3.541
 8811SOL    HW127332   2.880   1.107   3.487
 8811SOL    HW227333   2.977   1.226   3.541
 8812SOL     OW27334   2.221   0.084   0.705
 8812SOL    HW127335   2.136   0.094   0.758
 8812SOL    HW227336   2.255   7.010   0.716
 8813SOL     OW27337   1.714   4.872   1.793
 8813SOL    HW127338   1.753   4.862   1.884
 8813SOL    HW227339   1.779   4.838   1.725
 8814SOL     OW27340   5.661   6.936   1.085
 8814SOL    HW127341   5.585   6.919   1.023
 8814SOL    HW227342   5.733   6.869   1.069
 8815SOL     OW27343   6.438   6.963   0.522
 8815SOL    HW127344   6.495   7.019   0.582
 8815SOL    HW227345   6.361   6.926   0.573
 8816SOL     OW27346   1.526   0.186   0.052
 8816SOL    HW127347   1.590   0.263   0.052
 8816SOL    HW227348   1.432   0.220   0.062
 8817SOL     OW27349   0.937   5.439   4.870
 8817SOL    HW127350   0.846   5.403   4.852
 8817SOL    HW227351   1.005   5.375   4.832
 8818SOL     OW27352   0.326   4.245   4.549
 8818SOL    HW127353   0.372   4.258   4.637
 8818SOL    HW227354   0.233   4.213   4.564
 8819SOL     OW27355   5.448   4.994   4.944
 8819SOL    HW127356   5.426   5.089   4.923
 8819SOL    HW227357   5.515   4.991   5.018
 8820SOL     OW27358   1.799   1.107   5.055
 8820SOL    HW127359   1.710   1.138   5.090
 8820SOL    HW227360   1.872   1.159   5.100
 8821SOL     OW27361   3.008   6.425   0.070
 8821SOL    HW127362   2.953   6.488   0.015
 8821SOL    HW227363   3.100   6.420   0.033
 8822SOL     OW27364   0.368   0.141   4.731
 8822SOL    HW127365   0.374   0.046   4.700
 8822SOL    HW227366   0.276   0.160   4.764
 8823SOL     OW27367   2.722   0.627   1.232
 8823SOL    HW127368   2.642   0.630   1.172
 8823SOL    HW227369   2.805   0.618   1.177
 8824SOL     OW27370   0.968   2.987   0.543
 8824SOL    HW127371   0.954   2.895   0.581
 8824SOL    HW227372   0.905   3.051   0.587
 8825SOL     OW27373   2.252   0.258   2.651
 8825SOL    HW127374   2.248   0.160   2.632
 8825SOL    HW227375   2.228   0.309   2.569
 8826SOL     OW27376   6.490   3.326   1.099
 8826SOL    HW127377   6.511   3.369   1.187
 8826SOL    HW227378   6.411   3.372   1.058
 8827SOL     OW27379   3.777   1.400   3.004
 8827SOL    HW127380   3.746   1.406   2.909
 8827SOL    HW227381   3.845   1.328   3.013
 8828SOL     OW27382   4.754   5.644   5.431
 8828SOL    HW127383   4.737   5.611   5.524
 8828SOL    HW227384   4.674   5.624   5.374
 8829SOL     OW27385   5.152   2.214   0.640
 8829SOL    HW127386   5.113   2.273   0.711
 8829SOL    HW227387   5.252   2.223   0.640
 8830SOL     OW27388   1.231   1.534   2.485
 8830SOL    HW127389   1.262   1.616   2.534
 8830SOL    HW227390   1.250   1.453   2.540
 8831SOL     OW27391   5.095   1.896   4.232
 8831SOL    HW127392   5.002   1.892   4.194
 8831SOL    HW227393   5.128   1.803   4.247
 8832SOL     OW27394   0.156   5.367   3.218
 8832SOL    HW127395   0.101   5.447   3.195
 8832SOL    HW227396   0.129   5.291   3.160
 8833SOL     OW27397   2.356   5.641   5.334
 8833SOL    HW127398   2.276   5.592   5.369
 8833SOL    HW227399   2.392   5.594   5.254
 8834SOL     OW27400   5.145   3.317   4.889
 8834SOL    HW127401   5.123   3.412   4.913
 8834SOL    HW227402   5.066   3.275   4.846
 8835SOL     OW27403   5.366   0.920   5.998
 8835SOL    HW127404   5.335   1.012   6.020
 8835SOL    HW227405   5.394   0.917   5.902
 8836SOL     OW27406   4.937   2.951   0.149
 8836SOL    HW127407   4.997   2.920   0.222
 8836SOL    HW227408   4.901   2.872   0.099
 8837SOL     OW27409   6.892   5.990   3.167
 8837SOL    HW127410   6.808   6.044   3.166
 8837SOL    HW227411   6.934   5.996   3.257
 8838SOL     OW27412   2.831   5.614   3.183
 8838SOL    HW127413   2.849   5.586   3.277
 8838SOL    HW227414   2.753   5.562   3.148
 8839SOL     OW27415   5.467   5.102   3.771
 8839SOL    HW127416   5.539   5.038   3.796
 8839SOL    HW227417   5.500   5.196   3.782
 8840SOL     OW27418   6.759   1.907   2.321
 8840SOL    HW127419   6.719   1.817   2.336
 8840SOL    HW227420   6.852   1.909   2.356
 8841SOL     OW27421   0.587   0.845   5.026
 8841SOL    HW127422   0.627   0.827   5.116
 8841SOL    HW227423   0.555   0.939   5.021
 8842SOL     OW27424   3.463   2.912   2.336
 8842SOL    HW127425   3.532   2.965   2.286
 8842SOL    HW227426   3.483   2.916   2.434
 8843SOL     OW27427   1.573   2.867   6.022
 8843SOL    HW127428   1.499   2.808   5.989
 8843SOL    HW227429   1.535   2.955   6.049
 8844SOL     OW27430   6.831   2.512   6.837
 8844SOL    HW127431   6.875   2.539   6.923
 8844SOL    HW227432   6.866   2.423   6.809
 8845SOL     OW27433   3.516   3.143   6.897
 8845SOL    HW127434   3.499   3.242   6.895
 8845SOL    HW227435   3.531   3.110   6.804
 8846SOL     OW27436   3.615   5.643   3.776
 8846SOL    HW127437   3.527   5.660   3.730
 8846SOL    HW227438   3.677   5.599   3.712
 8847SOL     OW27439   2.779   0.944   3.145
 8847SOL    HW127440   2.854   0.916   3.086
 8847SOL    HW227441   2.692   0.935   3.097
 8848SOL     OW27442   2.322   1.008   1.132
 8848SOL    HW127443   2.298   1.092   1.181
 8848SOL    HW227444   2.415   0.980   1.157
 8849SOL     OW27445   3.275   6.388   3.342
 8849SOL    HW127446   3.186   6.421   3.373
 8849SOL    HW227447   3.316   6.456   3.281
 8850SOL     OW27448   0.839   2.186   0.135
 8850SOL    HW127449   0.909   2.251   0.166
 8850SOL    HW227450   0.756   2.236   0.109
 8851SOL     OW27451   1.478   3.862   3.648
 8851SOL    HW127452   1.428   3.866   3.735
 8851SOL    HW227453   1.575   3.880   3.664
 8852SOL     OW27454   0.023   2.589   5.492
 8852SOL    HW127455   0.050   2.522   5.561
 8852SOL    HW227456   0.104   2.643   5.466
 8853SOL     OW27457   3.133   0.836   1.321
 8853SOL    HW127458   3.172   0.872   1.405
 8853SOL    HW227459   3.078   0.907   1.277
 8854SOL     OW27460   3.056   2.481   6.011
 8854SOL    HW127461   3.008   2.460   5.926
 8854SOL    HW227462   3.046   2.405   6.075
 8855SOL     OW27463   6.614   5.154   1.214
 8855SOL    HW127464   6.645   5.183   1.305
 8855SOL    HW227465   6.598   5.055   1.214
 8856SOL     OW27466   0.717   6.289   6.324
 8856SOL    HW127467   0.648   6.259   6.389
 8856SOL    HW227468   0.712   6.388   6.313
 8857SOL     OW27469   6.977   1.807   4.481
 8857SOL    HW127470   6.971   1.713   4.447
 8857SOL    HW227471   6.987   1.805   4.581
 8858SOL     OW27472   0.001   3.900   4.371
 8858SOL    HW127473   0.101   3.900   4.376
 8858SOL    HW227474   6.992   3.901   4.275
 8859SOL     OW27475   1.639   1.296   3.578
 8859SOL    HW127476   1.579   1.219   3.557
 8859SOL    HW227477   1.729   1.263   3.605
 8860SOL     OW27478   6.711   2.219   2.013
 8860SOL    HW127479   6.711   2.238   1.915
 8860SOL    HW227480   6.743   2.300   2.063
 8861SOL     OW27481   4.233   1.003   6.106
 8861SOL    HW127482   4.166   0.941   6.065
 8861SOL    HW227483   4.257   1.075   6.041
 8862SOL     OW27484   5.252   6.705   3.989
 8862SOL    HW127485   5.305   6.790   3.994
 8862SOL    HW227486   5.273   6.658   3.903
 8863SOL     OW27487   2.288   4.547   3.901
 8863SOL    HW127488   2.208   4.573   3.955
 8863SOL    HW227489   2.305   4.449   3.911
 8864SOL     OW27490   2.765   5.165   6.294
 8864SOL    HW127491   2.846   5.134   6.244
 8864SOL    HW227492   2.776   5.261   6.321
 8865SOL     OW27493   3.100   0.583   4.748
 8865SOL    HW127494   3.122   0.680   4.731
 8865SOL    HW227495   3.149   0.526   4.683
 8866SOL     OW27496   5.568   0.017   3.075
 8866SOL    HW127497   5.601   0.043   2.985
 8866SOL    HW227498   5.468   0.008   3.072
 8867SOL     OW27499   5.816   4.638   3.598
 8867SOL    HW127500   5.783   4.576   3.527
 8867SOL    HW227501   5.782   4.731   3.580
 8868SOL     OW27502   0.368   3.286   1.353
 8868SOL    HW127503   0.452   3.303   1.404
 8868SOL    HW227504   0.377   3.199   1.303
 8869SOL     OW27505   3.927   6.285   5.220
 8869SOL    HW127506   4.001   6.225   5.191
 8869SOL    HW227507   3.848   6.274   5.160
 8870SOL     OW27508   2.641   6.741   1.110
 8870SOL    HW127509   2.640   6.770   1.015
 8870SOL    HW227510   2.731   6.759   1.150
 8871SOL     OW27511   1.661   0.762   4.075
 8871SOL    HW127512   1.635   0.859   4.076
 8871SOL    HW227513   1.718   0.744   3.995
 8872SOL     OW27514   1.495   4.540   5.490
 8872SOL    HW127515   1.433   4.570   5.418
 8872SOL    HW227516   1.480   4.443   5.509
 8873SOL     OW27517   1.028   6.817   2.275
 8873SOL    HW127518   1.039   6.753   2.199
 8873SOL    HW227519   1.117   6.842   2.311
 8874SOL     OW27520   2.604   5.496   2.535
 8874SOL    HW127521   2.560   5.581   2.562
 8874SOL    HW227522   2.703   5.505   2.546
 8875SOL     OW27523   0.055   3.636   4.473
 8875SOL    HW127524   0.038   3.734   4.473
 8875SOL    HW227525   7.018   3.592   4.403
 8876SOL     OW27526   2.224   0.020   5.497
 8876SOL    HW127527   2.233   0.110   5.454
 8876SOL    HW227528   2.278   6.973   5.445
 8877SOL     OW27529   2.692   1.587   4.060
 8877SOL    HW127530   2.701   1.586   3.961
 8877SOL    HW227531   2.730   1.503   4.098
 8878SOL     OW27532   4.951   5.247   0.978
 8878SOL    HW127533   4.909   5.336   0.996
 8878SOL    HW227534   4.927   5.183   1.051
 8879SOL     OW27535   4.651   4.834   2.550
 8879SOL    HW127536   4.690   4.821   2.458
 8879SOL    HW227537   4.551   4.829   2.545
 8880SOL     OW27538   4.288   6.222   4.990
 8880SOL    HW127539   4.375   6.271   4.985
 8880SOL    HW227540   4.306   6.124   5.000
 8881SOL     OW27541   5.229   6.266   3.964
 8881SOL    HW127542   5.313   6.240   3.917
 8881SOL    HW227543   5.250   6.292   4.058
 8882SOL     OW27544   5.178   0.701   1.493
 8882SOL    HW127545   5.090   0.748   1.497
 8882SOL    HW227546   5.204   0.672   1.585
 8883SOL     OW27547   2.210   6.220   6.031
 8883SOL    HW127548   2.240   6.165   5.953
 8883SOL    HW227549   2.154   6.296   5.998
 8884SOL     OW27550   5.876   3.322   5.500
 8884SOL    HW127551   5.973   3.302   5.498
 8884SOL    HW227552   5.832   3.270   5.573
 8885SOL     OW27553   5.232   4.454   1.144
 8885SOL    HW127554   5.146   4.416   1.179
 8885SOL    HW227555   5.306   4.389   1.160
 8886SOL     OW27556   2.794   6.310   4.993
 8886SOL    HW127557   2.888   6.315   5.026
 8886SOL    HW227558   2.767   6.400   4.957
 8887SOL     OW27559   3.847   0.929   1.007
 8887SOL    HW127560   3.755   0.897   1.029
 8887SOL    HW227561   3.873   0.897   0.916
 8888SOL     OW27562   1.974   1.569   5.286
 8888SOL    HW127563   2.018   1.604   5.203
 8888SOL    HW227564   2.021   1.485   5.315
 8889SOL     OW27565   6.710   6.955   0.061
 8889SOL    HW127566   6.687   7.017   7.006
 8889SOL    HW227567   6.641   6.963   0.133
 8890SOL     OW27568   0.257   5.921   5.518
 8890SOL    HW127569   0.320   5.992   5.550
 8890SOL    HW227570   0.183   5.962   5.465
 8891SOL     OW27571   3.578   3.451   6.893
 8891SOL    HW127572   3.613   3.519   6.958
 8891SOL    HW227573   3.526   3.497   6.821
 8892SOL     OW27574   3.734   4.872   2.834
 8892SOL    HW127575   3.661   4.904   2.774
 8892SOL    HW227576   3.806   4.830   2.779
 8893SOL     OW27577   0.931   5.168   4.041
 8893SOL    HW127578   0.854   5.111   4.013
 8893SOL    HW227579   0.897   5.253   4.081
 8894SOL     OW27580   3.184   1.607   6.409
 8894SOL    HW127581   3.135   1.551   6.342
 8894SOL    HW227582   3.130   1.612   6.493
 8895SOL     OW27583   0.069   2.663   2.066
 8895SOL    HW127584   6.993   2.671   2.091
 8895SOL    HW227585   0.079   2.682   1.968
 8896SOL     OW27586   2.155   3.116   4.938
 8896SOL    HW127587   2.249   3.086   4.960
 8896SOL    HW227588   2.094   3.089   5.013
 8897SOL     OW27589   2.559   2.252   3.909
 8897SOL    HW127590   2.583   2.308   3.829
 8897SOL    HW227591   2.460   2.253   3.921
 8898SOL     OW27592   4.874   3.636   2.847
 8898SOL    HW127593   4.807   3.640   2.921
 8898SOL    HW227594   4.862   3.715   2.786
 8899SOL     OW27595   1.087   4.488   0.951
 8899SOL    HW127596   1.082   4.507   0.853
 8899SOL    HW227597   1.145   4.556   0.996
 8900SOL     OW27598   5.284   3.131   3.380
 8900SOL    HW127599   5.265   3.201   3.449
 8900SOL    HW227600   5.282   3.173   3.289
 8901SOL     OW27601   1.361   1.743   4.915
 8901SOL    HW127602   1.283   1.687   4.888
 8901SOL    HW227603   1.442   1.684   4.926
 8902SOL     OW27604   0.634   5.545   0.475
 8902SOL    HW127605   0.632   5.591   0.387
 8902SOL    HW227606   0.728   5.520   0.498
 8903SOL     OW27607   0.883   1.732   4.339
 8903SOL    HW127608   0.936   1.760   4.418
 8903SOL    HW227609   0.786   1.747   4.357
 8904SOL     OW27610   0.288   0.697   4.458
 8904SOL    HW127611   0.344   0.689   4.540
 8904SOL    HW227612   0.246   0.609   4.437
 8905SOL     OW27613   2.118   3.421   3.403
 8905SOL    HW127614   2.147   3.511   3.433
 8905SOL    HW227615   2.150   3.405   3.309
 8906SOL     OW27616   0.608   6.248   0.706
 8906SOL    HW127617   0.681   6.313   0.723
 8906SOL    HW227618   0.646   6.156   0.694
 8907SOL     OW27619   3.083   2.821   5.777
 8907SOL    HW127620   3.013   2.886   5.806
 8907SOL    HW227621   3.042   2.755   5.713
 8908SOL     OW27622   1.832   5.662   0.163
 8908SOL    HW127623   1.809   5.676   0.259
 8908SOL    HW227624   1.848   5.751   0.119
 8909SOL     OW27625   2.372   1.579   5.518
 8909SOL    HW127626   2.439   1.633   5.468
 8909SOL    HW227627   2.321   1.639   5.580
 8910SOL     OW27628   0.669   3.235   5.582
 8910SOL    HW127629   0.760   3.270   5.600
 8910SOL    HW227630   0.601   3.305   5.605
 8911SOL     OW27631   4.763   2.818   4.540
 8911SOL    HW127632   4.716   2.905   4.556
 8911SOL    HW227633   4.798   2.817   4.446
 8912SOL     OW27634   2.949   3.862   0.209
 8912SOL    HW127635   2.931   3.836   0.114
 8912SOL    HW227636   2.969   3.779   0.263
 8913SOL     OW27637   4.099   5.375   6.500
 8913SOL    HW127638   4.121   5.472   6.490
 8913SOL    HW227639   4.148   5.338   6.578
 8914SOL     OW27640   4.740   0.163   4.719
 8914SOL    HW127641   4.703   0.190   4.807
 8914SOL    HW227642   4.707   0.072   4.694
 8915SOL     OW27643   1.432   2.442   3.686
 8915SOL    HW127644   1.367   2.481   3.621
 8915SOL    HW227645   1.519   2.492   3.680
 8916SOL     OW27646   6.552   3.072   0.945
 8916SOL    HW127647   6.499   3.142   0.992
 8916SOL    HW227648   6.490   3.005   0.904
 8917SOL     OW27649   6.221   2.755   0.157
 8917SOL    HW127650   6.182   2.716   0.241
 8917SOL    HW227651   6.258   2.682   0.100
 8918SOL     OW27652   0.365   4.511   1.360
 8918SOL    HW127653   0.355   4.602   1.399
 8918SOL    HW227654   0.417   4.516   1.274
 8919SOL     OW27655   4.906   4.084   0.214
 8919SOL    HW127656   4.837   4.154   0.198
 8919SOL    HW227657   4.923   4.034   0.128
 8920SOL     OW27658   0.055   1.808   6.778
 8920SOL    HW127659   0.106   1.723   6.788
 8920SOL    HW227660   0.112   1.877   6.733
 8921SOL     OW27661   1.785   3.071   1.601
 8921SOL    HW127662   1.690   3.038   1.601
 8921SOL    HW227663   1.796   3.139   1.674
 8922SOL     OW27664   4.039   5.275   2.040
 8922SOL    HW127665   4.073   5.308   2.128
 8922SOL    HW227666   4.009   5.180   2.050
 8923SOL     OW27667   1.823   1.750   6.618
 8923SOL    HW127668   1.821   1.784   6.524
 8923SOL    HW227669   1.867   1.660   6.621
 8924SOL     OW27670   4.985   5.565   5.306
 8924SOL    HW127671   4.948   5.527   5.221
 8924SOL    HW227672   4.911   5.579   5.372
 8925SOL     OW27673   0.654   0.853   3.177
 8925SOL    HW127674   0.566   0.899   3.166
 8925SOL    HW227675   0.707   0.860   3.093
 8926SOL     OW27676   6.360   3.135   6.274
 8926SOL    HW127677   6.420   3.133   6.194
 8926SOL    HW227678   6.269   3.105   6.247
 8927SOL     OW27679   0.452   0.950   4.683
 8927SOL    HW127680   0.370   1.006   4.694
 8927SOL    HW227681   0.427   0.853   4.686
 8928SOL     OW27682   1.242   0.142   6.137
 8928SOL    HW127683   1.289   0.164   6.051
 8928SOL    HW227684   1.233   0.043   6.146
 8929SOL     OW27685   5.762   1.735   4.974
 8929SOL    HW127686   5.755   1.792   5.056
 8929SOL    HW227687   5.845   1.759   4.924
 8930SOL     OW27688   1.283   2.823   4.618
 8930SOL    HW127689   1.374   2.854   4.646
 8930SOL    HW227690   1.264   2.733   4.658
 8931SOL     OW27691   3.080   3.727   1.128
 8931SOL    HW127692   3.023   3.793   1.178
 8931SOL    HW227693   3.100   3.649   1.187
 8932SOL     OW27694   5.861   2.322   2.105
 8932SOL    HW127695   5.808   2.382   2.164
 8932SOL    HW227696   5.801   2.251   2.066
 8933SOL     OW27697   2.871   2.970   6.156
 8933SOL    HW127698   2.859   2.886   6.103
 8933SOL    HW227699   2.875   3.048   6.094
 8934SOL     OW27700   2.742   5.883   4.425
 8934SOL    HW127701   2.823   5.912   4.476
 8934SOL    HW227702   2.670   5.951   4.436
 8935SOL     OW27703   0.641   4.575   0.402
 8935SOL    HW127704   0.634   4.477   0.420
 8935SOL    HW227705   0.638   4.591   0.303
 8936SOL     OW27706   1.312   4.035   2.186
 8936SOL    HW127707   1.270   3.945   2.171
 8936SOL    HW227708   1.289   4.067   2.278
 8937SOL     OW27709   0.544   0.317   5.665
 8937SOL    HW127710   0.589   0.279   5.746
 8937SOL    HW227711   0.453   0.276   5.655
 8938SOL     OW27712   0.668   6.331   0.414
 8938SOL    HW127713   0.573   6.300   0.419
 8938SOL    HW227714   0.727   6.267   0.463
 8939SOL     OW27715   4.895   3.513   4.373
 8939SOL    HW127716   4.930   3.523   4.466
 8939SOL    HW227717   4.906   3.418   4.344
 8940SOL     OW27718   0.165   1.436   2.224
 8940SOL    HW127719   0.184   1.531   2.200
 8940SOL    HW227720   0.250   1.389   2.246
 8941SOL     OW27721   6.359   2.486   5.528
 8941SOL    HW127722   6.300   2.510   5.450
 8941SOL    HW227723   6.367   2.387   5.534
 8942SOL     OW27724   6.722   4.602   4.847
 8942SOL    HW127725   6.700   4.581   4.752
 8942SOL    HW227726   6.817   4.630   4.854
 8943SOL     OW27727   3.591   4.981   6.126
 8943SOL    HW127728   3.494   4.982   6.100
 8943SOL    HW227729   3.632   5.070   6.104
 8944SOL     OW27730   5.736   4.642   5.697
 8944SOL    HW127731   5.788   4.594   5.626
 8944SOL    HW227732   5.681   4.714   5.655
 8945SOL     OW27733   0.813   0.323   2.898
 8945SOL    HW127734   0.779   0.287   2.812
 8945SOL    HW227735   0.910   0.304   2.907
 8946SOL     OW27736   3.096   1.455   4.991
 8946SOL    HW127737   3.150   1.456   5.075
 8946SOL    HW227738   3.139   1.513   4.923
 8947SOL     OW27739   1.982   3.390   5.686
 8947SOL    HW127740   2.072   3.379   5.729
 8947SOL    HW227741   1.985   3.467   5.622
 8948SOL     OW27742   6.304   6.311   4.730
 8948SOL    HW127743   6.387   6.258   4.749
 8948SOL    HW227744   6.258   6.332   4.816
 8949SOL     OW27745   2.662   6.716   0.797
 8949SOL    HW127746   2.666   6.642   0.730
 8949SOL    HW227747   2.687   6.802   0.753
 8950SOL     OW27748   4.550   4.541   6.200
 8950SOL    HW127749   4.580   4.636   6.192
 8950SOL    HW227750   4.543   4.501   6.109
 8951SOL     OW27751   1.172   2.166   5.310
 8951SOL    HW127752   1.193   2.074   5.276
 8951SOL    HW227753   1.139   2.160   5.404
 8952SOL     OW27754   1.184   6.636   2.678
 8952SOL    HW127755   1.187   6.735   2.659
 8952SOL    HW227756   1.100   6.613   2.726
 8953SOL     OW27757   1.249   4.077   6.685
 8953SOL    HW127758   1.273   4.032   6.599
 8953SOL    HW227759   1.228   4.173   6.667
 8954SOL     OW27760   0.818   0.486   5.017
 8954SOL    HW127761   0.726   0.484   4.979
 8954SOL    HW227762   0.875   0.417   4.971
 8955SOL     OW27763   6.947   5.132   2.374
 8955SOL    HW127764   6.963   5.215   2.427
 8955SOL    HW227765   6.989   5.141   2.284
 8956SOL     OW27766   1.525   1.175   6.611
 8956SOL    HW127767   1.433   1.139   6.630
 8956SOL    HW227768   1.590   1.137   6.676
 8957SOL     OW27769   2.717   4.692   1.063
 8957SOL    HW127770   2.809   4.730   1.050
 8957SOL    HW227771   2.703   4.674   1.160
 8958SOL     OW27772   0.680   1.099   4.670
 8958SOL    HW127773   0.617   1.025   4.644
 8958SOL    HW227774   0.627   1.178   4.699
 8959SOL     OW27775   1.773   4.423   1.361
 8959SOL    HW127776   1.707   4.421   1.436
 8959SOL    HW227777   1.808   4.516   1.350
 8960SOL     OW27778   4.963   4.508   2.800
 8960SOL    HW127779   4.955   4.444   2.724
 8960SOL    HW227780   4.998   4.461   2.881
 8961SOL     OW27781   2.476   1.002   4.691
 8961SOL    HW127782   2.499   0.972   4.783
 8961SOL    HW227783   2.427   0.930   4.643
 8962SOL     OW27784   6.099   5.890   2.192
 8962SOL    HW127785   6.047   5.906   2.109
 8962SOL    HW227786   6.063   5.810   2.240
 8963SOL     OW27787   4.010   5.823   4.225
 8963SOL    HW127788   3.927   5.877   4.210
 8963SOL    HW227789   4.048   5.845   4.315
 8964SOL     OW27790   4.864   3.367   3.166
 8964SOL    HW127791   4.882   3.364   3.067
 8964SOL    HW227792   4.857   3.273   3.201
 8965SOL     OW27793   2.561   5.026   0.285
 8965SOL    HW127794   2.476   4.976   0.303
 8965SOL    HW227795   2.540   5.122   0.269
 8966SOL     OW27796   6.800   3.787   6.976
 8966SOL    HW127797   6.759   3.865   6.928
 8966SOL    HW227798   6.733   3.748   0.019
 8967SOL     OW27799   4.045   0.139   1.621
 8967SOL    HW127800   4.070   0.235   1.614
 8967SOL    HW227801   4.124   0.082   1.597
 8968SOL     OW27802   5.010   5.133   3.253
 8968SOL    HW127803   4.945   5.210   3.252
 8968SOL    HW227804   5.086   5.155   3.314
 8969SOL     OW27805   6.963   1.298   4.505
 8969SOL    HW127806   0.038   1.327   4.492
 8969SOL    HW227807   6.949   1.267   4.599
 8970SOL     OW27808   2.318   3.278   0.523
 8970SOL    HW127809   2.227   3.251   0.554
 8970SOL    HW227810   2.347   3.218   0.449
 8971SOL     OW27811   5.410   5.528   1.481
 8971SOL    HW127812   5.381   5.487   1.568
 8971SOL    HW227813   5.344   5.598   1.454
 8972SOL     OW27814   5.234   4.582   6.118
 8972SOL    HW127815   5.168   4.623   6.181
 8972SOL    HW227816   5.189   4.562   6.031
 8973SOL     OW27817   0.978   3.162   2.284
 8973SOL    HW127818   0.919   3.186   2.206
 8973SOL    HW227819   0.970   3.234   2.353
 8974SOL     OW27820   1.163   4.311   5.561
 8974SOL    HW127821   1.193   4.215   5.565
 8974SOL    HW227822   1.238   4.368   5.529
 8975SOL     OW27823   1.778   6.813   5.752
 8975SOL    HW127824   1.703   6.758   5.786
 8975SOL    HW227825   1.848   6.754   5.712
 8976SOL     OW27826   0.012   4.818   5.520
 8976SOL    HW127827   0.048   4.774   5.438
 8976SOL    HW227828   0.087   4.861   5.571
 8977SOL     OW27829   5.889   2.320   0.052
 8977SOL    HW127830   5.929   2.392   0.109
 8977SOL    HW227831   5.943   2.236   0.062
 8978SOL     OW27832   5.878   0.322   4.377
 8978SOL    HW127833   5.882   0.249   4.446
 8978SOL    HW227834   5.870   0.282   4.286
 8979SOL     OW27835   1.238   3.907   4.316
 8979SOL    HW127836   1.297   3.844   4.367
 8979SOL    HW227837   1.217   3.867   4.226
 8980SOL     OW27838   2.915   2.618   5.647
 8980SOL    HW127839   2.919   2.546   5.716
 8980SOL    HW227840   2.819   2.636   5.624
 8981SOL     OW27841   4.233   1.540   5.718
 8981SOL    HW127842   4.204   1.619   5.663
 8981SOL    HW227843   4.212   1.456   5.669
 8982SOL     OW27844   0.944   2.638   1.206
 8982SOL    HW127845   0.918   2.730   1.234
 8982SOL    HW227846   1.027   2.610   1.255
 8983SOL     OW27847   1.549   6.146   6.850
 8983SOL    HW127848   1.612   6.196   6.910
 8983SOL    HW227849   1.591   6.137   6.759
 8984SOL     OW27850   6.869   7.018   4.733
 8984SOL    HW127851   6.863   0.005   4.634
 8984SOL    HW227852   6.811   0.068   4.775
 8985SOL     OW27853   2.754   2.505   0.692
 8985SOL    HW127854   2.821   2.572   0.724
 8985SOL    HW227855   2.785   2.413   0.715
 8986SOL     OW27856   4.342   5.384   2.411
 8986SOL    HW127857   4.310   5.470   2.450
 8986SOL    HW227858   4.373   5.323   2.484
 8987SOL     OW27859   4.726   6.840   1.114
 8987SOL    HW127860   4.776   6.755   1.132
 8987SOL    HW227861   4.667   6.861   1.191
 8988SOL     OW27862   1.367   3.461   5.636
 8988SOL    HW127863   1.450   3.439   5.585
 8988SOL    HW227864   1.320   3.537   5.591
 8989SOL     OW27865   5.051   4.015   1.202
 8989SOL    HW127866   4.969   4.056   1.164
 8989SOL    HW227867   5.116   4.087   1.226
 8990SOL     OW27868   2.035   5.891   3.389
 8990SOL    HW127869   2.037   5.792   3.400
 8990SOL    HW227870   2.081   5.916   3.303
 8991SOL     OW27871   1.469   1.692   6.631
 8991SOL    HW127872   1.526   1.763   6.674
 8991SOL    HW227873   1.501   1.602   6.659
 8992SOL     OW27874   5.663   1.538   6.900
 8992SOL    HW127875   5.635   1.552   6.806
 8992SOL    HW227876   5.738   1.600   6.922
 8993SOL     OW27877   4.894   2.418   2.639
 8993SOL    HW127878   4.868   2.327   2.606
 8993SOL    HW227879   4.812   2.475   2.649
 8994SOL     OW27880   1.321   4.619   4.656
 8994SOL    HW127881   1.286   4.642   4.565
 8994SOL    HW227882   1.264   4.664   4.726
 8995SOL     OW27883   0.883   2.764   0.084
 8995SOL    HW127884   0.859   2.719   0.170
 8995SOL    HW227885   0.883   2.864   0.097
 8996SOL     OW27886   6.048   4.985   0.403
 8996SOL    HW127887   6.085   4.916   0.465
 8996SOL    HW227888   5.956   5.011   0.434
 8997SOL     OW27889   4.955   1.359   5.724
 8997SOL    HW127890   4.885   1.334   5.791
 8997SOL    HW227891   4.940   1.453   5.693
 8998SOL     OW27892   6.434   3.851   4.252
 8998SOL    HW127893   6.430   3.925   4.320
 8998SOL    HW227894   6.381   3.877   4.172
 8999SOL     OW27895   4.884   6.358   6.876
 8999SOL    HW127896   4.792   6.318   6.884
 8999SOL    HW227897   4.941   6.325   6.951
 9000SOL     OW27898   1.850   4.090   1.048
 9000SOL    HW127899   1.832   4.169   0.990
 9000SOL    HW227900   1.856   4.008   0.991
 9001SOL     OW27901   1.504   5.613   2.498
 9001SOL    HW127902   1.437   5.687   2.494
 9001SOL    HW227903   1.579   5.639   2.559
 9002SOL     OW27904   0.192   4.882   5.154
 9002SOL    HW127905   0.206   4.784   5.171
 9002SOL    HW227906   0.226   4.906   5.063
 9003SOL     OW27907   5.004   3.353   1.690
 9003SOL    HW127908   4.955   3.322   1.771
 9003SOL    HW227909   4.988   3.290   1.614
 9004SOL     OW27910   3.583   6.946   1.303
 9004SOL    HW127911   3.588   0.008   1.246
 9004SOL    HW227912   3.544   6.870   1.250
 9005SOL     OW27913   5.506   2.507   3.981
 9005SOL    HW127914   5.468   2.415   3.997
 9005SOL    HW227915   5.550   2.540   4.064
 9006SOL     OW27916   2.403   6.148   1.010
 9006SOL    HW127917   2.474   6.184   0.948
 9006SOL    HW227918   2.432   6.162   1.105
 9007SOL     OW27919   3.415   1.042   4.229
 9007SOL    HW127920   3.475   1.031   4.308
 9007SOL    HW227921   3.425   1.135   4.192
 9008SOL     OW27922   1.278   5.521   3.672
 9008SOL    HW127923   1.320   5.444   3.624
 9008SOL    HW227924   1.227   5.487   3.751
 9009SOL     OW27925   2.992   6.949   0.526
 9009SOL    HW127926   2.998   6.895   0.442
 9009SOL    HW227927   3.079   6.997   0.541
 9010SOL     OW27928   1.464   6.519   3.798
 9010SOL    HW127929   1.390   6.521   3.865
 9010SOL    HW227930   1.552   6.518   3.845
 9011SOL     OW27931   5.401   2.498   1.886
 9011SOL    HW127932   5.439   2.421   1.937
 9011SOL    HW227933   5.472   2.539   1.829
 9012SOL     OW27934   1.997   4.045   1.283
 9012SOL    HW127935   1.949   4.076   1.200
 9012SOL    HW227936   2.092   4.026   1.260
 9013SOL     OW27937   0.015   6.468   5.162
 9013SOL    HW127938   6.965   6.503   5.101
 9013SOL    HW227939   7.015   6.495   5.256
 9014SOL     OW27940   6.552   1.786   6.925
 9014SOL    HW127941   6.557   1.868   6.982
 9014SOL    HW227942   6.486   1.800   6.852
 9015SOL     OW27943   4.653   1.443   1.626
 9015SOL    HW127944   4.613   1.415   1.714
 9015SOL    HW227945   4.669   1.541   1.627
 9016SOL     OW27946   0.325   6.914   6.566
 9016SOL    HW127947   0.287   6.831   6.526
 9016SOL    HW227948   0.388   6.890   6.640
 9017SOL     OW27949   4.417   1.955   3.070
 9017SOL    HW127950   4.453   2.031   3.124
 9017SOL    HW227951   4.447   1.868   3.110
 9018SOL     OW27952   3.790   2.296   0.001
 9018SOL    HW127953   3.797   2.385   0.047
 9018SOL    HW227954   3.839   2.299   6.934
 9019SOL     OW27955   1.419   6.530   2.185
 9019SOL    HW127956   1.478   6.545   2.265
 9019SOL    HW227957   1.442   6.596   2.114
 9020SOL     OW27958   0.612   4.089   1.547
 9020SOL    HW127959   0.641   4.053   1.458
 9020SOL    HW227960   0.552   4.168   1.533
 9021SOL     OW27961   6.519   0.357   3.693
 9021SOL    HW127962   6.538   0.261   3.672
 9021SOL    HW227963   6.446   0.390   3.634
 9022SOL     OW27964   3.051   1.978   6.994
 9022SOL    HW127965   3.124   1.916   6.967
 9022SOL    HW227966   3.016   1.952   0.064
 9023SOL     OW27967   3.227   3.197   2.569
 9023SOL    HW127968   3.187   3.236   2.486
 9023SOL    HW227969   3.324   3.180   2.555
 9024SOL     OW27970   0.995   4.530   4.947
 9024SOL    HW127971   0.929   4.488   4.885
 9024SOL    HW227972   1.028   4.616   4.908
 9025SOL     OW27973   0.861   5.454   0.117
 9025SOL    HW127974   0.865   5.381   0.185
 9025SOL    HW227975   0.840   5.415   0.028
 9026SOL     OW27976   4.017   3.151   0.958
 9026SOL    HW127977   3.925   3.160   0.996
 9026SOL    HW227978   4.056   3.063   0.986
 9027SOL     OW27979   1.282   2.252   3.867
 9027SOL    HW127980   1.318   2.273   3.776
 9027SOL    HW227981   1.289   2.333   3.925
 9028SOL     OW27982   2.644   3.525   5.397
 9028SOL    HW127983   2.730   3.512   5.348
 9028SOL    HW227984   2.597   3.606   5.363
 9029SOL     OW27985   4.100   6.631   4.969
 9029SOL    HW127986   4.065   6.628   5.063
 9029SOL    HW227987   4.036   6.680   4.911
 9030SOL     OW27988   2.218   1.561   3.374
 9030SOL    HW127989   2.309   1.566   3.334
 9030SOL    HW227990   2.150   1.569   3.301
 9031SOL     OW27991   4.213   5.478   4.502
 9031SOL    HW127992   4.279   5.472   4.577
 9031SOL    HW227993   4.144   5.547   4.524
 9032SOL     OW27994   3.762   3.324   0.360
 9032SOL    HW127995   3.821   3.271   0.421
 9032SOL    HW227996   3.755   3.276   0.272
 9033SOL     OW27997   0.713   4.166   3.569
 9033SOL    HW127998   0.806   4.165   3.532
 9033SOL    HW227999   0.713   4.214   3.657
 9034SOL     OW28000   2.984   0.347   5.639
 9034SOL    HW128001   2.889   0.318   5.624
 9034SOL    HW228002   3.021   0.386   5.555
 9035SOL     OW28003   1.641   5.108   6.479
 9035SOL    HW128004   1.586   5.112   6.396
 9035SOL    HW228005   1.592   5.151   6.554
 9036SOL     OW28006   1.424   1.325   5.699
 9036SOL    HW128007   1.410   1.226   5.707
 9036SOL    HW228008   1.369   1.360   5.623
 9037SOL     OW28009   1.439   3.779   5.075
 9037SOL    HW128010   1.421   3.877   5.069
 9037SOL    HW228011   1.527   3.758   5.034
 9038SOL     OW28012   4.382   0.037   6.020
 9038SOL    HW128013   4.365   0.135   6.004
 9038SOL    HW228014   4.411   0.024   6.115
 9039SOL     OW28015   2.904   6.223   5.359
 9039SOL    HW128016   2.904   6.178   5.270
 9039SOL    HW228017   2.971   6.298   5.358
 9040SOL     OW28018   3.363   1.771   2.486
 9040SOL    HW128019   3.280   1.754   2.433
 9040SOL    HW228020   3.441   1.781   2.423
 9041SOL     OW28021   0.998   2.220   1.746
 9041SOL    HW128022   1.042   2.137   1.712
 9041SOL    HW228023   0.915   2.238   1.694
 9042SOL     OW28024   3.473   0.712   4.116
 9042SOL    HW128025   3.425   0.730   4.030
 9042SOL    HW228026   3.430   0.764   4.190
 9043SOL     OW28027   1.095   1.043   0.185
 9043SOL    HW128028   1.089   0.995   0.097
 9043SOL    HW228029   1.045   0.992   0.254
 9044SOL     OW28030   6.397   0.987   0.464
 9044SOL    HW128031   6.355   0.947   0.382
 9044SOL    HW228032   6.371   1.083   0.470
 9045SOL     OW28033   2.336   1.132   2.311
 9045SOL    HW128034   2.241   1.125   2.340
 9045SOL    HW228035   2.371   1.224   2.332
 9046SOL     OW28036   3.587   3.510   3.445
 9046SOL    HW128037   3.554   3.450   3.372
 9046SOL    HW228038   3.545   3.600   3.437
 9047SOL     OW28039   1.836   3.216   5.956
 9047SOL    HW128040   1.779   3.202   5.875
 9047SOL    HW228041   1.914   3.154   5.953
 9048SOL     OW28042   5.048   3.251   6.687
 9048SOL    HW128043   4.984   3.282   6.757
 9048SOL    HW228044   5.140   3.252   6.724
 9049SOL     OW28045   3.334   0.378   5.615
 9049SOL    HW128046   3.303   0.304   5.555
 9049SOL    HW228047   3.356   0.459   5.560
 9050SOL     OW28048   0.227   3.373   0.563
 9050SOL    HW128049   0.167   3.452   0.579
 9050SOL    HW228050   0.189   3.292   0.608
 9051SOL     OW28051   3.936   6.702   0.924
 9051SOL    HW128052   3.925   6.762   0.844
 9051SOL    HW228053   3.848   6.685   0.966
 9052SOL     OW28054   2.686   2.102   4.216
 9052SOL    HW128055   2.684   2.008   4.182
 9052SOL    HW228056   2.712   2.164   4.142
 9053SOL     OW28057   2.048   0.798   2.644
 9053SOL    HW128058   2.052   0.889   2.685
 9053SOL    HW228059   2.032   0.730   2.715
 9054SOL     OW28060   3.064   6.023   3.422
 9054SOL    HW128061   3.155   6.063   3.434
 9054SOL    HW228062   3.070   5.946   3.358
 9055SOL     OW28063   5.573   2.583   4.239
 9055SOL    HW128064   5.623   2.544   4.317
 9055SOL    HW228065   5.523   2.664   4.267
 9056SOL     OW28066   0.417   1.370   2.301
 9056SOL    HW128067   0.385   1.325   2.384
 9056SOL    HW228068   0.455   1.460   2.325
 9057SOL     OW28069   5.052   4.054   6.466
 9057SOL    HW128070   5.124   4.026   6.402
 9057SOL    HW228071   5.063   4.151   6.488
 9058SOL     OW28072   1.988   1.866   1.979
 9058SOL    HW128073   1.933   1.791   2.016
 9058SOL    HW228074   2.036   1.912   2.053
 9059SOL     OW28075   1.224   1.988   4.365
 9059SOL    HW128076   1.308   2.040   4.348
 9059SOL    HW228077   1.145   2.044   4.343
 9060SOL     OW28078   6.336   2.541   3.522
 9060SOL    HW128079   6.408   2.502   3.580
 9060SOL    HW228080   6.251   2.491   3.537
 9061SOL     OW28081   2.407   5.334   2.447
 9061SOL    HW128082   2.315   5.363   2.473
 9061SOL    HW228083   2.474   5.392   2.491
 9062SOL     OW28084   1.571   6.049   1.960
 9062SOL    HW128085   1.666   6.044   1.930
 9062SOL    HW228086   1.564   6.014   2.054
 9063SOL     OW28087   2.842   7.003   3.281
 9063SOL    HW128088   2.773   0.050   3.253
 9063SOL    HW228089   2.932   0.011   3.246
 9064SOL     OW28090   6.497   2.137   5.283
 9064SOL    HW128091   6.465   2.055   5.235
 9064SOL    HW228092   6.479   2.126   5.381
 9065SOL     OW28093   3.516   0.120   5.446
 9065SOL    HW128094   3.429   0.072   5.448
 9065SOL    HW228095   3.532   0.165   5.534
 9066SOL     OW28096   4.671   6.070   0.709
 9066SOL    HW128097   4.763   6.043   0.681
 9066SOL    HW228098   4.604   6.038   0.642
 9067SOL     OW28099   6.860   0.463   4.226
 9067SOL    HW128100   6.857   0.500   4.134
 9067SOL    HW228101   6.867   0.537   4.292
 9068SOL     OW28102   2.591   6.776   4.741
 9068SOL    HW128103   2.496   6.788   4.769
 9068SOL    HW228104   2.621   6.857   4.690
 9069SOL     OW28105   1.863   3.373   1.439
 9069SOL    HW128106   1.955   3.338   1.421
 9069SOL    HW228107   1.855   3.397   1.536
 9070SOL     OW28108   1.333   3.838   4.729
 9070SOL    HW128109   1.271   3.915   4.718
 9070SOL    HW228110   1.340   3.814   4.826
 9071SOL     OW28111   6.138   6.939   1.460
 9071SOL    HW128112   6.078   6.863   1.483
 9071SOL    HW228113   6.136   7.006   1.534
 9072SOL     OW28114   6.940   1.536   1.535
 9072SOL    HW128115   6.913   1.549   1.630
 9072SOL    HW228116   6.909   1.446   1.504
 9073SOL     OW28117   2.924   6.739   2.728
 9073SOL    HW128118   2.985   6.760   2.652
 9073SOL    HW228119   2.946   6.799   2.805
 9074SOL     OW28120   1.605   1.793   2.352
 9074SOL    HW128121   1.507   1.807   2.366
 9074SOL    HW228122   1.642   1.869   2.299
 9075SOL     OW28123   0.847   1.338   2.085
 9075SOL    HW128124   0.855   1.372   2.178
 9075SOL    HW228125   0.755   1.299   2.072
 9076SOL     OW28126   6.552   2.269   5.881
 9076SOL    HW128127   6.547   2.358   5.835
 9076SOL    HW228128   6.578   2.199   5.815
 9077SOL     OW28129   4.187   0.617   0.116
 9077SOL    HW128130   4.126   0.543   0.088
 9077SOL    HW228131   4.134   0.692   0.155
 9078SOL     OW28132   3.972   3.359   6.390
 9078SOL    HW128133   3.982   3.263   6.416
 9078SOL    HW228134   4.056   3.391   6.346
 9079SOL     OW28135   3.186   0.529   4.098
 9079SOL    HW128136   3.173   0.508   4.001
 9079SOL    HW228137   3.173   0.628   4.112
 9080SOL     OW28138   4.402   2.589   6.425
 9080SOL    HW128139   4.439   2.649   6.355
 9080SOL    HW228140   4.357   2.644   6.496
 9081SOL     OW28141   3.474   0.141   2.465
 9081SOL    HW128142   3.562   0.174   2.497
 9081SOL    HW228143   3.407   0.215   2.469
 9082SOL     OW28144   2.136   0.605   5.675
 9082SOL    HW128145   2.168   0.521   5.718
 9082SOL    HW228146   2.145   0.597   5.575
 9083SOL     OW28147   3.247   5.353   5.871
 9083SOL    HW128148   3.329   5.399   5.836
 9083SOL    HW228149   3.177   5.350   5.799
 9084SOL     OW28150   3.332   4.159   4.302
 9084SOL    HW128151   3.277   4.204   4.232
 9084SOL    HW228152   3.363   4.070   4.269
 9085SOL     OW28153   2.133   0.283   1.652
 9085SOL    HW128154   2.122   0.380   1.671
 9085SOL    HW228155   2.131   0.268   1.553
 9086SOL     OW28156   1.098   4.472   0.358
 9086SOL    HW128157   1.032   4.398   0.373
 9086SOL    HW228158   1.133   4.504   0.446
 9087SOL     OW28159   4.229   2.211   1.377
 9087SOL    HW128160   4.246   2.216   1.278
 9087SOL    HW228161   4.172   2.288   1.405
 9088SOL     OW28162   0.020   6.686   1.088
 9088SOL    HW128163   6.945   6.710   1.111
 9088SOL    HW228164   0.032   6.686   0.989
 9089SOL     OW28165   5.397   5.387   5.784
 9089SOL    HW128166   5.335   5.458   5.753
 9089SOL    HW228167   5.372   5.300   5.741
 9090SOL     OW28168   6.818   1.182   4.312
 9090SOL    HW128169   6.869   1.190   4.226
 9090SOL    HW228170   6.863   1.236   4.382
 9091SOL     OW28171   3.043   4.477   0.154
 9091SOL    HW128172   3.028   4.485   0.055
 9091SOL    HW228173   3.141   4.488   0.173
 9092SOL     OW28174   6.496   0.837   6.543
 9092SOL    HW128175   6.465   0.810   6.635
 9092SOL    HW228176   6.417   0.866   6.489
 9093SOL     OW28177   1.066   5.643   5.678
 9093SOL    HW128178   0.984   5.596   5.645
 9093SOL    HW228179   1.099   5.707   5.608
 9094SOL     OW28180   6.096   4.743   2.960
 9094SOL    HW128181   6.024   4.805   2.929
 9094SOL    HW228182   6.138   4.698   2.881
 9095SOL     OW28183   4.713   5.065   6.478
 9095SOL    HW128184   4.656   4.992   6.516
 9095SOL    HW228185   4.809   5.045   6.495
 9096SOL     OW28186   6.268   5.135   2.446
 9096SOL    HW128187   6.352   5.165   2.400
 9096SOL    HW228188   6.194   5.129   2.379
 9097SOL     OW28189   1.452   1.670   1.153
 9097SOL    HW128190   1.359   1.633   1.161
 9097SOL    HW228191   1.455   1.738   1.081
 9098SOL     OW28192   3.288   2.058   4.368
 9098SOL    HW128193   3.315   1.991   4.436
 9098SOL    HW228194   3.243   2.135   4.413
 9099SOL     OW28195   3.319   3.141   6.144
 9099SOL    HW128196   3.403   3.174   6.186
 9099SOL    HW228197   3.243   3.200   6.171
 9100SOL     OW28198   0.230   3.185   3.228
 9100SOL    HW128199   0.214   3.241   3.147
 9100SOL    HW228200   0.219   3.242   3.310
 9101SOL     OW28201   2.664   2.447   1.860
 9101SOL    HW128202   2.758   2.444   1.895
 9101SOL    HW228203   2.663   2.423   1.763
 9102SOL     OW28204   3.559   6.900   2.360
 9102SOL    HW128205   3.509   6.816   2.382
 9102SOL    HW228206   3.531   6.973   2.421
 9103SOL     OW28207   5.538   2.050   6.438
 9103SOL    HW128208   5.530   2.099   6.524
 9103SOL    HW228209   5.623   1.997   6.437
 9104SOL     OW28210   6.956   6.515   1.417
 9104SOL    HW128211   0.031   6.489   1.429
 9104SOL    HW228212   6.904   6.439   1.378
 9105SOL     OW28213   0.297   1.008   6.156
 9105SOL    HW128214   0.289   1.027   6.058
 9105SOL    HW228215   0.305   1.094   6.206
 9106SOL     OW28216   5.601   3.609   1.493
 9106SOL    HW128217   5.554   3.680   1.440
 9106SOL    HW228218   5.643   3.544   1.430
 9107SOL     OW28219   2.044   1.144   6.658
 9107SOL    HW128220   2.014   1.066   6.603
 9107SOL    HW228221   2.144   1.143   6.664
 9108SOL     OW28222   4.875   4.330   5.176
 9108SOL    HW128223   4.930   4.305   5.096
 9108SOL    HW228224   4.778   4.317   5.155
 9109SOL     OW28225   5.607   3.916   2.985
 9109SOL    HW128226   5.552   3.834   2.967
 9109SOL    HW228227   5.641   3.913   3.079
 9110SOL     OW28228   1.833   5.287   4.377
 9110SOL    HW128229   1.815   5.245   4.288
 9110SOL    HW228230   1.884   5.372   4.364
 9111SOL     OW28231   4.141   3.151   0.087
 9111SOL    HW128232   4.112   3.180   0.178
 9111SOL    HW228233   4.215   3.210   0.056
 9112SOL     OW28234   2.019   5.614   2.684
 9112SOL    HW128235   2.038   5.645   2.591
 9112SOL    HW228236   2.078   5.663   2.749
 9113SOL     OW28237   5.255   2.944   2.455
 9113SOL    HW128238   5.181   2.878   2.444
 9113SOL    HW228239   5.311   2.945   2.373
 9114SOL     OW28240   7.006   5.160   3.614
 9114SOL    HW128241   6.986   5.232   3.680
 9114SOL    HW228242   6.927   5.148   3.553
 9115SOL     OW28243   5.876   5.452   5.025
 9115SOL    HW128244   5.859   5.515   5.100
 9115SOL    HW228245   5.932   5.497   4.955
 9116SOL     OW28246   0.121   6.693   2.877
 9116SOL    HW128247   0.180   6.622   2.915
 9116SOL    HW228248   0.038   6.651   2.839
 9117SOL     OW28249   3.488   2.833   6.069
 9117SOL    HW128250   3.506   2.770   5.994
 9117SOL    HW228251   3.421   2.792   6.131
 9118SOL     OW28252   6.435   3.557   0.552
 9118SOL    HW128253   6.369   3.560   0.476
 9118SOL    HW228254   6.394   3.598   0.633
 9119SOL     OW28255   3.813   1.043   1.967
 9119SOL    HW128256   3.882   1.115   1.960
 9119SOL    HW228257   3.810   1.009   2.061
 9120SOL     OW28258   0.182   1.906   5.770
 9120SOL    HW128259   0.254   1.887   5.703
 9120SOL    HW228260   0.224   1.925   5.859
 9121SOL     OW28261   3.630   6.011   4.775
 9121SOL    HW128262   3.534   5.986   4.788
 9121SOL    HW228263   3.641   6.109   4.790
 9122SOL     OW28264   2.671   4.665   2.185
 9122SOL    HW128265   2.737   4.637   2.115
 9122SOL    HW228266   2.615   4.587   2.211
 9123SOL     OW28267   2.198   0.963   4.618
 9123SOL    HW128268   2.216   0.980   4.715
 9123SOL    HW228269   2.100   0.972   4.600
 9124SOL     OW28270   3.451   5.593   1.203
 9124SOL    HW128271   3.368   5.611   1.258
 9124SOL    HW228272   3.472   5.496   1.205
 9125SOL     OW28273   4.049   4.533   1.259
 9125SOL    HW128274   4.032   4.524   1.357
 9125SOL    HW228275   3.989   4.604   1.221
 9126SOL     OW28276   4.474   3.716   1.349
 9126SOL    HW128277   4.547   3.691   1.412
 9126SOL    HW228278   4.431   3.633   1.313
 9127SOL     OW28279   6.686   2.132   5.664
 9127SOL    HW128280   6.722   2.046   5.698
 9127SOL    HW228281   6.754   2.176   5.605
 9128SOL     OW28282   5.676   2.526   5.277
 9128SOL    HW128283   5.701   2.548   5.371
 9128SOL    HW228284   5.643   2.431   5.273
 9129SOL     OW28285   6.488   1.575   0.059
 9129SOL    HW128286   6.576   1.549   0.099
 9129SOL    HW228287   6.498   1.661   0.009
 9130SOL     OW28288   0.888   4.580   6.114
 9130SOL    HW128289   0.892   4.504   6.049
 9130SOL    HW228290   0.923   4.663   6.071
 9131SOL     OW28291   4.971   3.451   6.324
 9131SOL    HW128292   5.045   3.394   6.361
 9131SOL    HW228293   4.900   3.393   6.286
 9132SOL     OW28294   0.968   4.852   4.626
 9132SOL    HW128295   1.031   4.902   4.567
 9132SOL    HW228296   0.946   4.764   4.584
 9133SOL     OW28297   3.384   0.363   1.432
 9133SOL    HW128298   3.289   0.334   1.436
 9133SOL    HW228299   3.400   0.414   1.348
 9134SOL     OW28300   4.194   5.359   1.324
 9134SOL    HW128301   4.140   5.420   1.266
 9134SOL    HW228302   4.285   5.348   1.285
 9135SOL     OW28303   1.108   6.307   1.523
 9135SOL    HW128304   1.058   6.392   1.538
 9135SOL    HW228305   1.143   6.273   1.610
 9136SOL     OW28306   4.655   5.999   5.747
 9136SOL    HW128307   4.661   5.946   5.662
 9136SOL    HW228308   4.565   6.041   5.755
 9137SOL     OW28309   3.907   0.804   6.737
 9137SOL    HW128310   3.916   0.780   6.834
 9137SOL    HW228311   3.897   0.903   6.728
 9138SOL     OW28312   1.434   3.950   6.478
 9138SOL    HW128313   1.430   4.050   6.476
 9138SOL    HW228314   1.519   3.920   6.435
 9139SOL     OW28315   1.081   1.292   2.282
 9139SOL    HW128316   1.049   1.215   2.227
 9139SOL    HW228317   1.144   1.347   2.227
 9140SOL     OW28318   0.953   4.779   2.198
 9140SOL    HW128319   1.028   4.789   2.263
 9140SOL    HW228320   0.953   4.686   2.161
 9141SOL     OW28321   6.897   6.139   6.639
 9141SOL    HW128322   6.808   6.125   6.596
 9141SOL    HW228323   6.897   6.226   6.688
 9142SOL     OW28324   0.625   3.357   1.476
 9142SOL    HW128325   0.650   3.293   1.548
 9142SOL    HW228326   0.664   3.447   1.495
 9143SOL     OW28327   0.313   4.138   1.673
 9143SOL    HW128328   0.237   4.177   1.725
 9143SOL    HW228329   0.372   4.211   1.639
 9144SOL     OW28330   3.537   5.135   4.977
 9144SOL    HW128331   3.476   5.108   4.903
 9144SOL    HW228332   3.618   5.180   4.939
 9145SOL     OW28333   1.685   6.055   6.597
 9145SOL    HW128334   1.750   6.125   6.625
 9145SOL    HW228335   1.726   5.964   6.608
 9146SOL     OW28336   5.215   3.418   2.880
 9146SOL    HW128337   5.250   3.398   2.789
 9146SOL    HW228338   5.185   3.513   2.884
 9147SOL     OW28339   6.793   0.587   4.980
 9147SOL    HW128340   6.716   0.548   4.929
 9147SOL    HW228341   6.860   0.624   4.916
 9148SOL     OW28342   5.899   6.710   1.849
 9148SOL    HW128343   5.842   6.790   1.868
 9148SOL    HW228344   5.988   6.721   1.893
 9149SOL     OW28345   5.694   3.186   1.835
 9149SOL    HW128346   5.607   3.142   1.815
 9149SOL    HW228347   5.678   3.266   1.893
 9150SOL     OW28348   3.494   4.295   0.965
 9150SOL    HW128349   3.483   4.344   0.879
 9150SOL    HW228350   3.576   4.238   0.961
 9151SOL     OW28351   2.160   3.960   3.392
 9151SOL    HW128352   2.080   4.016   3.370
 9151SOL    HW228353   2.223   3.960   3.314
 9152SOL     OW28354   2.032   4.321   4.382
 9152SOL    HW128355   1.948   4.271   4.362
 9152SOL    HW228356   2.014   4.392   4.450
 9153SOL     OW28357   0.114   2.799   6.834
 9153SOL    HW128358   0.202   2.759   6.806
 9153SOL    HW228359   0.073   2.741   6.905
 9154SOL     OW28360   5.148   4.134   3.542
 9154SOL    HW128361   5.229   4.185   3.570
 9154SOL    HW228362   5.067   4.192   3.550
 9155SOL     OW28363   2.250   4.191   2.906
 9155SOL    HW128364   2.163   4.236   2.925
 9155SOL    HW228365   2.324   4.257   2.913
 9156SOL     OW28366   6.426   2.550   1.721
 9156SOL    HW128367   6.501   2.612   1.699
 9156SOL    HW228368   6.344   2.603   1.744
 9157SOL     OW28369   3.200   4.197   6.747
 9157SOL    HW128370   3.119   4.159   6.790
 9157SOL    HW228371   3.180   4.219   6.652
 9158SOL     OW28372   6.635   4.148   4.007
 9158SOL    HW128373   6.580   4.221   4.046
 9158SOL    HW228374   6.623   4.147   3.907
 9159SOL     OW28375   1.837   0.312   3.795
 9159SOL    HW128376   1.866   0.327   3.700
 9159SOL    HW228377   1.914   0.330   3.856
 9160SOL     OW28378   0.497   5.540   5.684
 9160SOL    HW128379   0.433   5.576   5.616
 9160SOL    HW228380   0.446   5.501   5.761
 9161SOL     OW28381   6.307   4.924   3.196
 9161SOL    HW128382   6.382   4.860   3.211
 9161SOL    HW228383   6.256   4.896   3.114
 9162SOL     OW28384   3.950   0.301   3.072
 9162SOL    HW128385   3.947   0.401   3.074
 9162SOL    HW228386   3.987   0.271   2.984
 9163SOL     OW28387   6.818   3.479   2.424
 9163SOL    HW128388   6.867   3.547   2.371
 9163SOL    HW228389   6.780   3.410   2.362
 9164SOL     OW28390   1.480   1.105   6.880
 9164SOL    HW128391   1.567   1.103   6.830
 9164SOL    HW228392   1.475   1.027   6.942
 9165SOL     OW28393   4.536   1.765   5.647
 9165SOL    HW128394   4.483   1.841   5.682
 9165SOL    HW228395   4.526   1.686   5.708
 9166SOL     OW28396   4.375   5.123   0.744
 9166SOL    HW128397   4.468   5.116   0.780
 9166SOL    HW228398   4.374   5.187   0.667
 9167SOL     OW28399   1.274   2.382   6.158
 9167SOL    HW128400   1.325   2.310   6.205
 9167SOL    HW228401   1.275   2.364   6.059
 9168SOL     OW28402   6.920   5.745   6.194
 9168SOL    HW128403   6.853   5.702   6.255
 9168SOL    HW228404   6.875   5.814   6.138
 9169SOL     OW28405   6.412   5.872   6.095
 9169SOL    HW128406   6.449   5.790   6.051
 9169SOL    HW228407   6.449   5.954   6.051
 9170SOL     OW28408   1.856   1.553   6.371
 9170SOL    HW128409   1.840   1.649   6.346
 9170SOL    HW228410   1.805   1.532   6.455
 9171SOL     OW28411   2.883   5.748   0.740
 9171SOL    HW128412   2.917   5.723   0.649
 9171SOL    HW228413   2.957   5.742   0.806
 9172SOL     OW28414   4.369   2.090   4.665
 9172SOL    HW128415   4.391   2.055   4.574
 9172SOL    HW228416   4.288   2.044   4.701
 9173SOL     OW28417   6.353   2.738   4.539
 9173SOL    HW128418   6.335   2.757   4.635
 9173SOL    HW228419   6.289   2.791   4.482
 9174SOL     OW28420   0.647   6.027   6.991
 9174SOL    HW128421   0.714   5.986   0.033
 9174SOL    HW228422   0.597   5.954   6.945
 9175SOL     OW28423   1.247   6.568   6.887
 9175SOL    HW128424   1.245   6.482   6.938
 9175SOL    HW228425   1.227   6.644   6.949
 9176SOL     OW28426   2.436   6.824   1.809
 9176SOL    HW128427   2.463   6.888   1.736
 9176SOL    HW228428   2.498   6.746   1.809
 9177SOL     OW28429   1.656   2.603   3.578
 9177SOL    HW128430   1.637   2.699   3.556
 9177SOL    HW228431   1.693   2.597   3.671
 9178SOL     OW28432   2.411   5.197   6.105
 9178SOL    HW128433   2.454   5.134   6.169
 9178SOL    HW228434   2.315   5.211   6.131
 9179SOL     OW28435   2.272   5.765   5.053
 9179SOL    HW128436   2.346   5.831   5.039
 9179SOL    HW228437   2.193   5.812   5.093
 9180SOL     OW28438   6.389   2.257   3.924
 9180SOL    HW128439   6.367   2.345   3.965
 9180SOL    HW228440   6.304   2.211   3.896
 9181SOL     OW28441   5.098   2.717   3.146
 9181SOL    HW128442   5.055   2.683   3.230
 9181SOL    HW228443   5.027   2.750   3.083
 9182SOL     OW28444   3.227   1.231   2.840
 9182SOL    HW128445   3.133   1.263   2.852
 9182SOL    HW228446   3.288   1.309   2.831
 9183SOL     OW28447   4.684   3.987   6.177
 9183SOL    HW128448   4.750   4.050   6.218
 9183SOL    HW228449   4.601   3.985   6.234
 9184SOL     OW28450   3.812   2.496   0.870
 9184SOL    HW128451   3.750   2.560   0.825
 9184SOL    HW228452   3.838   2.531   0.960
 9185SOL     OW28453   0.987   6.768   6.172
 9185SOL    HW128454   1.082   6.786   6.148
 9185SOL    HW228455   0.940   6.726   6.094
 9186SOL     OW28456   4.845   0.583   5.754
 9186SOL    HW128457   4.859   0.682   5.752
 9186SOL    HW228458   4.878   0.546   5.840
 9187SOL     OW28459   4.476   1.998   6.993
 9187SOL    HW128460   4.408   2.067   6.966
 9187SOL    HW228461   4.428   1.919   0.013
 9188SOL     OW28462   1.440   0.327   1.625
 9188SOL    HW128463   1.504   0.271   1.678
 9188SOL    HW228464   1.404   0.400   1.683
 9189SOL     OW28465   3.002   0.661   3.922
 9189SOL    HW128466   2.932   0.675   3.852
 9189SOL    HW228467   3.057   0.744   3.931
 9190SOL     OW28468   6.585   3.647   5.346
 9190SOL    HW128469   6.557   3.553   5.325
 9190SOL    HW228470   6.665   3.671   5.292
 9191SOL     OW28471   4.664   6.721   6.663
 9191SOL    HW128472   4.757   6.685   6.673
 9191SOL    HW228473   4.615   6.711   6.750
 9192SOL     OW28474   6.325   3.641   6.369
 9192SOL    HW128475   6.271   3.559   6.350
 9192SOL    HW228476   6.400   3.648   6.303
 9193SOL     OW28477   3.335   3.822   3.871
 9193SOL    HW128478   3.337   3.885   3.793
 9193SOL    HW228479   3.428   3.794   3.894
 9194SOL     OW28480   3.299   5.840   2.009
 9194SOL    HW128481   3.264   5.916   1.955
 9194SOL    HW228482   3.399   5.843   2.009
 9195SOL     OW28483   2.059   2.552   3.735
 9195SOL    HW128484   2.102   2.462   3.737
 9195SOL    HW228485   2.021   2.568   3.645
 9196SOL     OW28486   5.731   7.002   4.150
 9196SOL    HW128487   5.802   6.974   4.085
 9196SOL    HW228488   5.678   0.057   4.111
 9197SOL     OW28489   3.635   4.629   0.852
 9197SOL    HW128490   3.546   4.617   0.896
 9197SOL    HW228491   3.622   4.671   0.762
 9198SOL     OW28492   5.718   4.159   6.003
 9198SOL    HW128493   5.709   4.094   6.078
 9198SOL    HW228494   5.802   4.141   5.952
 9199SOL     OW28495   0.324   3.284   6.131
 9199SOL    HW128496   0.417   3.247   6.140
 9199SOL    HW228497   0.329   3.381   6.108
 9200SOL     OW28498   1.792   5.696   6.334
 9200SOL    HW128499   1.719   5.677   6.269
 9200SOL    HW228500   1.860   5.623   6.332
 9201SOL     OW28501   0.393   3.569   1.261
 9201SOL    HW128502   0.466   3.595   1.325
 9201SOL    HW228503   0.387   3.637   1.188
 9202SOL     OW28504   1.566   5.882   4.461
 9202SOL    HW128505   1.576   5.783   4.472
 9202SOL    HW228506   1.637   5.928   4.514
 9203SOL     OW28507   5.235   2.313   6.321
 9203SOL    HW128508   5.186   2.354   6.398
 9203SOL    HW228509   5.182   2.236   6.286
 9204SOL     OW28510   5.118   3.834   3.688
 9204SOL    HW128511   5.094   3.821   3.785
 9204SOL    HW228512   5.089   3.925   3.659
 9205SOL     OW28513   5.148   3.636   2.532
 9205SOL    HW128514   5.072   3.624   2.468
 9205SOL    HW228515   5.112   3.642   2.626
 9206SOL     OW28516   3.264   0.444   4.345
 9206SOL    HW128517   3.265   0.457   4.246
 9206SOL    HW228518   3.199   0.372   4.368
 9207SOL     OW28519   3.808   6.376   5.691
 9207SOL    HW128520   3.727   6.418   5.733
 9207SOL    HW228521   3.780   6.322   5.612
 9208SOL     OW28522   5.064   4.115   2.410
 9208SOL    HW128523   5.066   4.174   2.329
 9208SOL    HW228524   5.142   4.137   2.469
 9209SOL     OW28525   4.224   0.492   2.093
 9209SOL    HW128526   4.314   0.490   2.138
 9209SOL    HW228527   4.173   0.409   2.117
 9210SOL     OW28528   1.069   0.680   0.993
 9210SOL    HW128529   1.130   0.759   0.993
 9210SOL    HW228530   1.080   0.630   1.079
 9211SOL     OW28531   4.842   2.224   5.804
 9211SOL    HW128532   4.898   2.260   5.729
 9211SOL    HW228533   4.900   2.210   5.884
 9212SOL     OW28534   5.020   4.152   4.992
 9212SOL    HW128535   5.120   4.148   4.991
 9212SOL    HW228536   4.983   4.059   4.996
 9213SOL     OW28537   5.233   6.304   4.650
 9213SOL    HW128538   5.316   6.311   4.705
 9213SOL    HW228539   5.156   6.344   4.700
 9214SOL     OW28540   0.250   2.747   5.366
 9214SOL    HW128541   0.323   2.712   5.425
 9214SOL    HW228542   0.267   2.719   5.272
 9215SOL     OW28543   0.367   4.388   2.584
 9215SOL    HW128544   0.443   4.322   2.585
 9215SOL    HW228545   0.304   4.364   2.510
 9216SOL     OW28546   2.352   6.921   4.792
 9216SOL    HW128547   2.264   6.903   4.834
 9216SOL    HW228548   2.418   6.948   4.862
 9217SOL     OW28549   5.443   1.457   6.704
 9217SOL    HW128550   5.479   1.407   6.783
 9217SOL    HW228551   5.397   1.393   6.643
 9218SOL     OW28552   4.001   1.091   6.592
 9218SOL    HW128553   3.953   1.160   6.538
 9218SOL    HW228554   4.079   1.134   6.638
 9219SOL     OW28555   4.105   3.385   5.728
 9219SOL    HW128556   4.128   3.307   5.786
 9219SOL    HW228557   4.178   3.399   5.661
 9220SOL     OW28558   1.953   6.049   2.436
 9220SOL    HW128559   2.022   6.117   2.460
 9220SOL    HW228560   1.922   6.065   2.342
 9221SOL     OW28561   2.395   0.312   5.538
 9221SOL    HW128562   2.462   0.367   5.588
 9221SOL    HW228563   2.346   0.371   5.474
 9222SOL     OW28564   2.379   4.406   4.791
 9222SOL    HW128565   2.311   4.336   4.813
 9222SOL    HW228566   2.422   4.385   4.703
 9223SOL     OW28567   0.784   2.534   3.664
 9223SOL    HW128568   0.727   2.616   3.665
 9223SOL    HW228569   0.879   2.559   3.684
 9224SOL     OW28570   1.872   2.881   3.788
 9224SOL    HW128571   1.782   2.851   3.820
 9224SOL    HW228572   1.943   2.833   3.838
 9225SOL     OW28573   3.834   6.775   6.319
 9225SOL    HW128574   3.912   6.764   6.258
 9225SOL    HW228575   3.750   6.755   6.268
 9226SOL     OW28576   1.348   0.399   1.315
 9226SOL    HW128577   1.407   0.356   1.247
 9226SOL    HW228578   1.367   0.360   1.405
 9227SOL     OW28579   2.453   5.411   1.359
 9227SOL    HW128580   2.523   5.449   1.420
 9227SOL    HW228581   2.464   5.312   1.352
 9228SOL     OW28582   2.106   2.485   6.061
 9228SOL    HW128583   2.128   2.401   6.011
 9228SOL    HW228584   2.020   2.522   6.026
 9229SOL     OW28585   1.518   5.174   6.712
 9229SOL    HW128586   1.418   5.164   6.704
 9229SOL    HW228587   1.542   5.190   6.808
 9230SOL     OW28588   5.127   2.566   3.398
 9230SOL    HW128589   5.209   2.509   3.402
 9230SOL    HW228590   5.090   2.577   3.490
 9231SOL     OW28591   0.915   4.872   5.550
 9231SOL    HW128592   0.974   4.802   5.590
 9231SOL    HW228593   0.947   4.963   5.576
 9232SOL     OW28594   2.541   5.854   1.358
 9232SOL    HW128595   2.452   5.866   1.313
 9232SOL    HW228596   2.581   5.767   1.329
 9233SOL     OW28597   0.957   6.827   0.497
 9233SOL    HW128598   0.942   6.923   0.476
 9233SOL    HW228599   1.021   6.818   0.573
 9234SOL     OW28600   2.344   5.466   0.776
 9234SOL    HW128601   2.411   5.539   0.764
 9234SOL    HW228602   2.364   5.391   0.713
 9235SOL     OW28603   2.567   2.378   3.667
 9235SOL    HW128604   2.533   2.332   3.585
 9235SOL    HW228605   2.522   2.467   3.676
 9236SOL     OW28606   2.309   3.284   6.347
 9236SOL    HW128607   2.268   3.309   6.259
 9236SOL    HW228608   2.237   3.268   6.414
 9237SOL     OW28609   0.406   6.049   3.002
 9237SOL    HW128610   0.485   6.044   3.063
 9237SOL    HW228611   0.324   6.069   3.055
 9238SOL     OW28612   2.776   2.234   6.036
 9238SOL    HW128613   2.870   2.253   6.065
 9238SOL    HW228614   2.767   2.253   5.939
 9239SOL     OW28615   6.548   4.601   6.392
 9239SOL    HW128616   6.472   4.660   6.365
 9239SOL    HW228617   6.574   4.543   6.315
 9240SOL     OW28618   5.268   3.259   2.641
 9240SOL    HW128619   5.191   3.197   2.627
 9240SOL    HW228620   5.302   3.290   2.552
 9241SOL     OW28621   6.917   5.595   0.429
 9241SOL    HW128622   6.867   5.664   0.482
 9241SOL    HW228623   7.001   5.635   0.392
 9242SOL     OW28624   2.060   3.084   1.803
 9242SOL    HW128625   2.097   3.107   1.893
 9242SOL    HW228626   1.982   3.142   1.783
 9243SOL     OW28627   0.840   0.482   2.195
 9243SOL    HW128628   0.807   0.406   2.140
 9243SOL    HW228629   0.788   0.565   2.172
 9244SOL     OW28630   2.384   6.551   6.246
 9244SOL    HW128631   2.432   6.558   6.158
 9244SOL    HW228632   2.388   6.457   6.279
 9245SOL     OW28633   0.525   4.411   3.692
 9245SOL    HW128634   0.606   4.372   3.735
 9245SOL    HW228635   0.458   4.438   3.762
 9246SOL     OW28636   5.940   0.178   4.132
 9246SOL    HW128637   5.934   0.130   4.045
 9246SOL    HW228638   5.988   0.121   4.199
 9247SOL     OW28639   4.254   5.461   3.429
 9247SOL    HW128640   4.313   5.380   3.431
 9247SOL    HW228641   4.307   5.540   3.398
 9248SOL     OW28642   2.713   2.317   5.502
 9248SOL    HW128643   2.758   2.229   5.513
 9248SOL    HW228644   2.680   2.350   5.590
 9249SOL     OW28645   4.562   5.135   1.073
 9249SOL    HW128646   4.511   5.059   1.113
 9249SOL    HW228647   4.564   5.211   1.137
 9250SOL     OW28648   6.813   3.358   4.092
 9250SOL    HW128649   6.854   3.426   4.152
 9250SOL    HW228650   6.815   3.268   4.136
 9251SOL     OW28651   4.323   2.175   2.048
 9251SOL    HW128652   4.245   2.203   2.103
 9251SOL    HW228653   4.408   2.195   2.097
 9252SOL     OW28654   5.445   0.680   4.945
 9252SOL    HW128655   5.481   0.616   5.012
 9252SOL    HW228656   5.345   0.673   4.943
 9253SOL     OW28657   5.162   5.261   5.984
 9253SOL    HW128658   5.256   5.294   5.995
 9253SOL    HW228659   5.145   5.243   5.887
 9254SOL     OW28660   5.147   5.287   2.642
 9254SOL    HW128661   5.193   5.207   2.681
 9254SOL    HW228662   5.140   5.276   2.542
 9255SOL     OW28663   5.316   3.207   6.720
 9255SOL    HW128664   5.346   3.286   6.665
 9255SOL    HW228665   5.360   3.124   6.686
 9256SOL     OW28666   1.754   0.111   1.573
 9256SOL    HW128667   1.801   0.065   1.648
 9256SOL    HW228668   1.800   0.198   1.553
 9257SOL     OW28669   5.978   5.954   3.057
 9257SOL    HW128670   5.981   6.031   2.993
 9257SOL    HW228671   6.064   5.903   3.052
 9258SOL     OW28672   3.669   3.216   0.827
 9258SOL    HW128673   3.737   3.271   0.777
 9258SOL    HW228674   3.703   3.195   0.918
 9259SOL     OW28675   1.606   1.058   0.345
 9259SOL    HW128676   1.528   1.023   0.397
 9259SOL    HW228677   1.574   1.129   0.281
 9260SOL     OW28678   0.037   2.591   6.248
 9260SOL    HW128679   6.987   2.530   6.286
 9260SOL    HW228680   0.075   2.551   6.165
 9261SOL     OW28681   4.807   0.818   6.475
 9261SOL    HW128682   4.751   0.870   6.539
 9261SOL    HW228683   4.774   0.833   6.382
 9262SOL     OW28684   1.108   6.702   5.338
 9262SOL    HW128685   1.150   6.648   5.411
 9262SOL    HW228686   1.031   6.754   5.375
 9263SOL     OW28687   3.460   5.208   2.975
 9263SOL    HW128688   3.441   5.266   3.054
 9263SOL    HW228689   3.456   5.112   3.003
 9264SOL     OW28690   4.403   2.960   0.111
 9264SOL    HW128691   4.462   2.880   0.100
 9264SOL    HW228692   4.437   3.035   0.053
 9265SOL     OW28693   3.792   2.100   6.488
 9265SOL    HW128694   3.856   2.053   6.426
 9265SOL    HW228695   3.756   2.035   6.554
 9266SOL     OW28696   0.181   5.826   1.349
 9266SOL    HW128697   0.113   5.875   1.404
 9266SOL    HW228698   0.174   5.855   1.254
 9267SOL     OW28699   0.905   2.066   4.338
 9267SOL    HW128700   0.817   2.022   4.356
 9267SOL    HW228701   0.901   2.113   4.250
 9268SOL     OW28702   0.906   6.180   2.639
 9268SOL    HW128703   0.930   6.240   2.562
 9268SOL    HW228704   0.812   6.150   2.629
 9269SOL     OW28705   4.024   0.265   6.730
 9269SOL    HW128706   3.978   0.215   6.657
 9269SOL    HW228707   4.034   0.361   6.704
 9270SOL     OW28708   3.838   0.722   5.383
 9270SOL    HW128709   3.856   0.669   5.300
 9270SOL    HW228710   3.804   0.813   5.357
 9271SOL     OW28711   6.787   6.995   0.903
 9271SOL    HW128712   6.852   0.006   0.833
 9271SOL    HW228713   6.792   6.896   0.912
 9272SOL     OW28714   0.657   6.557   6.304
 9272SOL    HW128715   0.724   6.620   6.342
 9272SOL    HW228716   0.583   6.608   6.261
 9273SOL     OW28717   5.610   6.158   2.994
 9273SOL    HW128718   5.682   6.208   3.042
 9273SOL    HW228719   5.579   6.081   3.049
 9274SOL     OW28720   6.605   2.452   0.139
 9274SOL    HW128721   6.529   2.511   0.110
 9274SOL    HW228722   6.569   2.373   0.188
 9275SOL     OW28723   0.107   6.638   0.029
 9275SOL    HW128724   0.193   6.680   7.020
 9275SOL    HW228725   0.055   6.608   6.969
 9276SOL     OW28726   2.249   5.052   6.902
 9276SOL    HW128727   2.316   4.980   6.919
 9276SOL    HW228728   2.283   5.113   6.831
 9277SOL     OW28729   4.019   5.736   2.800
 9277SOL    HW128730   4.039   5.826   2.838
 9277SOL    HW228731   3.933   5.702   2.838
 9278SOL     OW28732   1.131   0.724   5.489
 9278SOL    HW128733   1.122   0.646   5.426
 9278SOL    HW228734   1.082   0.802   5.452
 9279SOL     OW28735   3.563   6.906   1.835
 9279SOL    HW128736   3.512   6.908   1.921
 9279SOL    HW228737   3.513   6.851   1.769
 9280SOL     OW28738   2.142   1.569   2.597
 9280SOL    HW128739   2.084   1.641   2.634
 9280SOL    HW228740   2.230   1.568   2.645
 9281SOL     OW28741   3.313   3.696   6.490
 9281SOL    HW128742   3.253   3.772   6.514
 9281SOL    HW228743   3.355   3.715   6.401
 9282SOL     OW28744   4.673   1.295   4.298
 9282SOL    HW128745   4.753   1.267   4.350
 9282SOL    HW228746   4.662   1.236   4.218
 9283SOL     OW28747   5.120   0.405   5.334
 9283SOL    HW128748   5.024   0.398   5.308
 9283SOL    HW228749   5.135   0.489   5.387
 9284SOL     OW28750   2.432   3.377   5.531
 9284SOL    HW128751   2.503   3.426   5.480
 9284SOL    HW228752   2.469   3.290   5.562
 9285SOL     OW28753   5.220   3.090   0.738
 9285SOL    HW128754   5.155   3.082   0.662
 9285SOL    HW228755   5.210   3.180   0.781
 9286SOL     OW28756   4.708   5.640   0.719
 9286SOL    HW128757   4.804   5.662   0.704
 9286SOL    HW228758   4.672   5.694   0.795
 9287SOL     OW28759   3.320   4.412   5.604
 9287SOL    HW128760   3.344   4.322   5.641
 9287SOL    HW228761   3.277   4.401   5.515
 9288SOL     OW28762   4.758   2.302   2.987
 9288SOL    HW128763   4.849   2.328   2.956
 9288SOL    HW228764   4.689   2.353   2.934
 9289SOL     OW28765   4.302   0.928   6.918
 9289SOL    HW128766   4.325   0.844   6.869
 9289SOL    HW228767   4.223   0.912   6.977
 9290SOL     OW28768   6.235   0.743   4.326
 9290SOL    HW128769   6.264   0.706   4.414
 9290SOL    HW228770   6.179   0.825   4.341
 9291SOL     OW28771   1.789   6.029   6.100
 9291SOL    HW128772   1.876   6.004   6.142
 9291SOL    HW228773   1.724   6.054   6.172
 9292SOL     OW28774   1.958   1.388   6.745
 9292SOL    HW128775   1.988   1.397   6.840
 9292SOL    HW228776   2.001   1.307   6.705
 9293SOL     OW28777   4.876   3.390   6.867
 9293SOL    HW128778   4.890   3.489   6.859
 9293SOL    HW228779   4.888   3.362   6.963
 9294SOL     OW28780   4.941   0.952   6.842
 9294SOL    HW128781   4.924   1.028   6.905
 9294SOL    HW228782   4.894   0.870   6.875
 9295SOL     OW28783   6.515   0.756   5.055
 9295SOL    HW128784   6.446   0.724   5.121
 9295SOL    HW228785   6.593   0.693   5.056
 9296SOL     OW28786   2.057   5.140   0.761
 9296SOL    HW128787   2.130   5.104   0.818
 9296SOL    HW228788   2.092   5.218   0.709
 9297SOL     OW28789   0.707   6.457   3.533
 9297SOL    HW128790   0.682   6.400   3.611
 9297SOL    HW228791   0.684   6.552   3.553
 9298SOL     OW28792   1.147   6.246   6.196
 9298SOL    HW128793   1.109   6.289   6.114
 9298SOL    HW228794   1.123   6.300   6.277
 9299SOL     OW28795   1.024   1.298   3.775
 9299SOL    HW128796   0.996   1.349   3.695
 9299SOL    HW228797   1.096   1.348   3.824
 9300SOL     OW28798   0.517   5.140   5.001
 9300SOL    HW128799   0.611   5.172   4.990
 9300SOL    HW228800   0.469   5.199   5.065
 9301SOL     OW28801   0.100   4.411   5.173
 9301SOL    HW128802   0.093   4.411   5.073
 9301SOL    HW228803   0.009   4.411   5.213
 9302SOL     OW28804   2.141   3.018   4.680
 9302SOL    HW128805   2.133   3.053   4.773
 9302SOL    HW228806   2.135   3.094   4.615
 9303SOL     OW28807   2.482   4.532   0.436
 9303SOL    HW128808   2.503   4.604   0.370
 9303SOL    HW228809   2.557   4.465   0.437
 9304SOL     OW28810   4.303   5.182   0.475
 9304SOL    HW128811   4.322   5.246   0.400
 9304SOL    HW228812   4.214   5.203   0.514
 9305SOL     OW28813   3.552   0.984   0.547
 9305SOL    HW128814   3.546   0.885   0.549
 9305SOL    HW228815   3.474   1.024   0.594
 9306SOL     OW28816   0.619   3.986   5.491
 9306SOL    HW128817   0.591   3.895   5.462
 9306SOL    HW228818   0.597   4.052   5.419
 9307SOL     OW28819   1.247   4.265   0.886
 9307SOL    HW128820   1.172   4.331   0.893
 9307SOL    HW228821   1.328   4.309   0.850
 9308SOL     OW28822   1.157   4.577   1.506
 9308SOL    HW128823   1.245   4.620   1.483
 9308SOL    HW228824   1.095   4.646   1.543
 9309SOL     OW28825   4.258   6.450   5.382
 9309SOL    HW128826   4.242   6.358   5.347
 9309SOL    HW228827   4.356   6.464   5.397
 9310SOL     OW28828   5.645   6.198   5.837
 9310SOL    HW128829   5.616   6.248   5.918
 9310SOL    HW228830   5.566   6.180   5.779
 9311SOL     OW28831   5.383   4.704   1.438
 9311SOL    HW128832   5.329   4.647   1.499
 9311SOL    HW228833   5.430   4.647   1.371
 9312SOL     OW28834   1.481   2.089   1.223
 9312SOL    HW128835   1.570   2.080   1.269
 9312SOL    HW228836   1.491   2.066   1.127
 9313SOL     OW28837   0.791   0.461   1.744
 9313SOL    HW128838   0.824   0.491   1.654
 9313SOL    HW228839   0.866   0.417   1.793
 9314SOL     OW28840   6.465   3.903   1.038
 9314SOL    HW128841   6.427   3.813   1.016
 9314SOL    HW228842   6.534   3.928   0.970
 9315SOL     OW28843   6.045   0.408   6.051
 9315SOL    HW128844   6.046   0.498   6.094
 9315SOL    HW228845   5.978   0.349   6.096
 9316SOL     OW28846   5.878   0.232   5.387
 9316SOL    HW128847   5.863   0.294   5.310
 9316SOL    HW228848   5.976   0.226   5.406
 9317SOL     OW28849   4.130   5.370   3.183
 9317SOL    HW128850   4.119   5.469   3.189
 9317SOL    HW228851   4.146   5.332   3.274
 9318SOL     OW28852   4.525   6.447   0.144
 9318SOL    HW128853   4.539   6.535   0.097
 9318SOL    HW228854   4.430   6.440   0.173
 9319SOL     OW28855   2.177   2.953   0.709
 9319SOL    HW128856   2.125   3.036   0.691
 9319SOL    HW228857   2.222   2.923   0.625
 9320SOL     OW28858   4.853   0.495   6.261
 9320SOL    HW128859   4.869   0.401   6.292
 9320SOL    HW228860   4.915   0.557   6.310
 9321SOL     OW28861   0.789   1.625   5.501
 9321SOL    HW128862   0.797   1.680   5.418
 9321SOL    HW228863   0.708   1.654   5.552
 9322SOL     OW28864   6.703   4.396   6.578
 9322SOL    HW128865   6.746   4.467   6.634
 9322SOL    HW228866   6.623   4.433   6.531
 9323SOL     OW28867   2.338   1.883   4.791
 9323SOL    HW128868   2.419   1.886   4.849
 9323SOL    HW228869   2.256   1.896   4.848
 9324SOL     OW28870   2.212   3.909   2.272
 9324SOL    HW128871   2.286   3.866   2.222
 9324SOL    HW228872   2.138   3.843   2.287
 9325SOL     OW28873   0.724   6.216   1.107
 9325SOL    HW128874   0.763   6.268   1.183
 9325SOL    HW228875   0.765   6.124   1.106
 9326SOL     OW28876   3.228   5.267   6.730
 9326SOL    HW128877   3.180   5.187   6.694
 9326SOL    HW228878   3.316   5.238   6.767
 9327SOL     OW28879   4.486   6.940   3.142
 9327SOL    HW128880   4.566   6.910   3.196
 9327SOL    HW228881   4.435   6.860   3.111
 9328SOL     OW28882   1.944   0.310   5.263
 9328SOL    HW128883   1.985   0.400   5.250
 9328SOL    HW228884   1.847   0.313   5.240
 9329SOL     OW28885   6.551   5.572   0.832
 9329SOL    HW128886   6.599   5.488   0.857
 9329SOL    HW228887   6.535   5.627   0.914
 9330SOL     OW28888   0.407   0.213   6.190
 9330SOL    HW128889   0.379   0.298   6.235
 9330SOL    HW228890   0.326   0.157   6.172
 9331SOL     OW28891   2.017   2.076   5.987
 9331SOL    HW128892   2.096   2.135   5.967
 9331SOL    HW228893   2.006   2.011   5.912
 9332SOL     OW28894   4.168   6.081   0.817
 9332SOL    HW128895   4.157   5.984   0.793
 9332SOL    HW228896   4.223   6.127   0.747
 9333SOL     OW28897   4.107   5.753   6.989
 9333SOL    HW128898   4.120   5.683   6.918
 9333SOL    HW228899   4.010   5.770   7.001
 9334SOL     OW28900   5.035   0.667   4.410
 9334SOL    HW128901   5.054   0.569   4.408
 9334SOL    HW228902   5.111   0.717   4.368
 9335SOL     OW28903   1.283   1.685   0.309
 9335SOL    HW128904   1.345   1.753   0.270
 9335SOL    HW228905   1.323   1.647   0.392
 9336SOL     OW28906   5.615   0.401   4.374
 9336SOL    HW128907   5.609   0.469   4.300
 9336SOL    HW228908   5.706   0.361   4.374
 9337SOL     OW28909   5.310   0.700   6.381
 9337SOL    HW128910   5.310   0.726   6.478
 9337SOL    HW228911   5.216   0.683   6.352
 9338SOL     OW28912   6.830   6.041   1.132
 9338SOL    HW128913   6.829   6.120   1.070
 9338SOL    HW228914   6.918   6.036   1.178
 9339SOL     OW28915   5.587   5.897   0.527
 9339SOL    HW128916   5.571   5.995   0.536
 9339SOL    HW228917   5.638   5.879   0.443
 9340SOL     OW28918   4.204   4.762   2.709
 9340SOL    HW128919   4.223   4.666   2.733
 9340SOL    HW228920   4.262   4.822   2.763
 9341SOL     OW28921   6.355   3.850   0.404
 9341SOL    HW128922   6.453   3.828   0.411
 9341SOL    HW228923   6.337   3.935   0.453
 9342SOL     OW28924   2.823   0.557   4.565
 9342SOL    HW128925   2.854   0.603   4.648
 9342SOL    HW228926   2.865   0.600   4.485
 9343SOL     OW28927   4.888   3.442   2.074
 9343SOL    HW128928   4.937   3.529   2.067
 9343SOL    HW228929   4.790   3.458   2.062
 9344SOL     OW28930   5.309   5.959   6.507
 9344SOL    HW128931   5.234   6.002   6.557
 9344SOL    HW228932   5.325   6.009   6.422
 9345SOL     OW28933   6.497   4.647   0.448
 9345SOL    HW128934   6.575   4.584   0.448
 9345SOL    HW228935   6.466   4.662   0.354
 9346SOL     OW28936   5.151   6.398   2.397
 9346SOL    HW128937   5.167   6.455   2.478
 9346SOL    HW228938   5.102   6.450   2.328
 9347SOL     OW28939   3.265   5.805   0.738
 9347SOL    HW128940   3.282   5.900   0.713
 9347SOL    HW228941   3.228   5.800   0.831
 9348SOL     OW28942   3.102   4.903   3.002
 9348SOL    HW128943   3.007   4.899   3.032
 9348SOL    HW228944   3.105   4.920   2.903
 9349SOL     OW28945   6.414   5.896   2.034
 9349SOL    HW128946   6.491   5.846   2.074
 9349SOL    HW228947   6.337   5.895   2.098
 9350SOL     OW28948   0.598   1.834   4.352
 9350SOL    HW128949   0.621   1.892   4.431
 9350SOL    HW228950   0.557   1.891   4.281
 9351SOL     OW28951   2.791   0.574   6.148
 9351SOL    HW128952   2.710   0.632   6.154
 9351SOL    HW228953   2.773   0.487   6.195
 9352SOL     OW28954   2.330   3.137   5.665
 9352SOL    HW128955   2.305   3.128   5.569
 9352SOL    HW228956   2.342   3.046   5.705
 9353SOL     OW28957   1.932   4.299   2.023
 9353SOL    HW128958   1.961   4.216   2.072
 9353SOL    HW228959   1.834   4.295   2.007
 9354SOL     OW28960   5.966   1.727   0.642
 9354SOL    HW128961   6.056   1.688   0.663
 9354SOL    HW228962   5.976   1.796   0.569
 9355SOL     OW28963   6.445   1.181   4.541
 9355SOL    HW128964   6.428   1.271   4.500
 9355SOL    HW228965   6.503   1.127   4.479
 9356SOL     OW28966   4.575   5.306   1.820
 9356SOL    HW128967   4.490   5.359   1.821
 9356SOL    HW228968   4.565   5.226   1.878
 9357SOL     OW28969   2.399   3.662   0.025
 9357SOL    HW128970   2.499   3.672   0.032
 9357SOL    HW228971   2.355   3.722   0.092
 9358SOL     OW28972   6.218   3.677   1.711
 9358SOL    HW128973   6.239   3.762   1.662
 9358SOL    HW228974   6.123   3.677   1.741
 9359SOL     OW28975   0.623   3.649   5.757
 9359SOL    HW128976   0.597   3.554   5.775
 9359SOL    HW228977   0.669   3.687   5.837
 9360SOL     OW28978   1.147   6.674   5.874
 9360SOL    HW128979   1.187   6.726   5.799
 9360SOL    HW228980   1.047   6.686   5.873
 9361SOL     OW28981   2.936   6.327   3.853
 9361SOL    HW128982   2.883   6.244   3.837
 9361SOL    HW228983   2.899   6.401   3.797
 9362SOL     OW28984   1.500   1.549   2.393
 9362SOL    HW128985   1.401   1.549   2.400
 9362SOL    HW228986   1.532   1.639   2.363
 9363SOL     OW28987   4.220   5.337   1.829
 9363SOL    HW128988   4.172   5.317   1.915
 9363SOL    HW228989   4.187   5.424   1.792
 9364SOL     OW28990   4.220   3.273   5.956
 9364SOL    HW128991   4.308   3.292   5.998
 9364SOL    HW228992   4.199   3.176   5.962
 9365SOL     OW28993   2.848   2.058   5.517
 9365SOL    HW128994   2.896   2.059   5.430
 9365SOL    HW228995   2.798   1.972   5.527
 9366SOL     OW28996   2.614   1.358   0.203
 9366SOL    HW128997   2.550   1.372   0.278
 9366SOL    HW228998   2.695   1.309   0.237
 9367SOL     OW28999   6.997   6.036   3.437
 9367SOL    HW129000   0.063   6.060   3.482
 9367SOL    HW229001   6.981   5.938   3.448
 9368SOL     OW29002   3.376   1.831   3.520
 9368SOL    HW129003   3.277   1.840   3.508
 9368SOL    HW229004   3.395   1.749   3.573
 9369SOL     OW29005   0.180   0.778   5.849
 9369SOL    HW129006   0.111   0.732   5.905
 9369SOL    HW229007   0.246   0.710   5.816
 9370SOL     OW29008   4.827   0.357   2.732
 9370SOL    HW129009   4.748   0.400   2.776
 9370SOL    HW229010   4.904   0.421   2.733
 9371SOL     OW29011   1.988   4.704   0.761
 9371SOL    HW129012   2.028   4.623   0.717
 9371SOL    HW229013   2.022   4.786   0.716
 9372SOL     OW29014   5.628   5.927   3.200
 9372SOL    HW129015   5.601   6.002   3.260
 9372SOL    HW229016   5.590   5.841   3.235
 9373SOL     OW29017   4.564   2.555   2.524
 9373SOL    HW129018   4.602   2.610   2.599
 9373SOL    HW229019   4.610   2.579   2.439
 9374SOL     OW29020   6.389   3.689   0.858
 9374SOL    HW129021   6.477   3.650   0.829
 9374SOL    HW229022   6.328   3.615   0.884
 9375SOL     OW29023   6.690   1.865   2.882
 9375SOL    HW129024   6.732   1.949   2.917
 9375SOL    HW229025   6.757   1.792   2.881
 9376SOL     OW29026   2.415   4.113   1.549
 9376SOL    HW129027   2.403   4.034   1.490
 9376SOL    HW229028   2.506   4.110   1.591
 9377SOL     OW29029   1.583   5.523   3.815
 9377SOL    HW129030   1.517   5.451   3.834
 9377SOL    HW229031   1.545   5.611   3.841
 9378SOL     OW29032   0.500   0.226   5.117
 9378SOL    HW129033   0.536   0.161   5.049
 9378SOL    HW229034   0.574   0.255   5.177
 9379SOL     OW29035   4.472   5.073   5.603
 9379SOL    HW129036   4.388   5.126   5.590
 9379SOL    HW229037   4.475   4.998   5.536
 9380SOL     OW29038   5.679   4.431   5.048
 9380SOL    HW129039   5.694   4.480   4.962
 9380SOL    HW229040   5.653   4.336   5.028
 9381SOL     OW29041   2.724   3.146   5.865
 9381SOL    HW129042   2.720   3.190   5.775
 9381SOL    HW229043   2.819   3.134   5.892
 9382SOL     OW29044   3.423   1.454   3.293
 9382SOL    HW129045   3.443   1.394   3.370
 9382SOL    HW229046   3.462   1.415   3.210
 9383SOL     OW29047   1.999   6.090   4.468
 9383SOL    HW129048   2.073   6.027   4.492
 9383SOL    HW229049   1.999   6.104   4.369
 9384SOL     OW29050   3.093   5.906   1.369
 9384SOL    HW129051   3.107   5.816   1.330
 9384SOL    HW229052   3.102   5.902   1.468
 9385SOL     OW29053   4.172   0.870   3.148
 9385SOL    HW129054   4.179   0.779   3.108
 9385SOL    HW229055   4.121   0.865   3.234
 9386SOL     OW29056   2.340   6.206   4.753
 9386SOL    HW129057   2.386   6.158   4.827
 9386SOL    HW229058   2.403   6.271   4.711
 9387SOL     OW29059   2.645   1.074   6.912
 9387SOL    HW129060   2.574   1.097   6.978
 9387SOL    HW229061   2.604   1.033   6.831
 9388SOL     OW29062   2.358   5.658   3.321
 9388SOL    HW129063   2.273   5.606   3.331
 9388SOL    HW229064   2.428   5.600   3.280
 9389SOL     OW29065   1.485   6.780   4.991
 9389SOL    HW129066   1.439   6.777   5.080
 9389SOL    HW229067   1.584   6.786   5.005
 9390SOL     OW29068   4.037   5.119   4.919
 9390SOL    HW129069   3.947   5.081   4.897
 9390SOL    HW229070   4.097   5.112   4.840
 9391SOL     OW29071   2.417   0.686   5.185
 9391SOL    HW129072   2.396   0.678   5.088
 9391SOL    HW229073   2.507   0.727   5.197
 9392SOL     OW29074   6.899   0.300   5.379
 9392SOL    HW129075   6.872   0.379   5.433
 9392SOL    HW229076   6.817   0.247   5.355
 9393SOL     OW29077   2.958   0.290   5.182
 9393SOL    HW129078   2.932   0.345   5.102
 9393SOL    HW229079   2.929   0.336   5.266
 9394SOL     OW29080   7.005   1.344   2.036
 9394SOL    HW129081   0.016   1.267   1.979
 9394SOL    HW229082   0.053   1.361   2.107
 9395SOL     OW29083   2.183   1.491   0.317
 9395SOL    HW129084   2.087   1.509   0.338
 9395SOL    HW229085   2.203   1.523   0.224
 9396SOL     OW29086   1.436   5.317   3.611
 9396SOL    HW129087   1.530   5.334   3.580
 9396SOL    HW229088   1.402   5.232   3.569
 9397SOL     OW29089   3.249   0.191   0.095
 9397SOL    HW129090   3.272   0.188   0.192
 9397SOL    HW229091   3.234   0.098   0.061
 9398SOL     OW29092   0.666   0.319   5.381
 9398SOL    HW129093   0.677   0.221   5.393
 9398SOL    HW229094   0.612   0.356   5.457
 9399SOL     OW29095   6.884   1.728   6.197
 9399SOL    HW129096   6.825   1.769   6.128
 9399SOL    HW229097   6.930   1.647   6.160
 9400SOL     OW29098   4.099   2.316   1.710
 9400SOL    HW129099   4.042   2.239   1.736
 9400SOL    HW229100   4.179   2.321   1.770
 9401SOL     OW29101   4.915   6.740   3.538
 9401SOL    HW129102   4.898   6.673   3.465
 9401SOL    HW229103   4.829   6.782   3.565
 9402SOL     OW29104   1.201   4.850   3.628
 9402SOL    HW129105   1.176   4.754   3.623
 9402SOL    HW229106   1.249   4.877   3.545
 9403SOL     OW29107   5.730   1.547   2.754
 9403SOL    HW129108   5.650   1.595   2.717
 9403SOL    HW229109   5.803   1.613   2.771
 9404SOL     OW29110   0.927   3.351   6.470
 9404SOL    HW129111   0.960   3.299   6.390
 9404SOL    HW229112   0.882   3.435   6.438
 9405SOL     OW29113   0.312   5.764   2.141
 9405SOL    HW129114   0.248   5.838   2.159
 9405SOL    HW229115   0.317   5.747   2.042
 9406SOL     OW29116   0.145   2.724   6.473
 9406SOL    HW129117   0.111   2.674   6.394
 9406SOL    HW229118   0.076   2.790   6.503
 9407SOL     OW29119   2.905   5.079   3.485
 9407SOL    HW129120   2.892   5.057   3.582
 9407SOL    HW229121   2.825   5.128   3.452
 9408SOL     OW29122   3.929   1.506   6.041
 9408SOL    HW129123   3.838   1.503   6.083
 9408SOL    HW229124   3.982   1.427   6.071
 9409SOL     OW29125   5.723   4.698   6.529
 9409SOL    HW129126   5.743   4.606   6.496
 9409SOL    HW229127   5.789   4.723   6.599
 9410SOL     OW29128   2.665   6.454   1.902
 9410SOL    HW129129   2.687   6.539   1.854
 9410SOL    HW229130   2.614   6.475   1.985
 9411SOL     OW29131   3.742   3.555   1.915
 9411SOL    HW129132   3.657   3.576   1.865
 9411SOL    HW229133   3.813   3.528   1.850
 9412SOL     OW29134   0.009   3.103   1.698
 9412SOL    HW129135   0.056   3.022   1.730
 9412SOL    HW229136   0.062   3.148   1.627
 9413SOL     OW29137   3.515   6.262   4.452
 9413SOL    HW129138   3.467   6.226   4.372
 9413SOL    HW229139   3.591   6.201   4.476
 9414SOL     OW29140   3.183   0.930   3.555
 9414SOL    HW129141   3.109   0.964   3.497
 9414SOL    HW229142   3.222   1.006   3.607
 9415SOL     OW29143   2.545   6.915   2.031
 9415SOL    HW129144   2.472   6.876   1.975
 9415SOL    HW229145   2.570   7.005   1.994
 9416SOL     OW29146   0.572   1.970   1.273
 9416SOL    HW129147   0.594   2.065   1.249
 9416SOL    HW229148   0.650   1.929   1.320
 9417SOL     OW29149   3.678   6.773   5.794
 9417SOL    HW129150   3.755   6.828   5.827
 9417SOL    HW229151   3.653   6.705   5.863
 9418SOL     OW29152   3.372   6.111   1.578
 9418SOL    HW129153   3.383   6.208   1.600
 9418SOL    HW229154   3.452   6.060   1.610
 9419SOL     OW29155   3.307   5.089   5.733
 9419SOL    HW129156   3.211   5.112   5.714
 9419SOL    HW229157   3.351   5.057   5.649
 9420SOL     OW29158   6.909   2.469   5.012
 9420SOL    HW129159   6.815   2.461   5.045
 9420SOL    HW229160   6.948   2.557   5.039
 9421SOL     OW29161   2.085   6.653   5.012
 9421SOL    HW129162   2.129   6.565   4.996
 9421SOL    HW229163   2.050   6.689   4.926
 9422SOL     OW29164   5.094   6.219   3.317
 9422SOL    HW129165   5.154   6.139   3.320
 9422SOL    HW229166   5.140   6.296   3.359
 9423SOL     OW29167   4.491   0.415   3.546
 9423SOL    HW129168   4.456   0.322   3.534
 9423SOL    HW229169   4.584   0.420   3.508
 9424SOL     OW29170   4.913   0.707   5.019
 9424SOL    HW129171   4.962   0.698   5.106
 9424SOL    HW229172   4.824   0.749   5.036
 9425SOL     OW29173   6.714   3.435   6.393
 9425SOL    HW129174   6.750   3.514   6.442
 9425SOL    HW229175   6.763   3.423   6.307
 9426SOL     OW29176   2.400   1.930   0.187
 9426SOL    HW129177   2.408   1.980   0.273
 9426SOL    HW229178   2.399   1.995   0.110
 9427SOL     OW29179   2.710   5.435   4.273
 9427SOL    HW129180   2.713   5.500   4.198
 9427SOL    HW229181   2.660   5.475   4.350
 9428SOL     OW29182   5.660   0.887   1.093
 9428SOL    HW129183   5.720   0.807   1.084
 9428SOL    HW229184   5.613   0.883   1.181
 9429SOL     OW29185   2.061   3.692   2.304
 9429SOL    HW129186   2.051   3.593   2.294
 9429SOL    HW229187   2.062   3.715   2.402
 9430SOL     OW29188   0.709   4.381   2.285
 9430SOL    HW129189   0.613   4.409   2.274
 9430SOL    HW229190   0.754   4.442   2.350
 9431SOL     OW29191   5.546   3.863   1.369
 9431SOL    HW129192   5.547   3.920   1.451
 9431SOL    HW229193   5.455   3.865   1.328
 9432SOL     OW29194   4.988   1.059   3.284
 9432SOL    HW129195   4.947   1.035   3.196
 9432SOL    HW229196   5.033   0.979   3.322
 9433SOL     OW29197   3.804   5.047   3.428
 9433SOL    HW129198   3.722   4.991   3.442
 9433SOL    HW229199   3.879   4.989   3.395
 9434SOL     OW29200   5.319   4.909   3.637
 9434SOL    HW129201   5.370   4.970   3.698
 9434SOL    HW229202   5.382   4.873   3.568
 9435SOL     OW29203   0.401   2.619   4.970
 9435SOL    HW129204   0.441   2.651   5.056
 9435SOL    HW229205   0.343   2.690   4.931
 9436SOL     OW29206   1.177   3.266   2.009
 9436SOL    HW129207   1.166   3.302   2.102
 9436SOL    HW229208   1.206   3.339   1.948
 9437SOL     OW29209   2.580   6.462   3.415
 9437SOL    HW129210   2.634   6.381   3.390
 9437SOL    HW229211   2.501   6.434   3.470
 9438SOL     OW29212   0.117   0.300   1.667
 9438SOL    HW129213   0.140   0.397   1.674
 9438SOL    HW229214   0.064   0.273   1.747
 9439SOL     OW29215   0.415   3.315   1.787
 9439SOL    HW129216   0.343   3.322   1.717
 9439SOL    HW229217   0.500   3.284   1.745
 9440SOL     OW29218   4.059   5.043   4.340
 9440SOL    HW129219   4.003   5.045   4.423
 9440SOL    HW229220   4.032   4.965   4.284
 9441SOL     OW29221   1.469   3.854   5.384
 9441SOL    HW129222   1.548   3.800   5.413
 9441SOL    HW229223   1.461   3.849   5.284
 9442SOL     OW29224   4.491   3.385   0.203
 9442SOL    HW129225   4.589   3.403   0.213
 9442SOL    HW229226   4.452   3.448   0.135
 9443SOL     OW29227   2.762   5.081   1.335
 9443SOL    HW129228   2.733   5.105   1.243
 9443SOL    HW229229   2.819   5.154   1.373
 9444SOL     OW29230   1.150   3.977   6.921
 9444SOL    HW129231   1.194   4.019   6.842
 9444SOL    HW229232   1.096   3.898   6.892
 9445SOL     OW29233   5.871   3.628   2.905
 9445SOL    HW129234   5.912   3.634   2.996
 9445SOL    HW229235   5.941   3.643   2.835
 9446SOL     OW29236   6.543   6.756   4.429
 9446SOL    HW129237   6.576   6.663   4.440
 9446SOL    HW229238   6.586   6.798   4.349
 9447SOL     OW29239   6.315   3.335   4.122
 9447SOL    HW129240   6.224   3.313   4.086
 9447SOL    HW229241   6.324   3.434   4.132
 9448SOL     OW29242   6.830   6.761   6.501
 9448SOL    HW129243   6.810   6.854   6.471
 9448SOL    HW229244   6.926   6.754   6.527
 9449SOL     OW29245   6.873   5.860   6.799
 9449SOL    HW129246   6.826   5.933   6.849
 9449SOL    HW229247   6.920   5.898   6.720
 9450SOL     OW29248   3.124   5.800   4.928
 9450SOL    HW129249   3.073   5.738   4.987
 9450SOL    HW229250   3.075   5.887   4.920
 9451SOL     OW29251   3.950   6.749   6.073
 9451SOL    HW129252   3.898   6.818   6.024
 9451SOL    HW229253   3.989   6.684   6.008
 9452SOL     OW29254   1.379   3.896   0.562
 9452SOL    HW129255   1.315   3.823   0.586
 9452SOL    HW229256   1.331   3.984   0.562
 9453SOL     OW29257   2.104   5.067   3.291
 9453SOL    HW129258   2.107   5.061   3.391
 9453SOL    HW229259   2.010   5.052   3.259
 9454SOL     OW29260   2.118   3.745   6.912
 9454SOL    HW129261   2.214   3.756   6.887
 9454SOL    HW229262   2.077   3.834   6.930
 9455SOL     OW29263   4.078   1.857   2.679
 9455SOL    HW129264   3.989   1.884   2.715
 9455SOL    HW229265   4.145   1.929   2.699
 9456SOL     OW29266   0.619   3.411   1.124
 9456SOL    HW129267   0.547   3.345   1.144
 9456SOL    HW229268   0.577   3.501   1.108
 9457SOL     OW29269   2.115   3.823   5.093
 9457SOL    HW129270   2.033   3.837   5.038
 9457SOL    HW229271   2.175   3.902   5.083
 9458SOL     OW29272   1.617   3.377   0.128
 9458SOL    HW129273   1.685   3.450   0.119
 9458SOL    HW229274   1.525   3.417   0.130
 9459SOL     OW29275   5.167   4.673   2.687
 9459SOL    HW129276   5.252   4.672   2.739
 9459SOL    HW229277   5.093   4.636   2.744
 9460SOL     OW29278   0.322   2.707   4.299
 9460SOL    HW129279   0.300   2.799   4.333
 9460SOL    HW229280   0.243   2.648   4.312
 9461SOL     OW29281   6.432   1.843   2.505
 9461SOL    HW129282   6.470   1.759   2.466
 9461SOL    HW229283   6.411   1.908   2.432
 9462SOL     OW29284   2.111   3.752   2.596
 9462SOL    HW129285   2.099   3.656   2.619
 9462SOL    HW229286   2.176   3.794   2.659
 9463SOL     OW29287   0.309   0.888   1.489
 9463SOL    HW129288   0.216   0.885   1.527
 9463SOL    HW229289   0.329   0.803   1.442
 9464SOL     OW29290   5.856   0.115   1.011
 9464SOL    HW129291   5.776   0.084   1.062
 9464SOL    HW229292   5.939   0.087   1.059
 9465SOL     OW29293   1.334   5.506   3.270
 9465SOL    HW129294   1.317   5.525   3.173
 9465SOL    HW229295   1.427   5.535   3.293
 9466SOL     OW29296   4.518   4.820   5.489
 9466SOL    HW129297   4.617   4.810   5.474
 9466SOL    HW229298   4.471   4.738   5.457
 9467SOL     OW29299   1.123   2.849   1.630
 9467SOL    HW129300   1.045   2.794   1.598
 9467SOL    HW229301   1.110   2.871   1.726
 9468SOL     OW29302   6.286   2.413   6.194
 9468SOL    HW129303   6.214   2.443   6.131
 9468SOL    HW229304   6.261   2.439   6.287
 9469SOL     OW29305   6.057   6.092   1.490
 9469SOL    HW129306   5.987   6.157   1.519
 9469SOL    HW229307   6.065   6.092   1.391
 9470SOL     OW29308   4.421   4.150   5.312
 9470SOL    HW129309   4.427   4.063   5.362
 9470SOL    HW229310   4.326   4.180   5.309
 9471SOL     OW29311   6.800   1.325   4.862
 9471SOL    HW129312   6.806   1.418   4.824
 9471SOL    HW229313   6.858   1.264   4.808
 9472SOL     OW29314   6.035   3.244   4.354
 9472SOL    HW129315   5.946   3.198   4.350
 9472SOL    HW229316   6.041   3.314   4.283
 9473SOL     OW29317   3.043   5.625   5.134
 9473SOL    HW129318   3.001   5.702   5.182
 9473SOL    HW229319   3.076   5.558   5.201
 9474SOL     OW29320   6.735   3.166   0.468
 9474SOL    HW129321   6.783   3.175   0.555
 9474SOL    HW229322   6.764   3.239   0.406
 9475SOL     OW29323   2.894   3.626   0.014
 9475SOL    HW129324   2.897   3.585   6.942
 9475SOL    HW229325   2.950   3.571   0.076
 9476SOL     OW29326   2.897   3.814   5.078
 9476SOL    HW129327   2.913   3.717   5.059
 9476SOL    HW229328   2.832   3.823   5.154
 9477SOL     OW29329   0.271   3.894   2.390
 9477SOL    HW129330   0.358   3.864   2.349
 9477SOL    HW229331   0.284   3.983   2.433
 9478SOL     OW29332   5.478   3.367   6.164
 9478SOL    HW129333   5.414   3.292   6.177
 9478SOL    HW229334   5.530   3.383   6.248
 9479SOL     OW29335   4.627   6.278   6.968
 9479SOL    HW129336   4.571   6.298   6.888
 9479SOL    HW229337   4.595   6.335   0.025
 9480SOL     OW29338   5.095   3.548   0.638
 9480SOL    HW129339   5.097   3.488   0.718
 9480SOL    HW229340   5.134   3.637   0.662
 9481SOL     OW29341   5.280   3.518   2.339
 9481SOL    HW129342   5.343   3.578   2.289
 9481SOL    HW229343   5.240   3.569   2.416
 9482SOL     OW29344   6.802   0.747   3.458
 9482SOL    HW129345   6.782   0.652   3.481
 9482SOL    HW229346   6.794   0.759   3.359
 9483SOL     OW29347   0.783   1.461   1.864
 9483SOL    HW129348   0.875   1.464   1.825
 9483SOL    HW229349   0.787   1.426   1.957
 9484SOL     OW29350   4.374   1.019   3.565
 9484SOL    HW129351   4.417   0.989   3.651
 9484SOL    HW229352   4.275   1.006   3.571
 9485SOL     OW29353   0.747   0.259   2.047
 9485SOL    HW129354   0.684   0.262   2.124
 9485SOL    HW229355   0.703   0.215   1.969
 9486SOL     OW29356   2.838   5.836   1.155
 9486SOL    HW129357   2.911   5.867   1.094
 9486SOL    HW229358   2.811   5.910   1.216
 9487SOL     OW29359   2.960   3.321   3.319
 9487SOL    HW129360   2.995   3.379   3.246
 9487SOL    HW229361   2.930   3.377   3.396
 9488SOL     OW29362   1.478   6.558   0.938
 9488SOL    HW129363   1.501   6.463   0.916
 9488SOL    HW229364   1.562   6.609   0.955
 9489SOL     OW29365   4.190   4.119   1.477
 9489SOL    HW129366   4.232   4.031   1.453
 9489SOL    HW229367   4.215   4.187   1.408
 9490SOL     OW29368   6.505   5.350   1.064
 9490SOL    HW129369   6.527   5.280   1.132
 9490SOL    HW229370   6.415   5.389   1.084
 9491SOL     OW29371   6.892   3.868   3.828
 9491SOL    HW129372   6.943   3.843   3.746
 9491SOL    HW229373   6.805   3.818   3.831
 9492SOL     OW29374   3.670   2.867   3.047
 9492SOL    HW129375   3.575   2.871   3.076
 9492SOL    HW229376   3.729   2.866   3.127
 9493SOL     OW29377   3.946   5.216   3.908
 9493SOL    HW129378   4.000   5.182   3.831
 9493SOL    HW229379   3.855   5.174   3.906
 9494SOL     OW29380   4.578   4.779   1.791
 9494SOL    HW129381   4.527   4.701   1.827
 9494SOL    HW229382   4.514   4.847   1.755
 9495SOL     OW29383   6.458   1.879   3.822
 9495SOL    HW129384   6.535   1.914   3.769
 9495SOL    HW229385   6.452   1.780   3.811
 9496SOL     OW29386   5.723   4.909   1.288
 9496SOL    HW129387   5.819   4.882   1.279
 9496SOL    HW229388   5.690   4.945   1.201
 9497SOL     OW29389   6.190   5.324   6.493
 9497SOL    HW129390   6.127   5.284   6.426
 9497SOL    HW229391   6.184   5.272   6.579
 9498SOL     OW29392   5.484   0.154   4.833
 9498SOL    HW129393   5.482   0.240   4.783
 9498SOL    HW229394   5.392   0.133   4.867
 9499SOL     OW29395   2.052   4.858   6.889
 9499SOL    HW129396   2.086   4.794   6.820
 9499SOL    HW229397   2.103   4.943   6.885
 9500SOL     OW29398   5.174   0.131   0.949
 9500SOL    HW129399   5.112   0.209   0.935
 9500SOL    HW229400   5.181   0.079   0.864
 9501SOL     OW29401   2.675   1.429   5.027
 9501SOL    HW129402   2.730   1.505   5.060
 9501SOL    HW229403   2.689   1.417   4.929
 9502SOL     OW29404   0.071   2.299   5.252
 9502SOL    HW129405   0.128   2.310   5.171
 9502SOL    HW229406   0.034   2.388   5.280
 9503SOL     OW29407   0.333   1.679   1.050
 9503SOL    HW129408   0.358   1.742   1.123
 9503SOL    HW229409   0.327   1.729   0.964
 9504SOL     OW29410   6.959   2.313   0.822
 9504SOL    HW129411   0.021   2.275   0.779
 9504SOL    HW229412   6.953   2.282   0.917
 9505SOL     OW29413   5.438   4.839   3.422
 9505SOL    HW129414   5.435   4.895   3.339
 9505SOL    HW229415   5.426   4.743   3.398
 9506SOL     OW29416   0.441   2.501   6.629
 9506SOL    HW129417   0.510   2.521   6.560
 9506SOL    HW229418   0.453   2.561   6.708
 9507SOL     OW29419   1.087   1.666   3.171
 9507SOL    HW129420   1.008   1.607   3.191
 9507SOL    HW229421   1.109   1.720   3.252
 9508SOL     OW29422   6.384   3.956   0.698
 9508SOL    HW129423   6.305   4.000   0.656
 9508SOL    HW229424   6.355   3.876   0.749
 9509SOL     OW29425   0.425   0.639   4.928
 9509SOL    HW129426   0.347   0.630   4.990
 9509SOL    HW229427   0.480   0.718   4.954
 9510SOL     OW29428   1.451   3.763   2.368
 9510SOL    HW129429   1.386   3.688   2.382
 9510SOL    HW229430   1.462   3.814   2.454
 9511SOL     OW29431   0.439   1.691   6.774
 9511SOL    HW129432   0.517   1.684   6.836
 9511SOL    HW229433   0.364   1.634   6.809
 9512SOL     OW29434   5.163   1.473   1.675
 9512SOL    HW129435   5.208   1.474   1.586
 9512SOL    HW229436   5.182   1.558   1.723
 9513SOL     OW29437   1.667   3.168   5.745
 9513SOL    HW129438   1.722   3.128   5.671
 9513SOL    HW229439   1.573   3.135   5.738
 9514SOL     OW29440   2.126   4.538   6.978
 9514SOL    HW129441   2.183   4.582   0.028
 9514SOL    HW229442   2.033   4.575   6.984
 9515SOL     OW29443   1.492   6.212   1.224
 9515SOL    HW129444   1.515   6.211   1.127
 9515SOL    HW229445   1.473   6.306   1.253
 9516SOL     OW29446   5.694   3.338   5.041
 9516SOL    HW129447   5.688   3.438   5.029
 9516SOL    HW229448   5.620   3.308   5.101
 9517SOL     OW29449   0.715   4.491   1.119
 9517SOL    HW129450   0.726   4.573   1.063
 9517SOL    HW229451   0.772   4.498   1.201
 9518SOL     OW29452   0.845   1.943   0.015
 9518SOL    HW129453   0.855   2.034   0.054
 9518SOL    HW229454   0.936   1.903   0.001
 9519SOL     OW29455   3.449   3.919   4.162
 9519SOL    HW129456   3.392   3.872   4.095
 9519SOL    HW229457   3.545   3.891   4.150
 9520SOL     OW29458   0.606   1.611   3.221
 9520SOL    HW129459   0.668   1.659   3.283
 9520SOL    HW229460   0.511   1.628   3.248
 9521SOL     OW29461   3.900   4.717   1.142
 9521SOL    HW129462   3.973   4.775   1.106
 9521SOL    HW229463   3.819   4.773   1.158
 9522SOL     OW29464   3.939   5.336   1.471
 9522SOL    HW129465   3.912   5.420   1.518
 9522SOL    HW229466   4.015   5.355   1.409
 9523SOL     OW29467   2.364   5.419   4.367
 9523SOL    HW129468   2.366   5.479   4.287
 9523SOL    HW229469   2.386   5.472   4.449
 9524SOL     OW29470   2.581   3.307   0.624
 9524SOL    HW129471   2.493   3.316   0.577
 9524SOL    HW229472   2.577   3.229   0.686
 9525SOL     OW29473   2.772   1.937   5.828
 9525SOL    HW129474   2.738   1.867   5.765
 9525SOL    HW229475   2.804   1.894   5.912
 9526SOL     OW29476   5.387   4.695   0.776
 9526SOL    HW129477   5.448   4.740   0.712
 9526SOL    HW229478   5.430   4.611   0.810
 9527SOL     OW29479   0.796   0.471   4.270
 9527SOL    HW129480   0.795   0.555   4.324
 9527SOL    HW229481   0.890   0.438   4.262
 9528SOL     OW29482   6.479   1.800   1.032
 9528SOL    HW129483   6.418   1.818   0.955
 9528SOL    HW229484   6.556   1.864   1.029
 9529SOL     OW29485   6.156   3.390   6.206
 9529SOL    HW129486   6.126   3.351   6.119
 9529SOL    HW229487   6.247   3.355   6.229
 9530SOL     OW29488   1.831   2.862   3.305
 9530SOL    HW129489   1.803   2.931   3.238
 9530SOL    HW229490   1.893   2.796   3.260
 9531SOL     OW29491   4.957   4.405   2.381
 9531SOL    HW129492   4.922   4.354   2.303
 9531SOL    HW229493   5.057   4.410   2.375
 9532SOL     OW29494   0.186   5.941   1.058
 9532SOL    HW129495   0.094   5.925   1.023
 9532SOL    HW229496   0.190   6.032   1.100
 9533SOL     OW29497   0.237   5.487   4.890
 9533SOL    HW129498   0.209   5.467   4.983
 9533SOL    HW229499   0.157   5.487   4.830
 9534SOL     OW29500   6.570   4.044   5.188
 9534SOL    HW129501   6.565   4.115   5.259
 9534SOL    HW229502   6.494   3.980   5.201
 9535SOL     OW29503   1.713   0.583   5.870
 9535SOL    HW129504   1.638   0.643   5.897
 9535SOL    HW229505   1.683   0.487   5.876
 9536SOL     OW29506   3.069   3.946   5.326
 9536SOL    HW129507   2.977   3.936   5.286
 9536SOL    HW229508   3.061   3.991   5.415
 9537SOL     OW29509   2.881   0.223   4.320
 9537SOL    HW129510   2.888   0.154   4.248
 9537SOL    HW229511   2.861   0.312   4.279
 9538SOL     OW29512   6.022   0.855   3.461
 9538SOL    HW129513   5.934   0.827   3.500
 9538SOL    HW229514   6.073   0.908   3.529
 9539SOL     OW29515   3.734   3.874   4.199
 9539SOL    HW129516   3.699   3.963   4.229
 9539SOL    HW229517   3.828   3.885   4.167
 9540SOL     OW29518   6.176   4.704   4.408
 9540SOL    HW129519   6.080   4.719   4.430
 9540SOL    HW229520   6.196   4.742   4.317
 9541SOL     OW29521   3.028   0.400   5.903
 9541SOL    HW129522   3.104   0.464   5.917
 9541SOL    HW229523   3.015   0.386   5.805
 9542SOL     OW29524   4.892   4.431   4.852
 9542SOL    HW129525   4.911   4.370   4.775
 9542SOL    HW229526   4.861   4.520   4.817
 9543SOL     OW29527   3.707   0.856   5.576
 9543SOL    HW129528   3.740   0.772   5.534
 9543SOL    HW229529   3.780   0.925   5.576
 9544SOL     OW29530   6.637   1.986   3.677
 9544SOL    HW129531   6.557   2.030   3.637
 9544SOL    HW229532   6.693   2.055   3.724
 9545SOL     OW29533   5.550   6.129   4.244
 9545SOL    HW129534   5.520   6.050   4.296
 9545SOL    HW229535   5.595   6.098   4.160
 9546SOL     OW29536   4.126   2.140   5.341
 9546SOL    HW129537   4.128   2.229   5.388
 9546SOL    HW229538   4.086   2.152   5.250
 9547SOL     OW29539   2.773   5.075   4.359
 9547SOL    HW129540   2.800   4.979   4.369
 9547SOL    HW229541   2.850   5.127   4.323
 9548SOL     OW29542   5.856   4.326   5.595
 9548SOL    HW129543   5.866   4.227   5.584
 9548SOL    HW229544   5.879   4.372   5.509
 9549SOL     OW29545   2.575   2.685   1.440
 9549SOL    HW129546   2.604   2.599   1.397
 9549SOL    HW229547   2.500   2.667   1.503
 9550SOL     OW29548   6.925   1.315   0.231
 9550SOL    HW129549   6.834   1.301   0.191
 9550SOL    HW229550   6.921   1.390   0.297
 9551SOL     OW29551   5.960   2.010   6.031
 9551SOL    HW129552   5.951   2.103   6.066
 9551SOL    HW229553   5.874   1.981   5.989
 9552SOL     OW29554   1.642   6.558   4.145
 9552SOL    HW129555   1.649   6.555   4.245
 9552SOL    HW229556   1.732   6.576   4.106
 9553SOL     OW29557   6.102   2.524   6.928
 9553SOL    HW129558   6.009   2.557   6.939
 9553SOL    HW229559   6.100   2.431   6.891
 9554SOL     OW29560   2.581   0.162   2.005
 9554SOL    HW129561   2.652   0.199   1.946
 9554SOL    HW229562   2.491   0.188   1.969
 9555SOL     OW29563   1.036   0.759   2.888
 9555SOL    HW129564   1.132   0.756   2.917
 9555SOL    HW229565   1.027   0.713   2.799
 9556SOL     OW29566   1.866   3.923   1.684
 9556SOL    HW129567   1.949   3.968   1.651
 9556SOL    HW229568   1.787   3.963   1.637
 9557SOL     OW29569   6.852   5.528   2.069
 9557SOL    HW129570   6.887   5.584   1.993
 9557SOL    HW229571   6.911   5.540   2.148
 9558SOL     OW29572   5.837   6.170   5.434
 9558SOL    HW129573   5.748   6.142   5.471
 9558SOL    HW229574   5.907   6.159   5.504
 9559SOL     OW29575   0.074   4.836   1.310
 9559SOL    HW129576   0.062   4.899   1.232
 9559SOL    HW229577   0.081   4.889   1.394
 9560SOL     OW29578   2.022   1.623   3.186
 9560SOL    HW129579   2.008   1.706   3.132
 9560SOL    HW229580   1.937   1.571   3.190
 9561SOL     OW29581   2.139   0.464   0.605
 9561SOL    HW129582   2.067   0.430   0.545
 9561SOL    HW229583   2.107   0.547   0.652
 9562SOL     OW29584   2.734   0.249   5.572
 9562SOL    HW129585   2.656   0.250   5.509
 9562SOL    HW229586   2.731   0.165   5.627
 9563SOL     OW29587   6.880   6.308   0.635
 9563SOL    HW129588   6.793   6.259   0.648
 9563SOL    HW229589   6.933   6.262   0.564
 9564SOL     OW29590   2.852   0.249   0.244
 9564SOL    HW129591   2.756   0.221   0.255
 9564SOL    HW229592   2.884   0.223   0.153
 9565SOL     OW29593   3.611   0.464   4.745
 9565SOL    HW129594   3.638   0.368   4.755
 9565SOL    HW229595   3.643   0.499   4.657
 9566SOL     OW29596   2.433   4.845   6.930
 9566SOL    HW129597   2.400   4.759   6.970
 9566SOL    HW229598   2.521   4.868   6.969
 9567SOL     OW29599   4.858   5.040   1.130
 9567SOL    HW129600   4.795   5.051   1.207
 9567SOL    HW229601   4.934   4.980   1.157
 9568SOL     OW29602   4.132   2.363   6.473
 9568SOL    HW129603   4.053   2.424   6.471
 9568SOL    HW229604   4.179   2.373   6.561
 9569SOL     OW29605   6.829   1.505   2.161
 9569SOL    HW129606   6.868   1.444   2.093
 9569SOL    HW229607   6.767   1.570   2.117
 9570SOL     OW29608   0.905   3.424   2.030
 9570SOL    HW129609   0.951   3.502   2.071
 9570SOL    HW229610   0.869   3.449   1.940
 9571SOL     OW29611   3.517   4.148   6.139
 9571SOL    HW129612   3.579   4.087   6.188
 9571SOL    HW229613   3.423   4.115   6.146
 9572SOL     OW29614   2.135   5.007   1.944
 9572SOL    HW129615   2.205   4.940   1.918
 9572SOL    HW229616   2.157   5.095   1.902
 9573SOL     OW29617   0.568   2.939   6.825
 9573SOL    HW129618   0.642   3.006   6.811
 9573SOL    HW229619   0.512   2.969   6.902
 9574SOL     OW29620   4.024   3.529   3.403
 9574SOL    HW129621   3.951   3.467   3.373
 9574SOL    HW229622   4.072   3.487   3.480
 9575SOL     OW29623   0.800   0.952   1.097
 9575SOL    HW129624   0.801   0.906   1.009
 9575SOL    HW229625   0.832   1.046   1.085
 9576SOL     OW29626   1.951   0.790   1.696
 9576SOL    HW129627   1.870   0.808   1.751
 9576SOL    HW229628   1.923   0.773   1.601
 9577SOL     OW29629   1.209   0.558   6.264
 9577SOL    HW129630   1.155   0.641   6.252
 9577SOL    HW229631   1.156   0.479   6.235
 9578SOL     OW29632   0.324   3.742   3.088
 9578SOL    HW129633   0.406   3.782   3.128
 9578SOL    HW229634   0.308   3.652   3.128
 9579SOL     OW29635   1.465   5.024   2.431
 9579SOL    HW129636   1.440   4.962   2.505
 9579SOL    HW229637   1.538   5.085   2.462
 9580SOL     OW29638   4.653   3.781   0.439
 9580SOL    HW129639   4.626   3.803   0.533
 9580SOL    HW229640   4.715   3.852   0.404
 9581SOL     OW29641   0.420   5.070   5.838
 9581SOL    HW129642   0.339   5.053   5.895
 9581SOL    HW229643   0.492   5.112   5.894
 9582SOL     OW29644   4.914   5.411   6.172
 9582SOL    HW129645   5.001   5.376   6.136
 9582SOL    HW229646   4.899   5.375   6.263
 9583SOL     OW29647   3.738   4.117   0.950
 9583SOL    HW129648   3.754   4.019   0.942
 9583SOL    HW229649   3.792   4.154   1.026
 9584SOL     OW29650   0.010   5.631   0.087
 9584SOL    HW129651   0.066   5.569   0.031
 9584SOL    HW229652   0.065   5.667   0.162
 9585SOL     OW29653   6.974   0.263   4.372
 9585SOL    HW129654   6.918   0.337   4.334
 9585SOL    HW229655   6.919   0.180   4.380
 9586SOL     OW29656   5.563   4.717   2.002
 9586SOL    HW129657   5.583   4.669   2.087
 9586SOL    HW229658   5.551   4.815   2.020
 9587SOL     OW29659   0.547   0.770   1.819
 9587SOL    HW129660   0.557   0.795   1.723
 9587SOL    HW229661   0.568   0.673   1.831
 9588SOL     OW29662   6.572   1.432   1.272
 9588SOL    HW129663   6.618   1.521   1.263
 9588SOL    HW229664   6.510   1.420   1.195
 9589SOL     OW29665   2.130   4.764   6.643
 9589SOL    HW129666   2.198   4.837   6.645
 9589SOL    HW229667   2.122   4.729   6.549
 9590SOL     OW29668   6.549   3.163   2.112
 9590SOL    HW129669   6.507   3.094   2.171
 9590SOL    HW229670   6.630   3.201   2.157
 9591SOL     OW29671   3.247   6.049   6.212
 9591SOL    HW129672   3.185   6.123   6.236
 9591SOL    HW229673   3.261   5.990   6.292
 9592SOL     OW29674   3.999   4.204   1.090
 9592SOL    HW129675   4.028   4.112   1.117
 9592SOL    HW229676   4.041   4.228   1.002
 9593SOL     OW29677   0.152   0.854   5.471
 9593SOL    HW129678   0.072   0.796   5.456
 9593SOL    HW229679   0.194   0.831   5.559
 9594SOL     OW29680   1.662   5.899   2.460
 9594SOL    HW129681   1.724   5.966   2.502
 9594SOL    HW229682   1.692   5.807   2.485
 9595SOL     OW29683   0.794   4.434   5.234
 9595SOL    HW129684   0.814   4.372   5.158
 9595SOL    HW229685   0.815   4.389   5.321
 9596SOL     OW29686   6.747   5.741   6.539
 9596SOL    HW129687   6.801   5.816   6.501
 9596SOL    HW229688   6.807   5.667   6.568
 9597SOL     OW29689   0.867   4.500   1.393
 9597SOL    HW129690   0.923   4.501   1.476
 9597SOL    HW229691   0.872   4.410   1.350
 9598SOL     OW29692   1.448   3.436   4.033
 9598SOL    HW129693   1.388   3.482   4.098
 9598SOL    HW229694   1.541   3.435   4.069
 9599SOL     OW29695   4.439   0.171   4.561
 9599SOL    HW129696   4.509   0.099   4.561
 9599SOL    HW229697   4.474   0.252   4.513
 9600SOL     OW29698   2.012   0.448   6.745
 9600SOL    HW129699   2.038   0.390   6.822
 9600SOL    HW229700   2.094   0.485   6.701
 9601SOL     OW29701   5.289   4.105   1.313
 9601SOL    HW129702   5.365   4.159   1.278
 9601SOL    HW229703   5.289   4.107   1.413
 9602SOL     OW29704   6.654   5.095   6.262
 9602SOL    HW129705   6.747   5.132   6.260
 9602SOL    HW229706   6.633   5.053   6.173
 9603SOL     OW29707   3.933   1.568   3.921
 9603SOL    HW129708   3.912   1.615   4.006
 9603SOL    HW229709   3.912   1.627   3.843
 9604SOL     OW29710   4.032   0.176   0.131
 9604SOL    HW129711   4.059   0.174   0.227
 9604SOL    HW229712   4.086   0.109   0.080
 9605SOL     OW29713   0.629   5.397   3.331
 9605SOL    HW129714   0.661   5.304   3.349
 9605SOL    HW229715   0.670   5.431   3.247
 9606SOL     OW29716   2.132   6.520   6.131
 9606SOL    HW129717   2.135   6.437   6.186
 9606SOL    HW229718   2.222   6.565   6.133
 9607SOL     OW29719   1.633   1.806   0.616
 9607SOL    HW129720   1.686   1.741   0.670
 9607SOL    HW229721   1.675   1.897   0.624
 9608SOL     OW29722   6.909   6.045   2.474
 9608SOL    HW129723   6.869   5.954   2.468
 9608SOL    HW229724   6.843   6.113   2.443
 9609SOL     OW29725   1.937   4.106   6.346
 9609SOL    HW129726   1.860   4.046   6.365
 9609SOL    HW229727   2.021   4.053   6.341
 9610SOL     OW29728   1.703   5.199   4.159
 9610SOL    HW129729   1.681   5.184   4.063
 9610SOL    HW229730   1.629   5.249   4.203
 9611SOL     OW29731   0.135   6.486   6.743
 9611SOL    HW129732   0.231   6.515   6.739
 9611SOL    HW229733   0.118   6.440   6.830
 9612SOL     OW29734   0.986   3.985   2.053
 9612SOL    HW129735   1.022   4.072   2.020
 9612SOL    HW229736   0.932   4.001   2.136
 9613SOL     OW29737   4.888   6.499   3.389
 9613SOL    HW129738   4.892   6.419   3.449
 9613SOL    HW229739   4.799   6.503   3.344
 9614SOL     OW29740   3.073   2.029   0.451
 9614SOL    HW129741   3.151   1.967   0.463
 9614SOL    HW229742   3.079   2.103   0.518
 9615SOL     OW29743   0.609   0.362   1.012
 9615SOL    HW129744   0.580   0.300   1.085
 9615SOL    HW229745   0.701   0.338   0.983
 9616SOL     OW29746   4.351   3.471   1.256
 9616SOL    HW129747   4.270   3.435   1.209
 9616SOL    HW229748   4.408   3.395   1.287
 9617SOL     OW29749   2.233   2.777   3.736
 9617SOL    HW129750   2.231   2.818   3.644
 9617SOL    HW229751   2.159   2.710   3.744
 9618SOL     OW29752   3.776   6.700   5.512
 9618SOL    HW129753   3.804   6.623   5.455
 9618SOL    HW229754   3.732   6.665   5.595
 9619SOL     OW29755   1.182   6.791   0.020
 9619SOL    HW129756   1.225   6.881   0.014
 9619SOL    HW229757   1.172   6.766   0.116
 9620SOL     OW29758   4.180   2.199   6.788
 9620SOL    HW129759   4.209   2.107   6.761
 9620SOL    HW229760   4.260   2.256   6.803
 9621SOL     OW29761   0.859   1.038   2.112
 9621SOL    HW129762   0.835   1.110   2.048
 9621SOL    HW229763   0.844   1.070   2.206
 9622SOL     OW29764   6.728   0.811   0.310
 9622SOL    HW129765   6.654   0.744   0.319
 9622SOL    HW229766   6.736   0.840   0.215
 9623SOL     OW29767   3.135   4.647   5.661
 9623SOL    HW129768   3.045   4.615   5.689
 9623SOL    HW229769   3.186   4.572   5.620
 9624SOL     OW29770   6.376   4.427   3.053
 9624SOL    HW129771   6.345   4.354   2.992
 9624SOL    HW229772   6.429   4.494   3.000
 9625SOL     OW29773   4.947   5.660   0.383
 9625SOL    HW129774   4.938   5.592   0.456
 9625SOL    HW229775   4.863   5.661   0.329
 9626SOL     OW29776   2.849   6.605   6.953
 9626SOL    HW129777   2.848   6.624   6.855
 9626SOL    HW229778   2.795   6.674   7.001
 9627SOL     OW29779   6.990   4.838   2.940
 9627SOL    HW129780   0.059   4.792   2.947
 9627SOL    HW229781   6.934   4.792   2.871
 9628SOL     OW29782   5.601   5.268   6.735
 9628SOL    HW129783   5.589   5.292   6.639
 9628SOL    HW229784   5.629   5.349   6.786
 9629SOL     OW29785   0.353   6.508   2.856
 9629SOL    HW129786   0.382   6.505   2.761
 9629SOL    HW229787   0.421   6.557   2.910
 9630SOL     OW29788   6.345   6.236   5.546
 9630SOL    HW129789   6.307   6.329   5.545
 9630SOL    HW229790   6.432   6.235   5.496
 9631SOL     OW29791   6.022   0.462   0.211
 9631SOL    HW129792   6.049   0.367   0.197
 9631SOL    HW229793   6.004   0.505   0.123
 9632SOL     OW29794   2.427   5.217   2.821
 9632SOL    HW129795   2.498   5.209   2.750
 9632SOL    HW229796   2.339   5.232   2.777
 9633SOL     OW29797   5.052   5.044   6.984
 9633SOL    HW129798   5.028   5.116   6.919
 9633SOL    HW229799   5.143   5.009   6.963
 9634SOL     OW29800   1.108   6.917   4.958
 9634SOL    HW129801   1.094   6.827   4.999
 9634SOL    HW229802   1.024   6.948   4.913
 9635SOL     OW29803   1.151   4.447   5.790
 9635SOL    HW129804   1.132   4.377   5.721
 9635SOL    HW229805   1.179   4.403   5.875
 9636SOL     OW29806   4.183   1.536   5.981
 9636SOL    HW129807   4.202   1.581   5.893
 9636SOL    HW229808   4.085   1.543   6.000
 9637SOL     OW29809   2.129   1.768   6.804
 9637SOL    HW129810   2.208   1.757   6.743
 9637SOL    HW229811   2.157   1.819   6.886
 9638SOL     OW29812   6.987   3.279   0.245
 9638SOL    HW129813   6.919   3.338   0.289
 9638SOL    HW229814   0.033   3.335   0.195
 9639SOL     OW29815   4.124   1.769   2.115
 9639SOL    HW129816   4.062   1.825   2.170
 9639SOL    HW229817   4.151   1.688   2.167
 9640SOL     OW29818   3.241   1.787   3.184
 9640SOL    HW129819   3.246   1.887   3.178
 9640SOL    HW229820   3.161   1.755   3.133
 9641SOL     OW29821   5.310   6.372   0.895
 9641SOL    HW129822   5.273   6.406   0.809
 9641SOL    HW229823   5.391   6.316   0.876
 9642SOL     OW29824   2.712   6.197   4.569
 9642SOL    HW129825   2.756   6.286   4.560
 9642SOL    HW229826   2.779   6.124   4.554
 9643SOL     OW29827   6.082   4.552   4.152
 9643SOL    HW129828   6.032   4.635   4.126
 9643SOL    HW229829   6.062   4.480   4.086
 9644SOL     OW29830   0.676   5.126   4.500
 9644SOL    HW129831   0.772   5.147   4.483
 9644SOL    HW229832   0.655   5.036   4.462
 9645SOL     OW29833   3.642   4.948   3.722
 9645SOL    HW129834   3.625   5.044   3.744
 9645SOL    HW229835   3.635   4.934   3.623
 9646SOL     OW29836   2.916   4.855   2.079
 9646SOL    HW129837   2.882   4.763   2.056
 9646SOL    HW229838   2.911   4.914   1.999
 9647SOL     OW29839   0.405   5.791   1.519
 9647SOL    HW129840   0.468   5.752   1.452
 9647SOL    HW229841   0.313   5.794   1.481
 9648SOL     OW29842   3.384   2.025   0.245
 9648SOL    HW129843   3.447   2.021   0.167
 9648SOL    HW229844   3.336   2.113   0.246
 9649SOL     OW29845   2.630   5.303   6.882
 9649SOL    HW129846   2.617   5.296   6.981
 9649SOL    HW229847   2.685   5.383   6.861
 9650SOL     OW29848   4.739   4.810   3.115
 9650SOL    HW129849   4.721   4.830   3.018
 9650SOL    HW229850   4.817   4.746   3.121
 9651SOL     OW29851   6.376   0.698   6.992
 9651SOL    HW129852   6.444   0.625   6.991
 9651SOL    HW229853   6.323   0.694   0.056
 9652SOL     OW29854   1.801   4.305   0.864
 9652SOL    HW129855   1.825   4.361   0.943
 9652SOL    HW229856   1.830   4.351   0.780
 9653SOL     OW29857   4.455   5.422   4.993
 9653SOL    HW129858   4.398   5.450   5.070
 9653SOL    HW229859   4.435   5.327   4.969
 9654SOL     OW29860   3.749   3.236   2.458
 9654SOL    HW129861   3.842   3.211   2.431
 9654SOL    HW229862   3.719   3.316   2.406
 9655SOL     OW29863   6.715   0.865   0.015
 9655SOL    HW129864   6.797   0.872   6.978
 9655SOL    HW229865   6.654   0.941   7.015
 9656SOL     OW29866   3.980   2.288   0.949
 9656SOL    HW129867   3.904   2.333   0.902
 9656SOL    HW229868   3.946   2.240   1.029
 9657SOL     OW29869   6.060   1.765   3.148
 9657SOL    HW129870   5.990   1.795   3.083
 9657SOL    HW229871   6.110   1.688   3.109
 9658SOL     OW29872   5.578   1.651   2.480
 9658SOL    HW129873   5.518   1.731   2.478
 9658SOL    HW229874   5.583   1.611   2.388
 9659SOL     OW29875   6.873   3.774   0.831
 9659SOL    HW129876   6.955   3.792   0.777
 9659SOL    HW229877   6.820   3.859   0.838
 9660SOL     OW29878   6.955   6.401   2.263
 9660SOL    HW129879   6.998   6.312   2.276
 9660SOL    HW229880   6.974   6.435   2.170
 9661SOL     OW29881   3.002   6.372   1.894
 9661SOL    HW129882   2.958   6.314   1.962
 9661SOL    HW229883   3.029   6.459   1.936
 9662SOL     OW29884   5.013   2.779   5.159
 9662SOL    HW129885   5.077   2.728   5.101
 9662SOL    HW229886   5.053   2.868   5.181
 9663SOL     OW29887   0.161   6.083   3.631
 9663SOL    HW129888   0.129   6.090   3.725
 9663SOL    HW229889   0.173   5.987   3.607
 9664SOL     OW29890   5.708   6.587   3.986
 9664SOL    HW129891   5.686   6.501   3.941
 9664SOL    HW229892   5.648   6.600   4.066
 9665SOL     OW29893   4.886   6.608   0.016
 9665SOL    HW129894   4.863   6.516   7.001
 9665SOL    HW229895   4.945   6.599   0.096
 9666SOL     OW29896   5.982   3.863   1.402
 9666SOL    HW129897   5.971   3.767   1.429
 9666SOL    HW229898   5.976   3.870   1.303
 9667SOL     OW29899   4.003   3.469   5.215
 9667SOL    HW129900   3.959   3.411   5.146
 9667SOL    HW229901   4.028   3.413   5.294
 9668SOL     OW29902   6.864   0.943   6.276
 9668SOL    HW129903   6.944   0.912   6.328
 9668SOL    HW229904   6.791   0.876   6.285
 9669SOL     OW29905   1.195   0.185   2.139
 9669SOL    HW129906   1.202   0.119   2.064
 9669SOL    HW229907   1.112   0.239   2.127
 9670SOL     OW29908   5.861   4.802   6.753
 9670SOL    HW129909   5.840   4.899   6.766
 9670SOL    HW229910   5.956   4.784   6.780
 9671SOL     OW29911   5.806   5.063   6.796
 9671SOL    HW129912   5.869   5.133   6.828
 9671SOL    HW229913   5.717   5.104   6.777
 9672SOL     OW29914   1.809   6.066   4.017
 9672SOL    HW129915   1.896   6.099   3.980
 9672SOL    HW229916   1.767   6.003   3.952
 9673SOL     OW29917   5.376   3.691   0.334
 9673SOL    HW129918   5.315   3.615   0.357
 9673SOL    HW229919   5.447   3.660   0.272
 9674SOL     OW29920   2.917   6.050   3.107
 9674SOL    HW129921   2.827   6.014   3.131
 9674SOL    HW229922   2.982   5.975   3.096
 9675SOL     OW29923   5.616   2.221   0.429
 9675SOL    HW129924   5.604   2.154   0.502
 9675SOL    HW229925   5.570   2.188   0.346
 9676SOL     OW29926   1.272   3.688   5.485
 9676SOL    HW129927   1.227   3.645   5.406
 9676SOL    HW229928   1.340   3.754   5.452
 9677SOL     OW29929   1.259   5.214   5.283
 9677SOL    HW129930   1.357   5.232   5.293
 9677SOL    HW229931   1.235   5.131   5.334
 9678SOL     OW29932   3.336   3.581   3.128
 9678SOL    HW129933   3.244   3.546   3.147
 9678SOL    HW229934   3.404   3.518   3.164
 9679SOL     OW29935   2.455   0.990   2.100
 9679SOL    HW129936   2.426   1.042   2.180
 9679SOL    HW229937   2.436   1.043   2.017
 9680SOL     OW29938   5.081   1.066   2.961
 9680SOL    HW129939   5.094   1.118   2.877
 9680SOL    HW229940   4.989   1.026   2.961
 9681SOL     OW29941   2.834   1.181   0.299
 9681SOL    HW129942   2.900   1.169   0.225
 9681SOL    HW229943   2.880   1.169   0.387
 9682SOL     OW29944   5.171   4.925   3.946
 9682SOL    HW129945   5.080   4.958   3.973
 9682SOL    HW229946   5.240   4.989   3.978
 9683SOL     OW29947   2.684   5.546   0.938
 9683SOL    HW129948   2.617   5.535   1.011
 9683SOL    HW229949   2.674   5.636   0.896
 9684SOL     OW29950   0.288   2.990   5.596
 9684SOL    HW129951   0.300   2.916   5.530
 9684SOL    HW229952   0.313   3.077   5.553
 9685SOL     OW29953   2.587   4.416   1.150
 9685SOL    HW129954   2.597   4.361   1.067
 9685SOL    HW229955   2.645   4.497   1.143
 9686SOL     OW29956   6.404   1.462   6.343
 9686SOL    HW129957   6.340   1.458   6.420
 9686SOL    HW229958   6.403   1.375   6.294
 9687SOL     OW29959   1.683   0.541   4.208
 9687SOL    HW129960   1.743   0.550   4.288
 9687SOL    HW229961   1.660   0.632   4.173
 9688SOL     OW29962   0.598   2.773   2.634
 9688SOL    HW129963   0.655   2.710   2.686
 9688SOL    HW229964   0.615   2.867   2.664
 9689SOL     OW29965   1.508   5.574   6.829
 9689SOL    HW129966   1.433   5.518   6.796
 9689SOL    HW229967   1.590   5.557   6.774
 9690SOL     OW29968   5.988   5.861   6.891
 9690SOL    HW129969   5.965   5.819   6.978
 9690SOL    HW229970   5.923   5.935   6.871
 9691SOL     OW29971   2.913   5.281   1.487
 9691SOL    HW129972   3.004   5.251   1.458
 9691SOL    HW229973   2.901   5.262   1.585
 9692SOL     OW29974   3.652   5.388   2.552
 9692SOL    HW129975   3.749   5.370   2.565
 9692SOL    HW229976   3.602   5.365   2.636
 9693SOL     OW29977   6.042   4.907   1.495
 9693SOL    HW129978   6.020   5.002   1.473
 9693SOL    HW229979   6.107   4.905   1.571
 9694SOL     OW29980   2.056   0.966   7.011
 9694SOL    HW129981   2.016   1.058   7.008
 9694SOL    HW229982   1.992   0.903   0.035
 9695SOL     OW29983   0.087   3.845   2.215
 9695SOL    HW129984   0.096   3.895   2.128
 9695SOL    HW229985   0.164   3.869   2.274
 9696SOL     OW29986   5.228   3.480   0.406
 9696SOL    HW129987   5.174   3.509   0.485
 9696SOL    HW229988   5.224   3.380   0.397
 9697SOL     OW29989   0.287   5.959   6.778
 9697SOL    HW129990   0.259   6.018   6.854
 9697SOL    HW229991   0.308   6.015   6.698
 9698SOL     OW29992   4.489   1.167   5.795
 9698SOL    HW129993   4.423   1.214   5.736
 9698SOL    HW229994   4.562   1.230   5.821
 9699SOL     OW29995   6.491   5.009   6.455
 9699SOL    HW129996   6.537   5.035   6.370
 9699SOL    HW229997   6.531   5.060   6.532
 9700SOL     OW29998   4.407   5.150   4.919
 9700SOL    HW129999   4.482   5.170   4.856
 9700SOL    HW230000   4.332   5.107   4.869
 9701SOL     OW30001   3.940   4.930   5.293
 9701SOL    HW130002   3.890   4.844   5.290
 9701SOL    HW230003   4.036   4.913   5.315
 9702SOL     OW30004   4.623   0.341   6.991
 9702SOL    HW130005   4.649   0.373   0.062
 9702SOL    HW230006   4.689   0.273   6.959
 9703SOL     OW30007   4.391   4.618   3.843
 9703SOL    HW130008   4.333   4.634   3.922
 9703SOL    HW230009   4.466   4.557   3.868
 9704SOL     OW30010   3.252   0.958   2.894
 9704SOL    HW130011   3.240   0.961   2.994
 9704SOL    HW230012   3.273   1.049   2.860
 9705SOL     OW30013   5.911   4.761   6.095
 9705SOL    HW130014   5.842   4.779   6.165
 9705SOL    HW230015   5.884   4.682   6.041
 9706SOL     OW30016   0.529   3.143   1.092
 9706SOL    HW130017   0.467   3.088   1.148
 9706SOL    HW230018   0.580   3.082   1.030
 9707SOL     OW30019   6.598   4.856   1.970
 9707SOL    HW130020   6.524   4.812   2.021
 9707SOL    HW230021   6.674   4.792   1.959
 9708SOL     OW30022   1.269   1.992   2.613
 9708SOL    HW130023   1.314   2.076   2.645
 9708SOL    HW230024   1.176   1.988   2.649
 9709SOL     OW30025   5.895   6.050   3.321
 9709SOL    HW130026   5.981   6.074   3.364
 9709SOL    HW230027   5.912   6.001   3.235
 9710SOL     OW30028   0.143   1.258   1.758
 9710SOL    HW130029   0.194   1.230   1.677
 9710SOL    HW230030   0.046   1.234   1.747
 9711SOL     OW30031   2.231   4.965   6.040
 9711SOL    HW130032   2.286   4.893   6.081
 9711SOL    HW230033   2.223   4.950   5.942
 9712SOL     OW30034   6.054   4.455   6.536
 9712SOL    HW130035   6.005   4.476   6.452
 9712SOL    HW230036   5.996   4.399   6.596
 9713SOL     OW30037   1.423   5.099   3.146
 9713SOL    HW130038   1.350   5.163   3.121
 9713SOL    HW230039   1.443   5.040   3.067
 9714SOL     OW30040   3.015   0.463   0.305
 9714SOL    HW130041   2.947   0.401   0.267
 9714SOL    HW230042   3.064   0.509   0.231
 9715SOL     OW30043   5.222   4.055   6.234
 9715SOL    HW130044   5.188   4.014   6.149
 9715SOL    HW230045   5.216   4.155   6.227
 9716SOL     OW30046   3.762   3.226   0.094
 9716SOL    HW130047   3.823   3.259   0.022
 9716SOL    HW230048   3.667   3.238   0.065
 9717SOL     OW30049   5.188   6.045   6.001
 9717SOL    HW130050   5.110   6.000   5.959
 9717SOL    HW230051   5.269   5.987   5.993
 9718SOL     OW30052   4.929   2.449   0.366
 9718SOL    HW130053   4.927   2.507   0.285
 9718SOL    HW230054   4.927   2.507   0.448
 9719SOL     OW30055   6.540   1.679   6.219
 9719SOL    HW130056   6.581   1.627   6.143
 9719SOL    HW230057   6.499   1.616   6.284
 9720SOL     OW30058   6.977   5.545   2.303
 9720SOL    HW130059   0.054   5.568   2.290
 9720SOL    HW230060   6.968   5.483   2.381
 9721SOL     OW30061   7.009   2.320   1.816
 9721SOL    HW130062   0.038   2.349   1.898
 9721SOL    HW230063   0.046   2.334   1.735
 9722SOL     OW30064   6.283   0.102   4.053
 9722SOL    HW130065   6.265   0.201   4.052
 9722SOL    HW230066   6.382   0.087   4.063
 9723SOL     OW30067   2.298   6.567   3.224
 9723SOL    HW130068   2.344   6.598   3.141
 9723SOL    HW230069   2.218   6.625   3.241
 9724SOL     OW30070   1.427   4.492   0.434
 9724SOL    HW130071   1.491   4.507   0.510
 9724SOL    HW230072   1.443   4.401   0.396
 9725SOL     OW30073   3.613   4.539   6.311
 9725SOL    HW130074   3.703   4.567   6.345
 9725SOL    HW230075   3.608   4.558   6.213
 9726SOL     OW30076   5.566   0.176   4.031
 9726SOL    HW130077   5.612   0.231   3.962
 9726SOL    HW230078   5.487   0.226   4.066
 9727SOL     OW30079   0.610   4.035   5.789
 9727SOL    HW130080   0.635   4.023   5.693
 9727SOL    HW230081   0.629   3.950   5.839
 9728SOL     OW30082   0.442   0.775   6.201
 9728SOL    HW130083   0.381   0.842   6.159
 9728SOL    HW230084   0.399   0.737   6.283
 9729SOL     OW30085   1.086   4.229   3.289
 9729SOL    HW130086   1.075   4.277   3.376
 9729SOL    HW230087   1.166   4.264   3.241
 9730SOL     OW30088   0.866   3.501   3.789
 9730SOL    HW130089   0.772   3.525   3.813
 9730SOL    HW230090   0.908   3.577   3.740
 9731SOL     OW30091   4.579   4.468   1.021
 9731SOL    HW130092   4.565   4.377   1.060
 9731SOL    HW230093   4.495   4.520   1.027
 9732SOL     OW30094   6.049   5.483   2.916
 9732SOL    HW130095   5.967   5.474   2.972
 9732SOL    HW230096   6.118   5.418   2.948
 9733SOL     OW30097   5.702   5.055   0.719
 9733SOL    HW130098   5.767   5.092   0.653
 9733SOL    HW230099   5.684   4.959   0.699
 9734SOL     OW30100   6.318   1.350   2.219
 9734SOL    HW130101   6.370   1.310   2.295
 9734SOL    HW230102   6.276   1.435   2.249
 9735SOL     OW30103   2.721   4.701   3.092
 9735SOL    HW130104   2.787   4.627   3.105
 9735SOL    HW230105   2.725   4.764   3.169
 9736SOL     OW30106   6.325   1.909   6.827
 9736SOL    HW130107   6.378   1.967   6.889
 9736SOL    HW230108   6.228   1.931   6.836
 9737SOL     OW30109   5.851   2.443   4.008
 9737SOL    HW130110   5.923   2.495   4.053
 9737SOL    HW230111   5.828   2.363   4.064
 9738SOL     OW30112   1.695   0.298   1.192
 9738SOL    HW130113   1.691   0.211   1.240
 9738SOL    HW230114   1.615   0.307   1.132
 9739SOL     OW30115   5.935   4.684   2.079
 9739SOL    HW130116   5.900   4.704   1.987
 9739SOL    HW230117   5.872   4.622   2.125
 9740SOL     OW30118   6.579   2.454   2.987
 9740SOL    HW130119   6.602   2.453   3.084
 9740SOL    HW230120   6.489   2.496   2.975
 9741SOL     OW30121   5.108   1.565   3.358
 9741SOL    HW130122   5.107   1.591   3.262
 9741SOL    HW230123   5.080   1.469   3.367
 9742SOL     OW30124   4.535   6.938   1.296
 9742SOL    HW130125   4.450   6.932   1.244
 9742SOL    HW230126   4.527   6.883   1.380
 9743SOL     OW30127   0.828   1.892   4.904
 9743SOL    HW130128   0.867   1.975   4.864
 9743SOL    HW230129   0.862   1.882   4.998
 9744SOL     OW30130   0.423   0.251   3.213
 9744SOL    HW130131   0.347   0.311   3.237
 9744SOL    HW230132   0.438   0.253   3.115
 9745SOL     OW30133   6.451   2.581   6.026
 9745SOL    HW130134   6.550   2.599   6.024
 9745SOL    HW230135   6.432   2.507   6.091
 9746SOL     OW30136   6.479   1.056   5.652
 9746SOL    HW130137   6.519   1.072   5.562
 9746SOL    HW230138   6.381   1.041   5.642
 9747SOL     OW30139   2.060   0.917   1.102
 9747SOL    HW130140   2.156   0.928   1.127
 9747SOL    HW230141   2.002   0.935   1.182
 9748SOL     OW30142   0.357   1.748   3.368
 9748SOL    HW130143   0.392   1.830   3.323
 9748SOL    HW230144   0.358   1.761   3.467
 9749SOL     OW30145   2.140   1.707   5.057
 9749SOL    HW130146   2.104   1.625   5.013
 9749SOL    HW230147   2.112   1.788   5.005
 9750SOL     OW30148   5.766   4.540   3.838
 9750SOL    HW130149   5.679   4.499   3.864
 9750SOL    HW230150   5.759   4.573   3.744
 9751SOL     OW30151   0.540   0.982   0.386
 9751SOL    HW130152   0.528   1.050   0.459
 9751SOL    HW230153   0.451   0.944   0.362
 9752SOL     OW30154   4.882   1.874   5.920
 9752SOL    HW130155   4.919   1.792   5.964
 9752SOL    HW230156   4.950   1.910   5.855
 9753SOL     OW30157   6.073   6.221   5.585
 9753SOL    HW130158   6.172   6.208   5.588
 9753SOL    HW230159   6.048   6.299   5.642
 9754SOL     OW30160   0.905   1.399   6.584
 9754SOL    HW130161   0.959   1.446   6.514
 9754SOL    HW230162   0.964   1.333   6.632
 9755SOL     OW30163   4.244   3.567   5.044
 9755SOL    HW130164   4.305   3.548   4.967
 9755SOL    HW230165   4.166   3.503   5.041
 9756SOL     OW30166   5.889   3.188   0.775
 9756SOL    HW130167   5.940   3.274   0.769
 9756SOL    HW230168   5.804   3.196   0.724
 9757SOL     OW30169   6.234   3.928   3.573
 9757SOL    HW130170   6.196   3.835   3.567
 9757SOL    HW230171   6.314   3.927   3.632
 9758SOL     OW30172   2.504   7.015   6.896
 9758SOL    HW130173   2.600   0.012   6.873
 9758SOL    HW230174   2.477   0.056   6.970
 9759SOL     OW30175   2.028   6.882   6.814
 9759SOL    HW130176   2.075   6.959   6.771
 9759SOL    HW230177   2.040   6.886   6.913
 9760SOL     OW30178   4.872   3.297   5.076
 9760SOL    HW130179   4.821   3.285   5.161
 9760SOL    HW230180   4.896   3.393   5.065
 9761SOL     OW30181   6.237   0.551   2.561
 9761SOL    HW130182   6.323   0.578   2.604
 9761SOL    HW230183   6.182   0.498   2.625
 9762SOL     OW30184   3.834   1.818   4.480
 9762SOL    HW130185   3.820   1.745   4.547
 9762SOL    HW230186   3.755   1.880   4.481
 9763SOL     OW30187   4.930   2.203   2.047
 9763SOL    HW130188   4.970   2.226   1.958
 9763SOL    HW230189   4.951   2.108   2.069
 9764SOL     OW30190   0.440   3.032   3.151
 9764SOL    HW130191   0.492   2.994   3.228
 9764SOL    HW230192   0.357   3.077   3.186
 9765SOL     OW30193   6.764   1.475   3.060
 9765SOL    HW130194   6.703   1.466   2.982
 9765SOL    HW230195   6.717   1.526   3.133
 9766SOL     OW30196   2.629   0.396   3.382
 9766SOL    HW130197   2.611   0.494   3.372
 9766SOL    HW230198   2.590   0.364   3.468
 9767SOL     OW30199   5.089   1.499   5.409
 9767SOL    HW130200   5.157   1.538   5.471
 9767SOL    HW230201   4.999   1.533   5.432
 9768SOL     OW30202   5.652   1.834   2.774
 9768SOL    HW130203   5.581   1.766   2.756
 9768SOL    HW230204   5.611   1.915   2.815
 9769SOL     OW30205   2.806   0.377   2.641
 9769SOL    HW130206   2.858   0.454   2.677
 9769SOL    HW230207   2.710   0.386   2.667
 9770SOL     OW30208   5.526   7.004   6.990
 9770SOL    HW130209   5.557   6.926   0.025
 9770SOL    HW230210   5.527   0.067   0.027
 9771SOL     OW30211   2.957   5.101   0.968
 9771SOL    HW130212   2.883   5.090   1.036
 9771SOL    HW230213   2.942   5.185   0.916
 9772SOL     OW30214   1.258   6.169   2.981
 9772SOL    HW130215   1.250   6.133   2.888
 9772SOL    HW230216   1.178   6.143   3.034
 9773SOL     OW30217   4.969   6.125   4.247
 9773SOL    HW130218   4.938   6.155   4.156
 9773SOL    HW230219   5.007   6.203   4.297
 9774SOL     OW30220   6.728   5.083   1.722
 9774SOL    HW130221   6.748   5.180   1.710
 9774SOL    HW230222   6.641   5.072   1.770
 9775SOL     OW30223   2.305   0.979   3.789
 9775SOL    HW130224   2.358   0.994   3.706
 9775SOL    HW230225   2.212   1.015   3.775
 9776SOL     OW30226   0.983   4.961   4.334
 9776SOL    HW130227   1.041   4.925   4.260
 9776SOL    HW230228   0.907   4.899   4.350
 9777SOL     OW30229   5.062   4.243   5.988
 9777SOL    HW130230   5.065   4.331   5.941
 9777SOL    HW230231   5.066   4.169   5.920
 9778SOL     OW30232   0.415   0.995   3.161
 9778SOL    HW130233   0.331   0.962   3.203
 9778SOL    HW230234   0.405   0.995   3.062
 9779SOL     OW30235   2.117   0.657   4.997
 9779SOL    HW130236   2.204   0.669   4.949
 9779SOL    HW230237   2.085   0.746   5.029
 9780SOL     OW30238   2.339   1.550   1.113
 9780SOL    HW130239   2.419   1.603   1.085
 9780SOL    HW230240   2.286   1.524   1.033
 9781SOL     OW30241   1.713   3.701   4.328
 9781SOL    HW130242   1.759   3.701   4.239
 9781SOL    HW230243   1.740   3.620   4.380
 9782SOL     OW30244   6.848   0.452   1.722
 9782SOL    HW130245   6.865   0.526   1.787
 9782SOL    HW230246   6.865   0.485   1.629
 9783SOL     OW30247   5.136   1.973   3.353
 9783SOL    HW130248   5.184   1.918   3.422
 9783SOL    HW230249   5.175   1.953   3.263
 9784SOL     OW30250   3.878   1.151   4.443
 9784SOL    HW130251   3.964   1.112   4.410
 9784SOL    HW230252   3.803   1.120   4.384
 9785SOL     OW30253   7.006   3.841   5.677
 9785SOL    HW130254   0.037   3.850   5.762
 9785SOL    HW230255   6.910   3.861   5.693
 9786SOL     OW30256   2.383   4.509   6.804
 9786SOL    HW130257   2.450   4.524   6.876
 9786SOL    HW230258   2.295   4.548   6.831
 9787SOL     OW30259   4.231   3.403   1.746
 9787SOL    HW130260   4.274   3.346   1.676
 9787SOL    HW230261   4.224   3.352   1.831
 9788SOL     OW30262   0.726   0.793   3.618
 9788SOL    HW130263   0.752   0.889   3.619
 9788SOL    HW230264   0.778   0.743   3.687
 9789SOL     OW30265   1.290   5.578   0.140
 9789SOL    HW130266   1.351   5.654   0.162
 9789SOL    HW230267   1.343   5.494   0.133
 9790SOL     OW30268   5.958   3.900   5.349
 9790SOL    HW130269   5.858   3.898   5.341
 9790SOL    HW230270   5.998   3.839   5.281
 9791SOL     OW30271   0.306   1.302   2.545
 9791SOL    HW130272   0.223   1.354   2.566
 9791SOL    HW230273   0.282   1.205   2.532
 9792SOL     OW30274   5.107   5.548   1.837
 9792SOL    HW130275   5.096   5.636   1.882
 9792SOL    HW230276   5.204   5.525   1.832
 9793SOL     OW30277   5.077   5.069   3.586
 9793SOL    HW130278   5.020   5.005   3.535
 9793SOL    HW230279   5.170   5.034   3.591
 9794SOL     OW30280   6.161   4.084   0.142
 9794SOL    HW130281   6.260   4.085   0.133
 9794SOL    HW230282   6.125   4.176   0.129
 9795SOL     OW30283   1.517   2.095   4.003
 9795SOL    HW130284   1.617   2.087   3.997
 9795SOL    HW230285   1.485   2.164   3.938
 9796SOL     OW30286   4.371   2.661   1.544
 9796SOL    HW130287   4.316   2.626   1.468
 9796SOL    HW230288   4.435   2.590   1.574
 9797SOL     OW30289   3.072   5.091   6.567
 9797SOL    HW130290   3.152   5.031   6.577
 9797SOL    HW230291   3.093   5.163   6.501
 9798SOL     OW30292   2.687   0.284   0.954
 9798SOL    HW130293   2.636   0.210   0.999
 9798SOL    HW230294   2.744   0.330   1.021
 9799SOL     OW30295   3.424   3.781   3.334
 9799SOL    HW130296   3.367   3.742   3.406
 9799SOL    HW230297   3.395   3.744   3.245
 9800SOL     OW30298   3.733   6.359   5.033
 9800SOL    HW130299   3.640   6.351   5.068
 9800SOL    HW230300   3.737   6.323   4.940
 9801SOL     OW30301   4.823   4.365   0.466
 9801SOL    HW130302   4.759   4.351   0.390
 9801SOL    HW230303   4.892   4.294   0.464
 9802SOL     OW30304   0.824   3.028   1.849
 9802SOL    HW130305   0.919   3.002   1.867
 9802SOL    HW230306   0.764   2.950   1.869
 9803SOL     OW30307   6.328   1.501   6.863
 9803SOL    HW130308   6.362   1.526   6.954
 9803SOL    HW230309   6.383   1.425   6.827
 9804SOL     OW30310   0.813   6.296   2.915
 9804SOL    HW130311   0.817   6.198   2.933
 9804SOL    HW230312   0.836   6.313   2.819
 9805SOL     OW30313   1.059   6.344   5.428
 9805SOL    HW130314   1.012   6.350   5.340
 9805SOL    HW230315   1.021   6.268   5.481
 9806SOL     OW30316   1.442   1.589   0.528
 9806SOL    HW130317   1.486   1.674   0.499
 9806SOL    HW230318   1.415   1.598   0.624
 9807SOL     OW30319   2.020   3.107   0.203
 9807SOL    HW130320   1.973   3.187   0.240
 9807SOL    HW230321   1.958   3.028   0.204
 9808SOL     OW30322   5.927   1.648   5.470
 9808SOL    HW130323   5.941   1.606   5.380
 9808SOL    HW230324   5.875   1.584   5.528
 9809SOL     OW30325   0.695   2.030   6.800
 9809SOL    HW130326   0.743   1.982   6.873
 9809SOL    HW230327   0.596   2.018   6.811
 9810SOL     OW30328   2.791   2.299   4.059
 9810SOL    HW130329   2.803   2.355   4.141
 9810SOL    HW230330   2.701   2.316   4.019
 9811SOL     OW30331   5.510   5.762   4.015
 9811SOL    HW130332   5.434   5.786   3.954
 9811SOL    HW230333   5.556   5.681   3.979
 9812SOL     OW30334   3.114   2.328   5.654
 9812SOL    HW130335   3.174   2.269   5.706
 9812SOL    HW230336   3.153   2.344   5.563
 9813SOL     OW30337   5.968   0.532   6.698
 9813SOL    HW130338   6.000   0.444   6.662
 9813SOL    HW230339   5.937   0.520   6.792
 9814SOL     OW30340   0.273   1.117   0.092
 9814SOL    HW130341   0.349   1.176   0.065
 9814SOL    HW230342   0.236   1.148   0.179
 9815SOL     OW30343   5.744   3.812   2.699
 9815SOL    HW130344   5.773   3.743   2.766
 9815SOL    HW230345   5.652   3.789   2.667
 9816SOL     OW30346   0.281   1.959   6.015
 9816SOL    HW130347   0.224   1.914   6.083
 9816SOL    HW230348   0.374   1.967   6.049
 9817SOL     OW30349   2.602   5.510   2.920
 9817SOL    HW130350   2.673   5.513   2.849
 9817SOL    HW230351   2.515   5.540   2.881
 9818SOL     OW30352   1.823   0.627   4.427
 9818SOL    HW130353   1.852   0.539   4.464
 9818SOL    HW230354   1.762   0.672   4.492
 9819SOL     OW30355   4.763   2.911   4.873
 9819SOL    HW130356   4.729   2.836   4.929
 9819SOL    HW230357   4.847   2.882   4.826
 9820SOL     OW30358   3.579   3.187   6.241
 9820SOL    HW130359   3.595   3.217   6.335
 9820SOL    HW230360   3.642   3.235   6.180
 9821SOL     OW30361   4.707   0.734   0.522
 9821SOL    HW130362   4.787   0.730   0.463
 9821SOL    HW230363   4.736   0.736   0.618
 9822SOL     OW30364   2.723   5.404   3.598
 9822SOL    HW130365   2.639   5.416   3.543
 9822SOL    HW230366   2.698   5.371   3.689
 9823SOL     OW30367   2.205   6.860   1.517
 9823SOL    HW130368   2.230   6.913   1.436
 9823SOL    HW230369   2.262   6.777   1.520
 9824SOL     OW30370   1.981   5.525   4.339
 9824SOL    HW130371   2.066   5.577   4.348
 9824SOL    HW230372   1.923   5.568   4.270
 9825SOL     OW30373   5.458   6.622   4.617
 9825SOL    HW130374   5.401   6.693   4.657
 9825SOL    HW230375   5.415   6.533   4.630
 9826SOL     OW30376   3.403   6.423   5.700
 9826SOL    HW130377   3.362   6.338   5.733
 9826SOL    HW230378   3.424   6.415   5.603
 9827SOL     OW30379   1.885   3.887   3.291
 9827SOL    HW130380   1.911   3.858   3.384
 9827SOL    HW230381   1.789   3.863   3.275
 9828SOL     OW30382   3.092   2.648   5.336
 9828SOL    HW130383   3.140   2.565   5.308
 9828SOL    HW230384   2.994   2.630   5.342
 9829SOL     OW30385   4.646   5.836   6.345
 9829SOL    HW130386   4.675   5.922   6.304
 9829SOL    HW230387   4.723   5.794   6.394
 9830SOL     OW30388   4.896   1.787   2.028
 9830SOL    HW130389   4.934   1.865   2.079
 9830SOL    HW230390   4.947   1.776   1.943
 9831SOL     OW30391   1.071   4.630   2.539
 9831SOL    HW130392   1.074   4.530   2.530
 9831SOL    HW230393   1.113   4.673   2.460
 9832SOL     OW30394   4.660   5.681   1.921
 9832SOL    HW130395   4.701   5.771   1.937
 9832SOL    HW230396   4.687   5.618   1.994
 9833SOL     OW30397   3.487   3.363   3.219
 9833SOL    HW130398   3.559   3.304   3.181
 9833SOL    HW230399   3.435   3.312   3.287
 9834SOL     OW30400   1.838   4.411   5.288
 9834SOL    HW130401   1.787   4.479   5.236
 9834SOL    HW230402   1.914   4.456   5.336
 9835SOL     OW30403   3.679   3.304   4.352
 9835SOL    HW130404   3.587   3.268   4.371
 9835SOL    HW230405   3.709   3.360   4.429
 9836SOL     OW30406   0.655   4.085   4.328
 9836SOL    HW130407   0.663   4.152   4.402
 9836SOL    HW230408   0.700   4.000   4.355
 9837SOL     OW30409   4.786   0.550   2.464
 9837SOL    HW130410   4.727   0.505   2.397
 9837SOL    HW230411   4.842   0.482   2.511
 9838SOL     OW30412   1.544   6.633   0.533
 9838SOL    HW130413   1.519   6.581   0.452
 9838SOL    HW230414   1.464   6.644   0.592
 9839SOL     OW30415   4.926   6.189   3.065
 9839SOL    HW130416   5.016   6.209   3.028
 9839SOL    HW230417   4.914   6.235   3.153
 9840SOL     OW30418   4.764   1.675   0.429
 9840SOL    HW130419   4.712   1.756   0.402
 9840SOL    HW230420   4.861   1.697   0.434
 9841SOL     OW30421   1.637   4.546   3.860
 9841SOL    HW130422   1.731   4.574   3.841
 9841SOL    HW230423   1.580   4.565   3.780
 9842SOL     OW30424   3.108   3.226   1.216
 9842SOL    HW130425   3.102   3.236   1.117
 9842SOL    HW230426   3.187   3.277   1.251
 9843SOL     OW30427   0.142   6.806   1.771
 9843SOL    HW130428   0.134   6.873   1.697
 9843SOL    HW230429   0.076   6.827   1.842
 9844SOL     OW30430   6.086   0.993   4.083
 9844SOL    HW130431   6.146   1.049   4.026
 9844SOL    HW230432   6.110   1.005   4.179
 9845SOL     OW30433   1.433   2.461   2.836
 9845SOL    HW130434   1.431   2.522   2.916
 9845SOL    HW230435   1.493   2.501   2.767
 9846SOL     OW30436   4.298   2.120   0.717
 9846SOL    HW130437   4.255   2.136   0.628
 9846SOL    HW230438   4.237   2.065   0.774
 9847SOL     OW30439   4.050   3.269   2.401
 9847SOL    HW130440   4.040   3.203   2.475
 9847SOL    HW230441   4.117   3.339   2.428
 9848SOL     OW30442   4.061   4.868   6.098
 9848SOL    HW130443   4.103   4.946   6.144
 9848SOL    HW230444   4.082   4.874   6.000
 9849SOL     OW30445   0.897   6.982   6.605
 9849SOL    HW130446   0.941   6.932   6.680
 9849SOL    HW230447   0.967   0.012   6.554
 9850SOL     OW30448   0.176   0.756   3.668
 9850SOL    HW130449   0.274   0.764   3.688
 9850SOL    HW230450   0.134   0.694   3.734
 9851SOL     OW30451   2.476   6.565   4.420
 9851SOL    HW130452   2.434   6.546   4.331
 9851SOL    HW230453   2.449   6.495   4.486
 9852SOL     OW30454   1.708   1.579   5.308
 9852SOL    HW130455   1.807   1.584   5.294
 9852SOL    HW230456   1.663   1.641   5.244
 9853SOL     OW30457   6.425   3.309   5.185
 9853SOL    HW130458   6.462   3.336   5.273
 9853SOL    HW230459   6.430   3.385   5.121
 9854SOL     OW30460   0.472   5.395   4.058
 9854SOL    HW130461   0.562   5.352   4.063
 9854SOL    HW230462   0.453   5.442   4.144
 9855SOL     OW30463   1.898   3.685   0.666
 9855SOL    HW130464   1.821   3.663   0.726
 9855SOL    HW230465   1.913   3.610   0.602
 9856SOL     OW30466   5.484   4.650   4.158
 9856SOL    HW130467   5.439   4.704   4.087
 9856SOL    HW230468   5.434   4.659   4.244
 9857SOL     OW30469   5.603   2.887   2.862
 9857SOL    HW130470   5.583   2.985   2.868
 9857SOL    HW230471   5.668   2.871   2.787
 9858SOL     OW30472   0.607   6.810   1.582
 9858SOL    HW130473   0.534   6.771   1.639
 9858SOL    HW230474   0.690   6.821   1.637
 9859SOL     OW30475   6.580   4.498   4.141
 9859SOL    HW130476   6.516   4.518   4.215
 9859SOL    HW230477   6.530   4.496   4.054
 9860SOL     OW30478   1.536   2.592   4.622
 9860SOL    HW130479   1.604   2.536   4.668
 9860SOL    HW230480   1.532   2.568   4.525
 9861SOL     OW30481   2.970   0.498   3.339
 9861SOL    HW130482   2.906   0.458   3.405
 9861SOL    HW230483   2.920   0.557   3.276
 9862SOL     OW30484   2.669   3.892   0.643
 9862SOL    HW130485   2.713   3.977   0.616
 9862SOL    HW230486   2.725   3.844   0.710
 9863SOL     OW30487   3.309   5.937   1.025
 9863SOL    HW130488   3.339   6.026   0.992
 9863SOL    HW230489   3.367   5.909   1.102
 9864SOL     OW30490   3.519   0.487   5.190
 9864SOL    HW130491   3.582   0.512   5.117
 9864SOL    HW230492   3.442   0.551   5.192
 9865SOL     OW30493   1.235   6.148   4.211
 9865SOL    HW130494   1.235   6.166   4.112
 9865SOL    HW230495   1.153   6.189   4.252
 9866SOL     OW30496   6.166   4.380   4.998
 9866SOL    HW130497   6.224   4.406   4.921
 9866SOL    HW230498   6.082   4.435   4.997
 9867SOL     OW30499   6.507   2.238   2.660
 9867SOL    HW130500   6.554   2.251   2.573
 9867SOL    HW230501   6.436   2.169   2.649
 9868SOL     OW30502   0.594   3.568   4.369
 9868SOL    HW130503   0.501   3.536   4.351
 9868SOL    HW230504   0.627   3.526   4.454
 9869SOL     OW30505   0.466   2.926   0.763
 9869SOL    HW130506   0.451   2.980   0.681
 9869SOL    HW230507   0.552   2.876   0.756
 9870SOL     OW30508   4.091   6.793   2.719
 9870SOL    HW130509   4.079   6.713   2.777
 9870SOL    HW230510   4.089   6.876   2.775
 9871SOL     OW30511   6.530   3.182   5.681
 9871SOL    HW130512   6.570   3.097   5.714
 9871SOL    HW230513   6.600   3.254   5.680
 9872SOL     OW30514   2.731   5.341   4.818
 9872SOL    HW130515   2.639   5.343   4.856
 9872SOL    HW230516   2.732   5.285   4.735
 9873SOL     OW30517   2.265   2.427   6.566
 9873SOL    HW130518   2.250   2.526   6.564
 9873SOL    HW230519   2.270   2.393   6.472
 9874SOL     OW30520   0.176   3.396   5.688
 9874SOL    HW130521   0.151   3.467   5.753
 9874SOL    HW230522   0.093   3.349   5.657
 9875SOL     OW30523   6.987   5.675   2.799
 9875SOL    HW130524   0.010   5.713   2.881
 9875SOL    HW230525   6.898   5.719   2.785
 9876SOL     OW30526   5.353   0.945   3.649
 9876SOL    HW130527   5.407   0.913   3.571
 9876SOL    HW230528   5.341   0.869   3.714
 9877SOL     OW30529   6.717   4.382   4.332
 9877SOL    HW130530   6.688   4.442   4.257
 9877SOL    HW230531   6.660   4.300   4.332
 9878SOL     OW30532   2.500   3.789   6.136
 9878SOL    HW130533   2.486   3.758   6.230
 9878SOL    HW230534   2.538   3.714   6.081
 9879SOL     OW30535   6.942   4.735   5.028
 9879SOL    HW130536   7.020   4.688   5.070
 9879SOL    HW230537   6.881   4.769   5.101
 9880SOL     OW30538   2.208   0.291   1.061
 9880SOL    HW130539   2.269   0.283   0.983
 9880SOL    HW230540   2.193   0.388   1.082
 9881SOL     OW30541   6.674   1.502   4.460
 9881SOL    HW130542   6.685   1.495   4.559
 9881SOL    HW230543   6.764   1.515   4.418
 9882SOL     OW30544   3.200   3.528   5.335
 9882SOL    HW130545   3.212   3.614   5.284
 9882SOL    HW230546   3.243   3.453   5.285
 9883SOL     OW30547   1.210   5.866   1.683
 9883SOL    HW130548   1.192   5.810   1.602
 9883SOL    HW230549   1.308   5.878   1.694
 9884SOL     OW30550   3.690   2.239   0.665
 9884SOL    HW130551   3.727   2.146   0.669
 9884SOL    HW230552   3.700   2.283   0.754
 9885SOL     OW30553   0.424   3.382   4.597
 9885SOL    HW130554   0.409   3.360   4.501
 9885SOL    HW230555   0.361   3.329   4.653
 9886SOL     OW30556   6.692   6.414   2.043
 9886SOL    HW130557   6.690   6.436   2.140
 9886SOL    HW230558   6.787   6.413   2.012
 9887SOL     OW30559   3.230   0.314   0.368
 9887SOL    HW130560   3.152   0.375   0.354
 9887SOL    HW230561   3.273   0.335   0.456
 9888SOL     OW30562   5.818   5.675   3.375
 9888SOL    HW130563   5.733   5.677   3.323
 9888SOL    HW230564   5.872   5.595   3.347
 9889SOL     OW30565   1.112   5.030   2.547
 9889SOL    HW130566   1.048   5.091   2.498
 9889SOL    HW230567   1.086   5.025   2.643
 9890SOL     OW30568   6.506   2.988   1.237
 9890SOL    HW130569   6.505   3.057   1.164
 9890SOL    HW230570   6.435   3.009   1.304
 9891SOL     OW30571   5.341   4.963   1.389
 9891SOL    HW130572   5.357   4.866   1.408
 9891SOL    HW230573   5.243   4.982   1.394
 9892SOL     OW30574   2.500   5.449   3.490
 9892SOL    HW130575   2.451   5.537   3.494
 9892SOL    HW230576   2.434   5.375   3.477
 9893SOL     OW30577   6.321   6.220   2.915
 9893SOL    HW130578   6.320   6.306   2.865
 9893SOL    HW230579   6.307   6.144   2.852
 9894SOL     OW30580   2.682   1.371   6.657
 9894SOL    HW130581   2.683   1.361   6.757
 9894SOL    HW230582   2.593   1.340   6.622
 9895SOL     OW30583   6.256   2.142   5.763
 9895SOL    HW130584   6.180   2.189   5.718
 9895SOL    HW230585   6.268   2.180   5.855
 9896SOL     OW30586   4.919   2.248   0.177
 9896SOL    HW130587   4.823   2.219   0.179
 9896SOL    HW230588   4.938   2.306   0.257
 9897SOL     OW30589   4.918   0.879   2.245
 9897SOL    HW130590   4.860   0.922   2.314
 9897SOL    HW230591   4.938   0.944   2.172
 9898SOL     OW30592   0.693   5.260   4.731
 9898SOL    HW130593   0.736   5.197   4.796
 9898SOL    HW230594   0.688   5.218   4.641
 9899SOL     OW30595   6.151   4.789   2.226
 9899SOL    HW130596   6.226   4.724   2.232
 9899SOL    HW230597   6.086   4.760   2.156
 9900SOL     OW30598   2.086   1.874   2.731
 9900SOL    HW130599   2.168   1.822   2.749
 9900SOL    HW230600   2.111   1.968   2.705
 9901SOL     OW30601   1.324   2.492   0.424
 9901SOL    HW130602   1.380   2.569   0.455
 9901SOL    HW230603   1.378   2.434   0.363
 9902SOL     OW30604   3.430   3.058   1.396
 9902SOL    HW130605   3.502   2.990   1.392
 9902SOL    HW230606   3.370   3.040   1.474
 9903SOL     OW30607   4.527   6.756   2.310
 9903SOL    HW130608   4.506   6.679   2.369
 9903SOL    HW230609   4.614   6.797   2.338
 9904SOL     OW30610   6.583   3.523   6.821
 9904SOL    HW130611   6.680   3.546   6.821
 9904SOL    HW230612   6.532   3.592   6.770
 9905SOL     OW30613   1.839   6.477   0.268
 9905SOL    HW130614   1.779   6.397   0.276
 9905SOL    HW230615   1.892   6.487   0.352
 9906SOL     OW30616   1.672   3.656   0.351
 9906SOL    HW130617   1.671   3.610   0.262
 9906SOL    HW230618   1.601   3.726   0.354
 9907SOL     OW30619   2.558   0.139   3.594
 9907SOL    HW130620   2.547   0.146   3.693
 9907SOL    HW230621   2.566   0.043   3.568
 9908SOL     OW30622   0.408   3.805   5.429
 9908SOL    HW130623   0.365   3.735   5.372
 9908SOL    HW230624   0.366   3.803   5.520
 9909SOL     OW30625   3.496   0.053   3.188
 9909SOL    HW130626   3.485   0.135   3.133
 9909SOL    HW230627   3.490   0.077   3.285
 9910SOL     OW30628   0.764   5.355   1.585
 9910SOL    HW130629   0.686   5.366   1.647
 9910SOL    HW230630   0.833   5.298   1.629
 9911SOL     OW30631   4.837   5.505   2.956
 9911SOL    HW130632   4.785   5.507   2.870
 9911SOL    HW230633   4.897   5.585   2.960
 9912SOL     OW30634   4.304   0.941   1.936
 9912SOL    HW130635   4.335   0.983   1.850
 9912SOL    HW230636   4.375   0.879   1.970
 9913SOL     OW30637   6.493   2.961   2.303
 9913SOL    HW130638   6.483   2.997   2.396
 9913SOL    HW230639   6.534   2.870   2.307
 9914SOL     OW30640   0.838   0.643   6.070
 9914SOL    HW130641   0.772   0.617   6.140
 9914SOL    HW230642   0.868   0.561   6.020
 9915SOL     OW30643   4.834   2.878   4.278
 9915SOL    HW130644   4.906   2.884   4.346
 9915SOL    HW230645   4.866   2.919   4.192
 9916SOL     OW30646   2.812   2.281   3.733
 9916SOL    HW130647   2.751   2.357   3.713
 9916SOL    HW230648   2.771   2.223   3.803
 9917SOL     OW30649   3.153   3.046   4.382
 9917SOL    HW130650   3.200   2.984   4.319
 9917SOL    HW230651   3.131   2.998   4.467
 9918SOL     OW30652   0.809   1.827   0.750
 9918SOL    HW130653   0.814   1.912   0.803
 9918SOL    HW230654   0.722   1.782   0.767
 9919SOL     OW30655   2.155   5.289   1.858
 9919SOL    HW130656   2.194   5.275   1.767
 9919SOL    HW230657   2.225   5.272   1.928
 9920SOL     OW30658   3.365   1.139   3.237
 9920SOL    HW130659   3.415   1.179   3.314
 9920SOL    HW230660   3.409   1.166   3.151
 9921SOL     OW30661   5.776   6.147   4.383
 9921SOL    HW130662   5.689   6.159   4.335
 9921SOL    HW230663   5.759   6.140   4.481
 9922SOL     OW30664   4.900   4.473   0.971
 9922SOL    HW130665   4.967   4.412   0.929
 9922SOL    HW230666   4.914   4.474   1.070
 9923SOL     OW30667   6.875   3.220   0.752
 9923SOL    HW130668   6.806   3.276   0.798
 9923SOL    HW230669   6.962   3.227   0.800
 9924SOL     OW30670   5.492   2.100   2.630
 9924SOL    HW130671   5.534   2.143   2.551
 9924SOL    HW230672   5.462   2.171   2.695
 9925SOL     OW30673   2.292   4.240   5.189
 9925SOL    HW130674   2.233   4.279   5.119
 9925SOL    HW230675   2.325   4.151   5.159
 9926SOL     OW30676   2.946   2.455   1.363
 9926SOL    HW130677   2.852   2.423   1.353
 9926SOL    HW230678   2.991   2.405   1.437
 9927SOL     OW30679   0.849   2.418   1.475
 9927SOL    HW130680   0.941   2.396   1.441
 9927SOL    HW230681   0.850   2.510   1.515
 9928SOL     OW30682   6.279   4.538   2.298
 9928SOL    HW130683   6.211   4.469   2.272
 9928SOL    HW230684   6.318   4.514   2.387
 9929SOL     OW30685   2.725   4.111   5.271
 9929SOL    HW130686   2.736   4.097   5.370
 9929SOL    HW230687   2.629   4.097   5.247
 9930SOL     OW30688   0.283   0.188   5.638
 9930SOL    HW130689   0.238   0.237   5.562
 9930SOL    HW230690   0.234   0.102   5.655
 9931SOL     OW30691   0.272   5.212   4.741
 9931SOL    HW130692   0.254   5.155   4.821
 9931SOL    HW230693   0.339   5.283   4.764
 9932SOL     OW30694   1.718   2.069   0.375
 9932SOL    HW130695   1.761   1.991   0.329
 9932SOL    HW230696   1.678   2.131   0.307
 9933SOL     OW30697   1.847   0.957   4.260
 9933SOL    HW130698   1.808   0.950   4.351
 9933SOL    HW230699   1.882   0.868   4.231
 9934SOL     OW30700   5.986   1.755   0.130
 9934SOL    HW130701   6.074   1.731   0.169
 9934SOL    HW230702   5.913   1.708   0.180
 9935SOL     OW30703   2.109   1.217   0.397
 9935SOL    HW130704   2.137   1.310   0.376
 9935SOL    HW230705   2.171   1.178   0.465
 9936SOL     OW30706   5.857   5.047   6.074
 9936SOL    HW130707   5.865   4.947   6.072
 9936SOL    HW230708   5.818   5.075   6.162
 9937SOL     OW30709   1.082   0.764   3.216
 9937SOL    HW130710   1.060   0.666   3.211
 9937SOL    HW230711   1.172   0.779   3.176
 9938SOL     OW30712   5.978   0.472   3.774
 9938SOL    HW130713   6.062   0.503   3.730
 9938SOL    HW230714   5.944   0.390   3.727
 9939SOL     OW30715   1.979   2.749   1.127
 9939SOL    HW130716   1.938   2.833   1.091
 9939SOL    HW230717   2.015   2.695   1.051
 9940SOL     OW30718   0.661   0.641   3.385
 9940SOL    HW130719   0.642   0.690   3.300
 9940SOL    HW230720   0.669   0.706   3.460
 9941SOL     OW30721   3.133   5.386   5.602
 9941SOL    HW130722   3.106   5.482   5.604
 9941SOL    HW230723   3.228   5.379   5.572
 9942SOL     OW30724   4.684   5.480   2.719
 9942SOL    HW130725   4.638   5.568   2.703
 9942SOL    HW230726   4.732   5.452   2.636
 9943SOL     OW30727   0.344   4.428   5.896
 9943SOL    HW130728   0.327   4.330   5.909
 9943SOL    HW230729   0.404   4.461   5.969
 9944SOL     OW30730   0.125   5.617   6.142
 9944SOL    HW130731   0.048   5.676   6.165
 9944SOL    HW230732   0.139   5.550   6.214
 9945SOL     OW30733   5.383   3.996   6.621
 9945SOL    HW130734   5.351   3.905   6.594
 9945SOL    HW230735   5.418   4.044   6.541
 9946SOL     OW30736   6.484   6.835   3.549
 9946SOL    HW130737   6.543   6.814   3.470
 9946SOL    HW230738   6.404   6.775   3.547
 9947SOL     OW30739   1.798   1.577   3.801
 9947SOL    HW130740   1.835   1.652   3.856
 9947SOL    HW230741   1.807   1.598   3.704
 9948SOL     OW30742   6.857   5.450   4.889
 9948SOL    HW130743   6.890   5.364   4.849
 9948SOL    HW230744   6.875   5.525   4.825
 9949SOL     OW30745   6.940   4.930   4.273
 9949SOL    HW130746   6.870   4.979   4.326
 9949SOL    HW230747   6.904   4.842   4.243
 9950SOL     OW30748   6.589   5.299   5.774
 9950SOL    HW130749   6.663   5.339   5.721
 9950SOL    HW230750   6.609   5.307   5.872
 9951SOL     OW30751   1.482   1.997   2.911
 9951SOL    HW130752   1.530   2.079   2.883
 9951SOL    HW230753   1.543   1.939   2.964
 9952SOL     OW30754   1.440   3.996   1.440
 9952SOL    HW130755   1.362   3.946   1.404
 9952SOL    HW230756   1.419   4.094   1.442
 9953SOL     OW30757   5.625   2.468   3.341
 9953SOL    HW130758   5.708   2.519   3.319
 9953SOL    HW230759   5.617   2.390   3.280
 9954SOL     OW30760   1.659   0.680   4.890
 9954SOL    HW130761   1.658   0.581   4.903
 9954SOL    HW230762   1.634   0.725   4.975
 9955SOL     OW30763   4.740   3.960   6.694
 9955SOL    HW130764   4.779   3.977   6.785
 9955SOL    HW230765   4.649   4.001   6.689
 9956SOL     OW30766   0.154   4.146   2.523
 9956SOL    HW130767   0.095   4.203   2.581
 9956SOL    HW230768   0.237   4.123   2.574
 9957SOL     OW30769   5.487   6.888   1.820
 9957SOL    HW130770   5.465   6.953   1.748
 9957SOL    HW230771   5.579   6.905   1.855
 9958SOL     OW30772   3.073   5.657   5.566
 9958SOL    HW130773   3.006   5.731   5.555
 9958SOL    HW230774   3.123   5.644   5.481
 9959SOL     OW30775   4.175   3.157   1.933
 9959SOL    HW130776   4.097   3.133   1.875
 9959SOL    HW230777   4.232   3.076   1.948
 9960SOL     OW30778   0.504   6.498   1.425
 9960SOL    HW130779   0.582   6.560   1.434
 9960SOL    HW230780   0.483   6.485   1.328
 9961SOL     OW30781   2.466   4.397   2.479
 9961SOL    HW130782   2.407   4.322   2.506
 9961SOL    HW230783   2.518   4.429   2.558
 9962SOL     OW30784   4.036   0.728   2.166
 9962SOL    HW130785   4.097   0.725   2.087
 9962SOL    HW230786   3.997   0.819   2.175
 9963SOL     OW30787   2.222   3.647   6.609
 9963SOL    HW130788   2.273   3.704   6.674
 9963SOL    HW230789   2.284   3.613   6.538
 9964SOL     OW30790   3.648   4.878   5.646
 9964SOL    HW130791   3.682   4.954   5.702
 9964SOL    HW230792   3.671   4.791   5.689
 9965SOL     OW30793   3.267   5.653   4.700
 9965SOL    HW130794   3.223   5.694   4.780
 9965SOL    HW230795   3.206   5.661   4.621
 9966SOL     OW30796   2.653   5.581   2.184
 9966SOL    HW130797   2.576   5.582   2.248
 9966SOL    HW230798   2.730   5.533   2.227
 9967SOL     OW30799   6.214   5.228   2.926
 9967SOL    HW130800   6.307   5.214   2.961
 9967SOL    HW230801   6.217   5.239   2.827
 9968SOL     OW30802   3.689   5.494   0.019
 9968SOL    HW130803   3.597   5.457   0.011
 9968SOL    HW230804   3.737   5.482   6.952
 9969SOL     OW30805   1.490   3.089   4.631
 9969SOL    HW130806   1.547   3.158   4.674
 9969SOL    HW230807   1.518   2.998   4.662
 9970SOL     OW30808   6.363   4.909   1.241
 9970SOL    HW130809   6.376   4.885   1.337
 9970SOL    HW230810   6.438   4.871   1.186
 9971SOL     OW30811   2.124   3.045   1.203
 9971SOL    HW130812   2.079   3.034   1.114
 9971SOL    HW230813   2.170   2.960   1.228
 9972SOL     OW30814   2.644   4.244   0.944
 9972SOL    HW130815   2.684   4.154   0.958
 9972SOL    HW230816   2.574   4.239   0.873
 9973SOL     OW30817   4.100   2.268   4.354
 9973SOL    HW130818   4.056   2.180   4.341
 9973SOL    HW230819   4.081   2.327   4.276
 9974SOL     OW30820   0.258   2.973   2.806
 9974SOL    HW130821   0.264   2.939   2.712
 9974SOL    HW230822   0.162   2.987   2.831
 9975SOL     OW30823   0.171   4.947   6.142
 9975SOL    HW130824   0.248   5.003   6.170
 9975SOL    HW230825   0.152   4.961   6.045
 9976SOL     OW30826   0.781   5.128   5.374
 9976SOL    HW130827   0.827   5.217   5.369
 9976SOL    HW230828   0.752   5.111   5.469
 9977SOL     OW30829   5.957   4.819   5.714
 9977SOL    HW130830   5.972   4.736   5.767
 9977SOL    HW230831   6.046   4.856   5.685
 9978SOL     OW30832   6.438   1.481   5.561
 9978SOL    HW130833   6.466   1.439   5.475
 9978SOL    HW230834   6.453   1.417   5.637
 9979SOL     OW30835   6.930   3.897   6.662
 9979SOL    HW130836   6.895   3.805   6.643
 9979SOL    HW230837   6.878   3.938   6.737
 9980SOL     OW30838   1.781   0.373   0.599
 9980SOL    HW130839   1.731   0.437   0.540
 9980SOL    HW230840   1.741   0.373   0.690
 9981SOL     OW30841   2.622   2.157   0.637
 9981SOL    HW130842   2.632   2.059   0.656
 9981SOL    HW230843   2.526   2.183   0.648
 9982SOL     OW30844   1.334   1.135   4.481
 9982SOL    HW130845   1.284   1.134   4.567
 9982SOL    HW230846   1.292   1.201   4.419
 9983SOL     OW30847   0.570   1.302   2.103
 9983SOL    HW130848   0.500   1.341   2.162
 9983SOL    HW230849   0.531   1.284   2.012
 9984SOL     OW30850   0.988   6.344   0.070
 9984SOL    HW130851   1.066   6.305   0.021
 9984SOL    HW230852   1.021   6.414   0.134
 9985SOL     OW30853   2.785   6.494   1.022
 9985SOL    HW130854   2.733   6.561   1.075
 9985SOL    HW230855   2.731   6.411   1.010
 9986SOL     OW30856   5.660   4.955   1.002
 9986SOL    HW130857   5.561   4.953   1.018
 9986SOL    HW230858   5.682   5.026   0.936
 9987SOL     OW30859   6.362   2.472   2.705
 9987SOL    HW130860   6.277   2.431   2.737
 9987SOL    HW230861   6.427   2.400   2.680
 9988SOL     OW30862   6.480   5.362   4.277
 9988SOL    HW130863   6.404   5.364   4.212
 9988SOL    HW230864   6.448   5.322   4.363
 9989SOL     OW30865   6.293   4.188   2.522
 9989SOL    HW130866   6.282   4.287   2.527
 9989SOL    HW230867   6.388   4.165   2.544
 9990SOL     OW30868   2.098   0.041   3.576
 9990SOL    HW130869   2.133   6.970   3.556
 9990SOL    HW230870   1.998   0.041   3.575
 9991SOL     OW30871   2.055   3.157   3.934
 9991SOL    HW130872   1.966   3.121   3.960
 9991SOL    HW230873   2.065   3.152   3.835
 9992SOL     OW30874   3.925   3.646   0.756
 9992SOL    HW130875   3.968   3.692   0.679
 9992SOL    HW230876   3.907   3.712   0.829
 9993SOL     OW30877   4.003   6.661   3.415
 9993SOL    HW130878   4.079   6.597   3.425
 9993SOL    HW230879   3.966   6.684   3.505
 9994SOL     OW30880   6.623   4.453   2.583
 9994SOL    HW130881   6.692   4.481   2.650
 9994SOL    HW230882   6.664   4.450   2.492
 9995SOL     OW30883   3.370   0.847   3.388
 9995SOL    HW130884   3.304   0.885   3.452
 9995SOL    HW230885   3.462   0.858   3.425
 9996SOL     OW30886   2.708   3.485   1.808
 9996SOL    HW130887   2.661   3.410   1.762
 9996SOL    HW230888   2.662   3.505   1.894
 9997SOL     OW30889   5.196   0.875   2.146
 9997SOL    HW130890   5.116   0.838   2.192
 9997SOL    HW230891   5.200   0.975   2.160
 9998SOL     OW30892   5.839   3.527   2.464
 9998SOL    HW130893   5.755   3.504   2.512
 9998SOL    HW230894   5.824   3.607   2.406
 9999SOL     OW30895   0.443   5.690   4.855
 9999SOL    HW130896   0.500   5.687   4.937
 9999SOL    HW230897   0.356   5.645   4.874
10000SOL     OW30898   5.341   1.876   0.381
10000SOL    HW130899   5.261   1.902   0.435
10000SOL    HW230900   5.417   1.855   0.442
10001SOL     OW30901   3.959   0.583   1.304
10001SOL    HW130902   3.959   0.631   1.391
10001SOL    HW230903   4.013   0.634   1.237
10002SOL     OW30904   2.172   1.000   1.701
10002SOL    HW130905   2.141   0.930   1.636
10002SOL    HW230906   2.100   1.068   1.713
10003SOL     OW30907   3.007   2.136   2.212
10003SOL    HW130908   2.984   2.178   2.300
10003SOL    HW230909   2.954   2.181   2.140
10004SOL     OW30910   5.357   2.954   5.139
10004SOL    HW130911   5.452   2.935   5.114
10004SOL    HW230912   5.327   2.887   5.207
10005SOL     OW30913   3.597   5.586   2.142
10005SOL    HW130914   3.662   5.510   2.150
10005SOL    HW230915   3.557   5.605   2.231
10006SOL     OW30916   6.130   0.111   5.444
10006SOL    HW130917   6.129   0.018   5.479
10006SOL    HW230918   6.186   0.116   5.361
10007SOL     OW30919   0.440   3.192   4.068
10007SOL    HW130920   0.454   3.095   4.054
10007SOL    HW230921   0.519   3.243   4.033
10008SOL     OW30922   4.702   1.024   3.552
10008SOL    HW130923   4.678   1.106   3.501
10008SOL    HW230924   4.801   1.019   3.564
10009SOL     OW30925   1.425   4.278   1.355
10009SOL    HW130926   1.508   4.223   1.343
10009SOL    HW230927   1.447   4.362   1.404
10010SOL     OW30928   2.603   6.344   0.414
10010SOL    HW130929   2.615   6.303   0.504
10010SOL    HW230930   2.506   6.344   0.390
10011SOL     OW30931   0.635   4.182   6.297
10011SOL    HW130932   0.661   4.271   6.261
10011SOL    HW230933   0.650   4.112   6.227
10012SOL     OW30934   5.272   0.561   2.245
10012SOL    HW130935   5.320   0.487   2.291
10012SOL    HW230936   5.324   0.645   2.254
10013SOL     OW30937   1.753   1.871   3.815
10013SOL    HW130938   1.799   1.941   3.760
10013SOL    HW230939   1.659   1.900   3.834
10014SOL     OW30940   1.024   1.375   1.269
10014SOL    HW130941   1.051   1.390   1.174
10014SOL    HW230942   1.093   1.320   1.315
10015SOL     OW30943   4.064   5.394   0.104
10015SOL    HW130944   3.995   5.324   0.123
10015SOL    HW230945   4.040   5.479   0.150
10016SOL     OW30946   1.219   0.601   4.980
10016SOL    HW130947   1.310   0.636   4.958
10016SOL    HW230948   1.227   0.520   5.038
10017SOL     OW30949   1.787   1.451   3.229
10017SOL    HW130950   1.811   1.384   3.299
10017SOL    HW230951   1.705   1.501   3.257
10018SOL     OW30952   6.670   4.811   6.081
10018SOL    HW130953   6.590   4.864   6.055
10018SOL    HW230954   6.705   4.762   6.001
10019SOL     OW30955   0.428   1.980   3.274
10019SOL    HW130956   0.482   1.983   3.190
10019SOL    HW230957   0.337   2.017   3.256
10020SOL     OW30958   0.839   0.799   1.324
10020SOL    HW130959   0.752   0.802   1.373
10020SOL    HW230960   0.831   0.851   1.239
10021SOL     OW30961   1.071   2.272   2.542
10021SOL    HW130962   1.109   2.270   2.634
10021SOL    HW230963   1.140   2.307   2.478
10022SOL     OW30964   3.571   6.775   0.722
10022SOL    HW130965   3.557   6.712   0.646
10022SOL    HW230966   3.646   6.742   0.780
10023SOL     OW30967   2.503   4.644   4.846
10023SOL    HW130968   2.473   4.553   4.815
10023SOL    HW230969   2.476   4.713   4.779
10024SOL     OW30970   2.011   5.908   1.524
10024SOL    HW130971   1.921   5.889   1.484
10024SOL    HW230972   2.024   5.851   1.605
10025SOL     OW30973   1.923   2.756   2.080
10025SOL    HW130974   1.840   2.707   2.106
10025SOL    HW230975   1.902   2.818   2.004
10026SOL     OW30976   4.991   6.812   3.195
10026SOL    HW130977   5.034   6.727   3.225
10026SOL    HW230978   4.911   6.831   3.252
10027SOL     OW30979   0.441   3.028   5.264
10027SOL    HW130980   0.355   3.079   5.272
10027SOL    HW230981   0.499   3.072   5.196
10028SOL     OW30982   1.819   1.650   2.379
10028SOL    HW130983   1.868   1.644   2.292
10028SOL    HW230984   1.738   1.707   2.367
10029SOL     OW30985   1.841   2.102   3.676
10029SOL    HW130986   1.743   2.123   3.670
10029SOL    HW230987   1.888   2.141   3.597
10030SOL     OW30988   3.271   0.367   4.660
10030SOL    HW130989   3.363   0.331   4.641
10030SOL    HW230990   3.211   0.347   4.583
10031SOL     OW30991   5.676   4.671   4.476
10031SOL    HW130992   5.647   4.578   4.498
10031SOL    HW230993   5.607   4.736   4.508
10032SOL     OW30994   4.376   0.406   5.093
10032SOL    HW130995   4.326   0.349   5.158
10032SOL    HW230996   4.453   0.355   5.056
10033SOL     OW30997   4.410   2.464   3.769
10033SOL    HW130998   4.340   2.438   3.836
10033SOL    HW230999   4.473   2.529   3.811
10034SOL     OW31000   3.541   0.445   4.130
10034SOL    HW131001   3.515   0.428   4.225
10034SOL    HW231002   3.513   0.537   4.104
10035SOL     OW31003   6.501   4.851   1.510
10035SOL    HW131004   6.582   4.793   1.497
10035SOL    HW231005   6.440   4.808   1.576
10036SOL     OW31006   6.587   0.590   0.366
10036SOL    HW131007   6.526   0.529   0.316
10036SOL    HW231008   6.582   0.568   0.464
10037SOL     OW31009   5.588   1.067   0.359
10037SOL    HW131010   5.507   1.125   0.359
10037SOL    HW231011   5.644   1.087   0.440
10038SOL     OW31012   4.141   0.062   6.895
10038SOL    HW131013   4.120   0.141   6.837
10038SOL    HW231014   4.239   0.041   6.889
10039SOL     OW31015   4.353   6.938   5.168
10039SOL    HW131016   4.292   6.939   5.247
10039SOL    HW231017   4.331   6.859   5.110
10040SOL     OW31018   4.254   5.882   6.183
10040SOL    HW131019   4.241   5.800   6.237
10040SOL    HW231020   4.188   5.952   6.210
10041SOL     OW31021   4.071   5.918   6.692
10041SOL    HW131022   3.992   5.888   6.638
10041SOL    HW231023   4.050   6.006   6.735
10042SOL     OW31024   1.732   2.217   4.827
10042SOL    HW131025   1.641   2.256   4.840
10042SOL    HW231026   1.727   2.118   4.826
10043SOL     OW31027   0.646   2.360   4.605
10043SOL    HW131028   0.574   2.393   4.666
10043SOL    HW231029   0.607   2.341   4.515
10044SOL     OW31030   3.045   1.534   4.599
10044SOL    HW131031   3.090   1.599   4.538
10044SOL    HW231032   3.105   1.515   4.677
10045SOL     OW31033   5.156   6.943   4.162
10045SOL    HW131034   5.123   6.853   4.134
10045SOL    HW231035   5.080   7.008   4.164
10046SOL     OW31036   1.602   3.861   1.265
10046SOL    HW131037   1.675   3.810   1.310
10046SOL    HW231038   1.569   3.933   1.326
10047SOL     OW31039   6.526   3.029   5.217
10047SOL    HW131040   6.573   3.003   5.132
10047SOL    HW231041   6.465   3.106   5.198
10048SOL     OW31042   6.041   1.979   2.301
10048SOL    HW131043   5.996   2.015   2.383
10048SOL    HW231044   6.011   1.885   2.286
10049SOL     OW31045   0.537   0.273   6.635
10049SOL    HW131046   0.557   0.186   6.588
10049SOL    HW231047   0.564   0.265   6.731
10050SOL     OW31048   6.221   2.530   4.788
10050SOL    HW131049   6.280   2.610   4.793
10050SOL    HW231050   6.273   2.451   4.757
10051SOL     OW31051   6.354   2.304   4.988
10051SOL    HW131052   6.314   2.356   5.063
10051SOL    HW231053   6.429   2.356   4.947
10052SOL     OW31054   2.973   2.252   2.834
10052SOL    HW131055   3.021   2.254   2.746
10052SOL    HW231056   3.040   2.256   2.909
10053SOL     OW31057   3.210   6.083   1.896
10053SOL    HW131058   3.204   6.140   1.977
10053SOL    HW231059   3.272   6.126   1.830
10054SOL     OW31060   5.130   5.299   6.527
10054SOL    HW131061   5.140   5.398   6.518
10054SOL    HW231062   5.201   5.263   6.587
10055SOL     OW31063   6.308   2.028   4.915
10055SOL    HW131064   6.337   2.124   4.909
10055SOL    HW231065   6.212   2.025   4.941
10056SOL     OW31066   5.582   4.336   2.291
10056SOL    HW131067   5.531   4.351   2.376
10056SOL    HW231068   5.657   4.273   2.309
10057SOL     OW31069   3.985   2.029   4.301
10057SOL    HW131070   3.950   1.942   4.336
10057SOL    HW231071   3.939   2.050   4.214
10058SOL     OW31072   0.517   3.992   4.663
10058SOL    HW131073   0.584   3.936   4.613
10058SOL    HW231074   0.526   4.087   4.634
10059SOL     OW31075   5.498   0.642   1.176
10059SOL    HW131076   5.519   0.571   1.109
10059SOL    HW231077   5.407   0.679   1.158
10060SOL     OW31078   1.448   1.617   1.685
10060SOL    HW131079   1.544   1.625   1.713
10060SOL    HW231080   1.443   1.610   1.585
10061SOL     OW31081   4.799   1.606   4.202
10061SOL    HW131082   4.789   1.638   4.108
10061SOL    HW231083   4.882   1.645   4.243
10062SOL     OW31084   6.555   0.127   4.120
10062SOL    HW131085   6.566   0.226   4.134
10062SOL    HW231086   6.639   0.089   4.084
10063SOL     OW31087   2.184   0.753   3.925
10063SOL    HW131088   2.249   0.794   3.862
10063SOL    HW231089   2.100   0.729   3.876
10064SOL     OW31090   4.626   0.013   0.337
10064SOL    HW131091   4.572   6.949   0.343
10064SOL    HW231092   4.718   7.012   0.302
10065SOL     OW31093   1.913   6.888   2.176
10065SOL    HW131094   1.920   6.859   2.272
10065SOL    HW231095   1.996   6.936   2.150
10066SOL     OW31096   1.085   2.524   3.670
10066SOL    HW131097   1.091   2.623   3.684
10066SOL    HW231098   1.109   2.477   3.755
10067SOL     OW31099   6.374   4.060   4.772
10067SOL    HW131100   6.413   4.152   4.783
10067SOL    HW231101   6.297   4.049   4.834
10068SOL     OW31102   0.123   3.305   3.004
10068SOL    HW131103   0.054   3.238   2.975
10068SOL    HW231104   0.204   3.298   2.946
10069SOL     OW31105   2.557   5.153   3.055
10069SOL    HW131106   2.517   5.178   2.967
10069SOL    HW231107   2.492   5.099   3.108
10070SOL     OW31108   6.350   6.713   5.399
10070SOL    HW131109   6.275   6.778   5.409
10070SOL    HW231110   6.356   6.684   5.304
10071SOL     OW31111   6.161   5.860   4.008
10071SOL    HW131112   6.241   5.813   3.972
10071SOL    HW231113   6.178   5.886   4.104
10072SOL     OW31114   6.931   6.452   4.135
10072SOL    HW131115   0.008   6.429   4.144
10072SOL    HW231116   6.883   6.378   4.087
10073SOL     OW31117   5.585   4.104   5.436
10073SOL    HW131118   5.559   4.174   5.502
10073SOL    HW231119   5.565   4.013   5.474
10074SOL     OW31120   1.613   0.892   5.351
10074SOL    HW131121   1.525   0.876   5.396
10074SOL    HW231122   1.686   0.849   5.404
10075SOL     OW31123   1.884   2.935   2.759
10075SOL    HW131124   1.906   2.866   2.828
10075SOL    HW231125   1.965   2.955   2.704
10076SOL     OW31126   0.443   0.168   3.869
10076SOL    HW131127   0.506   0.235   3.828
10076SOL    HW231128   0.470   0.151   3.964
10077SOL     OW31129   4.045   3.133   6.494
10077SOL    HW131130   4.076   3.053   6.442
10077SOL    HW231131   4.109   3.151   6.568
10078SOL     OW31132   0.373   5.093   4.059
10078SOL    HW131133   0.274   5.104   4.057
10078SOL    HW231134   0.402   5.064   4.150
10079SOL     OW31135   6.726   3.882   2.790
10079SOL    HW131136   6.750   3.894   2.887
10079SOL    HW231137   6.776   3.803   2.753
10080SOL     OW31138   4.611   1.454   5.474
10080SOL    HW131139   4.680   1.386   5.449
10080SOL    HW231140   4.529   1.441   5.419
10081SOL     OW31141   0.228   0.492   0.849
10081SOL    HW131142   0.230   0.398   0.884
10081SOL    HW231143   0.136   0.514   0.817
10082SOL     OW31144   0.095   4.814   1.711
10082SOL    HW131145   0.152   4.780   1.786
10082SOL    HW231146   0.129   4.903   1.680
10083SOL     OW31147   4.689   0.881   3.309
10083SOL    HW131148   4.603   0.834   3.290
10083SOL    HW231149   4.684   0.926   3.398
10084SOL     OW31150   2.023   0.959   5.360
10084SOL    HW131151   1.924   0.957   5.374
10084SOL    HW231152   2.068   0.988   5.445
10085SOL     OW31153   2.346   5.759   1.601
10085SOL    HW131154   2.249   5.755   1.577
10085SOL    HW231155   2.394   5.819   1.537
10086SOL     OW31156   4.190   5.924   2.365
10086SOL    HW131157   4.264   5.880   2.315
10086SOL    HW231158   4.150   5.859   2.431
10087SOL     OW31159   6.859   6.837   3.855
10087SOL    HW131160   6.813   6.770   3.796
10087SOL    HW231161   6.914   6.898   3.798
10088SOL     OW31162   6.313   0.489   1.600
10088SOL    HW131163   6.276   0.503   1.509
10088SOL    HW231164   6.264   0.547   1.666
10089SOL     OW31165   2.866   1.895   2.266
10089SOL    HW131166   2.916   1.977   2.238
10089SOL    HW231167   2.931   1.822   2.288
10090SOL     OW31168   1.494   4.914   1.296
10090SOL    HW131169   1.587   4.914   1.258
10090SOL    HW231170   1.497   4.941   1.392
10091SOL     OW31171   0.400   4.156   6.633
10091SOL    HW131172   0.376   4.150   6.536
10091SOL    HW231173   0.326   4.200   6.683
10092SOL     OW31174   2.047   2.531   5.589
10092SOL    HW131175   2.036   2.543   5.490
10092SOL    HW231176   2.098   2.609   5.626
10093SOL     OW31177   6.673   2.979   4.983
10093SOL    HW131178   6.682   2.899   4.923
10093SOL    HW231179   6.718   3.057   4.941
10094SOL     OW31180   2.422   5.647   2.364
10094SOL    HW131181   2.440   5.716   2.434
10094SOL    HW231182   2.325   5.623   2.365
10095SOL     OW31183   6.058   1.864   5.163
10095SOL    HW131184   6.154   1.839   5.170
10095SOL    HW231185   6.001   1.784   5.180
10096SOL     OW31186   4.292   5.172   3.071
10096SOL    HW131187   4.238   5.252   3.100
10096SOL    HW231188   4.382   5.202   3.040
10097SOL     OW31189   0.757   1.390   0.212
10097SOL    HW131190   0.717   1.464   0.267
10097SOL    HW231191   0.732   1.302   0.251
10098SOL     OW31192   2.913   0.423   4.927
10098SOL    HW131193   2.879   0.337   4.889
10098SOL    HW231194   3.010   0.433   4.904
10099SOL     OW31195   0.051   5.034   1.105
10099SOL    HW131196   0.057   5.113   1.165
10099SOL    HW231197   0.134   5.028   1.050
10100SOL     OW31198   4.986   0.118   4.750
10100SOL    HW131199   5.037   0.197   4.715
10100SOL    HW231200   4.888   0.131   4.733
10101SOL     OW31201   6.610   3.772   1.752
10101SOL    HW131202   6.678   3.803   1.818
10101SOL    HW231203   6.560   3.693   1.790
10102SOL     OW31204   0.560   1.557   2.438
10102SOL    HW131205   0.660   1.561   2.442
10102SOL    HW231206   0.527   1.495   2.510
10103SOL     OW31207   2.420   0.531   5.987
10103SOL    HW131208   2.379   0.440   5.992
10103SOL    HW231209   2.517   0.522   5.965
10104SOL     OW31210   2.424   1.758   3.516
10104SOL    HW131211   2.380   1.671   3.496
10104SOL    HW231212   2.449   1.762   3.613
10105SOL     OW31213   1.412   0.997   0.527
10105SOL    HW131214   1.452   1.056   0.597
10105SOL    HW231215   1.327   1.037   0.494
10106SOL     OW31216   4.142   6.389   0.453
10106SOL    HW131217   4.219   6.338   0.492
10106SOL    HW231218   4.086   6.427   0.527
10107SOL     OW31219   6.398   1.359   5.956
10107SOL    HW131220   6.456   1.397   6.028
10107SOL    HW231221   6.314   1.414   5.949
10108SOL     OW31222   6.409   0.287   6.839
10108SOL    HW131223   6.467   0.210   6.865
10108SOL    HW231224   6.316   0.272   6.871
10109SOL     OW31225   5.443   6.754   0.344
10109SOL    HW131226   5.504   6.732   0.267
10109SOL    HW231227   5.425   6.852   0.345
10110SOL     OW31228   3.711   5.348   4.853
10110SOL    HW131229   3.730   5.367   4.756
10110SOL    HW231230   3.769   5.406   4.910
10111SOL     OW31231   5.768   3.447   3.584
10111SOL    HW131232   5.833   3.408   3.649
10111SOL    HW231233   5.733   3.374   3.525
10112SOL     OW31234   5.485   3.342   3.678
10112SOL    HW131235   5.570   3.304   3.642
10112SOL    HW231236   5.484   3.333   3.778
10113SOL     OW31237   4.016   0.419   7.007
10113SOL    HW131238   4.039   0.334   0.035
10113SOL    HW231239   4.045   0.412   6.911
10114SOL     OW31240   4.700   1.394   0.825
10114SOL    HW131241   4.648   1.440   0.753
10114SOL    HW231242   4.686   1.442   0.911
10115SOL     OW31243   3.725   1.033   4.693
10115SOL    HW131244   3.765   1.123   4.713
10115SOL    HW231245   3.640   1.023   4.744
10116SOL     OW31246   0.838   6.503   0.287
10116SOL    HW131247   0.789   6.419   0.310
10116SOL    HW231248   0.823   6.525   0.190
10117SOL     OW31249   6.549   5.984   5.719
10117SOL    HW131250   6.498   5.928   5.653
10117SOL    HW231251   6.647   5.965   5.710
10118SOL     OW31252   2.204   4.556   2.424
10118SOL    HW131253   2.211   4.477   2.485
10118SOL    HW231254   2.107   4.583   2.415
10119SOL     OW31255   0.432   5.600   4.224
10119SOL    HW131256   0.427   5.662   4.146
10119SOL    HW231257   0.460   5.651   4.305
10120SOL     OW31258   1.990   3.604   4.742
10120SOL    HW131259   2.032   3.529   4.793
10120SOL    HW231260   1.951   3.670   4.806
10121SOL     OW31261   6.188   3.459   6.812
10121SOL    HW131262   6.156   3.378   6.861
10121SOL    HW231263   6.178   3.540   6.871
10122SOL     OW31264   6.109   3.501   2.009
10122SOL    HW131265   6.133   3.598   2.003
10122SOL    HW231266   6.081   3.479   2.103
10123SOL     OW31267   5.122   6.544   6.761
10123SOL    HW131268   5.115   6.465   6.822
10123SOL    HW231269   5.033   6.590   6.755
10124SOL     OW31270   1.257   4.140   0.577
10124SOL    HW131271   1.221   4.174   0.664
10124SOL    HW231272   1.345   4.183   0.558
10125SOL     OW31273   1.800   0.682   2.060
10125SOL    HW131274   1.827   0.592   2.093
10125SOL    HW231275   1.881   0.735   2.038
10126SOL     OW31276   6.546   6.849   6.439
10126SOL    HW131277   6.616   6.817   6.375
10126SOL    HW231278   6.499   6.928   6.399
10127SOL     OW31279   2.713   4.505   6.465
10127SOL    HW131280   2.622   4.546   6.462
10127SOL    HW231281   2.782   4.577   6.472
10128SOL     OW31282   2.861   1.256   0.685
10128SOL    HW131283   2.781   1.286   0.633
10128SOL    HW231284   2.854   1.290   0.779
10129SOL     OW31285   5.919   1.834   1.976
10129SOL    HW131286   5.901   1.774   1.898
10129SOL    HW231287   5.898   1.786   2.061
10130SOL     OW31288   1.313   3.431   1.806
10130SOL    HW131289   1.330   3.480   1.720
10130SOL    HW231290   1.398   3.392   1.840
10131SOL     OW31291   1.351   6.937   4.820
10131SOL    HW131292   1.407   6.876   4.877
10131SOL    HW231293   1.261   6.948   4.863
10132SOL     OW31294   3.781   0.765   3.907
10132SOL    HW131295   3.711   0.831   3.937
10132SOL    HW231296   3.739   0.675   3.897
10133SOL     OW31297   3.484   6.658   0.505
10133SOL    HW131298   3.386   6.677   0.505
10133SOL    HW231299   3.498   6.559   0.505
10134SOL     OW31300   6.879   6.652   3.162
10134SOL    HW131301   6.947   6.639   3.234
10134SOL    HW231302   6.796   6.691   3.202
10135SOL     OW31303   5.258   2.912   3.555
10135SOL    HW131304   5.317   2.831   3.548
10135SOL    HW231305   5.269   2.968   3.473
10136SOL     OW31306   5.374   1.098   2.313
10136SOL    HW131307   5.384   1.190   2.351
10136SOL    HW231308   5.450   1.078   2.252
10137SOL     OW31309   6.936   3.340   4.633
10137SOL    HW131310   6.862   3.397   4.598
10137SOL    HW231311   0.001   3.393   4.636
10138SOL     OW31312   5.280   3.611   6.834
10138SOL    HW131313   5.332   3.532   6.867
10138SOL    HW231314   5.214   3.638   6.904
10139SOL     OW31315   2.935   3.459   3.570
10139SOL    HW131316   2.912   3.556   3.578
10139SOL    HW231317   2.927   3.416   3.660
10140SOL     OW31318   6.114   5.658   6.783
10140SOL    HW131319   6.115   5.576   6.839
10140SOL    HW231320   6.054   5.727   6.824
10141SOL     OW31321   3.926   1.054   5.556
10141SOL    HW131322   3.995   1.116   5.519
10141SOL    HW231323   3.962   1.007   5.636
10142SOL     OW31324   6.610   6.851   5.795
10142SOL    HW131325   6.565   6.923   5.744
10142SOL    HW231326   6.602   6.869   5.893
10143SOL     OW31327   5.450   1.208   6.863
10143SOL    HW131328   5.498   1.183   6.947
10143SOL    HW231329   5.378   1.141   6.844
10144SOL     OW31330   3.112   0.812   5.777
10144SOL    HW131331   3.163   0.754   5.714
10144SOL    HW231332   3.146   0.907   5.769
10145SOL     OW31333   3.086   5.011   4.024
10145SOL    HW131334   3.000   4.965   4.042
10145SOL    HW231335   3.121   4.982   3.935
10146SOL     OW31336   4.497   4.514   4.756
10146SOL    HW131337   4.435   4.548   4.685
10146SOL    HW231338   4.450   4.512   4.844
10147SOL     OW31339   5.289   4.086   5.366
10147SOL    HW131340   5.248   4.024   5.300
10147SOL    HW231341   5.328   4.033   5.442
10148SOL     OW31342   5.101   4.918   6.264
10148SOL    HW131343   5.071   4.823   6.270
10148SOL    HW231344   5.031   4.972   6.217
10149SOL     OW31345   5.781   3.442   1.311
10149SOL    HW131346   5.859   3.380   1.315
10149SOL    HW231347   5.730   3.427   1.227
10150SOL     OW31348   3.501   3.250   0.563
10150SOL    HW131349   3.519   3.325   0.627
10150SOL    HW231350   3.533   3.277   0.472
10151SOL     OW31351   0.470   5.679   0.025
10151SOL    HW131352   0.494   5.744   6.973
10151SOL    HW231353   0.457   5.588   7.005
10152SOL     OW31354   6.999   6.099   4.219
10152SOL    HW131355   0.061   6.140   4.179
10152SOL    HW231356   7.003   6.000   4.209
10153SOL     OW31357   4.678   5.931   3.581
10153SOL    HW131358   4.642   5.900   3.668
10153SOL    HW231359   4.771   5.967   3.593
10154SOL     OW31360   4.104   6.691   5.273
10154SOL    HW131361   4.169   6.617   5.258
10154SOL    HW231362   4.133   6.746   5.351
10155SOL     OW31363   3.654   2.186   5.997
10155SOL    HW131364   3.680   2.282   6.003
10155SOL    HW231365   3.612   2.157   6.083
10156SOL     OW31366   5.899   0.949   2.204
10156SOL    HW131367   5.887   0.863   2.252
10156SOL    HW231368   5.944   0.933   2.116
10157SOL     OW31369   6.985   1.717   0.725
10157SOL    HW131370   6.968   1.775   0.805
10157SOL    HW231371   6.961   1.623   0.747
10158SOL     OW31372   6.197   5.788   0.895
10158SOL    HW131373   6.188   5.746   0.804
10158SOL    HW231374   6.175   5.885   0.889
10159SOL     OW31375   2.062   3.205   0.583
10159SOL    HW131376   1.983   3.167   0.535
10159SOL    HW231377   2.034   3.287   0.633
10160SOL     OW31378   1.846   3.253   2.169
10160SOL    HW131379   1.764   3.233   2.117
10160SOL    HW231380   1.861   3.181   2.237
10161SOL     OW31381   3.880   3.367   0.735
10161SOL    HW131382   3.935   3.338   0.813
10161SOL    HW231383   3.880   3.467   0.730
10162SOL     OW31384   3.892   4.577   0.834
10162SOL    HW131385   3.947   4.648   0.879
10162SOL    HW231386   3.795   4.598   0.846
10163SOL     OW31387   6.246   4.108   6.716
10163SOL    HW131388   6.178   4.066   6.775
10163SOL    HW231389   6.203   4.137   6.630
10164SOL     OW31390   6.058   3.270   3.993
10164SOL    HW131391   6.007   3.350   4.025
10164SOL    HW231392   6.008   3.227   3.918
10165SOL     OW31393   6.689   1.303   3.339
10165SOL    HW131394   6.643   1.292   3.251
10165SOL    HW231395   6.766   1.367   3.328
10166SOL     OW31396   3.432   1.722   1.921
10166SOL    HW131397   3.467   1.640   1.965
10166SOL    HW231398   3.473   1.803   1.963
10167SOL     OW31399   1.253   4.646   6.958
10167SOL    HW131400   1.307   4.730   6.948
10167SOL    HW231401   1.309   4.567   6.930
10168SOL     OW31402   5.654   2.760   6.590
10168SOL    HW131403   5.754   2.766   6.586
10168SOL    HW231404   5.621   2.698   6.519
10169SOL     OW31405   6.864   4.423   3.403
10169SOL    HW131406   6.943   4.439   3.343
10169SOL    HW231407   6.781   4.459   3.359
10170SOL     OW31408   6.536   5.295   5.459
10170SOL    HW131409   6.611   5.251   5.509
10170SOL    HW231410   6.510   5.237   5.381
10171SOL     OW31411   0.100   2.234   4.407
10171SOL    HW131412   0.034   2.162   4.385
10171SOL    HW231413   0.179   2.194   4.452
10172SOL     OW31414   0.783   6.148   5.302
10172SOL    HW131415   0.702   6.147   5.243
10172SOL    HW231416   0.757   6.118   5.394
10173SOL     OW31417   1.961   2.439   0.407
10173SOL    HW131418   2.029   2.431   0.334
10173SOL    HW231419   1.870   2.450   0.366
10174SOL     OW31420   5.262   4.591   3.623
10174SOL    HW131421   5.204   4.525   3.576
10174SOL    HW231422   5.355   4.586   3.585
10175SOL     OW31423   5.417   1.682   2.797
10175SOL    HW131424   5.379   1.593   2.825
10175SOL    HW231425   5.421   1.742   2.876
10176SOL     OW31426   0.269   3.260   5.449
10176SOL    HW131427   0.237   3.324   5.518
10176SOL    HW231428   0.356   3.293   5.412
10177SOL     OW31429   2.369   1.387   1.806
10177SOL    HW131430   2.439   1.343   1.751
10177SOL    HW231431   2.288   1.405   1.750
10178SOL     OW31432   0.303   1.124   6.699
10178SOL    HW131433   0.380   1.186   6.714
10178SOL    HW231434   0.333   1.046   6.644
10179SOL     OW31435   0.736   2.741   6.630
10179SOL    HW131436   0.670   2.797   6.680
10179SOL    HW231437   0.770   2.792   6.551
10180SOL     OW31438   3.985   0.888   5.784
10180SOL    HW131439   3.988   0.791   5.810
10180SOL    HW231440   4.077   0.926   5.786
10181SOL     OW31441   6.404   3.543   1.487
10181SOL    HW131442   6.345   3.573   1.561
10181SOL    HW231443   6.348   3.514   1.409
10182SOL     OW31444   4.758   0.726   1.852
10182SOL    HW131445   4.773   0.667   1.931
10182SOL    HW231446   4.679   0.693   1.800
10183SOL     OW31447   6.308   3.024   6.528
10183SOL    HW131448   6.250   3.061   6.601
10183SOL    HW231449   6.302   3.083   6.448
10184SOL     OW31450   4.038   1.273   6.207
10184SOL    HW131451   4.124   1.229   6.183
10184SOL    HW231452   3.963   1.208   6.194
10185SOL     OW31453   6.046   6.210   2.937
10185SOL    HW131454   6.034   6.214   2.838
10185SOL    HW231455   6.143   6.226   2.959
10186SOL     OW31456   5.294   3.684   4.025
10186SOL    HW131457   5.339   3.763   4.065
10186SOL    HW231458   5.279   3.614   4.095
10187SOL     OW31459   1.383   3.521   0.144
10187SOL    HW131460   1.315   3.460   0.102
10187SOL    HW231461   1.357   3.539   0.239
10188SOL     OW31462   4.174   4.499   0.300
10188SOL    HW131463   4.127   4.571   0.249
10188SOL    HW231464   4.107   4.433   0.335
10189SOL     OW31465   0.656   1.319   6.558
10189SOL    HW131466   0.751   1.339   6.583
10189SOL    HW231467   0.632   1.370   6.476
10190SOL     OW31468   4.881   3.083   1.267
10190SOL    HW131469   4.944   3.030   1.209
10190SOL    HW231470   4.793   3.035   1.274
10191SOL     OW31471   3.867   5.831   6.516
10191SOL    HW131472   3.869   5.740   6.475
10191SOL    HW231473   3.774   5.867   6.512
10192SOL     OW31474   4.317   1.490   5.414
10192SOL    HW131475   4.249   1.558   5.441
10192SOL    HW231476   4.316   1.479   5.315
10193SOL     OW31477   3.779   2.872   1.939
10193SOL    HW131478   3.792   2.854   2.036
10193SOL    HW231479   3.706   2.940   1.927
10194SOL     OW31480   5.137   6.274   5.708
10194SOL    HW131481   5.211   6.210   5.728
10194SOL    HW231482   5.065   6.263   5.776
10195SOL     OW31483   6.636   5.943   0.470
10195SOL    HW131484   6.608   5.959   0.375
10195SOL    HW231485   6.616   6.024   0.525
10196SOL     OW31486   4.311   2.118   3.903
10196SOL    HW131487   4.261   2.041   3.864
10196SOL    HW231488   4.409   2.104   3.892
10197SOL     OW31489   5.603   1.669   4.758
10197SOL    HW131490   5.640   1.682   4.850
10197SOL    HW231491   5.677   1.652   4.694
10198SOL     OW31492   2.659   6.784   2.781
10198SOL    HW131493   2.759   6.790   2.786
10198SOL    HW231494   2.632   6.753   2.690
10199SOL     OW31495   1.446   2.931   0.677
10199SOL    HW131496   1.367   2.936   0.739
10199SOL    HW231497   1.509   2.860   0.708
10200SOL     OW31498   4.856   2.909   6.029
10200SOL    HW131499   4.944   2.956   6.033
10200SOL    HW231500   4.787   2.961   6.080
10201SOL     OW31501   1.201   5.124   0.368
10201SOL    HW131502   1.122   5.160   0.318
10201SOL    HW231503   1.268   5.087   0.303
10202SOL     OW31504   3.003   4.990   0.556
10202SOL    HW131505   2.956   5.024   0.475
10202SOL    HW231506   2.973   4.896   0.575
10203SOL     OW31507   6.963   2.718   2.781
10203SOL    HW131508   6.912   2.635   2.804
10203SOL    HW231509   0.026   2.693   2.731
10204SOL     OW31510   4.140   5.550   6.744
10204SOL    HW131511   4.146   5.459   6.786
10204SOL    HW231512   4.044   5.571   6.725
10205SOL     OW31513   2.405   0.634   1.805
10205SOL    HW131514   2.458   0.614   1.723
10205SOL    HW231515   2.466   0.668   1.876
10206SOL     OW31516   6.837   7.011   6.685
10206SOL    HW131517   6.812   6.927   6.734
10206SOL    HW231518   6.931   7.005   6.652
10207SOL     OW31519   0.617   2.340   0.031
10207SOL    HW131520   0.570   2.317   6.966
10207SOL    HW231521   0.654   2.433   0.025
10208SOL     OW31522   6.144   5.074   4.194
10208SOL    HW131523   6.217   5.051   4.129
10208SOL    HW231524   6.079   4.998   4.199
10209SOL     OW31525   0.070   6.691   6.583
10209SOL    HW131526   0.064   6.620   6.653
10209SOL    HW231527   0.114   6.655   6.501
10210SOL     OW31528   4.539   6.415   1.446
10210SOL    HW131529   4.508   6.322   1.463
10210SOL    HW231530   4.460   6.473   1.425
10211SOL     OW31531   4.840   6.072   4.682
10211SOL    HW131532   4.929   6.080   4.726
10211SOL    HW231533   4.784   6.007   4.732
10212SOL     OW31534   0.566   7.010   5.649
10212SOL    HW131535   0.482   0.026   5.691
10212SOL    HW231536   0.542   6.957   5.568
10213SOL     OW31537   5.596   2.454   1.698
10213SOL    HW131538   5.563   2.365   1.668
10213SOL    HW231539   5.642   2.500   1.622
10214SOL     OW31540   0.178   1.614   1.541
10214SOL    HW131541   0.207   1.709   1.538
10214SOL    HW231542   0.079   1.609   1.528
10215SOL     OW31543   3.707   3.247   3.835
10215SOL    HW131544   3.612   3.220   3.850
10215SOL    HW231545   3.716   3.284   3.742
10216SOL     OW31546   0.089   1.079   1.391
10216SOL    HW131547   0.165   1.123   1.440
10216SOL    HW231548   0.125   1.032   1.311
10217SOL     OW31549   2.502   1.529   3.327
10217SOL    HW131550   2.525   1.442   3.369
10217SOL    HW231551   2.575   1.556   3.264
10218SOL     OW31552   0.699   1.168   1.551
10218SOL    HW131553   0.766   1.241   1.563
10218SOL    HW231554   0.735   1.083   1.590
10219SOL     OW31555   0.223   2.315   2.583
10219SOL    HW131556   0.242   2.259   2.664
10219SOL    HW231557   0.304   2.318   2.525
10220SOL     OW31558   4.587   1.943   1.057
10220SOL    HW131559   4.609   1.881   1.133
10220SOL    HW231560   4.500   1.916   1.017
10221SOL     OW31561   1.866   4.336   4.823
10221SOL    HW131562   1.785   4.278   4.815
10221SOL    HW231563   1.838   4.433   4.824
10222SOL     OW31564   2.977   4.246   5.237
10222SOL    HW131565   2.956   4.337   5.202
10222SOL    HW231566   2.897   4.186   5.223
10223SOL     OW31567   2.677   5.167   1.075
10223SOL    HW131568   2.734   5.246   1.096
10223SOL    HW231569   2.595   5.197   1.025
10224SOL     OW31570   6.234   2.563   5.843
10224SOL    HW131571   6.237   2.545   5.744
10224SOL    HW231572   6.327   2.573   5.878
10225SOL     OW31573   1.754   6.084   5.292
10225SOL    HW131574   1.830   6.144   5.268
10225SOL    HW231575   1.677   6.138   5.324
10226SOL     OW31576   2.008   0.268   6.089
10226SOL    HW131577   1.937   0.309   6.147
10226SOL    HW231578   1.999   0.302   5.996
10227SOL     OW31579   5.335   5.070   0.173
10227SOL    HW131580   5.432   5.047   0.184
10227SOL    HW231581   5.307   5.053   0.078
10228SOL     OW31582   0.742   6.153   1.838
10228SOL    HW131583   0.769   6.068   1.884
10228SOL    HW231584   0.790   6.159   1.750
10229SOL     OW31585   1.873   2.892   5.084
10229SOL    HW131586   1.818   2.825   5.135
10229SOL    HW231587   1.968   2.889   5.116
10230SOL     OW31588   6.201   6.414   3.240
10230SOL    HW131589   6.144   6.397   3.160
10230SOL    HW231590   6.234   6.509   3.238
10231SOL     OW31591   6.372   4.830   5.000
10231SOL    HW131592   6.336   4.839   5.093
10231SOL    HW231593   6.318   4.888   4.938
10232SOL     OW31594   3.372   1.424   3.644
10232SOL    HW131595   3.432   1.458   3.718
10232SOL    HW231596   3.309   1.496   3.617
10233SOL     OW31597   3.647   3.967   5.032
10233SOL    HW131598   3.549   3.990   5.033
10233SOL    HW231599   3.662   3.885   5.086
10234SOL     OW31600   5.219   0.901   0.556
10234SOL    HW131601   5.310   0.887   0.597
10234SOL    HW231602   5.157   0.938   0.625
10235SOL     OW31603   3.295   2.232   1.340
10235SOL    HW131604   3.390   2.204   1.354
10235SOL    HW231605   3.234   2.160   1.372
10236SOL     OW31606   1.664   1.296   1.679
10236SOL    HW131607   1.587   1.265   1.623
10236SOL    HW231608   1.683   1.392   1.660
10237SOL     OW31609   7.002   4.661   6.530
10237SOL    HW131610   6.960   4.693   6.445
10237SOL    HW231611   7.012   4.562   6.527
10238SOL     OW31612   4.025   3.827   2.266
10238SOL    HW131613   3.952   3.878   2.312
10238SOL    HW231614   4.086   3.788   2.335
10239SOL     OW31615   2.450   3.639   5.812
10239SOL    HW131616   2.456   3.647   5.712
10239SOL    HW231617   2.354   3.647   5.840
10240SOL     OW31618   2.032   4.266   2.340
10240SOL    HW131619   2.018   4.188   2.279
10240SOL    HW231620   2.038   4.235   2.434
10241SOL     OW31621   0.251   6.373   3.646
10241SOL    HW131622   0.292   6.408   3.562
10241SOL    HW231623   0.241   6.274   3.641
10242SOL     OW31624   0.539   1.426   1.494
10242SOL    HW131625   0.457   1.402   1.547
10242SOL    HW231626   0.593   1.344   1.478
10243SOL     OW31627   2.405   4.412   2.949
10243SOL    HW131628   2.433   4.428   2.854
10243SOL    HW231629   2.418   4.496   3.002
10244SOL     OW31630   1.532   4.410   1.091
10244SOL    HW131631   1.502   4.338   1.155
10244SOL    HW231632   1.506   4.384   0.998
10245SOL     OW31633   3.877   4.053   1.443
10245SOL    HW131634   3.851   3.966   1.485
10245SOL    HW231635   3.952   4.038   1.379
10246SOL     OW31636   3.396   3.216   3.457
10246SOL    HW131637   3.306   3.202   3.414
10246SOL    HW231638   3.426   3.131   3.500
10247SOL     OW31639   0.148   4.317   6.656
10247SOL    HW131640   0.157   4.335   6.558
10247SOL    HW231641   0.168   4.400   6.707
10248SOL     OW31642   1.653   6.444   2.756
10248SOL    HW131643   1.564   6.419   2.718
10248SOL    HW231644   1.690   6.523   2.707
10249SOL     OW31645   2.313   6.052   6.404
10249SOL    HW131646   2.265   6.018   6.323
10249SOL    HW231647   2.314   5.981   6.475
10250SOL     OW31648   6.374   2.414   1.970
10250SOL    HW131649   6.418   2.454   1.890
10250SOL    HW231650   6.332   2.326   1.945
10251SOL     OW31651   2.152   1.295   4.806
10251SOL    HW131652   2.181   1.215   4.857
10251SOL    HW231653   2.232   1.340   4.766
10252SOL     OW31654   4.037   4.891   5.786
10252SOL    HW131655   4.085   4.870   5.701
10252SOL    HW231656   3.962   4.826   5.799
10253SOL     OW31657   2.465   0.136   0.513
10253SOL    HW131658   2.397   0.065   0.534
10253SOL    HW231659   2.523   0.151   0.594
10254SOL     OW31660   4.977   1.059   5.647
10254SOL    HW131661   5.074   1.039   5.662
10254SOL    HW231662   4.955   1.148   5.688
10255SOL     OW31663   2.470   6.157   1.291
10255SOL    HW131664   2.542   6.109   1.341
10255SOL    HW231665   2.386   6.103   1.295
10256SOL     OW31666   4.849   1.744   1.541
10256SOL    HW131667   4.864   1.670   1.607
10256SOL    HW231668   4.830   1.829   1.591
10257SOL     OW31669   1.957   4.786   4.469
10257SOL    HW131670   1.968   4.691   4.498
10257SOL    HW231671   2.017   4.845   4.523
10258SOL     OW31672   3.252   1.147   3.710
10258SOL    HW131673   3.268   1.224   3.771
10258SOL    HW231674   3.320   1.076   3.727
10259SOL     OW31675   1.131   4.972   3.075
10259SOL    HW131676   1.205   4.922   3.120
10259SOL    HW231677   1.124   5.064   3.115
10260SOL     OW31678   1.891   1.253   3.700
10260SOL    HW131679   1.912   1.173   3.644
10260SOL    HW231680   1.960   1.324   3.685
10261SOL     OW31681   6.693   5.036   2.396
10261SOL    HW131682   6.783   5.079   2.386
10261SOL    HW231683   6.643   5.043   2.309
10262SOL     OW31684   2.665   6.894   5.293
10262SOL    HW131685   2.638   6.801   5.268
10262SOL    HW231686   2.681   6.948   5.211
10263SOL     OW31687   5.459   6.858   6.640
10263SOL    HW131688   5.404   6.919   6.696
10263SOL    HW231689   5.553   6.857   6.673
10264SOL     OW31690   6.035   6.833   6.788
10264SOL    HW131691   6.002   6.833   6.882
10264SOL    HW231692   6.135   6.839   6.788
10265SOL     OW31693   2.391   2.798   1.654
10265SOL    HW131694   2.298   2.835   1.657
10265SOL    HW231695   2.453   2.863   1.698
10266SOL     OW31696   3.972   3.568   4.083
10266SOL    HW131697   4.029   3.542   4.005
10266SOL    HW231698   3.904   3.497   4.100
10267SOL     OW31699   5.822   2.439   6.561
10267SOL    HW131700   5.837   2.392   6.648
10267SOL    HW231701   5.845   2.536   6.570
10268SOL     OW31702   6.325   5.749   2.435
10268SOL    HW131703   6.257   5.694   2.387
10268SOL    HW231704   6.286   5.837   2.461
10269SOL     OW31705   0.226   3.729   6.904
10269SOL    HW131706   0.183   3.641   6.885
10269SOL    HW231707   0.157   3.795   6.932
10270SOL     OW31708   3.935   4.806   2.665
10270SOL    HW131709   4.035   4.808   2.665
10270SOL    HW231710   3.903   4.739   2.598
10271SOL     OW31711   3.353   2.406   6.165
10271SOL    HW131712   3.377   2.499   6.196
10271SOL    HW231713   3.388   2.339   6.230
10272SOL     OW31714   1.341   1.746   5.185
10272SOL    HW131715   1.346   1.742   5.085
10272SOL    HW231716   1.361   1.656   5.223
10273SOL     OW31717   3.179   5.520   2.764
10273SOL    HW131718   3.232   5.522   2.849
10273SOL    HW231719   3.139   5.609   2.748
10274SOL     OW31720   0.989   5.964   5.278
10274SOL    HW131721   0.896   5.995   5.300
10274SOL    HW231722   0.990   5.923   5.187
10275SOL     OW31723   6.991   6.452   1.997
10275SOL    HW131724   0.069   6.444   2.015
10275SOL    HW231725   6.977   6.492   1.906
10276SOL     OW31726   5.106   4.971   5.652
10276SOL    HW131727   5.194   5.008   5.684
10276SOL    HW231728   5.120   4.917   5.570
10277SOL     OW31729   1.435   5.549   4.111
10277SOL    HW131730   1.350   5.579   4.069
10277SOL    HW231731   1.499   5.626   4.116
10278SOL     OW31732   0.583   2.060   4.189
10278SOL    HW131733   0.666   2.049   4.134
10278SOL    HW231734   0.504   2.071   4.128
10279SOL     OW31735   2.121   5.008   4.331
10279SOL    HW131736   2.065   4.951   4.391
10279SOL    HW231737   2.214   4.973   4.329
10280SOL     OW31738   0.131   3.139   0.651
10280SOL    HW131739   0.052   3.085   0.621
10280SOL    HW231740   0.159   3.110   0.743
10281SOL     OW31741   5.700   1.385   2.375
10281SOL    HW131742   5.679   1.288   2.392
10281SOL    HW231743   5.627   1.425   2.320
10282SOL     OW31744   5.188   3.037   4.248
10282SOL    HW131745   5.153   2.983   4.325
10282SOL    HW231746   5.161   2.995   4.162
10283SOL     OW31747   1.085   3.308   0.799
10283SOL    HW131748   1.176   3.266   0.787
10283SOL    HW231749   1.067   3.370   0.723
10284SOL     OW31750   5.393   2.512   4.896
10284SOL    HW131751   5.471   2.538   4.953
10284SOL    HW231752   5.407   2.420   4.860
10285SOL     OW31753   6.118   0.134   2.731
10285SOL    HW131754   6.161   0.065   2.673
10285SOL    HW231755   6.187   0.176   2.790
10286SOL     OW31756   3.521   1.702   3.218
10286SOL    HW131757   3.421   1.711   3.224
10286SOL    HW231758   3.547   1.608   3.241
10287SOL     OW31759   1.948   6.925   1.168
10287SOL    HW131760   1.992   6.881   1.089
10287SOL    HW231761   2.006   6.999   1.201
10288SOL     OW31762   4.848   5.959   3.198
10288SOL    HW131763   4.882   6.049   3.172
10288SOL    HW231764   4.748   5.956   3.188
10289SOL     OW31765   2.139   6.372   0.247
10289SOL    HW131766   2.051   6.411   0.276
10289SOL    HW231767   2.198   6.446   0.214
10290SOL     OW31768   3.335   3.972   2.885
10290SOL    HW131769   3.394   4.049   2.860
10290SOL    HW231770   3.290   3.937   2.803
10291SOL     OW31771   4.490   1.641   2.845
10291SOL    HW131772   4.553   1.564   2.844
10291SOL    HW231773   4.415   1.625   2.781
10292SOL     OW31774   1.586   1.175   5.264
10292SOL    HW131775   1.584   1.077   5.281
10292SOL    HW231776   1.655   1.218   5.322
10293SOL     OW31777   2.230   4.321   2.593
10293SOL    HW131778   2.174   4.239   2.582
10293SOL    HW231779   2.205   4.367   2.678
10294SOL     OW31780   5.643   3.191   3.113
10294SOL    HW131781   5.737   3.199   3.145
10294SOL    HW231782   5.593   3.126   3.171
10295SOL     OW31783   0.169   4.619   5.350
10295SOL    HW131784   0.267   4.609   5.333
10295SOL    HW231785   0.122   4.538   5.315
10296SOL     OW31786   5.182   1.298   7.000
10296SOL    HW131787   5.256   1.241   6.965
10296SOL    HW231788   5.193   1.391   6.964
10297SOL     OW31789   1.767   0.108   6.345
10297SOL    HW131790   1.850   0.151   6.380
10297SOL    HW231791   1.697   0.177   6.332
10298SOL     OW31792   2.810   4.592   1.600
10298SOL    HW131793   2.845   4.556   1.686
10298SOL    HW231794   2.711   4.575   1.595
10299SOL     OW31795   5.027   4.995   2.885
10299SOL    HW131796   5.011   5.094   2.889
10299SOL    HW231797   4.981   4.958   2.805
10300SOL     OW31798   1.506   4.135   2.650
10300SOL    HW131799   1.560   4.152   2.568
10300SOL    HW231800   1.491   4.037   2.661
10301SOL     OW31801   5.011   2.317   4.068
10301SOL    HW131802   4.939   2.266   4.021
10301SOL    HW231803   4.972   2.370   4.143
10302SOL     OW31804   1.940   6.958   4.320
10302SOL    HW131805   1.982   6.945   4.230
10302SOL    HW231806   1.888   0.024   4.321
10303SOL     OW31807   2.080   6.242   3.005
10303SOL    HW131808   2.084   6.328   2.953
10303SOL    HW231809   2.024   6.256   3.086
10304SOL     OW31810   5.708   6.788   1.356
10304SOL    HW131811   5.707   6.846   1.274
10304SOL    HW231812   5.707   6.846   1.438
10305SOL     OW31813   0.925   4.344   6.764
10305SOL    HW131814   0.960   4.284   6.836
10305SOL    HW231815   0.884   4.425   6.805
10306SOL     OW31816   4.776   6.963   6.587
10306SOL    HW131817   4.722   6.879   6.591
10306SOL    HW231818   4.718   0.022   6.606
10307SOL     OW31819   2.250   2.407   5.251
10307SOL    HW131820   2.216   2.480   5.311
10307SOL    HW231821   2.254   2.440   5.157
10308SOL     OW31822   1.971   4.149   3.373
10308SOL    HW131823   1.926   4.217   3.431
10308SOL    HW231824   1.956   4.172   3.277
10309SOL     OW31825   6.833   1.241   5.385
10309SOL    HW131826   6.810   1.263   5.290
10309SOL    HW231827   6.928   1.210   5.390
10310SOL     OW31828   3.285   3.669   0.940
10310SOL    HW131829   3.276   3.585   0.886
10310SOL    HW231830   3.211   3.674   1.007
10311SOL     OW31831   0.046   6.221   0.460
10311SOL    HW131832   0.064   6.305   0.408
10311SOL    HW231833   0.007   6.152   0.400
10312SOL     OW31834   3.679   6.159   2.445
10312SOL    HW131835   3.669   6.257   2.429
10312SOL    HW231836   3.704   6.113   2.360
10313SOL     OW31837   4.807   6.555   1.121
10313SOL    HW131838   4.875   6.524   1.056
10313SOL    HW231839   4.828   6.519   1.212
10314SOL     OW31840   6.477   0.918   2.008
10314SOL    HW131841   6.409   0.983   2.043
10314SOL    HW231842   6.506   0.946   1.917
10315SOL     OW31843   4.675   5.786   5.120
10315SOL    HW131844   4.741   5.857   5.142
10315SOL    HW231845   4.619   5.766   5.201
10316SOL     OW31846   6.329   1.609   4.169
10316SOL    HW131847   6.323   1.692   4.114
10316SOL    HW231848   6.254   1.548   4.144
10317SOL     OW31849   4.540   5.659   4.535
10317SOL    HW131850   4.630   5.662   4.492
10317SOL    HW231851   4.519   5.566   4.564
10318SOL     OW31852   5.217   6.157   6.994
10318SOL    HW131853   5.300   6.101   6.993
10318SOL    HW231854   5.140   6.102   6.960
10319SOL     OW31855   1.292   3.024   5.327
10319SOL    HW131856   1.295   3.119   5.358
10319SOL    HW231857   1.212   2.978   5.366
10320SOL     OW31858   0.377   0.925   2.875
10320SOL    HW131859   0.291   0.874   2.885
10320SOL    HW231860   0.452   0.862   2.860
10321SOL     OW31861   4.093   2.014   1.505
10321SOL    HW131862   4.151   2.089   1.473
10321SOL    HW231863   4.114   1.995   1.601
10322SOL     OW31864   6.536   5.618   5.247
10322SOL    HW131865   6.583   5.548   5.194
10322SOL    HW231866   6.526   5.588   5.341
10323SOL     OW31867   5.805   2.738   5.743
10323SOL    HW131868   5.877   2.805   5.722
10323SOL    HW231869   5.719   2.785   5.761
10324SOL     OW31870   3.476   3.375   2.504
10324SOL    HW131871   3.539   3.408   2.434
10324SOL    HW231872   3.517   3.296   2.550
10325SOL     OW31873   0.420   4.275   2.049
10325SOL    HW131874   0.485   4.244   2.118
10325SOL    HW231875   0.357   4.201   2.026
10326SOL     OW31876   3.562   4.271   0.342
10326SOL    HW131877   3.546   4.368   0.361
10326SOL    HW231878   3.514   4.246   0.257
10327SOL     OW31879   2.539   1.954   1.553
10327SOL    HW131880   2.526   1.968   1.652
10327SOL    HW231881   2.561   1.858   1.536
10328SOL     OW31882   5.892   2.917   0.785
10328SOL    HW131883   5.879   3.016   0.781
10328SOL    HW231884   5.860   2.875   0.700
10329SOL     OW31885   3.733   0.205   3.854
10329SOL    HW131886   3.744   0.159   3.942
10329SOL    HW231887   3.665   0.277   3.861
10330SOL     OW31888   4.689   0.339   2.290
10330SOL    HW131889   4.718   0.366   2.198
10330SOL    HW231890   4.737   0.256   2.318
10331SOL     OW31891   0.061   1.134   5.378
10331SOL    HW131892   0.111   1.076   5.443
10331SOL    HW231893   7.015   1.079   5.327
10332SOL     OW31894   6.326   0.683   0.560
10332SOL    HW131895   6.399   0.743   0.527
10332SOL    HW231896   6.241   0.703   0.511
10333SOL     OW31897   6.337   4.065   4.466
10333SOL    HW131898   6.328   4.075   4.565
10333SOL    HW231899   6.247   4.076   4.423
10334SOL     OW31900   3.952   6.400   3.669
10334SOL    HW131901   3.935   6.412   3.767
10334SOL    HW231902   4.020   6.466   3.639
10335SOL     OW31903   2.989   4.497   6.894
10335SOL    HW131904   3.070   4.516   6.838
10335SOL    HW231905   2.922   4.448   6.839
10336SOL     OW31906   6.707   6.205   2.926
10336SOL    HW131907   6.775   6.168   2.862
10336SOL    HW231908   6.658   6.280   2.883
10337SOL     OW31909   0.022   6.485   5.719
10337SOL    HW131910   0.087   6.520   5.786
10337SOL    HW231911   6.949   6.499   5.753
10338SOL     OW31912   2.127   6.257   2.514
10338SOL    HW131913   2.167   6.244   2.605
10338SOL    HW231914   2.199   6.249   2.445
10339SOL     OW31915   3.680   4.774   0.126
10339SOL    HW131916   3.648   4.772   0.221
10339SOL    HW231917   3.701   4.681   0.096
10340SOL     OW31918   2.185   4.898   1.393
10340SOL    HW131919   2.205   4.942   1.481
10340SOL    HW231920   2.151   4.965   1.328
10341SOL     OW31921   1.959   3.595   1.669
10341SOL    HW131922   1.992   3.656   1.741
10341SOL    HW231923   2.014   3.512   1.668
10342SOL     OW31924   1.084   0.027   5.468
10342SOL    HW131925   1.112   0.107   5.521
10342SOL    HW231926   1.164   7.006   5.424
10343SOL     OW31927   3.302   5.952   6.913
10343SOL    HW131928   3.375   5.956   6.982
10343SOL    HW231929   3.291   5.858   6.883
10344SOL     OW31930   4.554   4.161   1.618
10344SOL    HW131931   4.490   4.167   1.694
10344SOL    HW231932   4.644   4.131   1.651
10345SOL     OW31933   1.522   1.323   0.193
10345SOL    HW131934   1.428   1.290   0.197
10345SOL    HW231935   1.526   1.409   0.141
10346SOL     OW31936   6.426   0.061   1.721
10346SOL    HW131937   6.460   0.036   1.631
10346SOL    HW231938   6.499   0.104   1.774
10347SOL     OW31939   4.866   2.180   2.491
10347SOL    HW131940   4.935   2.109   2.504
10347SOL    HW231941   4.776   2.144   2.516
10348SOL     OW31942   6.288   1.239   0.429
10348SOL    HW131943   6.306   1.230   0.331
10348SOL    HW231944   6.202   1.288   0.443
10349SOL     OW31945   6.881   1.100   1.127
10349SOL    HW131946   6.883   1.018   1.185
10349SOL    HW231947   6.974   1.133   1.112
10350SOL     OW31948   2.009   6.928   5.385
10350SOL    HW131949   1.985   6.980   5.303
10350SOL    HW231950   2.083   6.974   5.433
10351SOL     OW31951   4.516   5.165   6.309
10351SOL    HW131952   4.519   5.263   6.329
10351SOL    HW231953   4.560   5.115   6.383
10352SOL     OW31954   4.475   2.329   6.431
10352SOL    HW131955   4.480   2.311   6.333
10352SOL    HW231956   4.456   2.426   6.447
10353SOL     OW31957   0.394   2.771   5.923
10353SOL    HW131958   0.462   2.699   5.909
10353SOL    HW231959   0.429   2.857   5.888
10354SOL     OW31960   6.112   2.527   2.002
10354SOL    HW131961   6.197   2.475   2.013
10354SOL    HW231962   6.057   2.485   1.931
10355SOL     OW31963   1.679   0.046   2.083
10355SOL    HW131964   1.678   0.117   2.153
10355SOL    HW231965   1.750   6.999   2.103
10356SOL     OW31966   0.058   4.501   6.102
10356SOL    HW131967   6.998   4.452   6.069
10356SOL    HW231968   0.083   4.573   6.037
10357SOL     OW31969   2.929   3.097   6.414
10357SOL    HW131970   2.926   3.054   6.324
10357SOL    HW231971   2.975   3.185   6.408
10358SOL     OW31972   6.471   3.004   3.584
10358SOL    HW131973   6.458   3.089   3.635
10358SOL    HW231974   6.553   2.957   3.618
10359SOL     OW31975   6.772   1.672   1.181
10359SOL    HW131976   6.852   1.706   1.229
10359SOL    HW231977   6.701   1.742   1.178
10360SOL     OW31978   3.939   5.911   2.210
10360SOL    HW131979   4.003   5.860   2.267
10360SOL    HW231980   3.846   5.881   2.230
10361SOL     OW31981   2.705   0.742   2.946
10361SOL    HW131982   2.674   0.647   2.952
10361SOL    HW231983   2.729   0.763   2.851
10362SOL     OW31984   0.652   5.125   3.968
10362SOL    HW131985   0.554   5.141   3.973
10362SOL    HW231986   0.671   5.029   3.991
10363SOL     OW31987   4.493   2.225   0.931
10363SOL    HW131988   4.546   2.141   0.937
10363SOL    HW231989   4.423   2.215   0.860
10364SOL     OW31990   4.039   3.694   2.503
10364SOL    HW131991   3.942   3.682   2.486
10364SOL    HW231992   4.073   3.619   2.559
10365SOL     OW31993   5.065   4.531   5.277
10365SOL    HW131994   5.015   4.534   5.364
10365SOL    HW231995   5.012   4.478   5.211
10366SOL     OW31996   4.992   0.159   3.928
10366SOL    HW131997   5.000   0.074   3.877
10366SOL    HW231998   4.964   0.140   4.021
10367SOL     OW31999   6.890   1.188   1.736
10367SOL    HW132000   6.877   1.195   1.637
10367SOL    HW232001   6.806   1.220   1.782
10368SOL     OW32002   2.081   0.614   2.082
10368SOL    HW132003   2.123   0.660   2.004
10368SOL    HW232004   2.089   0.671   2.163
10369SOL     OW32005   4.276   1.461   5.150
10369SOL    HW132006   4.277   1.512   5.064
10369SOL    HW232007   4.275   1.363   5.131
10370SOL     OW32008   5.666   1.934   5.156
10370SOL    HW132009   5.639   1.874   5.231
10370SOL    HW232010   5.589   1.946   5.093
10371SOL     OW32011   1.882   5.840   4.145
10371SOL    HW132012   1.975   5.816   4.117
10371SOL    HW232013   1.865   5.936   4.125
10372SOL     OW32014   1.596   1.348   0.764
10372SOL    HW132015   1.594   1.266   0.820
10372SOL    HW232016   1.578   1.324   0.669
10373SOL     OW32017   1.926   6.733   4.784
10373SOL    HW132018   1.977   6.746   4.699
10373SOL    HW232019   1.856   6.663   4.771
10374SOL     OW32020   3.951   0.810   2.959
10374SOL    HW132021   3.948   0.874   3.036
10374SOL    HW232022   4.015   0.844   2.890
10375SOL     OW32023   2.824   1.522   6.483
10375SOL    HW132024   2.889   1.575   6.537
10375SOL    HW232025   2.773   1.461   6.543
10376SOL     OW32026   1.453   5.744   3.678
10376SOL    HW132027   1.476   5.787   3.591
10376SOL    HW232028   1.384   5.672   3.664
10377SOL     OW32029   6.754   1.267   3.821
10377SOL    HW132030   6.690   1.261   3.745
10377SOL    HW232031   6.845   1.241   3.789
10378SOL     OW32032   6.053   0.174   5.813
10378SOL    HW132033   6.110   0.091   5.817
10378SOL    HW232034   6.111   0.255   5.814
10379SOL     OW32035   3.152   6.922   4.485
10379SOL    HW132036   3.188   6.880   4.569
10379SOL    HW232037   3.095   6.856   4.437
10380SOL     OW32038   0.692   2.015   4.562
10380SOL    HW132039   0.727   1.945   4.624
10380SOL    HW232040   0.733   2.103   4.585
10381SOL     OW32041   4.439   4.444   0.253
10381SOL    HW132042   4.353   4.495   0.258
10381SOL    HW232043   4.513   4.507   0.229
10382SOL     OW32044   2.144   4.889   0.589
10382SOL    HW132045   2.106   4.962   0.646
10382SOL    HW232046   2.244   4.891   0.595
10383SOL     OW32047   6.664   3.973   0.839
10383SOL    HW132048   6.651   4.058   0.890
10383SOL    HW232049   6.590   3.963   0.772
10384SOL     OW32050   0.298   6.996   0.741
10384SOL    HW132051   0.302   0.049   0.673
10384SOL    HW232052   0.361   6.923   0.716
10385SOL     OW32053   3.260   6.645   5.757
10385SOL    HW132054   3.314   6.562   5.752
10385SOL    HW232055   3.321   6.725   5.755
10386SOL     OW32056   6.467   1.982   5.906
10386SOL    HW132057   6.473   1.974   5.807
10386SOL    HW232058   6.394   2.046   5.930
10387SOL     OW32059   4.853   1.946   2.790
10387SOL    HW132060   4.862   1.976   2.885
10387SOL    HW232061   4.770   1.984   2.751
10388SOL     OW32062   2.080   5.814   2.468
10388SOL    HW132063   2.158   5.852   2.518
10388SOL    HW232064   2.015   5.887   2.449
10389SOL     OW32065   0.260   6.973   1.408
10389SOL    HW132066   0.295   7.014   1.324
10389SOL    HW232067   0.214   6.887   1.386
10390SOL     OW32068   1.899   2.500   1.762
10390SOL    HW132069   1.918   2.415   1.713
10390SOL    HW232070   1.970   2.567   1.742
10391SOL     OW32071   1.168   5.604   4.031
10391SOL    HW132072   1.146   5.586   4.127
10391SOL    HW232073   1.141   5.526   3.975
10392SOL     OW32074   6.775   4.243   0.198
10392SOL    HW132075   6.724   4.172   0.247
10392SOL    HW232076   6.859   4.264   0.247
10393SOL     OW32077   1.958   2.281   2.463
10393SOL    HW132078   2.014   2.198   2.458
10393SOL    HW232079   2.018   2.361   2.472
10394SOL     OW32080   2.559   6.094   4.345
10394SOL    HW132081   2.606   6.152   4.411
10394SOL    HW232082   2.492   6.037   4.393
10395SOL     OW32083   7.013   0.920   3.490
10395SOL    HW132084   6.930   0.873   3.459
10395SOL    HW232085   0.058   0.853   3.525
10396SOL     OW32086   2.316   0.475   4.400
10396SOL    HW132087   2.271   0.498   4.314
10396SOL    HW232088   2.399   0.530   4.410
10397SOL     OW32089   3.183   1.707   3.792
10397SOL    HW132090   3.175   1.806   3.807
10397SOL    HW232091   3.182   1.660   3.880
10398SOL     OW32092   5.648   2.047   0.664
10398SOL    HW132093   5.739   2.005   0.664
10398SOL    HW232094   5.578   1.975   0.665
10399SOL     OW32095   4.113   1.959   4.648
10399SOL    HW132096   4.073   1.878   4.606
10399SOL    HW232097   4.049   2.036   4.642
10400SOL     OW32098   3.769   5.914   1.031
10400SOL    HW132099   3.726   5.972   0.962
10400SOL    HW232100   3.702   5.890   1.101
10401SOL     OW32101   0.070   6.926   2.560
10401SOL    HW132102   0.090   0.002   2.542
10401SOL    HW232103   0.152   6.881   2.594
10402SOL     OW32104   0.205   2.671   5.788
10402SOL    HW132105   0.137   2.743   5.771
10402SOL    HW232106   0.280   2.708   5.843
10403SOL     OW32107   5.393   1.469   2.594
10403SOL    HW132108   5.405   1.462   2.692
10403SOL    HW232109   5.453   1.540   2.558
10404SOL     OW32110   0.228   6.592   4.087
10404SOL    HW132111   0.190   6.607   3.996
10404SOL    HW232112   0.234   6.679   4.136
10405SOL     OW32113   1.255   5.151   5.017
10405SOL    HW132114   1.293   5.199   4.938
10405SOL    HW232115   1.269   5.207   5.099
10406SOL     OW32116   2.091   3.389   4.912
10406SOL    HW132117   2.124   3.294   4.909
10406SOL    HW232118   2.098   3.424   5.005
10407SOL     OW32119   2.228   0.613   6.634
10407SOL    HW132120   2.323   0.612   6.665
10407SOL    HW232121   2.192   0.706   6.643
10408SOL     OW32122   3.399   6.256   1.821
10408SOL    HW132123   3.381   6.332   1.883
10408SOL    HW232124   3.490   6.268   1.780
10409SOL     OW32125   0.280   3.695   0.838
10409SOL    HW132126   0.313   3.691   0.933
10409SOL    HW232127   0.319   3.619   0.786
10410SOL     OW32128   5.243   1.778   1.278
10410SOL    HW132129   5.269   1.808   1.186
10410SOL    HW232130   5.144   1.763   1.282
10411SOL     OW32131   3.945   5.386   4.648
10411SOL    HW132132   3.943   5.482   4.622
10411SOL    HW232133   4.032   5.366   4.693
10412SOL     OW32134   0.455   1.153   0.596
10412SOL    HW132135   0.441   1.212   0.517
10412SOL    HW232136   0.370   1.147   0.649
10413SOL     OW32137   0.086   2.011   1.089
10413SOL    HW132138   0.089   1.993   0.990
10413SOL    HW232139   0.159   1.959   1.134
10414SOL     OW32140   4.086   6.552   5.935
10414SOL    HW132141   4.161   6.555   6.001
10414SOL    HW232142   4.117   6.505   5.852
10415SOL     OW32143   2.336   4.264   4.007
10415SOL    HW132144   2.338   4.209   3.924
10415SOL    HW232145   2.267   4.227   4.070
10416SOL     OW32146   5.972   0.671   5.284
10416SOL    HW132147   6.044   0.684   5.353
10416SOL    HW232148   5.940   0.760   5.253
10417SOL     OW32149   4.635   4.352   4.307
10417SOL    HW132150   4.708   4.391   4.362
10417SOL    HW232151   4.548   4.358   4.356
10418SOL     OW32152   6.273   3.984   5.626
10418SOL    HW132153   6.297   4.032   5.541
10418SOL    HW232154   6.235   4.050   5.691
10419SOL     OW32155   3.112   0.445   5.414
10419SOL    HW132156   3.044   0.504   5.369
10419SOL    HW232157   3.184   0.421   5.349
10420SOL     OW32158   6.829   3.398   3.802
10420SOL    HW132159   6.772   3.331   3.754
10420SOL    HW232160   6.811   3.392   3.900
10421SOL     OW32161   1.679   3.258   4.727
10421SOL    HW132162   1.660   3.356   4.734
10421SOL    HW232163   1.771   3.245   4.691
10422SOL     OW32164   6.505   3.388   5.435
10422SOL    HW132165   6.448   3.399   5.516
10422SOL    HW232166   6.596   3.356   5.463
10423SOL     OW32167   4.398   4.829   5.202
10423SOL    HW132168   4.306   4.790   5.208
10423SOL    HW232169   4.391   4.929   5.197
10424SOL     OW32170   4.057   2.524   0.158
10424SOL    HW132171   4.092   2.574   0.237
10424SOL    HW232172   3.966   2.557   0.135
10425SOL     OW32173   0.798   5.889   1.905
10425SOL    HW132174   0.745   5.821   1.956
10425SOL    HW232175   0.884   5.849   1.876
10426SOL     OW32176   5.438   3.763   5.428
10426SOL    HW132177   5.375   3.830   5.468
10426SOL    HW232178   5.402   3.671   5.442
10427SOL     OW32179   4.943   6.944   6.815
10427SOL    HW132180   4.926   6.975   6.722
10427SOL    HW232181   4.865   6.891   6.848
10428SOL     OW32182   2.449   1.869   4.540
10428SOL    HW132183   2.388   1.886   4.617
10428SOL    HW232184   2.538   1.912   4.556
10429SOL     OW32185   1.036   3.752   3.052
10429SOL    HW132186   1.070   3.811   3.125
10429SOL    HW232187   0.993   3.808   2.981
10430SOL     OW32188   4.092   6.377   4.878
10430SOL    HW132189   4.107   6.466   4.920
10430SOL    HW232190   4.160   6.312   4.911
10431SOL     OW32191   3.000   1.088   4.130
10431SOL    HW132192   3.062   1.013   4.107
10431SOL    HW232193   2.950   1.117   4.049
10432SOL     OW32194   0.372   1.822   5.527
10432SOL    HW132195   0.299   1.874   5.481
10432SOL    HW232196   0.395   1.743   5.471
10433SOL     OW32197   0.130   6.278   2.661
10433SOL    HW132198   0.133   6.352   2.594
10433SOL    HW232199   0.050   6.221   2.645
10434SOL     OW32200   4.624   6.438   4.699
10434SOL    HW132201   4.540   6.413   4.650
10434SOL    HW232202   4.703   6.422   4.641
10435SOL     OW32203   2.020   1.958   6.255
10435SOL    HW132204   2.045   1.864   6.230
10435SOL    HW232205   2.004   2.011   6.171
10436SOL     OW32206   6.298   3.752   3.966
10436SOL    HW132207   6.374   3.789   3.912
10436SOL    HW232208   6.219   3.813   3.958
10437SOL     OW32209   6.019   4.802   5.065
10437SOL    HW132210   6.087   4.859   5.019
10437SOL    HW232211   5.927   4.838   5.048
10438SOL     OW32212   0.293   6.118   5.895
10438SOL    HW132213   0.371   6.128   5.833
10438SOL    HW232214   0.208   6.125   5.843
10439SOL     OW32215   5.756   1.472   5.011
10439SOL    HW132216   5.737   1.427   4.923
10439SOL    HW232217   5.752   1.571   5.000
10440SOL     OW32218   7.017   6.896   0.080
10440SOL    HW132219   0.013   6.801   0.054
10440SOL    HW232220   6.920   6.917   0.076
10441SOL     OW32221   2.883   1.361   1.039
10441SOL    HW132222   2.862   1.370   1.136
10441SOL    HW232223   2.903   1.451   1.000
10442SOL     OW32224   4.395   0.141   4.856
10442SOL    HW132225   4.404   0.152   4.757
10442SOL    HW232226   4.353   0.052   4.876
10443SOL     OW32227   6.232   2.783   3.088
10443SOL    HW132228   6.153   2.844   3.096
10443SOL    HW232229   6.232   2.740   2.998
10444SOL     OW32230   3.558   5.283   2.337
10444SOL    HW132231   3.582   5.325   2.424
10444SOL    HW232232   3.542   5.186   2.350
10445SOL     OW32233   0.487   3.944   2.848
10445SOL    HW132234   0.561   3.878   2.834
10445SOL    HW232235   0.399   3.897   2.847
10446SOL     OW32236   1.983   3.682   6.186
10446SOL    HW132237   2.029   3.670   6.098
10446SOL    HW232238   1.885   3.667   6.174
10447SOL     OW32239   6.828   0.231   2.363
10447SOL    HW132240   6.784   0.317   2.390
10447SOL    HW232241   6.819   0.164   2.437
10448SOL     OW32242   3.257   0.297   2.434
10448SOL    HW132243   3.174   0.271   2.484
10448SOL    HW232244   3.282   0.391   2.458
10449SOL     OW32245   2.918   5.667   6.547
10449SOL    HW132246   2.819   5.658   6.557
10449SOL    HW232247   2.962   5.583   6.578
10450SOL     OW32248   6.876   1.314   6.410
10450SOL    HW132249   6.879   1.216   6.391
10450SOL    HW232250   6.781   1.344   6.417
10451SOL     OW32251   3.159   0.081   2.944
10451SOL    HW132252   3.136   0.087   3.041
10451SOL    HW232253   3.254   0.050   2.934
10452SOL     OW32254   6.835   3.273   2.629
10452SOL    HW132255   6.863   3.341   2.562
10452SOL    HW232256   6.767   3.312   2.690
10453SOL     OW32257   4.808   6.324   1.980
10453SOL    HW132258   4.801   6.335   1.880
10453SOL    HW232259   4.874   6.251   2.000
10454SOL     OW32260   5.135   1.275   0.880
10454SOL    HW132261   5.230   1.255   0.855
10454SOL    HW232262   5.121   1.259   0.977
10455SOL     OW32263   0.301   5.998   3.900
10455SOL    HW132264   0.252   5.912   3.918
10455SOL    HW232265   0.235   6.073   3.897
10456SOL     OW32266   0.637   5.838   1.140
10456SOL    HW132267   0.678   5.905   1.202
10456SOL    HW232268   0.596   5.764   1.194
10457SOL     OW32269   3.993   2.650   0.458
10457SOL    HW132270   4.017   2.722   0.523
10457SOL    HW232271   4.069   2.585   0.451
10458SOL     OW32272   6.291   6.978   6.717
10458SOL    HW132273   6.371   6.921   6.729
10458SOL    HW232274   6.248   6.959   6.628
10459SOL     OW32275   4.420   5.484   1.472
10459SOL    HW132276   4.502   5.489   1.415
10459SOL    HW232277   4.339   5.501   1.414
10460SOL     OW32278   0.804   3.980   2.342
10460SOL    HW132279   0.855   3.940   2.419
10460SOL    HW232280   0.717   3.932   2.332
10461SOL     OW32281   5.989   4.830   5.363
10461SOL    HW132282   6.062   4.849   5.297
10461SOL    HW232283   6.011   4.873   5.450
10462SOL     OW32284   5.770   2.380   2.915
10462SOL    HW132285   5.672   2.374   2.934
10462SOL    HW232286   5.791   2.469   2.874
10463SOL     OW32287   4.423   2.011   5.749
10463SOL    HW132288   4.350   2.069   5.785
10463SOL    HW232289   4.507   2.026   5.802
10464SOL     OW32290   5.803   6.453   1.812
10464SOL    HW132291   5.827   6.403   1.895
10464SOL    HW232292   5.831   6.549   1.821
10465SOL     OW32293   4.706   5.866   1.649
10465SOL    HW132294   4.711   5.916   1.735
10465SOL    HW232295   4.611   5.844   1.629
10466SOL     OW32296   4.816   4.921   5.450
10466SOL    HW132297   4.822   4.932   5.351
10466SOL    HW232298   4.896   4.870   5.482
10467SOL     OW32299   1.758   2.297   0.787
10467SOL    HW132300   1.729   2.390   0.763
10467SOL    HW232301   1.827   2.301   0.859
10468SOL     OW32302   4.190   4.695   4.056
10468SOL    HW132303   4.140   4.721   3.974
10468SOL    HW232304   4.153   4.743   4.135
10469SOL     OW32305   4.380   4.051   5.857
10469SOL    HW132306   4.330   3.980   5.905
10469SOL    HW232307   4.458   4.010   5.809
10470SOL     OW32308   2.393   1.266   3.215
10470SOL    HW132309   2.453   1.213   3.155
10470SOL    HW232310   2.429   1.359   3.226
10471SOL     OW32311   2.362   6.894   0.474
10471SOL    HW132312   2.316   6.806   0.472
10471SOL    HW232313   2.400   6.914   0.384
10472SOL     OW32314   2.977   5.657   0.502
10472SOL    HW132315   3.041   5.712   0.448
10472SOL    HW232316   2.895   5.638   0.448
10473SOL     OW32317   5.929   6.699   5.814
10473SOL    HW132318   6.018   6.656   5.798
10473SOL    HW232319   5.941   6.777   5.876
10474SOL     OW32320   4.493   0.726   4.205
10474SOL    HW132321   4.571   0.788   4.201
10474SOL    HW232322   4.503   0.655   4.135
10475SOL     OW32323   2.983   6.760   1.781
10475SOL    HW132324   3.004   6.693   1.853
10475SOL    HW232325   3.039   6.841   1.793
10476SOL     OW32326   5.374   6.682   5.954
10476SOL    HW132327   5.393   6.647   5.862
10476SOL    HW232328   5.442   6.648   6.018
10477SOL     OW32329   6.958   0.930   5.223
10477SOL    HW132330   7.020   0.858   5.254
10477SOL    HW232331   7.007   0.991   5.161
10478SOL     OW32332   6.678   6.682   0.133
10478SOL    HW132333   6.697   6.771   0.093
10478SOL    HW232334   6.713   6.679   0.227
10479SOL     OW32335   6.893   1.545   1.816
10479SOL    HW132336   6.953   1.477   1.857
10479SOL    HW232337   6.807   1.503   1.789
10480SOL     OW32338   0.990   1.151   1.907
10480SOL    HW132339   0.983   1.074   1.970
10480SOL    HW232340   0.975   1.237   1.956
10481SOL     OW32341   2.072   6.445   3.635
10481SOL    HW132342   2.054   6.527   3.688
10481SOL    HW232343   2.005   6.375   3.658
10482SOL     OW32344   6.394   5.223   4.555
10482SOL    HW132345   6.402   5.125   4.573
10482SOL    HW232346   6.464   5.273   4.607
10483SOL     OW32347   5.246   5.304   0.505
10483SOL    HW132348   5.206   5.282   0.417
10483SOL    HW232349   5.175   5.304   0.575
10484SOL     OW32350   4.799   1.559   2.148
10484SOL    HW132351   4.841   1.633   2.095
10484SOL    HW232352   4.866   1.522   2.213
10485SOL     OW32353   3.439   4.524   0.322
10485SOL    HW132354   3.443   4.546   0.225
10485SOL    HW232355   3.350   4.550   0.359
10486SOL     OW32356   0.352   0.492   0.413
10486SOL    HW132357   0.364   0.555   0.336
10486SOL    HW232358   0.359   0.543   0.499
10487SOL     OW32359   4.743   0.410   1.851
10487SOL    HW132360   4.684   0.390   1.773
10487SOL    HW232361   4.695   0.385   1.936
10488SOL     OW32362   3.346   1.712   5.313
10488SOL    HW132363   3.342   1.798   5.262
10488SOL    HW232364   3.391   1.727   5.401
10489SOL     OW32365   0.743   6.850   5.274
10489SOL    HW132366   0.772   6.944   5.256
10489SOL    HW232367   0.705   6.811   5.190
10490SOL     OW32368   5.957   1.729   0.998
10490SOL    HW132369   5.892   1.665   0.957
10490SOL    HW232370   5.936   1.822   0.969
10491SOL     OW32371   1.793   2.942   0.208
10491SOL    HW132372   1.710   2.968   0.256
10491SOL    HW232373   1.769   2.891   0.125
10492SOL     OW32374   5.904   4.039   5.600
10492SOL    HW132375   5.821   4.003   5.642
10492SOL    HW232376   5.936   3.976   5.529
10493SOL     OW32377   3.638   0.677   1.705
10493SOL    HW132378   3.591   0.757   1.669
10493SOL    HW232379   3.670   0.696   1.798
10494SOL     OW32380   5.295   3.669   5.902
10494SOL    HW132381   5.262   3.586   5.947
10494SOL    HW232382   5.254   3.749   5.946
10495SOL     OW32383   2.300   6.881   0.025
10495SOL    HW132384   2.388   6.907   7.007
10495SOL    HW232385   2.246   6.963   0.044
10496SOL     OW32386   0.248   4.568   6.733
10496SOL    HW132387   0.228   4.661   6.763
10496SOL    HW232388   0.278   4.514   6.812
10497SOL     OW32389   2.196   6.878   2.057
10497SOL    HW132390   2.201   6.793   2.003
10497SOL    HW232391   2.212   6.956   1.997
10498SOL     OW32392   3.100   5.678   1.231
10498SOL    HW132393   3.016   5.677   1.287
10498SOL    HW232394   3.114   5.588   1.190
10499SOL     OW32395   3.345   6.981   2.748
10499SOL    HW132396   3.293   6.962   2.665
10499SOL    HW232397   3.420   6.915   2.757
10500SOL     OW32398   0.019   1.552   6.049
10500SOL    HW132399   0.023   1.453   6.036
10500SOL    HW232400   0.088   1.596   5.992
10501SOL     OW32401   2.262   5.845   3.139
10501SOL    HW132402   2.257   5.777   3.211
10501SOL    HW232403   2.356   5.879   3.132
10502SOL     OW32404   2.640   0.174   0.690
10502SOL    HW132405   2.613   0.205   0.781
10502SOL    HW232406   2.710   0.235   0.653
10503SOL     OW32407   4.024   2.878   0.620
10503SOL    HW132408   3.966   2.959   0.611
10503SOL    HW232409   4.065   2.877   0.711
10504SOL     OW32410   1.726   1.565   0.039
10504SOL    HW132411   1.627   1.551   0.033
10504SOL    HW232412   1.751   1.644   7.004
10505SOL     OW32413   5.217   6.288   0.353
10505SOL    HW132414   5.216   6.215   0.421
10505SOL    HW232415   5.152   6.359   0.380
10506SOL     OW32416   6.962   5.328   0.494
10506SOL    HW132417   6.897   5.276   0.551
10506SOL    HW232418   6.948   5.426   0.507
10507SOL     OW32419   1.867   0.250   0.105
10507SOL    HW132420   1.844   0.224   0.199
10507SOL    HW232421   1.827   0.184   0.042
10508SOL     OW32422   6.305   6.858   4.810
10508SOL    HW132423   6.393   6.810   4.810
10508SOL    HW232424   6.311   6.937   4.748
10509SOL     OW32425   1.201   5.908   4.334
10509SOL    HW132426   1.253   5.898   4.419
10509SOL    HW232427   1.236   5.986   4.282
10510SOL     OW32428   4.817   6.017   6.178
10510SOL    HW132429   4.833   6.071   6.095
10510SOL    HW232430   4.893   5.954   6.191
10511SOL     OW32431   4.337   1.665   1.766
10511SOL    HW132432   4.338   1.749   1.820
10511SOL    HW232433   4.392   1.678   1.684
10512SOL     OW32434   4.090   0.195   5.499
10512SOL    HW132435   4.022   0.134   5.539
10512SOL    HW232436   4.072   0.289   5.528
10513SOL     OW32437   6.539   2.851   4.376
10513SOL    HW132438   6.461   2.816   4.429
10513SOL    HW232439   6.624   2.810   4.411
10514SOL     OW32440   6.633   3.803   0.430
10514SOL    HW132441   6.730   3.816   0.409
10514SOL    HW232442   6.620   3.715   0.476
10515SOL     OW32443   0.722   3.446   2.842
10515SOL    HW132444   0.816   3.424   2.869
10515SOL    HW232445   0.665   3.451   2.924
10516SOL     OW32446   3.820   1.033   0.619
10516SOL    HW132447   3.727   1.022   0.584
10516SOL    HW232448   3.869   0.945   0.610
10517SOL     OW32449   0.710   2.873   2.319
10517SOL    HW132450   0.749   2.958   2.281
10517SOL    HW232451   0.624   2.894   2.365
10518SOL     OW32452   1.064   5.288   6.606
10518SOL    HW132453   1.127   5.365   6.617
10518SOL    HW232454   1.081   5.244   6.518
10519SOL     OW32455   2.170   3.350   6.588
10519SOL    HW132456   2.178   3.449   6.600
10519SOL    HW232457   2.086   3.318   6.633
10520SOL     OW32458   0.984   2.852   6.687
10520SOL    HW132459   0.910   2.785   6.684
10520SOL    HW232460   1.040   2.843   6.604
10521SOL     OW32461   5.992   6.254   2.049
10521SOL    HW132462   5.906   6.223   2.089
10521SOL    HW232463   6.025   6.335   2.098
10522SOL     OW32464   6.650   0.555   6.118
10522SOL    HW132465   6.629   0.633   6.178
10522SOL    HW232466   6.662   0.473   6.173
10523SOL     OW32467   0.089   5.112   4.018
10523SOL    HW132468   0.123   5.197   3.977
10523SOL    HW232469   7.013   5.101   3.995
10524SOL     OW32470   1.981   0.466   4.855
10524SOL    HW132471   2.020   0.497   4.768
10524SOL    HW232472   2.019   0.521   4.930
10525SOL     OW32473   3.560   6.691   6.323
10525SOL    HW132474   3.483   6.750   6.299
10525SOL    HW232475   3.562   6.677   6.422
10526SOL     OW32476   0.990   6.728   3.664
10526SOL    HW132477   0.976   6.701   3.760
10526SOL    HW232478   0.917   6.791   3.637
10527SOL     OW32479   6.798   1.604   4.751
10527SOL    HW132480   6.714   1.650   4.781
10527SOL    HW232481   6.872   1.672   4.743
10528SOL     OW32482   1.895   3.575   5.928
10528SOL    HW132483   1.826   3.600   5.996
10528SOL    HW232484   1.894   3.476   5.914
10529SOL     OW32485   2.395   6.043   3.695
10529SOL    HW132486   2.383   5.958   3.745
10529SOL    HW232487   2.412   6.023   3.598
10530SOL     OW32488   2.226   0.561   6.233
10530SOL    HW132489   2.307   0.503   6.238
10530SOL    HW232490   2.247   0.645   6.184
10531SOL     OW32491   1.052   2.785   3.727
10531SOL    HW132492   1.053   2.861   3.663
10531SOL    HW232493   1.098   2.812   3.812
10532SOL     OW32494   1.441   4.702   6.001
10532SOL    HW132495   1.401   4.682   5.912
10532SOL    HW232496   1.539   4.716   5.991
10533SOL     OW32497   2.509   1.171   5.049
10533SOL    HW132498   2.445   1.237   5.090
10533SOL    HW232499   2.600   1.212   5.043
10534SOL     OW32500   6.207   5.648   1.552
10534SOL    HW132501   6.218   5.724   1.617
10534SOL    HW232502   6.291   5.594   1.550
10535SOL     OW32503   0.951   2.114   1.291
10535SOL    HW132504   0.990   2.181   1.354
10535SOL    HW232505   0.881   2.158   1.234
10536SOL     OW32506   3.918   0.589   3.092
10536SOL    HW132507   3.863   0.624   3.168
10536SOL    HW232508   3.949   0.666   3.036
10537SOL     OW32509   3.868   5.101   4.515
10537SOL    HW132510   3.877   5.163   4.592
10537SOL    HW232511   3.838   5.152   4.434
10538SOL     OW32512   5.015   1.881   0.139
10538SOL    HW132513   4.978   1.823   0.066
10538SOL    HW232514   4.972   1.971   0.136
10539SOL     OW32515   0.186   3.686   0.292
10539SOL    HW132516   0.258   3.696   0.223
10539SOL    HW232517   0.132   3.770   0.295
10540SOL     OW32518   1.380   3.002   5.073
10540SOL    HW132519   1.339   3.037   5.157
10540SOL    HW232520   1.345   2.911   5.054
10541SOL     OW32521   3.830   3.999   2.383
10541SOL    HW132522   3.747   4.004   2.438
10541SOL    HW232523   3.896   4.067   2.416
10542SOL     OW32524   6.800   0.523   5.564
10542SOL    HW132525   6.825   0.536   5.660
10542SOL    HW232526   6.715   0.472   5.559
10543SOL     OW32527   0.451   0.951   5.331
10543SOL    HW132528   0.502   1.037   5.338
10543SOL    HW232529   0.366   0.959   5.383
10544SOL     OW32530   2.079   6.483   2.150
10544SOL    HW132531   2.049   6.388   2.142
10544SOL    HW232532   2.094   6.521   2.059
10545SOL     OW32533   5.875   1.099   2.616
10545SOL    HW132534   5.853   1.103   2.714
10545SOL    HW232535   5.948   1.032   2.602
10546SOL     OW32536   1.493   0.863   0.001
10546SOL    HW132537   1.592   0.871   7.013
10546SOL    HW232538   1.466   0.767   7.008
10547SOL     OW32539   6.007   2.871   2.166
10547SOL    HW132540   6.095   2.852   2.123
10547SOL    HW232541   5.937   2.881   2.096
10548SOL     OW32542   5.174   4.419   4.535
10548SOL    HW132543   5.240   4.423   4.460
10548SOL    HW232544   5.160   4.510   4.573
10549SOL     OW32545   6.705   6.864   2.024
10549SOL    HW132546   6.636   6.909   2.080
10549SOL    HW232547   6.667   6.781   1.984
10550SOL     OW32548   4.187   5.944   4.415
10550SOL    HW132549   4.265   5.913   4.361
10550SOL    HW232550   4.213   5.950   4.512
10551SOL     OW32551   1.449   2.606   6.628
10551SOL    HW132552   1.543   2.625   6.599
10551SOL    HW232553   1.417   2.522   6.585
10552SOL     OW32554   3.045   1.323   6.493
10552SOL    HW132555   2.987   1.405   6.493
10552SOL    HW232556   2.989   1.244   6.518
10553SOL     OW32557   0.836   4.936   1.494
10553SOL    HW132558   0.920   4.987   1.478
10553SOL    HW232559   0.788   4.973   1.573
10554SOL     OW32560   5.616   5.360   0.181
10554SOL    HW132561   5.705   5.361   0.227
10554SOL    HW232562   5.570   5.273   0.200
10555SOL     OW32563   1.894   3.488   0.461
10555SOL    HW132564   1.857   3.406   0.416
10555SOL    HW232565   1.842   3.568   0.432
10556SOL     OW32566   2.255   2.126   5.182
10556SOL    HW132567   2.274   2.043   5.235
10556SOL    HW232568   2.261   2.206   5.242
10557SOL     OW32569   2.752   2.332   3.291
10557SOL    HW132570   2.678   2.398   3.279
10557SOL    HW232571   2.721   2.241   3.264
10558SOL     OW32572   3.888   0.905   3.686
10558SOL    HW132573   3.875   0.870   3.779
10558SOL    HW232574   3.901   1.004   3.689
10559SOL     OW32575   4.885   0.492   1.122
10559SOL    HW132576   4.982   0.506   1.103
10559SOL    HW232577   4.874   0.414   1.183
10560SOL     OW32578   3.782   6.049   3.587
10560SOL    HW132579   3.825   6.116   3.527
10560SOL    HW232580   3.807   6.068   3.682
10561SOL     OW32581   3.314   4.474   0.645
10561SOL    HW132582   3.387   4.413   0.675
10561SOL    HW232583   3.323   4.563   0.690
10562SOL     OW32584   4.674   5.713   0.263
10562SOL    HW132585   4.635   5.791   0.213
10562SOL    HW232586   4.646   5.628   0.220
10563SOL     OW32587   0.729   1.410   3.636
10563SOL    HW132588   0.750   1.393   3.732
10563SOL    HW232589   0.773   1.495   3.607
10564SOL     OW32590   5.526   6.475   1.839
10564SOL    HW132591   5.623   6.476   1.812
10564SOL    HW232592   5.495   6.381   1.847
10565SOL     OW32593   6.660   0.741   6.346
10565SOL    HW132594   6.616   0.778   6.428
10565SOL    HW232595   6.701   0.652   6.368
10566SOL     OW32596   3.791   2.544   0.099
10566SOL    HW132597   3.757   2.636   0.078
10566SOL    HW232598   3.717   2.491   0.141
10567SOL     OW32599   3.085   1.980   3.869
10567SOL    HW132600   3.103   1.956   3.965
10567SOL    HW232601   3.078   2.079   3.860
10568SOL     OW32602   6.225   2.277   1.165
10568SOL    HW132603   6.301   2.230   1.209
10568SOL    HW232604   6.260   2.348   1.104
10569SOL     OW32605   5.532   2.153   1.918
10569SOL    HW132606   5.615   2.106   1.947
10569SOL    HW232607   5.456   2.127   1.977
10570SOL     OW32608   1.849   5.011   3.194
10570SOL    HW132609   1.782   5.085   3.191
10570SOL    HW232610   1.809   4.931   3.238
10571SOL     OW32611   6.949   5.292   5.362
10571SOL    HW132612   6.971   5.208   5.313
10571SOL    HW232613   6.923   5.364   5.297
10572SOL     OW32614   0.002   3.732   3.634
10572SOL    HW132615   0.010   3.632   3.628
10572SOL    HW232616   6.978   3.766   3.551
10573SOL     OW32617   4.608   0.018   5.167
10573SOL    HW132618   4.574   0.107   5.197
10573SOL    HW232619   4.533   6.985   5.128
10574SOL     OW32620   1.521   1.502   3.687
10574SOL    HW132621   1.555   1.414   3.655
10574SOL    HW232622   1.585   1.541   3.752
10575SOL     OW32623   6.888   1.373   2.752
10575SOL    HW132624   6.792   1.368   2.781
10575SOL    HW232625   6.945   1.319   2.815
10576SOL     OW32626   0.181   5.790   5.187
10576SOL    HW132627   0.279   5.800   5.165
10576SOL    HW232628   0.151   5.870   5.239
10577SOL     OW32629   1.515   2.739   0.457
10577SOL    HW132630   1.515   2.833   0.493
10577SOL    HW232631   1.597   2.724   0.402
10578SOL     OW32632   5.498   1.114   2.972
10578SOL    HW132633   5.568   1.185   2.973
10578SOL    HW232634   5.477   1.089   2.877
10579SOL     OW32635   4.296   2.261   1.114
10579SOL    HW132636   4.374   2.269   1.052
10579SOL    HW232637   4.223   2.323   1.083
10580SOL     OW32638   6.830   0.290   0.003
10580SOL    HW132639   6.846   0.388   7.010
10580SOL    HW232640   6.902   0.238   6.978
10581SOL     OW32641   0.188   0.350   3.084
10581SOL    HW132642   0.181   0.328   2.987
10581SOL    HW232643   0.096   0.351   3.124
10582SOL     OW32644   5.293   4.978   6.934
10582SOL    HW132645   5.296   4.902   6.869
10582SOL    HW232646   5.381   5.025   6.934
10583SOL     OW32647   4.015   1.479   5.104
10583SOL    HW132648   4.114   1.467   5.109
10583SOL    HW232649   3.993   1.576   5.096
10584SOL     OW32650   6.720   6.348   1.340
10584SOL    HW132651   6.637   6.331   1.394
10584SOL    HW232652   6.699   6.333   1.243
10585SOL     OW32653   2.057   3.056   5.919
10585SOL    HW132654   2.029   3.005   6.000
10585SOL    HW232655   2.090   2.992   5.849
10586SOL     OW32656   0.112   4.790   4.530
10586SOL    HW132657   0.134   4.706   4.481
10586SOL    HW232658   0.163   4.866   4.490
10587SOL     OW32659   6.072   3.929   6.835
10587SOL    HW132660   6.127   3.853   6.869
10587SOL    HW232661   5.984   3.931   6.884
10588SOL     OW32662   0.209   3.504   3.157
10588SOL    HW132663   0.149   3.446   3.102
10588SOL    HW232664   0.222   3.463   3.247
10589SOL     OW32665   6.086   1.092   4.611
10589SOL    HW132666   5.988   1.070   4.607
10589SOL    HW232667   6.113   1.103   4.707
10590SOL     OW32668   1.178   0.077   1.777
10590SOL    HW132669   1.265   0.030   1.791
10590SOL    HW232670   1.149   0.119   1.864
10591SOL     OW32671   1.072   1.681   6.519
10591SOL    HW132672   1.062   1.658   6.616
10591SOL    HW232673   1.169   1.683   6.495
10592SOL     OW32674   5.993   3.578   1.411
10592SOL    HW132675   6.041   3.533   1.486
10592SOL    HW232676   5.908   3.528   1.391
10593SOL     OW32677   2.215   5.141   0.456
10593SOL    HW132678   2.207   5.142   0.357
10593SOL    HW232679   2.294   5.195   0.484
10594SOL     OW32680   4.995   0.304   2.503
10594SOL    HW132681   4.917   0.244   2.521
10594SOL    HW232682   5.078   0.248   2.497
10595SOL     OW32683   3.608   6.828   5.346
10595SOL    HW132684   3.681   6.798   5.407
10595SOL    HW232685   3.562   6.908   5.385
10596SOL     OW32686   4.532   0.611   0.118
10596SOL    HW132687   4.451   0.626   0.176
10596SOL    HW232688   4.511   0.541   0.050
10597SOL     OW32689   3.683   1.298   4.890
10597SOL    HW132690   3.730   1.290   4.802
10597SOL    HW232691   3.606   1.360   4.881
10598SOL     OW32692   2.448   2.318   0.269
10598SOL    HW132693   2.441   2.286   0.175
10598SOL    HW232694   2.544   2.322   0.296
10599SOL     OW32695   4.681   2.566   6.533
10599SOL    HW132696   4.731   2.621   6.599
10599SOL    HW232697   4.586   2.596   6.530
10600SOL     OW32698   2.115   2.310   0.605
10600SOL    HW132699   2.073   2.299   0.695
10600SOL    HW232700   2.047   2.344   0.540
10601SOL     OW32701   1.501   4.216   6.191
10601SOL    HW132702   1.546   4.294   6.147
10601SOL    HW232703   1.498   4.231   6.290
10602SOL     OW32704   4.614   1.838   3.497
10602SOL    HW132705   4.515   1.838   3.483
10602SOL    HW232706   4.644   1.745   3.518
10603SOL     OW32707   2.653   5.748   3.736
10603SOL    HW132708   2.706   5.689   3.674
10603SOL    HW232709   2.713   5.816   3.776
10604SOL     OW32710   5.882   4.202   5.285
10604SOL    HW132711   5.784   4.204   5.267
10604SOL    HW232712   5.909   4.110   5.313
10605SOL     OW32713   2.076   5.078   1.202
10605SOL    HW132714   1.978   5.083   1.218
10605SOL    HW232715   2.115   5.170   1.198
10606SOL     OW32716   0.026   0.186   1.894
10606SOL    HW132717   6.951   0.169   1.865
10606SOL    HW232718   0.027   0.256   1.965
10607SOL     OW32719   3.906   4.647   6.139
10607SOL    HW132720   3.954   4.732   6.115
10607SOL    HW232721   3.898   4.641   6.239
10608SOL     OW32722   5.232   2.138   5.703
10608SOL    HW132723   5.255   2.216   5.762
10608SOL    HW232724   5.218   2.057   5.760
10609SOL     OW32725   3.146   6.642   1.312
10609SOL    HW132726   3.189   6.692   1.236
10609SOL    HW232727   3.047   6.646   1.303
10610SOL     OW32728   1.212   2.996   5.799
10610SOL    HW132729   1.285   3.046   5.751
10610SOL    HW232730   1.209   3.025   5.894
10611SOL     OW32731   4.083   4.061   5.535
10611SOL    HW132732   4.119   4.110   5.615
10611SOL    HW232733   4.156   4.006   5.495
10612SOL     OW32734   2.682   0.710   5.497
10612SOL    HW132735   2.726   0.642   5.439
10612SOL    HW232736   2.631   0.664   5.570
10613SOL     OW32737   6.243   6.969   5.760
10613SOL    HW132738   6.182   6.935   5.688
10613SOL    HW232739   6.323   6.909   5.766
10614SOL     OW32740   6.388   2.327   4.637
10614SOL    HW132741   6.469   2.287   4.680
10614SOL    HW232742   6.306   2.275   4.664
10615SOL     OW32743   3.169   5.953   5.646
10615SOL    HW132744   3.166   5.874   5.707
10615SOL    HW232745   3.077   5.991   5.637
10616SOL     OW32746   2.608   6.289   0.895
10616SOL    HW132747   2.665   6.223   0.944
10616SOL    HW232748   2.630   6.287   0.798
10617SOL     OW32749   2.561   2.530   0.879
10617SOL    HW132750   2.628   2.499   0.812
10617SOL    HW232751   2.593   2.614   0.922
10618SOL     OW32752   6.925   3.760   6.370
10618SOL    HW132753   6.860   3.810   6.313
10618SOL    HW232754   6.879   3.727   6.452
10619SOL     OW32755   0.130   4.321   2.275
10619SOL    HW132756   0.136   4.229   2.313
10619SOL    HW232757   0.054   4.369   2.317
10620SOL     OW32758   1.559   5.251   5.607
10620SOL    HW132759   1.550   5.262   5.508
10620SOL    HW232760   1.532   5.336   5.652
10621SOL     OW32761   1.514   6.370   1.700
10621SOL    HW132762   1.602   6.382   1.745
10621SOL    HW232763   1.518   6.408   1.608
10622SOL     OW32764   4.709   1.002   1.434
10622SOL    HW132765   4.749   1.091   1.455
10622SOL    HW232766   4.748   0.932   1.494
10623SOL     OW32767   6.995   4.381   4.482
10623SOL    HW132768   0.003   4.293   4.522
10623SOL    HW232769   6.932   4.365   4.406
10624SOL     OW32770   0.498   2.040   4.752
10624SOL    HW132771   0.540   2.101   4.818
10624SOL    HW232772   0.550   2.041   4.666
10625SOL     OW32773   0.499   4.189   0.091
10625SOL    HW132774   0.516   4.133   0.172
10625SOL    HW232775   0.427   4.148   0.036
10626SOL     OW32776   2.242   3.252   1.059
10626SOL    HW132777   2.154   3.211   1.079
10626SOL    HW232778   2.312   3.213   1.119
10627SOL     OW32779   5.567   6.293   0.824
10627SOL    HW132780   5.532   6.266   0.734
10627SOL    HW232781   5.660   6.327   0.815
10628SOL     OW32782   4.584   5.473   0.164
10628SOL    HW132783   4.491   5.494   0.133
10628SOL    HW232784   4.642   5.454   0.085
10629SOL     OW32785   2.946   4.780   4.814
10629SOL    HW132786   3.007   4.733   4.751
10629SOL    HW232787   2.907   4.714   4.879
10630SOL     OW32788   6.633   1.599   4.143
10630SOL    HW132789   6.543   1.621   4.180
10630SOL    HW232790   6.696   1.578   4.218
10631SOL     OW32791   2.245   5.166   4.889
10631SOL    HW132792   2.288   5.154   4.800
10631SOL    HW232793   2.177   5.239   4.884
10632SOL     OW32794   5.720   1.690   3.731
10632SOL    HW132795   5.744   1.621   3.664
10632SOL    HW232796   5.668   1.763   3.687
10633SOL     OW32797   2.702   3.693   1.615
10633SOL    HW132798   2.729   3.651   1.701
10633SOL    HW232799   2.604   3.680   1.600
10634SOL     OW32800   3.088   5.427   1.135
10634SOL    HW132801   3.158   5.355   1.130
10634SOL    HW232802   3.008   5.391   1.183
10635SOL     OW32803   3.754   1.388   1.085
10635SOL    HW132804   3.760   1.338   0.999
10635SOL    HW232805   3.673   1.446   1.083
10636SOL     OW32806   0.894   1.375   1.562
10636SOL    HW132807   0.954   1.406   1.488
10636SOL    HW232808   0.869   1.453   1.620
10637SOL     OW32809   2.851   4.829   5.458
10637SOL    HW132810   2.795   4.865   5.533
10637SOL    HW232811   2.827   4.734   5.440
10638SOL     OW32812   0.018   5.763   3.079
10638SOL    HW132813   6.979   5.840   3.105
10638SOL    HW232814   0.113   5.783   3.106
10639SOL     OW32815   1.102   3.350   2.827
10639SOL    HW132816   1.030   3.298   2.781
10639SOL    HW232817   1.092   3.341   2.926
10640SOL     OW32818   3.695   0.444   5.612
10640SOL    HW132819   3.727   0.490   5.695
10640SOL    HW232820   3.702   0.345   5.625
10641SOL     OW32821   3.786   2.322   0.363
10641SOL    HW132822   3.828   2.410   0.343
10641SOL    HW232823   3.686   2.332   0.363
10642SOL     OW32824   6.386   3.127   1.889
10642SOL    HW132825   6.436   3.124   1.802
10642SOL    HW232826   6.449   3.150   1.963
10643SOL     OW32827   2.254   5.124   5.296
10643SOL    HW132828   2.336   5.099   5.245
10643SOL    HW232829   2.200   5.189   5.243
10644SOL     OW32830   5.550   2.585   3.076
10644SOL    HW132831   5.633   2.629   3.044
10644SOL    HW232832   5.500   2.648   3.136
10645SOL     OW32833   0.746   1.366   5.138
10645SOL    HW132834   0.704   1.446   5.096
10645SOL    HW232835   0.728   1.285   5.083
10646SOL     OW32836   0.302   1.295   6.226
10646SOL    HW132837   0.230   1.364   6.231
10646SOL    HW232838   0.359   1.299   6.308
10647SOL     OW32839   3.490   5.528   6.693
10647SOL    HW132840   3.472   5.500   6.788
10647SOL    HW232841   3.516   5.448   6.639
10648SOL     OW32842   5.198   3.930   5.975
10648SOL    HW132843   5.287   3.969   5.953
10648SOL    HW232844   5.133   3.951   5.901
10649SOL     OW32845   0.557   4.090   3.282
10649SOL    HW132846   0.647   4.135   3.274
10649SOL    HW232847   0.527   4.095   3.377
10650SOL     OW32848   1.016   6.088   3.099
10650SOL    HW132849   1.040   5.997   3.132
10650SOL    HW232850   0.966   6.137   3.170
10651SOL     OW32851   4.753   6.943   6.091
10651SOL    HW132852   4.724   6.850   6.112
10651SOL    HW232853   4.798   6.945   6.002
10652SOL     OW32854   3.835   0.138   6.570
10652SOL    HW132855   3.822   0.111   6.474
10652SOL    HW232856   3.861   0.058   6.623
10653SOL     OW32857   5.514   3.774   4.498
10653SOL    HW132858   5.415   3.781   4.506
10653SOL    HW232859   5.550   3.858   4.458
10654SOL     OW32860   4.114   1.580   0.820
10654SOL    HW132861   4.186   1.511   0.831
10654SOL    HW232862   4.090   1.618   0.910
10655SOL     OW32863   2.708   5.610   1.313
10655SOL    HW132864   2.723   5.644   1.220
10655SOL    HW232865   2.781   5.642   1.373
10656SOL     OW32866   6.304   2.582   1.275
10656SOL    HW132867   6.345   2.507   1.327
10656SOL    HW232868   6.355   2.666   1.294
10657SOL     OW32869   6.417   0.307   6.573
10657SOL    HW132870   6.407   0.330   6.670
10657SOL    HW232871   6.497   0.249   6.561
10658SOL     OW32872   6.245   3.720   4.563
10658SOL    HW132873   6.245   3.645   4.629
10658SOL    HW232874   6.151   3.752   4.548
10659SOL     OW32875   6.977   5.909   0.889
10659SOL    HW132876   6.881   5.907   0.917
10659SOL    HW232877   6.995   5.991   0.834
10660SOL     OW32878   5.337   4.420   6.485
10660SOL    HW132879   5.361   4.487   6.414
10660SOL    HW232880   5.249   4.378   6.463
10661SOL     OW32881   0.108   6.354   2.919
10661SOL    HW132882   0.194   6.403   2.934
10661SOL    HW232883   0.110   6.308   2.830
10662SOL     OW32884   5.399   0.799   2.350
10662SOL    HW132885   5.390   0.895   2.323
10662SOL    HW232886   5.413   0.793   2.449
10663SOL     OW32887   0.580   0.670   2.113
10663SOL    HW132888   0.513   0.745   2.117
10663SOL    HW232889   0.672   0.709   2.114
10664SOL     OW32890   1.497   4.834   4.700
10664SOL    HW132891   1.495   4.861   4.796
10664SOL    HW232892   1.423   4.770   4.681
10665SOL     OW32893   0.869   0.968   0.820
10665SOL    HW132894   0.796   1.036   0.820
10665SOL    HW232895   0.829   0.876   0.816
10666SOL     OW32896   3.105   4.300   0.605
10666SOL    HW132897   3.182   4.358   0.634
10666SOL    HW232898   3.088   4.230   0.675
10667SOL     OW32899   4.029   3.269   5.397
10667SOL    HW132900   4.039   3.179   5.354
10667SOL    HW232901   3.947   3.271   5.453
10668SOL     OW32902   1.514   1.968   5.229
10668SOL    HW132903   1.525   2.001   5.135
10668SOL    HW232904   1.455   1.887   5.229
10669SOL     OW32905   6.202   6.685   0.896
10669SOL    HW132906   6.178   6.780   0.876
10669SOL    HW232907   6.223   6.676   0.994
10670SOL     OW32908   4.749   3.841   5.255
10670SOL    HW132909   4.729   3.749   5.223
10670SOL    HW232910   4.847   3.859   5.245
10671SOL     OW32911   2.645   2.177   2.629
10671SOL    HW132912   2.576   2.111   2.658
10671SOL    HW232913   2.644   2.185   2.530
10672SOL     OW32914   6.756   2.280   0.637
10672SOL    HW132915   6.733   2.358   0.578
10672SOL    HW232916   6.814   2.311   0.712
10673SOL     OW32917   1.323   1.987   0.122
10673SOL    HW132918   1.230   1.969   0.156
10673SOL    HW232919   1.388   1.927   0.169
10674SOL     OW32920   3.368   3.912   1.013
10674SOL    HW132921   3.347   3.814   1.021
10674SOL    HW232922   3.302   3.955   0.951
10675SOL     OW32923   1.894   0.740   5.757
10675SOL    HW132924   1.825   0.680   5.798
10675SOL    HW232925   1.979   0.689   5.745
10676SOL     OW32926   6.297   6.206   6.329
10676SOL    HW132927   6.390   6.238   6.310
10676SOL    HW232928   6.232   6.280   6.311
10677SOL     OW32929   1.008   0.378   1.886
10677SOL    HW132930   0.953   0.295   1.894
10677SOL    HW232931   1.002   0.430   1.971
10678SOL     OW32932   3.767   5.372   2.181
10678SOL    HW132933   3.713   5.324   2.250
10678SOL    HW232934   3.864   5.360   2.200
10679SOL     OW32935   4.860   4.457   5.762
10679SOL    HW132936   4.769   4.497   5.756
10679SOL    HW232937   4.926   4.527   5.791
10680SOL     OW32938   2.409   1.810   3.955
10680SOL    HW132939   2.469   1.784   3.879
10680SOL    HW232940   2.348   1.734   3.976
10681SOL     OW32941   6.996   4.137   6.878
10681SOL    HW132942   0.013   4.166   6.789
10681SOL    HW232943   6.986   4.217   6.937
10682SOL     OW32944   2.110   2.228   3.234
10682SOL    HW132945   2.133   2.256   3.141
10682SOL    HW232946   2.192   2.225   3.291
10683SOL     OW32947   3.900   1.752   3.728
10683SOL    HW132948   3.947   1.830   3.685
10683SOL    HW232949   3.802   1.768   3.727
10684SOL     OW32950   4.679   3.534   0.605
10684SOL    HW132951   4.713   3.621   0.568
10684SOL    HW232952   4.593   3.510   0.559
10685SOL     OW32953   6.123   4.324   2.214
10685SOL    HW132954   6.165   4.243   2.173
10685SOL    HW232955   6.087   4.302   2.304
10686SOL     OW32956   3.589   5.286   6.578
10686SOL    HW132957   3.540   5.262   6.494
10686SOL    HW232958   3.687   5.274   6.562
10687SOL     OW32959   0.070   5.179   1.749
10687SOL    HW132960   0.045   5.160   1.844
10687SOL    HW232961   7.008   5.189   1.693
10688SOL     OW32962   6.509   4.597   2.909
10688SOL    HW132963   6.476   4.682   2.869
10688SOL    HW232964   6.600   4.577   2.872
10689SOL     OW32965   0.716   6.994   4.140
10689SOL    HW132966   0.789   6.947   4.089
10689SOL    HW232967   0.755   0.020   4.219
10690SOL     OW32968   6.264   5.316   4.147
10690SOL    HW132969   6.238   5.344   4.055
10690SOL    HW232970   6.215   5.231   4.171
10691SOL     OW32971   6.981   1.621   2.365
10691SOL    HW132972   6.950   1.571   2.284
10691SOL    HW232973   0.048   1.666   2.346
10692SOL     OW32974   3.589   4.866   3.482
10692SOL    HW132975   3.535   4.800   3.535
10692SOL    HW232976   3.591   4.838   3.386
10693SOL     OW32977   1.640   0.525   1.860
10693SOL    HW132978   1.691   0.569   1.934
10693SOL    HW232979   1.701   0.467   1.806
10694SOL     OW32980   3.614   6.295   1.658
10694SOL    HW132981   3.646   6.246   1.577
10694SOL    HW232982   3.658   6.385   1.663
10695SOL     OW32983   6.195   2.279   2.841
10695SOL    HW132984   6.209   2.220   2.761
10695SOL    HW232985   6.114   2.247   2.891
10696SOL     OW32986   6.625   4.727   2.303
10696SOL    HW132987   6.574   4.756   2.384
10696SOL    HW232988   6.562   4.709   2.228
10697SOL     OW32989   0.330   6.167   4.344
10697SOL    HW132990   0.307   6.101   4.415
10697SOL    HW232991   0.426   6.194   4.354
10698SOL     OW32992   3.878   6.408   3.927
10698SOL    HW132993   3.792   6.376   3.968
10698SOL    HW232994   3.937   6.444   3.999
10699SOL     OW32995   4.475   1.772   2.294
10699SOL    HW132996   4.556   1.784   2.352
10699SOL    HW232997   4.416   1.702   2.334
10700SOL     OW32998   1.265   0.132   0.275
10700SOL    HW132999   1.281   0.205   0.342
10700SOL    HW233000   1.338   0.064   0.283
10701SOL     OW33001   3.883   5.930   0.249
10701SOL    HW133002   3.843   5.955   0.337
10701SOL    HW233003   3.940   6.005   0.217
10702SOL     OW33004   6.761   2.521   2.755
10702SOL    HW133005   6.802   2.443   2.708
10702SOL    HW233006   6.672   2.495   2.791
10703SOL     OW33007   4.123   3.209   4.050
10703SOL    HW133008   4.062   3.199   4.129
10703SOL    HW233009   4.211   3.244   4.080
10704SOL     OW33010   5.606   5.658   1.718
10704SOL    HW133011   5.526   5.640   1.776
10704SOL    HW233012   5.689   5.649   1.773
10705SOL     OW33013   0.142   3.518   1.393
10705SOL    HW133014   0.119   3.600   1.444
10705SOL    HW233015   0.233   3.527   1.354
10706SOL     OW33016   4.636   6.458   2.141
10706SOL    HW133017   4.706   6.419   2.081
10706SOL    HW233018   4.548   6.414   2.121
10707SOL     OW33019   0.565   0.400   4.913
10707SOL    HW133020   0.515   0.484   4.892
10707SOL    HW233021   0.515   0.349   4.984
10708SOL     OW33022   4.793   0.607   2.103
10708SOL    HW133023   4.885   0.579   2.130
10708SOL    HW233024   4.753   0.665   2.175
10709SOL     OW33025   6.740   1.228   5.125
10709SOL    HW133026   6.755   1.301   5.058
10709SOL    HW233027   6.692   1.152   5.082
10710SOL     OW33028   1.082   6.656   5.058
10710SOL    HW133029   1.146   6.590   5.018
10710SOL    HW233030   1.094   6.657   5.157
10711SOL     OW33031   2.532   0.054   3.864
10711SOL    HW133032   2.478   0.076   3.946
10711SOL    HW233033   2.584   6.991   3.880
10712SOL     OW33034   3.653   0.641   2.660
10712SOL    HW133035   3.627   0.621   2.754
10712SOL    HW233036   3.610   0.727   2.631
10713SOL     OW33037   1.785   4.799   2.042
10713SOL    HW133038   1.752   4.777   2.134
10713SOL    HW233039   1.823   4.716   2.000
10714SOL     OW33040   6.770   2.842   5.255
10714SOL    HW133041   6.704   2.906   5.214
10714SOL    HW233042   6.792   2.770   5.189
10715SOL     OW33043   4.561   0.834   2.946
10715SOL    HW133044   4.518   0.915   2.987
10715SOL    HW233045   4.531   0.752   2.995
10716SOL     OW33046   0.075   2.787   3.416
10716SOL    HW133047   0.070   2.825   3.324
10716SOL    HW233048   0.100   2.690   3.411
10717SOL     OW33049   0.987   2.245   0.984
10717SOL    HW133050   1.009   2.154   0.951
10717SOL    HW233051   1.066   2.283   1.034
10718SOL     OW33052   6.267   4.885   0.104
10718SOL    HW133053   6.270   4.921   0.197
10718SOL    HW233054   6.275   4.785   0.106
10719SOL     OW33055   4.435   5.792   1.605
10719SOL    HW133056   4.460   5.726   1.535
10719SOL    HW233057   4.352   5.840   1.577
10720SOL     OW33058   6.962   4.157   6.210
10720SOL    HW133059   0.007   4.119   6.145
10720SOL    HW233060   6.998   4.146   6.303
10721SOL     OW33061   6.643   2.315   4.388
10721SOL    HW133062   6.634   2.232   4.333
10721SOL    HW233063   6.567   2.377   4.368
10722SOL     OW33064   6.833   2.918   0.387
10722SOL    HW133065   6.780   3.001   0.404
10722SOL    HW233066   6.909   2.914   0.451
10723SOL     OW33067   5.702   3.879   6.502
10723SOL    HW133068   5.715   3.896   6.600
10723SOL    HW233069   5.763   3.938   6.449
10724SOL     OW33070   3.334   0.507   5.875
10724SOL    HW133071   3.418   0.562   5.881
10724SOL    HW233072   3.338   0.449   5.793
10725SOL     OW33073   6.835   5.141   3.940
10725SOL    HW133074   6.793   5.061   3.898
10725SOL    HW233075   6.779   5.172   4.017
10726SOL     OW33076   5.825   7.015   5.257
10726SOL    HW133077   5.796   0.040   5.172
10726SOL    HW233078   5.801   0.054   5.335
10727SOL     OW33079   1.853   4.991   5.384
10727SOL    HW133080   1.897   5.033   5.305
10727SOL    HW233081   1.798   4.913   5.354
10728SOL     OW33082   6.097   6.473   2.181
10728SOL    HW133083   6.169   6.491   2.113
10728SOL    HW233084   6.136   6.478   2.272
10729SOL     OW33085   6.434   1.493   2.652
10729SOL    HW133086   6.460   1.588   2.669
10729SOL    HW233087   6.339   1.490   2.622
10730SOL     OW33088   2.671   6.617   1.552
10730SOL    HW133089   2.699   6.660   1.638
10730SOL    HW233090   2.717   6.529   1.543
10731SOL     OW33091   2.577   5.589   0.380
10731SOL    HW133092   2.639   5.526   0.426
10731SOL    HW233093   2.614   5.613   0.290
10732SOL     OW33094   6.566   0.298   2.701
10732SOL    HW133095   6.602   0.381   2.743
10732SOL    HW233096   6.539   0.317   2.607
10733SOL     OW33097   5.456   2.247   0.184
10733SOL    HW133098   5.358   2.246   0.207
10733SOL    HW233099   5.470   2.201   0.096
10734SOL     OW33100   1.221   0.944   6.953
10734SOL    HW133101   1.204   0.968   6.857
10734SOL    HW233102   1.319   0.924   6.965
10735SOL     OW33103   1.175   4.869   2.329
10735SOL    HW133104   1.160   4.944   2.393
10735SOL    HW233105   1.244   4.895   2.262
10736SOL     OW33106   0.501   1.265   3.214
10736SOL    HW133107   0.549   1.292   3.297
10736SOL    HW233108   0.476   1.169   3.220
10737SOL     OW33109   0.588   2.623   0.663
10737SOL    HW133110   0.603   2.602   0.760
10737SOL    HW233111   0.501   2.670   0.653
10738SOL     OW33112   2.531   7.013   2.858
10738SOL    HW133113   2.591   6.941   2.822
10738SOL    HW233114   2.578   0.041   2.933
10739SOL     OW33115   6.780   1.693   2.597
10739SOL    HW133116   6.781   1.793   2.601
10739SOL    HW233117   6.795   1.663   2.503
10740SOL     OW33118   1.423   5.596   5.957
10740SOL    HW133119   1.373   5.647   6.027
10740SOL    HW233120   1.521   5.605   5.973
10741SOL     OW33121   1.189   1.336   3.516
10741SOL    HW133122   1.252   1.321   3.440
10741SOL    HW233123   1.211   1.274   3.591
10742SOL     OW33124   6.096   6.800   2.049
10742SOL    HW133125   6.060   6.889   2.076
10742SOL    HW233126   6.180   6.812   1.996
10743SOL     OW33127   3.033   2.250   3.891
10743SOL    HW133128   3.005   2.309   3.967
10743SOL    HW233129   2.956   2.238   3.828
10744SOL     OW33130   3.184   1.485   2.508
10744SOL    HW133131   3.157   1.392   2.534
10744SOL    HW233132   3.283   1.492   2.507
10745SOL     OW33133   1.916   4.538   0.342
10745SOL    HW133134   1.986   4.609   0.343
10745SOL    HW233135   1.952   4.455   0.298
10746SOL     OW33136   1.786   5.818   1.377
10746SOL    HW133137   1.700   5.824   1.328
10746SOL    HW233138   1.821   5.724   1.371
10747SOL     OW33139   5.335   1.425   3.150
10747SOL    HW133140   5.389   1.493   3.199
10747SOL    HW233141   5.295   1.360   3.215
10748SOL     OW33142   5.684   5.698   0.957
10748SOL    HW133143   5.613   5.722   0.892
10748SOL    HW233144   5.772   5.735   0.926
10749SOL     OW33145   0.084   5.157   3.025
10749SOL    HW133146   0.031   5.193   2.947
10749SOL    HW233147   0.040   5.074   3.059
10750SOL     OW33148   4.660   4.250   4.688
10750SOL    HW133149   4.752   4.287   4.676
10750SOL    HW233150   4.602   4.319   4.733
10751SOL     OW33151   1.356   3.455   4.898
10751SOL    HW133152   1.446   3.498   4.889
10751SOL    HW233153   1.313   3.485   4.983
10752SOL     OW33154   6.166   4.215   6.420
10752SOL    HW133155   6.120   4.286   6.472
10752SOL    HW233156   6.264   4.217   6.439
10753SOL     OW33157   6.130   0.158   3.823
10753SOL    HW133158   6.183   0.229   3.870
10753SOL    HW233159   6.192   0.090   3.784
10754SOL     OW33160   1.705   2.298   2.341
10754SOL    HW133161   1.649   2.242   2.402
10754SOL    HW233162   1.796   2.309   2.380
10755SOL     OW33163   6.840   1.946   0.835
10755SOL    HW133164   6.779   1.947   0.756
10755SOL    HW233165   6.787   1.934   0.919
10756SOL     OW33166   6.304   3.225   0.697
10756SOL    HW133167   6.363   3.239   0.618
10756SOL    HW233168   6.246   3.146   0.682
10757SOL     OW33169   0.075   3.591   0.550
10757SOL    HW133170   0.101   3.618   0.457
10757SOL    HW233171   0.098   3.665   0.614
10758SOL     OW33172   0.476   5.567   5.320
10758SOL    HW133173   0.521   5.495   5.371
10758SOL    HW233174   0.394   5.597   5.371
10759SOL     OW33175   2.112   3.036   6.686
10759SOL    HW133176   2.022   3.030   6.730
10759SOL    HW233177   2.183   3.040   6.756
10760SOL     OW33178   0.164   6.449   1.098
10760SOL    HW133179   0.258   6.470   1.125
10760SOL    HW233180   0.110   6.533   1.095
10761SOL     OW33181   1.177   2.644   6.598
10761SOL    HW133182   1.271   2.657   6.630
10761SOL    HW233183   1.175   2.576   6.525
10762SOL     OW33184   4.692   0.865   5.025
10762SOL    HW133185   4.635   0.854   4.943
10762SOL    HW233186   4.653   0.812   5.100
10763SOL     OW33187   4.280   0.285   1.343
10763SOL    HW133188   4.237   0.316   1.427
10763SOL    HW233189   4.216   0.229   1.291
10764SOL     OW33190   5.018   1.710   6.280
10764SOL    HW133191   4.941   1.713   6.344
10764SOL    HW233192   5.104   1.708   6.331
10765SOL     OW33193   5.522   1.424   1.567
10765SOL    HW133194   5.621   1.413   1.578
10765SOL    HW233195   5.475   1.349   1.613
10766SOL     OW33196   2.514   3.582   0.607
10766SOL    HW133197   2.525   3.491   0.646
10766SOL    HW233198   2.595   3.607   0.554
10767SOL     OW33199   1.135   6.840   0.695
10767SOL    HW133200   1.101   6.822   0.787
10767SOL    HW233201   1.197   6.918   0.697
10768SOL     OW33202   5.715   5.902   0.285
10768SOL    HW133203   5.679   5.810   0.269
10768SOL    HW233204   5.658   5.968   0.238
10769SOL     OW33205   3.034   5.063   5.735
10769SOL    HW133206   2.977   5.112   5.669
10769SOL    HW233207   3.068   4.979   5.694
10770SOL     OW33208   5.533   0.459   5.093
10770SOL    HW133209   5.449   0.419   5.055
10770SOL    HW233210   5.544   0.429   5.188
10771SOL     OW33211   4.583   0.229   5.347
10771SOL    HW133212   4.486   0.252   5.358
10771SOL    HW233213   4.639   0.302   5.384
10772SOL     OW33214   0.035   0.216   3.600
10772SOL    HW133215   0.035   0.269   3.684
10772SOL    HW233216   6.983   0.249   3.539
10773SOL     OW33217   6.574   4.948   6.852
10773SOL    HW133218   6.637   5.025   6.869
10773SOL    HW233219   6.590   4.912   6.761
10774SOL     OW33220   1.234   2.246   1.129
10774SOL    HW133221   1.289   2.327   1.150
10774SOL    HW233222   1.284   2.164   1.158
10775SOL     OW33223   2.132   4.450   0.670
10775SOL    HW133224   2.158   4.473   0.764
10775SOL    HW233225   2.033   4.437   0.665
10776SOL     OW33226   0.206   6.420   1.442
10776SOL    HW133227   0.225   6.322   1.435
10776SOL    HW233228   0.291   6.471   1.443
10777SOL     OW33229   4.031   0.030   3.191
10777SOL    HW133230   3.941   7.006   3.196
10777SOL    HW233231   4.023   0.127   3.215
10778SOL     OW33232   6.551   6.696   4.772
10778SOL    HW133233   6.530   6.604   4.740
10778SOL    HW233234   6.616   6.739   4.710
10779SOL     OW33235   6.914   4.829   2.369
10779SOL    HW133236   6.815   4.815   2.376
10779SOL    HW233237   6.934   4.927   2.371
10780SOL     OW33238   0.571   6.064   3.561
10780SOL    HW133239   0.626   6.035   3.484
10780SOL    HW233240   0.512   5.989   3.591
10781SOL     OW33241   4.616   1.781   4.584
10781SOL    HW133242   4.537   1.825   4.542
10781SOL    HW233243   4.633   1.693   4.539
10782SOL     OW33244   6.565   2.477   3.289
10782SOL    HW133245   6.617   2.488   3.374
10782SOL    HW233246   6.485   2.537   3.291
10783SOL     OW33247   1.999   3.211   2.483
10783SOL    HW133248   1.901   3.213   2.465
10783SOL    HW233249   2.032   3.117   2.483
10784SOL     OW33250   2.371   6.684   1.113
10784SOL    HW133251   2.461   6.719   1.140
10784SOL    HW233252   2.326   6.644   1.193
10785SOL     OW33253   1.884   4.805   1.602
10785SOL    HW133254   1.963   4.774   1.655
10785SOL    HW233255   1.860   4.736   1.534
10786SOL     OW33256   5.262   2.750   1.676
10786SOL    HW133257   5.229   2.666   1.633
10786SOL    HW233258   5.293   2.729   1.769
10787SOL     OW33259   3.435   1.367   4.749
10787SOL    HW133260   3.456   1.321   4.663
10787SOL    HW233261   3.439   1.466   4.735
10788SOL     OW33262   2.231   4.073   0.408
10788SOL    HW133263   2.307   4.008   0.410
10788SOL    HW233264   2.266   4.165   0.428
10789SOL     OW33265   5.797   0.810   0.495
10789SOL    HW133266   5.823   0.735   0.556
10789SOL    HW233267   5.837   0.895   0.529
10790SOL     OW33268   0.584   0.718   5.413
10790SOL    HW133269   0.556   0.790   5.350
10790SOL    HW233270   0.504   0.669   5.445
10791SOL     OW33271   1.585   1.556   2.079
10791SOL    HW133272   1.584   1.472   2.134
10791SOL    HW233273   1.493   1.597   2.080
10792SOL     OW33274   3.282   2.966   1.625
10792SOL    HW133275   3.187   2.994   1.634
10792SOL    HW233276   3.304   2.899   1.696
10793SOL     OW33277   5.641   2.185   3.837
10793SOL    HW133278   5.568   2.195   3.905
10793SOL    HW233279   5.634   2.260   3.770
10794SOL     OW33280   3.506   4.015   1.740
10794SOL    HW133281   3.499   4.111   1.712
10794SOL    HW233282   3.591   4.002   1.791
10795SOL     OW33283   6.465   4.105   2.896
10795SOL    HW133284   6.530   4.089   2.822
10795SOL    HW233285   6.391   4.163   2.864
10796SOL     OW33286   3.373   0.256   6.414
10796SOL    HW133287   3.386   0.292   6.507
10796SOL    HW233288   3.461   0.251   6.368
10797SOL     OW33289   4.022   2.412   0.665
10797SOL    HW133290   3.957   2.453   0.602
10797SOL    HW233291   3.980   2.405   0.756
10798SOL     OW33292   2.134   0.160   0.446
10798SOL    HW133293   2.223   0.205   0.436
10798SOL    HW233294   2.134   0.104   0.529
10799SOL     OW33295   3.507   2.094   2.294
10799SOL    HW133296   3.409   2.098   2.275
10799SOL    HW233297   3.556   2.144   2.223
10800SOL     OW33298   1.994   6.155   0.411
10800SOL    HW133299   2.062   6.210   0.462
10800SOL    HW233300   1.977   6.070   0.461
10801SOL     OW33301   1.402   0.653   4.099
10801SOL    HW133302   1.492   0.687   4.071
10801SOL    HW233303   1.378   0.573   4.044
10802SOL     OW33304   2.268   2.818   4.844
10802SOL    HW133305   2.328   2.873   4.902
10802SOL    HW233306   2.217   2.878   4.783
10803SOL     OW33307   5.253   4.643   5.117
10803SOL    HW133308   5.194   4.584   5.172
10803SOL    HW233309   5.282   4.722   5.172
10804SOL     OW33310   6.785   4.777   0.800
10804SOL    HW133311   6.861   4.738   0.748
10804SOL    HW233312   6.820   4.835   0.873
10805SOL     OW33313   3.554   0.747   6.775
10805SOL    HW133314   3.547   0.665   6.718
10805SOL    HW233315   3.558   0.721   6.871
10806SOL     OW33316   5.601   4.021   0.016
10806SOL    HW133317   5.563   4.111   7.016
10806SOL    HW233318   5.541   3.950   6.998
10807SOL     OW33319   3.591   6.754   3.396
10807SOL    HW133320   3.584   6.657   3.417
10807SOL    HW233321   3.514   6.782   3.339
10808SOL     OW33322   6.575   3.783   0.144
10808SOL    HW133323   6.577   3.812   0.240
10808SOL    HW233324   6.480   3.768   0.116
10809SOL     OW33325   2.955   0.536   4.246
10809SOL    HW133326   3.028   0.539   4.177
10809SOL    HW233327   2.977   0.600   4.319
10810SOL     OW33328   1.130   1.784   6.234
10810SOL    HW133329   1.066   1.854   6.267
10810SOL    HW233330   1.161   1.728   6.310
10811SOL     OW33331   4.043   5.197   5.558
10811SOL    HW133332   4.026   5.183   5.656
10811SOL    HW233333   4.049   5.296   5.539
10812SOL     OW33334   0.544   3.863   1.763
10812SOL    HW133335   0.510   3.916   1.685
10812SOL    HW233336   0.644   3.868   1.765
10813SOL     OW33337   2.724   6.067   0.978
10813SOL    HW133338   2.721   6.074   1.078
10813SOL    HW233339   2.819   6.078   0.947
10814SOL     OW33340   0.930   0.582   5.704
10814SOL    HW133341   0.871   0.625   5.636
10814SOL    HW233342   0.874   0.521   5.761
10815SOL     OW33343   4.910   4.922   3.382
10815SOL    HW133344   4.949   4.989   3.318
10815SOL    HW233345   4.873   4.845   3.330
10816SOL     OW33346   1.823   1.383   2.447
10816SOL    HW133347   1.912   1.352   2.482
10816SOL    HW233348   1.828   1.481   2.425
10817SOL     OW33349   5.740   6.826   3.063
10817SOL    HW133350   5.713   6.921   3.045
10817SOL    HW233351   5.658   6.772   3.084
10818SOL     OW33352   5.804   2.310   5.708
10818SOL    HW133353   5.773   2.306   5.803
10818SOL    HW233354   5.885   2.253   5.697
10819SOL     OW33355   0.569   3.976   6.709
10819SOL    HW133356   0.502   4.042   6.676
10819SOL    HW233357   0.528   3.884   6.710
10820SOL     OW33358   0.169   6.788   4.496
10820SOL    HW133359   0.190   6.824   4.405
10820SOL    HW233360   0.200   6.693   4.502
10821SOL     OW33361   5.963   6.776   2.923
10821SOL    HW133362   6.028   6.851   2.929
10821SOL    HW233363   5.894   6.786   2.994
10822SOL     OW33364   1.518   2.625   2.611
10822SOL    HW133365   1.425   2.601   2.584
10822SOL    HW233366   1.516   2.708   2.667
10823SOL     OW33367   1.925   5.069   1.565
10823SOL    HW133368   1.909   4.970   1.569
10823SOL    HW233369   2.021   5.087   1.587
10824SOL     OW33370   4.938   6.729   3.876
10824SOL    HW133371   4.969   6.652   3.820
10824SOL    HW233372   4.935   6.700   3.972
10825SOL     OW33373   2.523   0.725   0.710
10825SOL    HW133374   2.524   0.625   0.711
10825SOL    HW233375   2.566   0.757   0.626
10826SOL     OW33376   6.557   3.394   3.229
10826SOL    HW133377   6.461   3.366   3.221
10826SOL    HW233378   6.606   3.369   3.145
10827SOL     OW33379   6.031   3.355   3.716
10827SOL    HW133380   6.083   3.281   3.673
10827SOL    HW233381   6.091   3.407   3.777
10828SOL     OW33382   1.213   5.818   2.274
10828SOL    HW133383   1.157   5.771   2.205
10828SOL    HW233384   1.223   5.914   2.247
10829SOL     OW33385   2.942   3.451   1.111
10829SOL    HW133386   2.857   3.443   1.161
10829SOL    HW233387   3.015   3.482   1.172
10830SOL     OW33388   5.125   2.244   3.353
10830SOL    HW133389   5.199   2.268   3.415
10830SOL    HW233390   5.094   2.150   3.372
10831SOL     OW33391   4.887   6.651   1.630
10831SOL    HW133392   4.887   6.749   1.652
10831SOL    HW233393   4.980   6.616   1.635
10832SOL     OW33394   0.320   2.517   1.046
10832SOL    HW133395   0.231   2.559   1.026
10832SOL    HW233396   0.309   2.418   1.054
10833SOL     OW33397   1.607   0.498   3.761
10833SOL    HW133398   1.685   0.435   3.754
10833SOL    HW233399   1.601   0.552   3.677
10834SOL     OW33400   1.008   1.617   6.043
10834SOL    HW133401   0.918   1.624   6.086
10834SOL    HW233402   1.073   1.674   6.094
10835SOL     OW33403   5.372   1.452   1.029
10835SOL    HW133404   5.288   1.495   0.998
10835SOL    HW233405   5.426   1.519   1.080
10836SOL     OW33406   0.112   1.503   5.771
10836SOL    HW133407   0.070   1.438   5.834
10836SOL    HW233408   0.131   1.458   5.684
10837SOL     OW33409   6.907   4.733   6.959
10837SOL    HW133410   6.989   4.790   6.966
10837SOL    HW233411   6.830   4.778   7.004
10838SOL     OW33412   5.814   0.397   4.807
10838SOL    HW133413   5.797   0.495   4.806
10838SOL    HW233414   5.912   0.380   4.815
10839SOL     OW33415   2.930   3.040   0.686
10839SOL    HW133416   2.866   2.963   0.693
10839SOL    HW233417   3.019   3.006   0.657
10840SOL     OW33418   3.548   5.863   1.191
10840SOL    HW133419   3.532   5.767   1.169
10840SOL    HW233420   3.563   5.873   1.289
10841SOL     OW33421   3.146   5.722   5.855
10841SOL    HW133422   3.097   5.661   5.918
10841SOL    HW233423   3.119   5.701   5.761
10842SOL     OW33424   6.058   3.625   1.123
10842SOL    HW133425   6.009   3.597   1.206
10842SOL    HW233426   6.054   3.724   1.113
10843SOL     OW33427   0.549   1.592   1.855
10843SOL    HW133428   0.502   1.541   1.782
10843SOL    HW233429   0.644   1.563   1.859
10844SOL     OW33430   0.725   6.404   4.470
10844SOL    HW133431   0.795   6.464   4.431
10844SOL    HW233432   0.710   6.429   4.566
10845SOL     OW33433   1.802   0.978   1.299
10845SOL    HW133434   1.721   0.960   1.355
10845SOL    HW233435   1.802   1.073   1.269
10846SOL     OW33436   4.558   2.501   0.849
10846SOL    HW133437   4.551   2.408   0.885
10846SOL    HW233438   4.543   2.566   0.923
10847SOL     OW33439   2.311   1.707   6.621
10847SOL    HW133440   2.350   1.701   6.529
10847SOL    HW233441   2.359   1.642   6.681
10848SOL     OW33442   2.957   2.047   6.746
10848SOL    HW133443   3.015   2.055   6.827
10848SOL    HW233444   2.984   1.967   6.693
10849SOL     OW33445   3.982   4.815   4.195
10849SOL    HW133446   3.896   4.795   4.243
10849SOL    HW233447   3.964   4.871   4.114
10850SOL     OW33448   3.876   6.666   6.896
10850SOL    HW133449   3.824   6.750   6.887
10850SOL    HW233450   3.974   6.686   6.893
10851SOL     OW33451   2.527   2.404   6.356
10851SOL    HW133452   2.547   2.336   6.427
10851SOL    HW233453   2.612   2.444   6.324
10852SOL     OW33454   0.612   0.072   6.254
10852SOL    HW133455   0.532   0.127   6.231
10852SOL    HW233456   0.612   0.054   6.353
10853SOL     OW33457   3.774   1.659   4.706
10853SOL    HW133458   3.849   1.623   4.762
10853SOL    HW233459   3.718   1.720   4.761
10854SOL     OW33460   6.142   0.051   6.303
10854SOL    HW133461   6.130   0.045   6.204
10854SOL    HW233462   6.129   0.145   6.333
10855SOL     OW33463   2.836   6.103   2.651
10855SOL    HW133464   2.846   6.186   2.596
10855SOL    HW233465   2.840   6.127   2.748
10856SOL     OW33466   5.935   0.749   1.095
10856SOL    HW133467   5.978   0.810   1.162
10856SOL    HW233468   6.000   0.730   1.021
10857SOL     OW33469   5.625   2.880   3.500
10857SOL    HW133470   5.559   2.808   3.522
10857SOL    HW233471   5.685   2.896   3.578
10858SOL     OW33472   1.423   2.857   6.748
10858SOL    HW133473   1.384   2.918   6.680
10858SOL    HW233474   1.448   2.770   6.704
10859SOL     OW33475   1.867   3.762   3.552
10859SOL    HW133476   1.810   3.692   3.509
10859SOL    HW233477   1.813   3.813   3.618
10860SOL     OW33478   6.631   1.147   6.270
10860SOL    HW133479   6.673   1.182   6.186
10860SOL    HW233480   6.699   1.097   6.324
10861SOL     OW33481   3.719   2.464   1.682
10861SOL    HW133482   3.668   2.450   1.597
10861SOL    HW233483   3.677   2.411   1.756
10862SOL     OW33484   2.571   1.685   6.397
10862SOL    HW133485   2.600   1.777   6.371
10862SOL    HW233486   2.651   1.633   6.427
10863SOL     OW33487   3.442   1.140   2.652
10863SOL    HW133488   3.372   1.180   2.711
10863SOL    HW233489   3.460   1.200   2.574
10864SOL     OW33490   2.339   4.490   1.337
10864SOL    HW133491   2.396   4.454   1.263
10864SOL    HW233492   2.278   4.419   1.372
10865SOL     OW33493   6.115   2.601   3.247
10865SOL    HW133494   6.088   2.649   3.330
10865SOL    HW233495   6.160   2.664   3.184
10866SOL     OW33496   5.602   3.254   1.005
10866SOL    HW133497   5.629   3.177   1.062
10866SOL    HW233498   5.683   3.294   0.962
10867SOL     OW33499   2.520   3.068   0.713
10867SOL    HW133500   2.561   2.996   0.657
10867SOL    HW233501   2.422   3.071   0.697
10868SOL     OW33502   1.619   2.223   2.816
10868SOL    HW133503   1.593   2.319   2.823
10868SOL    HW233504   1.714   2.216   2.785
10869NA      NA33505   0.763   2.373   6.327
10870NA      NA33506   4.471   4.501   5.201
10871NA      NA33507   2.382   4.716   2.357
10872NA      NA33508   5.216   4.753   3.775
10873NA      NA33509   4.349   2.438   5.238
10874NA      NA33510   3.393   4.170   1.395
10875NA      NA33511   1.092   4.705   0.311
10876NA      NA33512   4.000   4.208   1.631
10877NA      NA33513   4.715   4.520   0.820
10878NA      NA33514   3.523   1.068   5.271
10879NA      NA33515   5.629   5.672   1.477
10880NA      NA33516   1.126   0.710   5.710
10881NA      NA33517   4.820   5.043   2.146
10882NA      NA33518   3.466   3.067   0.696
   7.01991   7.01991   7.01991
