Generated by trjconv : CNT in water t= 379.00000
33518
    1C        C    1   2.842   2.773   4.745
    1C        C    2   2.896   2.720   4.864
    1C        C    3   2.846   2.777   4.982
    1C        C    4   2.851   2.782   4.260
    1C        C    5   2.901   2.728   4.381
    1C        C    6   2.846   2.771   4.504
    1C        C    7   3.016   2.644   4.624
    1C        C    8   2.900   2.724   4.626
    1C        C    9   3.079   2.608   4.746
    1C        C   10   3.010   2.637   4.866
    1C        C   11   3.184   2.495   4.974
    1C        C   12   3.061   2.562   4.973
    1C        C   13   2.852   2.774   3.774
    1C        C   14   2.904   2.730   3.898
    1C        C   15   2.851   2.780   4.019
    1C        C   16   3.019   2.649   4.138
    1C        C   17   2.902   2.729   4.140
    1C        C   18   3.083   2.616   4.260
    1C        C   19   3.020   2.652   4.381
    1C        C   20   3.212   2.560   4.507
    1C        C   21   3.082   2.614   4.503
    1C        C   22   3.284   2.539   4.627
    1C        C   23   3.211   2.555   4.746
    1C        C   24   3.415   2.482   4.865
    1C        C   25   3.273   2.501   4.862
    1C        C   26   3.491   2.474   4.982
    1C        C   27   2.853   2.772   3.283
    1C        C   28   2.904   2.727   3.407
    1C        C   29   2.854   2.776   3.530
    1C        C   30   3.018   2.644   3.650
    1C        C   31   2.903   2.726   3.652
    1C        C   32   3.079   2.610   3.773
    1C        C   33   3.018   2.646   3.895
    1C        C   34   3.211   2.556   4.016
    1C        C   35   3.080   2.609   4.017
    1C        C   36   3.278   2.537   4.139
    1C        C   37   3.213   2.562   4.262
    1C        C   38   3.418   2.512   4.380
    1C        C   39   3.279   2.538   4.385
    1C        C   40   3.489   2.503   4.501
    1C        C   41   3.421   2.502   4.625
    1C        C   42   3.634   2.486   4.746
    1C        C   43   3.492   2.482   4.745
    1C        C   44   3.708   2.486   4.867
    1C        C   45   3.630   2.481   4.983
    1C        C   46   2.838   2.752   2.792
    1C        C   47   2.895   2.713   2.915
    1C        C   48   2.848   2.765   3.038
    1C        C   49   3.022   2.644   3.163
    1C        C   50   2.905   2.723   3.161
    1C        C   51   3.082   2.607   3.285
    1C        C   52   3.018   2.643   3.406
    1C        C   53   3.210   2.554   3.528
    1C        C   54   3.079   2.607   3.528
    1C        C   55   3.278   2.534   3.650
    1C        C   56   3.210   2.556   3.772
    1C        C   57   3.417   2.508   3.893
    1C        C   58   3.278   2.537   3.894
    1C        C   59   3.488   2.504   4.015
    1C        C   60   3.416   2.508   4.137
    1C        C   61   3.630   2.505   4.260
    1C        C   62   3.489   2.502   4.258
    1C        C   63   3.702   2.505   4.381
    1C        C   64   3.630   2.495   4.503
    1C        C   65   3.839   2.541   4.624
    1C        C   66   3.703   2.500   4.624
    1C        C   67   3.909   2.562   4.745
    1C        C   68   3.844   2.523   4.864
    1C        C   69   4.054   2.585   4.981
    1C        C   70   3.927   2.525   4.976
    1C        C   71   2.828   2.738   2.309
    1C        C   72   2.888   2.698   2.430
    1C        C   73   2.831   2.747   2.549
    1C        C   74   3.008   2.627   2.671
    1C        C   75   2.889   2.702   2.670
    1C        C   76   3.074   2.603   2.793
    1C        C   77   3.014   2.637   2.916
    1C        C   78   3.206   2.548   3.039
    1C        C   79   3.077   2.606   3.039
    1C        C   80   3.278   2.529   3.158
    1C        C   81   3.211   2.549   3.281
    1C        C   82   3.414   2.501   3.401
    1C        C   83   3.277   2.534   3.405
    1C        C   84   3.485   2.494   3.523
    1C        C   85   3.417   2.507   3.646
    1C        C   86   3.626   2.496   3.768
    1C        C   87   3.485   2.498   3.770
    1C        C   88   3.696   2.513   3.890
    1C        C   89   3.629   2.510   4.014
    1C        C   90   3.837   2.547   4.137
    1C        C   91   3.699   2.516   4.137
    1C        C   92   3.905   2.569   4.258
    1C        C   93   3.836   2.549   4.380
    1C        C   94   4.026   2.638   4.497
    1C        C   95   3.905   2.566   4.502
    1C        C   96   4.089   2.671   4.620
    1C        C   97   4.036   2.627   4.743
    1C        C   98   4.188   2.769   4.861
    1C        C   99   4.102   2.655   4.866
    1C        C  100   4.214   2.845   4.975
    1C        C  101   2.823   2.731   2.071
    1C        C  102   2.991   2.591   2.191
    1C        C  103   2.878   2.680   2.189
    1C        C  104   3.062   2.568   2.311
    1C        C  105   3.001   2.612   2.431
    1C        C  106   3.202   2.535   2.552
    1C        C  107   3.071   2.587   2.551
    1C        C  108   3.271   2.522   2.675
    1C        C  109   3.203   2.544   2.797
    1C        C  110   3.411   2.495   2.915
    1C        C  111   3.271   2.518   2.917
    1C        C  112   3.485   2.489   3.035
    1C        C  113   3.416   2.500   3.158
    1C        C  114   3.628   2.499   3.278
    1C        C  115   3.487   2.490   3.280
    1C        C  116   3.696   2.507   3.402
    1C        C  117   3.626   2.499   3.524
    1C        C  118   3.834   2.539   3.647
    1C        C  119   3.697   2.506   3.647
    1C        C  120   3.900   2.566   3.769
    1C        C  121   3.834   2.542   3.891
    1C        C  122   4.029   2.629   4.011
    1C        C  123   3.901   2.569   4.013
    1C        C  124   4.089   2.670   4.132
    1C        C  125   4.031   2.634   4.255
    1C        C  126   4.200   2.764   4.378
    1C        C  127   4.088   2.678   4.376
    1C        C  128   4.246   2.817   4.501
    1C        C  129   4.192   2.768   4.622
    1C        C  130   4.334   2.932   4.738
    1C        C  131   4.243   2.823   4.741
    1C        C  132   4.365   3.000   4.858
    1C        C  133   4.289   2.963   4.970
    1C        C  134   3.174   2.471   2.083
    1C        C  135   3.039   2.508   2.085
    1C        C  136   3.263   2.485   2.191
    1C        C  137   3.197   2.521   2.310
    1C        C  138   3.407   2.481   2.427
    1C        C  139   3.267   2.502   2.431
    1C        C  140   3.480   2.487   2.548
    1C        C  141   3.410   2.497   2.670
    1C        C  142   3.620   2.499   2.788
    1C        C  143   3.480   2.487   2.792
    1C        C  144   3.693   2.505   2.909
    1C        C  145   3.626   2.491   3.033
    1C        C  146   3.835   2.532   3.154
    1C        C  147   3.696   2.506   3.155
    1C        C  148   3.899   2.558   3.278
    1C        C  149   3.832   2.543   3.402
    1C        C  150   4.025   2.628   3.521
    1C        C  151   3.900   2.562   3.524
    1C        C  152   4.081   2.672   3.643
    1C        C  153   4.024   2.635   3.767
    1C        C  154   4.195   2.761   3.886
    1C        C  155   4.087   2.669   3.888
    1C        C  156   4.246   2.809   4.009
    1C        C  157   4.195   2.763   4.133
    1C        C  158   4.337   2.921   4.253
    1C        C  159   4.250   2.810   4.254
    1C        C  160   4.377   2.984   4.373
    1C        C  161   4.330   2.930   4.495
    1C        C  162   4.440   3.114   4.612
    1C        C  163   4.373   2.990   4.615
    1C        C  164   4.469   3.181   4.733
    1C        C  165   4.444   3.116   4.856
    1C        C  166   4.523   3.320   4.970
    1C        C  167   4.485   3.186   4.970
    1C        C  168   3.473   2.429   2.070
    1C        C  169   3.401   2.457   2.187
    1C        C  170   3.619   2.463   2.304
    1C        C  171   3.477   2.464   2.306
    1C        C  172   3.691   2.487   2.423
    1C        C  173   3.621   2.485   2.546
    1C        C  174   3.829   2.536   2.665
    1C        C  175   3.693   2.501   2.667
    1C        C  176   3.896   2.560   2.787
    1C        C  177   3.830   2.537   2.910
    1C        C  178   4.026   2.621   3.032
    1C        C  179   3.901   2.556   3.031
    1C        C  180   4.087   2.658   3.154
    1C        C  181   4.025   2.621   3.276
    1C        C  182   4.194   2.751   3.398
    1C        C  183   4.084   2.662   3.397
    1C        C  184   4.243   2.805   3.519
    1C        C  185   4.190   2.762   3.642
    1C        C  186   4.337   2.916   3.765
    1C        C  187   4.248   2.807   3.763
    1C        C  188   4.375   2.976   3.887
    1C        C  189   4.334   2.919   4.009
    1C        C  190   4.443   3.103   4.126
    1C        C  191   4.371   2.982   4.130
    1C        C  192   4.468   3.175   4.246
    1C        C  193   4.439   3.111   4.369
    1C        C  194   4.509   3.314   4.491
    1C        C  195   4.469   3.179   4.489
    1C        C  196   4.528   3.386   4.611
    1C        C  197   4.511   3.317   4.733
    1C        C  198   4.561   3.534   4.851
    1C        C  199   4.537   3.393   4.850
    1C        C  200   4.582   3.620   4.964
    1C        C  201   3.612   2.413   2.075
    1C        C  202   3.829   2.506   2.183
    1C        C  203   3.694   2.460   2.183
    1C        C  204   3.899   2.540   2.302
    1C        C  205   3.829   2.517   2.423
    1C        C  206   4.022   2.613   2.544
    1C        C  207   3.900   2.543   2.542
    1C        C  208   4.083   2.655   2.664
    1C        C  209   4.022   2.624   2.788
    1C        C  210   4.195   2.747   2.907
    1C        C  211   4.083   2.661   2.909
    1C        C  212   4.245   2.798   3.030
    1C        C  213   4.197   2.746   3.152
    1C        C  214   4.326   2.914   3.271
    1C        C  215   4.246   2.797   3.275
    1C        C  216   4.361   2.976   3.393
    1C        C  217   4.330   2.917   3.517
    1C        C  218   4.429   3.102   3.640
    1C        C  219   4.370   2.974   3.640
    1C        C  220   4.458   3.170   3.761
    1C        C  221   4.439   3.102   3.883
    1C        C  222   4.500   3.307   4.001
    1C        C  223   4.468   3.170   4.004
    1C        C  224   4.509   3.379   4.123
    1C        C  225   4.503   3.312   4.247
    1C        C  226   4.525   3.524   4.366
    1C        C  227   4.519   3.382   4.368
    1C        C  228   4.525   3.597   4.487
    1C        C  229   4.533   3.528   4.609
    1C        C  230   4.499   3.740   4.726
    1C        C  231   4.536   3.602   4.729
    1C        C  232   4.490   3.816   4.844
    1C        C  233   4.539   3.753   4.959
    1C        C  234   4.017   2.611   2.063
    1C        C  235   3.891   2.551   2.065
    1C        C  236   4.086   2.648   2.179
    1C        C  237   4.024   2.608   2.300
    1C        C  238   4.200   2.729   2.421
    1C        C  239   4.084   2.648   2.422
    1C        C  240   4.253   2.781   2.541
    1C        C  241   4.197   2.739   2.664
    1C        C  242   4.330   2.907   2.783
    1C        C  243   4.248   2.793   2.784
    1C        C  244   4.370   2.966   2.905
    1C        C  245   4.330   2.910   3.029
    1C        C  246   4.432   3.099   3.149
    1C        C  247   4.365   2.975   3.150
    1C        C  248   4.459   3.163   3.272
    1C        C  249   4.427   3.102   3.395
    1C        C  250   4.486   3.306   3.514
    1C        C  251   4.452   3.169   3.517
    1C        C  252   4.498   3.376   3.636
    1C        C  253   4.498   3.306   3.759
    1C        C  254   4.525   3.518   3.878
    1C        C  255   4.517   3.377   3.880
    1C        C  256   4.522   3.591   3.999
    1C        C  257   4.520   3.520   4.122
    1C        C  258   4.500   3.732   4.241
    1C        C  259   4.520   3.592   4.243
    1C        C  260   4.477   3.805   4.360
    1C        C  261   4.492   3.735   4.482
    1C        C  262   4.428   3.938   4.603
    1C        C  263   4.477   3.805   4.603
    1C        C  264   4.404   4.011   4.721
    1C        C  265   4.438   3.948   4.842
    1C        C  266   4.322   4.134   4.959
    1C        C  267   4.394   4.016   4.957
    1C        C  268   4.264   2.772   2.061
    1C        C  269   4.199   2.732   2.179
    1C        C  270   4.346   2.888   2.298
    1C        C  271   4.254   2.780   2.300
    1C        C  272   4.385   2.950   2.418
    1C        C  273   4.340   2.892   2.539
    1C        C  274   4.442   3.083   2.660
    1C        C  275   4.374   2.960   2.659
    1C        C  276   4.466   3.152   2.782
    1C        C  277   4.439   3.089   2.905
    1C        C  278   4.500   3.296   3.024
    1C        C  279   4.464   3.159   3.025
    1C        C  280   4.507   3.367   3.146
    1C        C  281   4.493   3.300   3.270
    1C        C  282   4.518   3.513   3.388
    1C        C  283   4.505   3.372   3.391
    1C        C  284   4.513   3.586   3.508
    1C        C  285   4.509   3.517   3.632
    1C        C  286   4.500   3.726   3.754
    1C        C  287   4.519   3.586   3.754
    1C        C  288   4.482   3.797   3.875
    1C        C  289   4.501   3.730   3.998
    1C        C  290   4.430   3.932   4.114
    1C        C  291   4.481   3.801   4.119
    1C        C  292   4.399   3.999   4.235
    1C        C  293   4.426   3.937   4.359
    1C        C  294   4.328   4.125   4.477
    1C        C  295   4.398   4.003   4.481
    1C        C  296   4.281   4.185   4.597
    1C        C  297   4.325   4.130   4.719
    1C        C  298   4.196   4.308   4.836
    1C        C  299   4.282   4.194   4.839
    1C        C  300   4.173   4.401   4.942
    1C        C  301   4.348   2.883   2.060
    1C        C  302   4.469   3.067   2.175
    1C        C  303   4.393   2.945   2.177
    1C        C  304   4.484   3.141   2.296
    1C        C  305   4.451   3.075   2.416
    1C        C  306   4.503   3.284   2.538
    1C        C  307   4.471   3.146   2.537
    1C        C  308   4.521   3.356   2.658
    1C        C  309   4.507   3.287   2.781
    1C        C  310   4.525   3.503   2.900
    1C        C  311   4.517   3.362   2.900
    1C        C  312   4.528   3.577   3.020
    1C        C  313   4.521   3.507   3.142
    1C        C  314   4.497   3.720   3.261
    1C        C  315   4.518   3.580   3.263
    1C        C  316   4.479   3.789   3.383
    1C        C  317   4.494   3.726   3.509
    1C        C  318   4.433   3.928   3.626
    1C        C  319   4.482   3.795   3.632
    1C        C  320   4.400   3.991   3.748
    1C        C  321   4.430   3.928   3.871
    1C        C  322   4.322   4.113   3.990
    1C        C  323   4.400   3.996   3.992
    1C        C  324   4.277   4.170   4.111
    1C        C  325   4.325   4.119   4.234
    1C        C  326   4.184   4.279   4.352
    1C        C  327   4.283   4.179   4.355
    1C        C  328   4.136   4.336   4.473
    1C        C  329   4.187   4.290   4.596
    1C        C  330   4.022   4.434   4.711
    1C        C  331   4.138   4.351   4.714
    1C        C  332   3.971   4.486   4.832
    1C        C  333   4.059   4.483   4.941
    1C        C  334   4.552   3.270   2.061
    1C        C  335   4.533   3.131   2.064
    1C        C  336   4.538   3.349   2.176
    1C        C  337   4.514   3.280   2.296
    1C        C  338   4.523   3.495   2.411
    1C        C  339   4.512   3.354   2.416
    1C        C  340   4.519   3.567   2.532
    1C        C  341   4.522   3.497   2.655
    1C        C  342   4.500   3.710   2.773
    1C        C  343   4.520   3.570   2.776
    1C        C  344   4.486   3.784   2.893
    1C        C  345   4.503   3.716   3.015
    1C        C  346   4.435   3.918   3.137
    1C        C  347   4.484   3.786   3.137
    1C        C  348   4.396   3.979   3.258
    1C        C  349   4.428   3.920   3.383
    1C        C  350   4.323   4.106   3.501
    1C        C  351   4.402   3.989   3.503
    1C        C  352   4.280   4.166   3.622
    1C        C  353   4.322   4.109   3.744
    1C        C  354   4.183   4.269   3.865
    1C        C  355   4.277   4.164   3.866
    1C        C  356   4.126   4.314   3.986
    1C        C  357   4.173   4.266   4.110
    1C        C  358   4.007   4.398   4.230
    1C        C  359   4.126   4.323   4.230
    1C        C  360   3.952   4.448   4.350
    1C        C  361   4.020   4.416   4.470
    1C        C  362   3.830   4.520   4.592
    1C        C  363   3.956   4.457   4.589
    1C        C  364   3.762   4.543   4.713
    1C        C  365   3.839   4.536   4.831
    1C        C  366   3.627   4.588   4.946
    1C        C  367   3.765   4.572   4.945
    1C        C  368   4.506   3.563   2.052
    1C        C  369   4.523   3.490   2.170
    1C        C  370   4.505   3.705   2.286
    1C        C  371   4.527   3.566   2.289
    1C        C  372   4.480   3.776   2.405
    1C        C  373   4.501   3.707   2.527
    1C        C  374   4.423   3.904   2.648
    1C        C  375   4.477   3.774   2.649
    1C        C  376   4.399   3.973   2.769
    1C        C  377   4.437   3.917   2.892
    1C        C  378   4.320   4.094   3.012
    1C        C  379   4.406   3.982   3.014
    1C        C  380   4.269   4.148   3.132
    1C        C  381   4.313   4.093   3.255
    1C        C  382   4.182   4.259   3.376
    1C        C  383   4.275   4.153   3.377
    1C        C  384   4.126   4.305   3.497
    1C        C  385   4.178   4.264   3.622
    1C        C  386   4.006   4.389   3.741
    1C        C  387   4.124   4.312   3.744
    1C        C  388   3.946   4.428   3.862
    1C        C  389   4.008   4.393   3.984
    1C        C  390   3.819   4.490   4.106
    1C        C  391   3.946   4.429   4.106
    1C        C  392   3.751   4.515   4.227
    1C        C  393   3.823   4.505   4.348
    1C        C  394   3.619   4.555   4.474
    1C        C  395   3.758   4.533   4.471
    1C        C  396   3.545   4.565   4.594
    1C        C  397   3.623   4.568   4.712
    1C        C  398   3.409   4.553   4.839
    1C        C  399   3.548   4.575   4.831
    1C        C  400   3.341   4.515   4.956
    1C        C  401   4.509   3.702   2.048
    1C        C  402   4.447   3.911   2.167
    1C        C  403   4.490   3.777   2.165
    1C        C  404   4.412   3.979   2.286
    1C        C  405   4.435   3.910   2.407
    1C        C  406   4.328   4.096   2.525
    1C        C  407   4.401   3.975   2.528
    1C        C  408   4.278   4.148   2.646
    1C        C  409   4.321   4.091   2.768
    1C        C  410   4.182   4.254   2.888
    1C        C  411   4.276   4.149   2.889
    1C        C  412   4.122   4.298   3.009
    1C        C  413   4.172   4.251   3.132
    1C        C  414   4.001   4.374   3.252
    1C        C  415   4.121   4.300   3.255
    1C        C  416   3.941   4.409   3.375
    1C        C  417   4.005   4.378   3.497
    1C        C  418   3.812   4.473   3.619
    1C        C  419   3.941   4.416   3.618
    1C        C  420   3.749   4.500   3.742
    1C        C  421   3.818   4.489   3.865
    1C        C  422   3.610   4.535   3.987
    1C        C  423   3.750   4.516   3.985
    1C        C  424   3.540   4.538   4.110
    1C        C  425   3.611   4.535   4.232
    1C        C  426   3.403   4.551   4.357
    1C        C  427   3.544   4.554   4.354
    1C        C  428   3.331   4.545   4.479
    1C        C  429   3.404   4.558   4.599
    1C        C  430   3.192   4.527   4.724
    1C        C  431   3.332   4.551   4.721
    1C        C  432   3.123   4.499   4.845
    1C        C  433   3.203   4.495   4.960
    1C        C  434   4.383   4.124   2.046
    1C        C  435   4.442   3.997   2.056
    1C        C  436   4.304   4.162   2.160
    1C        C  437   4.336   4.099   2.283
    1C        C  438   4.182   4.250   2.402
    1C        C  439   4.286   4.154   2.403
    1C        C  440   4.123   4.293   2.523
    1C        C  441   4.176   4.245   2.645
    1C        C  442   4.000   4.364   2.768
    1C        C  443   4.123   4.294   2.767
    1C        C  444   3.940   4.407   2.888
    1C        C  445   4.008   4.380   3.010
    1C        C  446   3.809   4.463   3.130
    1C        C  447   3.940   4.410   3.130
    1C        C  448   3.743   4.481   3.254
    1C        C  449   3.810   4.461   3.377
    1C        C  450   3.605   4.522   3.496
    1C        C  451   3.744   4.493   3.497
    1C        C  452   3.541   4.543   3.620
    1C        C  453   3.611   4.533   3.742
    1C        C  454   3.399   4.540   3.864
    1C        C  455   3.540   4.542   3.864
    1C        C  456   3.332   4.528   3.988
    1C        C  457   3.399   4.536   4.112
    1C        C  458   3.194   4.502   4.238
    1C        C  459   3.331   4.535   4.236
    1C        C  460   3.128   4.486   4.361
    1C        C  461   3.194   4.511   4.484
    1C        C  462   2.994   4.439   4.603
    1C        C  463   3.122   4.499   4.604
    1C        C  464   2.931   4.403   4.724
    1C        C  465   2.989   4.447   4.846
    1C        C  466   2.811   4.328   4.960
    1C        C  467   2.910   4.427   4.963
    1C        C  468   4.122   4.289   2.042
    1C        C  469   4.188   4.245   2.157
    1C        C  470   4.005   4.362   2.281
    1C        C  471   4.128   4.291   2.278
    1C        C  472   3.939   4.398   2.400
    1C        C  473   4.001   4.364   2.522
    1C        C  474   3.810   4.456   2.641
    1C        C  475   3.939   4.398   2.645
    1C        C  476   3.744   4.485   2.763
    1C        C  477   3.810   4.462   2.885
    1C        C  478   3.604   4.517   3.009
    1C        C  479   3.742   4.485   3.007
    1C        C  480   3.535   4.526   3.132
    1C        C  481   3.605   4.512   3.253
    1C        C  482   3.392   4.536   3.377
    1C        C  483   3.533   4.525   3.374
    1C        C  484   3.326   4.531   3.501
    1C        C  485   3.400   4.544   3.621
    1C        C  486   3.190   4.503   3.746
    1C        C  487   3.328   4.536   3.742
    1C        C  488   3.125   4.479   3.869
    1C        C  489   3.194   4.499   3.991
    1C        C  490   3.000   4.419   4.115
    1C        C  491   3.128   4.479   4.115
    1C        C  492   2.942   4.383   4.239
    1C        C  493   3.000   4.425   4.360
    1C        C  494   2.827   4.305   4.484
    1C        C  495   2.937   4.393   4.482
    1C        C  496   2.776   4.257   4.606
    1C        C  497   2.821   4.313   4.728
    1C        C  498   2.663   4.164   4.844
    1C        C  499   2.754   4.272   4.845
    1C        C  500   2.595   4.116   4.957
    1C        C  501   4.002   4.359   2.043
    1C        C  502   3.813   4.460   2.157
    1C        C  503   3.942   4.403   2.162
    1C        C  504   3.739   4.473   2.277
    1C        C  505   3.806   4.447   2.398
    1C        C  506   3.600   4.497   2.523
    1C        C  507   3.739   4.472   2.520
    1C        C  508   3.531   4.512   2.645
    1C        C  509   3.604   4.505   2.765
    1C        C  510   3.393   4.523   2.888
    1C        C  511   3.534   4.520   2.887
    1C        C  512   3.321   4.522   3.009
    1C        C  513   3.393   4.529   3.130
    1C        C  514   3.187   4.493   3.257
    1C        C  515   3.324   4.526   3.254
    1C        C  516   3.122   4.472   3.381
    1C        C  517   3.189   4.496   3.504
    1C        C  518   2.997   4.410   3.627
    1C        C  519   3.121   4.476   3.626
    1C        C  520   2.941   4.369   3.750
    1C        C  521   3.004   4.407   3.871
    1C        C  522   2.838   4.279   3.995
    1C        C  523   2.947   4.370   3.994
    1C        C  524   2.789   4.235   4.120
    1C        C  525   2.837   4.288   4.242
    1C        C  526   2.696   4.131   4.367
    1C        C  527   2.780   4.245   4.364
    1C        C  528   2.655   4.072   4.489
    1C        C  529   2.688   4.146   4.605
    1C        C  530   2.595   3.955   4.731
    1C        C  531   2.642   4.090   4.726
    1C        C  532   2.549   3.897   4.852
    1C        C  533   2.527   3.994   4.956
    1C        C  534   3.615   4.553   2.041
    1C        C  535   3.749   4.511   2.044
    1C        C  536   3.535   4.532   2.157
    1C        C  537   3.600   4.501   2.280
    1C        C  538   3.389   4.518   2.402
    1C        C  539   3.530   4.512   2.402
    1C        C  540   3.318   4.515   2.524
    1C        C  541   3.390   4.520   2.646
    1C        C  542   3.181   4.484   2.768
    1C        C  543   3.318   4.516   2.768
    1C        C  544   3.115   4.464   2.891
    1C        C  545   3.183   4.491   3.012
    1C        C  546   2.994   4.401   3.136
    1C        C  547   3.118   4.470   3.136
    1C        C  548   2.940   4.363   3.261
    1C        C  549   2.998   4.404   3.383
    1C        C  550   2.832   4.275   3.507
    1C        C  551   2.937   4.369   3.505
    1C        C  552   2.779   4.228   3.630
    1C        C  553   2.832   4.279   3.751
    1C        C  554   2.697   4.118   3.880
    1C        C  555   2.787   4.227   3.874
    1C        C  556   2.656   4.064   4.004
    1C        C  557   2.701   4.125   4.123
    1C        C  558   2.593   3.944   4.249
    1C        C  559   2.663   4.067   4.246
    1C        C  560   2.562   3.879   4.371
    1C        C  561   2.586   3.949   4.491
    1C        C  562   2.532   3.745   4.614
    1C        C  563   2.569   3.882   4.614
    1C        C  564   2.516   3.678   4.737
    1C        C  565   2.521   3.757   4.855
    1C        C  566   2.528   3.544   4.977
    1C        C  567   2.519   3.683   4.974
    1C        C  568   3.324   4.477   2.042
    1C        C  569   3.393   4.517   2.157
    1C        C  570   3.182   4.487   2.280
    1C        C  571   3.320   4.522   2.279
    1C        C  572   3.113   4.461   2.401
    1C        C  573   3.180   4.486   2.523
    1C        C  574   2.985   4.405   2.646
    1C        C  575   3.112   4.469   2.645
    1C        C  576   2.926   4.368   2.769
    1C        C  577   2.989   4.401   2.891
    1C        C  578   2.820   4.277   3.017
    1C        C  579   2.932   4.364   3.015
    1C        C  580   2.775   4.225   3.140
    1C        C  581   2.829   4.276   3.260
    1C        C  582   2.693   4.117   3.387
    1C        C  583   2.783   4.226   3.384
    1C        C  584   2.657   4.057   3.509
    1C        C  585   2.693   4.116   3.632
    1C        C  586   2.593   3.935   3.756
    1C        C  587   2.658   4.060   3.757
    1C        C  588   2.567   3.873   3.880
    1C        C  589   2.599   3.935   4.003
    1C        C  590   2.535   3.738   4.129
    1C        C  591   2.572   3.874   4.128
    1C        C  592   2.517   3.671   4.252
    1C        C  593   2.525   3.743   4.373
    1C        C  594   2.507   3.531   4.496
    1C        C  595   2.515   3.672   4.494
    1C        C  596   2.514   3.460   4.618
    1C        C  597   2.515   3.535   4.737
    1C        C  598   2.531   3.326   4.864
    1C        C  599   2.525   3.467   4.860
    1C        C  600   2.534   3.246   4.979
    1C        C  601   3.191   4.442   2.044
    1C        C  602   2.980   4.399   2.159
    1C        C  603   3.116   4.444   2.162
    1C        C  604   2.921   4.365   2.284
    1C        C  605   2.987   4.398   2.404
    1C        C  606   2.817   4.271   2.529
    1C        C  607   2.926   4.360   2.525
    1C        C  608   2.770   4.221   2.652
    1C        C  609   2.820   4.276   2.772
    1C        C  610   2.691   4.109   2.894
    1C        C  611   2.774   4.223   2.895
    1C        C  612   2.657   4.053   3.019
    1C        C  613   2.690   4.112   3.143
    1C        C  614   2.593   3.927   3.266
    1C        C  615   2.653   4.055   3.267
    1C        C  616   2.569   3.865   3.390
    1C        C  617   2.594   3.930   3.513
    1C        C  618   2.528   3.730   3.636
    1C        C  619   2.566   3.866   3.635
    1C        C  620   2.519   3.665   3.761
    1C        C  621   2.528   3.737   3.882
    1C        C  622   2.510   3.529   4.010
    1C        C  623   2.523   3.669   4.006
    1C        C  624   2.505   3.458   4.133
    1C        C  625   2.501   3.530   4.254
    1C        C  626   2.519   3.318   4.378
    1C        C  627   2.500   3.458   4.375
    1C        C  628   2.544   3.247   4.498
    1C        C  629   2.533   3.320   4.618
    1C        C  630   2.597   3.121   4.741
    1C        C  631   2.552   3.256   4.743
    1C        C  632   2.618   3.052   4.864
    1C        C  633   2.555   3.107   4.980
    1C        C  634   2.779   4.306   2.056
    1C        C  635   2.889   4.393   2.049
    1C        C  636   2.748   4.231   2.171
    1C        C  637   2.813   4.272   2.289
    1C        C  638   2.679   4.106   2.408
    1C        C  639   2.759   4.222   2.409
    1C        C  640   2.644   4.047   2.531
    1C        C  641   2.683   4.109   2.652
    1C        C  642   2.586   3.921   2.777
    1C        C  643   2.644   4.050   2.774
    1C        C  644   2.564   3.856   2.900
    1C        C  645   2.596   3.925   3.019
    1C        C  646   2.531   3.726   3.147
    1C        C  647   2.570   3.861   3.143
    1C        C  648   2.516   3.657   3.269
    1C        C  649   2.530   3.729   3.390
    1C        C  650   2.510   3.520   3.518
    1C        C  651   2.516   3.661   3.513
    1C        C  652   2.515   3.451   3.641
    1C        C  653   2.516   3.523   3.763
    1C        C  654   2.540   3.319   3.891
    1C        C  655   2.517   3.458   3.888
    1C        C  656   2.554   3.251   4.014
    1C        C  657   2.527   3.318   4.135
    1C        C  658   2.597   3.118   4.258
    1C        C  659   2.547   3.250   4.257
    1C        C  660   2.626   3.052   4.380
    1C        C  661   2.582   3.111   4.501
    1C        C  662   2.705   2.937   4.623
    1C        C  663   2.617   3.047   4.622
    1C        C  664   2.751   2.883   4.745
    1C        C  665   2.699   2.934   4.866
    1C        C  666   2.743   2.870   4.983
    1C        C  667   2.682   4.021   2.055
    1C        C  668   2.688   4.103   2.169
    1C        C  669   2.590   3.909   2.290
    1C        C  670   2.643   4.041   2.288
    1C        C  671   2.563   3.845   2.413
    1C        C  672   2.586   3.918   2.532
    1C        C  673   2.519   3.719   2.660
    1C        C  674   2.563   3.853   2.655
    1C        C  675   2.506   3.650   2.782
    1C        C  676   2.522   3.721   2.903
    1C        C  677   2.505   3.512   3.030
    1C        C  678   2.514   3.653   3.027
    1C        C  679   2.505   3.443   3.153
    1C        C  680   2.506   3.516   3.274
    1C        C  681   2.525   3.306   3.399
    1C        C  682   2.509   3.446   3.397
    1C        C  683   2.543   3.240   3.523
    1C        C  684   2.525   3.311   3.644
    1C        C  685   2.601   3.117   3.769
    1C        C  686   2.548   3.248   3.769
    1C        C  687   2.635   3.055   3.892
    1C        C  688   2.607   3.120   4.014
    1C        C  689   2.710   2.936   4.137
    1C        C  690   2.636   3.057   4.137
    1C        C  691   2.751   2.881   4.261
    1C        C  692   2.706   2.936   4.384
    1C        C  693   2.755   2.880   4.504
    1C        C  694   2.629   3.892   2.051
    1C        C  695   2.532   3.703   2.176
    1C        C  696   2.584   3.834   2.171
    1C        C  697   2.511   3.637   2.299
    1C        C  698   2.526   3.709   2.419
    1C        C  699   2.493   3.502   2.542
    1C        C  700   2.508   3.642   2.542
    1C        C  701   2.507   3.435   2.666
    1C        C  702   2.504   3.509   2.786
    1C        C  703   2.524   3.300   2.911
    1C        C  704   2.503   3.440   2.910
    1C        C  705   2.540   3.230   3.032
    1C        C  706   2.530   3.304   3.152
    1C        C  707   2.601   3.109   3.278
    1C        C  708   2.545   3.238   3.276
    1C        C  709   2.634   3.048   3.401
    1C        C  710   2.602   3.112   3.523
    1C        C  711   2.713   2.937   3.647
    1C        C  712   2.632   3.052   3.647
    1C        C  713   2.761   2.882   3.768
    1C        C  714   2.714   2.937   3.890
    1C        C  715   2.757   2.886   4.014
    1C        C  716   2.455   3.497   2.062
    1C        C  717   2.496   3.631   2.061
    1C        C  718   2.469   3.421   2.182
    1C        C  719   2.481   3.498   2.301
    1C        C  720   2.510   3.289   2.424
    1C        C  721   2.481   3.427   2.423
    1C        C  722   2.535   3.223   2.547
    1C        C  723   2.522   3.295   2.667
    1C        C  724   2.593   3.097   2.791
    1C        C  725   2.539   3.227   2.790
    1C        C  726   2.623   3.033   2.914
    1C        C  727   2.593   3.099   3.035
    1C        C  728   2.705   2.920   3.158
    1C        C  729   2.627   3.038   3.158
    1C        C  730   2.749   2.868   3.282
    1C        C  731   2.708   2.928   3.403
    1C        C  732   2.756   2.877   3.526
    1C        C  733   2.482   3.192   2.075
    1C        C  734   2.485   3.279   2.185
    1C        C  735   2.584   3.085   2.304
    1C        C  736   2.523   3.213   2.305
    1C        C  737   2.609   3.020   2.426
    1C        C  738   2.584   3.090   2.546
    1C        C  739   2.694   2.910   2.670
    1C        C  740   2.623   3.032   2.669
    1C        C  741   2.739   2.854   2.791
    1C        C  742   2.703   2.917   2.912
    1C        C  743   2.750   2.867   3.035
    1C        C  744   2.548   3.070   2.070
    1C        C  745   2.688   2.898   2.185
    1C        C  746   2.613   3.018   2.183
    1C        C  747   2.732   2.842   2.307
    1C        C  748   2.685   2.901   2.426
    1C        C  749   2.732   2.849   2.549
    1C        C  750   2.736   2.840   2.067
    1C        C  751   3.652   2.290   2.004
    1C        O  752   3.647   2.175   2.056
    1C        O  753   3.664   2.281   1.864
    1C        C  754   4.622   3.056   1.972
    1C        O  755   4.600   3.038   1.849
    1C        O  756   4.751   3.024   2.014
    1C        C  757   4.437   4.214   1.942
    1C        O  758   4.540   4.285   1.960
    1C        O  759   4.403   4.190   1.808
    1C        C  760   3.575   4.648   1.934
    1C        O  761   3.625   4.763   1.929
    1C        O  762   3.552   4.610   1.801
    1C        C  763   2.907   4.467   1.923
    1C        O  764   2.965   4.404   1.831
    1C        O  765   2.796   4.545   1.887
    1C        C  766   2.353   3.452   1.965
    1C        O  767   2.381   3.414   1.848
    1C        O  768   2.214   3.451   1.985
    1C        C  769   4.676   3.597   5.076
    1C        O  770   4.627   3.616   5.190
    1C        O  771   4.790   3.517   5.063
    1C        C  772   4.287   4.445   5.026
    1C        O  773   4.279   4.470   5.149
    1C        O  774   4.387   4.533   4.982
    1C        C  775   4.139   2.545   5.096
    1C        O  776   4.184   2.427   5.098
    1C        O  777   4.118   2.593   5.225
    1C        C  778   2.882   4.547   5.045
    1C        O  779   2.808   4.641   5.007
    1C        O  780   2.931   4.569   5.175
    1C        C  781   2.465   3.021   5.060
    1C        O  782   2.359   2.979   5.006
    1C        O  783   2.459   3.036   5.198
    1C        C  784   2.413   3.996   5.050
    1C        O  785   2.306   4.060   5.034
    1C        O  786   2.417   3.963   5.186
    1C        C  787   2.945   2.411   2.025
    1C        O  788   2.940   2.393   1.901
    1C        O  789   2.888   2.303   2.092
    1C        C  790   3.184   2.383   5.070
    1C        O  791   3.147   2.267   5.035
    1C        O  792   3.185   2.408   5.208
    1C        H  793   4.296   3.019   5.061
    1C        H  794   4.208   2.799   5.072
    1C        H  795   4.474   3.144   5.068
    1C        H  796   4.515   3.376   5.061
    1C        H  797   4.564   3.813   5.045
    1C        H  798   4.383   3.957   5.046
    1C        H  799   4.332   4.192   5.049
    1C        H  800   4.058   4.563   5.013
    1C        H  801   3.821   4.587   5.035
    1C        H  802   3.577   4.616   5.036
    1C        H  803   3.399   4.448   5.015
    1C        H  804   3.153   4.508   5.053
    1C        H  805   3.897   2.478   5.068
    1C        H  806   3.681   2.464   5.076
    1C        H  807   2.990   2.543   5.051
    1C        H  808   3.446   2.414   5.058
    1C        H  809   2.909   2.769   5.067
    1C        H  810   2.715   2.917   5.075
    1C        H  811   2.562   3.293   5.071
    1C        H  812   2.506   3.500   5.072
    1C        H  813   2.545   3.736   5.063
    1C        H  814   2.565   4.194   5.024
    1C        H  815   2.773   4.297   5.055
    1C        H  816   2.748   2.905   1.983
    1C        H  817   2.795   2.654   2.003
    1C        H  818   3.224   2.458   1.989
    1C        H  819   3.430   2.414   1.973
    1C        H  820   3.824   2.578   1.986
    1C        H  821   4.043   2.654   1.969
    1C        H  822   4.291   2.694   1.994
    1C        H  823   4.352   2.926   1.962
    1C        H  824   4.563   3.315   1.965
    1C        H  825   4.464   3.519   1.964
    1C        H  826   4.529   3.746   1.953
    1C        H  827   3.806   4.532   1.956
    1C        H  828   3.967   4.392   1.947
    1C        H  829   4.177   4.287   1.950
    1C        H  830   4.466   3.951   1.963
    1C        H  831   2.642   3.833   1.963
    1C        H  832   2.678   4.073   1.962
    1C        H  833   2.715   4.296   1.971
    1C        H  834   3.382   4.429   1.965
    1C        H  835   3.162   4.364   1.976
    1C        H  836   2.526   3.002   1.990
    1C        H  837   2.434   3.218   1.983
    1C        H  838   2.476   3.687   1.972
    2V3OU   H29  839   2.808   3.550   4.041
    2V3OU   C27  840   2.798   3.502   4.142
    2V3OU   H27  841   2.739   3.569   4.211
    2V3OU   H28  842   2.746   3.403   4.139
    2V3OU   O11  843   2.918   3.475   4.215
    2V3OU   C15  844   2.927   3.392   4.325
    2V3OU   C13  845   3.054   3.373   4.385
    2V3OU   C14  846   3.081   3.271   4.476
    2V3OU   C16  847   2.979   3.192   4.528
    2V3OU    H6  848   2.993   3.108   4.597
    2V3OU   C12  849   3.217   3.238   4.524
    2V3OU    O2  850   3.239   3.127   4.578
    2V3OU   C10  851   3.325   3.309   4.455
    2V3OU    C8  852   3.459   3.271   4.460
    2V3OU   O10  853   3.489   3.158   4.530
    2V3OU   H26  854   3.406   3.113   4.553
    2V3OU    C6  855   3.566   3.347   4.403
    2V3OU    C5  856   3.536   3.468   4.341
    2V3OU    C4  857   3.703   3.290   4.410
    2V3OU    H4  858   3.722   3.230   4.504
    2V3OU    H5  859   3.713   3.223   4.320
    2V3OU    C2  860   3.815   3.394   4.409
    2V3OU    O6  861   3.810   3.474   4.527
    2V3OU   H21  862   3.758   3.553   4.502
    2V3OU    C3  863   3.782   3.497   4.301
    2V3OU    H2  864   3.863   3.574   4.303
    2V3OU    H3  865   3.786   3.450   4.199
    2V3OU   C25  866   3.951   3.327   4.389
    2V3OU    O7  867   3.996   3.297   4.278
    2V3OU   C26  868   4.030   3.289   4.513
    2V3OU   H22  869   4.062   3.383   4.565
    2V3OU   H23  870   4.122   3.234   4.482
    2V3OU    O8  871   3.958   3.206   4.601
    2V3OU   H24  872   3.924   3.261   4.673
    2V3OU    C1  873   3.648   3.566   4.320
    2V3OU    H1  874   3.625   3.627   4.228
    2V3OU    O3  875   3.659   3.655   4.431
    2V3OU   C19  876   3.621   3.791   4.408
    2V3OU    H9  877   3.523   3.799   4.353
    2V3OU    O4  878   3.717   3.841   4.317
    2V3OU   C20  879   3.840   3.872   4.384
    2V3OU   H10  880   3.897   3.775   4.395
    2V3OU   C24  881   3.609   3.859   4.544
    2V3OU   H16  882   3.541   3.798   4.610
    2V3OU   H17  883   3.566   3.961   4.526
    2V3OU   C23  884   3.744   3.880   4.614
    2V3OU   H15  885   3.788   3.776   4.632
    2V3OU    N1  886   3.736   3.955   4.738
    2V3OU   H19  887   3.810   3.918   4.794
    2V3OU   H20  888   3.651   3.939   4.787
    2V3OU   C21  889   3.846   3.947   4.517
    2V3OU   H11  890   3.945   3.922   4.564
    2V3OU    O5  891   3.826   4.088   4.519
    2V3OU   H18  892   3.783   4.092   4.606
    2V3OU   C22  893   3.912   3.947   4.272
    2V3OU   H12  894   3.859   4.044   4.254
    2V3OU   H13  895   3.913   3.886   4.178
    2V3OU   H14  896   4.022   3.952   4.291
    2V3OU   C11  897   3.159   3.471   4.356
    2V3OU    O1  898   3.134   3.593   4.342
    2V3OU    C9  899   3.298   3.430   4.385
    2V3OU    C7  900   3.399   3.510   4.332
    2V3OU    O9  901   3.386   3.609   4.237
    2V3OU   H25  902   3.292   3.632   4.233
    2V3OU   C17  903   2.830   3.306   4.379
    2V3OU    H7  904   2.734   3.355   4.363
    2V3OU   C18  905   2.849   3.217   4.484
    2V3OU    H8  906   2.785   3.178   4.565
    3SOL     OW  907   2.956   4.394   5.357
    3SOL    HW1  908   2.963   4.457   5.279
    3SOL    HW2  909   3.019   4.317   5.342
    4SOL     OW  910   6.973   0.775   7.010
    4SOL    HW1  911   6.966   0.675   7.016
    4SOL    HW2  912   0.027   0.799   6.951
    5SOL     OW  913   4.356   0.795   2.164
    5SOL    HW1  914   4.292   0.810   2.089
    5SOL    HW2  915   4.436   0.854   2.152
    6SOL     OW  916   5.550   1.554   3.419
    6SOL    HW1  917   5.542   1.505   3.506
    6SOL    HW2  918   5.481   1.626   3.415
    7SOL     OW  919   1.157   4.400   5.107
    7SOL    HW1  920   1.213   4.318   5.121
    7SOL    HW2  921   1.214   4.472   5.068
    8SOL     OW  922   2.720   2.158   5.695
    8SOL    HW1  923   2.814   2.169   5.662
    8SOL    HW2  924   2.660   2.220   5.645
    9SOL     OW  925   7.001   1.877   6.130
    9SOL    HW1  926   6.991   1.794   6.185
    9SOL    HW2  927   6.918   1.892   6.076
   10SOL     OW  928   4.288   5.055   3.039
   10SOL    HW1  929   4.316   4.967   3.077
   10SOL    HW2  930   4.276   5.122   3.112
   11SOL     OW  931   1.915   0.809   0.113
   11SOL    HW1  932   1.971   0.727   0.123
   11SOL    HW2  933   1.974   0.889   0.100
   12SOL     OW  934   2.699   4.832   3.222
   12SOL    HW1  935   2.728   4.816   3.316
   12SOL    HW2  936   2.636   4.760   3.194
   13SOL     OW  937   4.163   5.710   2.633
   13SOL    HW1  938   4.110   5.795   2.641
   13SOL    HW2  939   4.157   5.660   2.719
   14SOL     OW  940   4.832   4.918   5.761
   14SOL    HW1  941   4.885   4.922   5.676
   14SOL    HW2  942   4.744   4.875   5.743
   15SOL     OW  943   0.454   5.730   6.208
   15SOL    HW1  944   0.472   5.771   6.298
   15SOL    HW2  945   0.467   5.631   6.214
   16SOL     OW  946   5.809   2.615   6.333
   16SOL    HW1  947   5.739   2.631   6.264
   16SOL    HW2  948   5.891   2.669   6.311
   17SOL     OW  949   6.281   0.596   5.689
   17SOL    HW1  950   6.330   0.581   5.603
   17SOL    HW2  951   6.285   0.694   5.712
   18SOL     OW  952   2.911   1.001   5.209
   18SOL    HW1  953   2.993   0.989   5.264
   18SOL    HW2  954   2.927   1.070   5.138
   19SOL     OW  955   1.012   1.967   2.955
   19SOL    HW1  956   1.033   2.061   2.980
   19SOL    HW2  957   1.072   1.937   2.881
   20SOL     OW  958   5.800   2.465   5.739
   20SOL    HW1  959   5.881   2.497   5.690
   20SOL    HW2  960   5.773   2.535   5.806
   21SOL     OW  961   3.674   5.999   2.853
   21SOL    HW1  962   3.661   6.090   2.816
   21SOL    HW2  963   3.759   5.996   2.905
   22SOL     OW  964   1.334   6.320   5.028
   22SOL    HW1  965   1.426   6.323   5.067
   22SOL    HW2  966   1.290   6.234   5.054
   23SOL     OW  967   4.986   5.092   2.232
   23SOL    HW1  968   5.018   5.018   2.291
   23SOL    HW2  969   4.886   5.092   2.231
   24SOL     OW  970   3.932   0.395   1.524
   24SOL    HW1  971   3.962   0.385   1.619
   24SOL    HW2  972   3.848   0.449   1.521
   25SOL     OW  973   2.779   0.012   3.378
   25SOL    HW1  974   2.813   0.074   3.448
   25SOL    HW2  975   2.680   0.000   3.389
   26SOL     OW  976   1.664   2.028   6.729
   26SOL    HW1  977   1.658   1.930   6.713
   26SOL    HW2  978   1.760   2.056   6.728
   27SOL     OW  979   0.287   1.214   2.664
   27SOL    HW1  980   0.218   1.285   2.651
   27SOL    HW2  981   0.365   1.231   2.605
   28SOL     OW  982   1.712   0.521   4.855
   28SOL    HW1  983   1.618   0.505   4.822
   28SOL    HW2  984   1.742   0.443   4.908
   29SOL     OW  985   6.697   0.929   0.517
   29SOL    HW1  986   6.681   1.027   0.506
   29SOL    HW2  987   6.660   0.900   0.606
   30SOL     OW  988   3.685   0.600   4.786
   30SOL    HW1  989   3.733   0.687   4.796
   30SOL    HW2  990   3.729   0.531   4.843
   31SOL     OW  991   0.144   2.388   4.897
   31SOL    HW1  992   0.181   2.437   4.818
   31SOL    HW2  993   0.147   2.290   4.880
   32SOL     OW  994   1.384   1.637   1.181
   32SOL    HW1  995   1.434   1.575   1.241
   32SOL    HW2  996   1.446   1.705   1.142
   33SOL     OW  997   0.662   3.739   5.525
   33SOL    HW1  998   0.607   3.817   5.554
   33SOL    HW2  999   0.722   3.711   5.599
   34SOL     OW 1000   1.610   5.481   4.938
   34SOL    HW1 1001   1.620   5.432   4.852
   34SOL    HW2 1002   1.688   5.543   4.950
   35SOL     OW 1003   3.607   2.421   6.328
   35SOL    HW1 1004   3.603   2.479   6.409
   35SOL    HW2 1005   3.701   2.388   6.315
   36SOL     OW 1006   5.058   1.208   4.063
   36SOL    HW1 1007   5.052   1.263   4.147
   36SOL    HW2 1008   5.134   1.144   4.071
   37SOL     OW 1009   2.283   1.259   3.388
   37SOL    HW1 1010   2.202   1.283   3.441
   37SOL    HW2 1011   2.255   1.223   3.299
   38SOL     OW 1012   2.216   5.345   2.319
   38SOL    HW1 1013   2.302   5.391   2.340
   38SOL    HW2 1014   2.146   5.412   2.298
   39SOL     OW 1015   6.113   4.695   6.556
   39SOL    HW1 1016   6.195   4.637   6.558
   39SOL    HW2 1017   6.132   4.780   6.605
   40SOL     OW 1018   3.494   0.326   6.196
   40SOL    HW1 1019   3.455   0.319   6.104
   40SOL    HW2 1020   3.586   0.288   6.196
   41SOL     OW 1021   5.497   4.140   2.366
   41SOL    HW1 1022   5.563   4.080   2.321
   41SOL    HW2 1023   5.541   4.187   2.442
   42SOL     OW 1024   2.986   5.525   4.924
   42SOL    HW1 1025   3.044   5.509   4.845
   42SOL    HW2 1026   2.921   5.450   4.935
   43SOL     OW 1027   4.033   6.611   4.727
   43SOL    HW1 1028   3.934   6.624   4.721
   43SOL    HW2 1029   4.061   6.539   4.664
   44SOL     OW 1030   6.382   3.355   5.104
   44SOL    HW1 1031   6.431   3.324   5.022
   44SOL    HW2 1032   6.346   3.447   5.089
   45SOL     OW 1033   4.640   5.441   0.948
   45SOL    HW1 1034   4.557   5.474   0.992
   45SOL    HW2 1035   4.716   5.503   0.969
   46SOL     OW 1036   0.635   3.022   4.060
   46SOL    HW1 1037   0.623   2.990   3.966
   46SOL    HW2 1038   0.558   3.080   4.085
   47SOL     OW 1039   5.255   3.715   2.102
   47SOL    HW1 1040   5.160   3.682   2.099
   47SOL    HW2 1041   5.312   3.658   2.043
   48SOL     OW 1042   0.229   3.251   6.663
   48SOL    HW1 1043   0.190   3.231   6.573
   48SOL    HW2 1044   0.252   3.165   6.709
   49SOL     OW 1045   4.832   2.882   0.407
   49SOL    HW1 1046   4.887   2.895   0.490
   49SOL    HW2 1047   4.893   2.863   0.330
   50SOL     OW 1048   6.164   1.904   5.849
   50SOL    HW1 1049   6.203   1.982   5.800
   50SOL    HW2 1050   6.191   1.908   5.945
   51SOL     OW 1051   2.076   4.850   2.597
   51SOL    HW1 1052   1.989   4.801   2.596
   51SOL    HW2 1053   2.148   4.791   2.560
   52SOL     OW 1054   5.689   2.875   1.937
   52SOL    HW1 1055   5.720   2.964   1.970
   52SOL    HW2 1056   5.662   2.819   2.015
   53SOL     OW 1057   5.165   0.084   3.345
   53SOL    HW1 1058   5.209   0.032   3.419
   53SOL    HW2 1059   5.098   0.027   3.299
   54SOL     OW 1060   5.591   6.104   0.499
   54SOL    HW1 1061   5.594   6.191   0.547
   54SOL    HW2 1062   5.613   6.030   0.562
   55SOL     OW 1063   2.276   2.426   6.506
   55SOL    HW1 1064   2.244   2.498   6.567
   55SOL    HW2 1065   2.199   2.387   6.456
   56SOL     OW 1066   1.417   1.896   0.654
   56SOL    HW1 1067   1.432   1.850   0.742
   56SOL    HW2 1068   1.323   1.881   0.624
   57SOL     OW 1069   3.506   0.384   6.774
   57SOL    HW1 1070   3.467   0.317   6.711
   57SOL    HW2 1071   3.537   0.464   6.723
   58SOL     OW 1072   0.607   0.529   6.637
   58SOL    HW1 1073   0.630   0.613   6.685
   58SOL    HW2 1074   0.508   0.526   6.620
   59SOL     OW 1075   6.322   3.921   6.508
   59SOL    HW1 1076   6.385   3.898   6.434
   59SOL    HW2 1077   6.366   3.905   6.596
   60SOL     OW 1078   5.880   0.611   3.555
   60SOL    HW1 1079   5.832   0.698   3.570
   60SOL    HW2 1080   5.867   0.582   3.460
   61SOL     OW 1081   0.666   1.100   4.155
   61SOL    HW1 1082   0.647   1.186   4.107
   61SOL    HW2 1083   0.704   1.119   4.245
   62SOL     OW 1084   1.117   1.214   1.557
   62SOL    HW1 1085   1.037   1.190   1.612
   62SOL    HW2 1086   1.177   1.134   1.550
   63SOL     OW 1087   4.063   6.548   4.083
   63SOL    HW1 1088   4.151   6.514   4.047
   63SOL    HW2 1089   3.991   6.530   4.016
   64SOL     OW 1090   1.329   3.793   6.936
   64SOL    HW1 1091   1.423   3.812   6.964
   64SOL    HW2 1092   1.268   3.799   7.015
   65SOL     OW 1093   0.537   0.458   5.619
   65SOL    HW1 1094   0.552   0.554   5.594
   65SOL    HW2 1095   0.520   0.405   5.536
   66SOL     OW 1096   3.757   6.917   2.453
   66SOL    HW1 1097   3.718   6.931   2.361
   66SOL    HW2 1098   3.767   7.006   2.498
   67SOL     OW 1099   0.424   2.201   0.654
   67SOL    HW1 1100   0.395   2.146   0.576
   67SOL    HW2 1101   0.344   2.242   0.698
   68SOL     OW 1102   0.274   1.562   5.461
   68SOL    HW1 1103   0.338   1.636   5.480
   68SOL    HW2 1104   0.325   1.476   5.450
   69SOL     OW 1105   0.928   5.468   6.119
   69SOL    HW1 1106   0.966   5.433   6.205
   69SOL    HW2 1107   0.889   5.392   6.066
   70SOL     OW 1108   5.262   3.765   4.785
   70SOL    HW1 1109   5.211   3.750   4.700
   70SOL    HW2 1110   5.336   3.830   4.767
   71SOL     OW 1111   4.713   1.561   4.923
   71SOL    HW1 1112   4.751   1.654   4.930
   71SOL    HW2 1113   4.694   1.526   5.015
   72SOL     OW 1114   0.392   0.742   3.230
   72SOL    HW1 1115   0.476   0.785   3.265
   72SOL    HW2 1116   0.314   0.775   3.282
   73SOL     OW 1117   2.837   0.951   0.412
   73SOL    HW1 1118   2.814   0.855   0.403
   73SOL    HW2 1119   2.918   0.972   0.358
   74SOL     OW 1120   2.293   1.681   6.471
   74SOL    HW1 1121   2.217   1.616   6.480
   74SOL    HW2 1122   2.263   1.758   6.415
   75SOL     OW 1123   4.406   1.323   0.982
   75SOL    HW1 1124   4.458   1.408   0.975
   75SOL    HW2 1125   4.402   1.294   1.078
   76SOL     OW 1126   2.807   4.610   5.806
   76SOL    HW1 1127   2.823   4.567   5.894
   76SOL    HW2 1128   2.848   4.555   5.734
   77SOL     OW 1129   1.796   5.338   3.931
   77SOL    HW1 1130   1.760   5.380   3.848
   77SOL    HW2 1131   1.833   5.408   3.991
   78SOL     OW 1132   4.074   1.701   1.241
   78SOL    HW1 1133   4.009   1.659   1.178
   78SOL    HW2 1134   4.109   1.786   1.201
   79SOL     OW 1135   2.265   5.288   1.678
   79SOL    HW1 1136   2.193   5.236   1.724
   79SOL    HW2 1137   2.355   5.255   1.708
   80SOL     OW 1138   4.437   2.310   5.339
   80SOL    HW1 1139   4.417   2.256   5.421
   80SOL    HW2 1140   4.514   2.268   5.290
   81SOL     OW 1141   1.876   7.011   0.998
   81SOL    HW1 1142   1.938   6.936   1.021
   81SOL    HW2 1143   1.926   0.058   0.946
   82SOL     OW 1144   0.853   6.099   2.354
   82SOL    HW1 1145   0.951   6.108   2.371
   82SOL    HW2 1146   0.824   6.005   2.377
   83SOL     OW 1147   6.826   2.166   5.512
   83SOL    HW1 1148   6.924   2.168   5.530
   83SOL    HW2 1149   6.793   2.071   5.515
   84SOL     OW 1150   5.893   2.749   3.814
   84SOL    HW1 1151   5.945   2.685   3.871
   84SOL    HW2 1152   5.955   2.792   3.748
   85SOL     OW 1153   1.530   6.913   3.874
   85SOL    HW1 1154   1.537   6.821   3.837
   85SOL    HW2 1155   1.526   6.980   3.799
   86SOL     OW 1156   5.576   1.174   6.355
   86SOL    HW1 1157   5.485   1.196   6.389
   86SOL    HW2 1158   5.606   1.087   6.393
   87SOL     OW 1159   4.514   4.427   6.654
   87SOL    HW1 1160   4.470   4.507   6.615
   87SOL    HW2 1161   4.445   4.365   6.691
   88SOL     OW 1162   3.029   2.295   5.486
   88SOL    HW1 1163   3.115   2.344   5.504
   88SOL    HW2 1164   2.965   2.357   5.440
   89SOL     OW 1165   2.819   3.413   1.925
   89SOL    HW1 1166   2.749   3.404   1.854
   89SOL    HW2 1167   2.866   3.501   1.914
   90SOL     OW 1168   4.869   3.916   3.316
   90SOL    HW1 1169   4.957   3.900   3.271
   90SOL    HW2 1170   4.882   3.923   3.415
   91SOL     OW 1171   6.326   5.903   6.357
   91SOL    HW1 1172   6.387   5.951   6.419
   91SOL    HW2 1173   6.313   5.958   6.274
   92SOL     OW 1174   5.073   4.097   0.085
   92SOL    HW1 1175   5.105   4.109   7.014
   92SOL    HW2 1176   4.974   4.094   0.086
   93SOL     OW 1177   3.286   2.989   0.821
   93SOL    HW1 1178   3.229   2.910   0.844
   93SOL    HW2 1179   3.320   3.031   0.906
   94SOL     OW 1180   2.640   0.341   6.230
   94SOL    HW1 1181   2.687   0.420   6.192
   94SOL    HW2 1182   2.559   0.370   6.281
   95SOL     OW 1183   0.566   0.547   4.740
   95SOL    HW1 1184   0.550   0.633   4.788
   95SOL    HW2 1185   0.503   0.540   4.662
   96SOL     OW 1186   5.263   5.101   0.072
   96SOL    HW1 1187   5.318   5.184   0.078
   96SOL    HW2 1188   5.245   5.067   0.165
   97SOL     OW 1189   1.790   4.836   5.425
   97SOL    HW1 1190   1.854   4.782   5.371
   97SOL    HW2 1191   1.823   4.930   5.432
   98SOL     OW 1192   0.792   2.434   1.940
   98SOL    HW1 1193   0.787   2.498   2.017
   98SOL    HW2 1194   0.849   2.356   1.966
   99SOL     OW 1195   3.830   3.685   3.326
   99SOL    HW1 1196   3.821   3.770   3.274
   99SOL    HW2 1197   3.927   3.667   3.344
  100SOL     OW 1198   0.016   6.925   4.215
  100SOL    HW1 1199   0.021   6.966   4.124
  100SOL    HW2 1200   0.101   6.944   4.264
  101SOL     OW 1201   0.277   4.912   2.458
  101SOL    HW1 1202   0.277   4.898   2.557
  101SOL    HW2 1203   0.184   4.935   2.428
  102SOL     OW 1204   2.716   6.233   2.135
  102SOL    HW1 1205   2.814   6.214   2.121
  102SOL    HW2 1206   2.691   6.210   2.229
  103SOL     OW 1207   2.208   1.106   2.829
  103SOL    HW1 1208   2.215   1.056   2.742
  103SOL    HW2 1209   2.274   1.181   2.829
  104SOL     OW 1210   1.045   4.692   2.026
  104SOL    HW1 1211   1.001   4.743   2.100
  104SOL    HW2 1212   0.976   4.643   1.973
  105SOL     OW 1213   5.897   1.602   6.993
  105SOL    HW1 1214   5.965   1.528   7.000
  105SOL    HW2 1215   5.929   1.681   0.023
  106SOL     OW 1216   5.042   5.137   1.629
  106SOL    HW1 1217   4.951   5.096   1.622
  106SOL    HW2 1218   5.104   5.092   1.565
  107SOL     OW 1219   6.690   1.223   0.151
  107SOL    HW1 1220   6.766   1.284   0.129
  107SOL    HW2 1221   6.704   1.135   0.104
  108SOL     OW 1222   2.404   0.340   4.899
  108SOL    HW1 1223   2.352   0.265   4.941
  108SOL    HW2 1224   2.375   0.427   4.940
  109SOL     OW 1225   3.888   0.927   2.606
  109SOL    HW1 1226   3.870   1.015   2.560
  109SOL    HW2 1227   3.858   0.852   2.546
  110SOL     OW 1228   2.135   4.323   5.473
  110SOL    HW1 1229   2.141   4.224   5.460
  110SOL    HW2 1230   2.225   4.359   5.498
  111SOL     OW 1231   6.433   1.591   2.394
  111SOL    HW1 1232   6.359   1.658   2.403
  111SOL    HW2 1233   6.436   1.558   2.300
  112SOL     OW 1234   4.157   6.351   6.548
  112SOL    HW1 1235   4.092   6.419   6.513
  112SOL    HW2 1236   4.107   6.268   6.575
  113SOL     OW 1237   6.319   5.646   2.769
  113SOL    HW1 1238   6.344   5.597   2.685
  113SOL    HW2 1239   6.290   5.580   2.838
  114SOL     OW 1240   1.232   4.109   3.512
  114SOL    HW1 1241   1.228   4.054   3.429
  114SOL    HW2 1242   1.327   4.121   3.540
  115SOL     OW 1243   5.889   1.233   3.290
  115SOL    HW1 1244   5.797   1.265   3.268
  115SOL    HW2 1245   5.952   1.310   3.288
  116SOL     OW 1246   0.847   6.264   1.505
  116SOL    HW1 1247   0.801   6.306   1.583
  116SOL    HW2 1248   0.826   6.166   1.503
  117SOL     OW 1249   3.121   1.462   0.088
  117SOL    HW1 1250   3.181   1.530   0.047
  117SOL    HW2 1251   3.029   1.501   0.099
  118SOL     OW 1252   1.243   1.362   3.566
  118SOL    HW1 1253   1.278   1.411   3.646
  118SOL    HW2 1254   1.164   1.306   3.592
  119SOL     OW 1255   6.703   0.051   0.232
  119SOL    HW1 1256   6.798   0.046   0.199
  119SOL    HW2 1257   6.641   0.061   0.154
  120SOL     OW 1258   4.593   0.779   5.386
  120SOL    HW1 1259   4.593   0.821   5.476
  120SOL    HW2 1260   4.679   0.731   5.371
  121SOL     OW 1261   1.357   3.777   6.637
  121SOL    HW1 1262   1.340   3.745   6.730
  121SOL    HW2 1263   1.395   3.702   6.583
  122SOL     OW 1264   0.972   4.465   0.188
  122SOL    HW1 1265   1.004   4.505   0.103
  122SOL    HW2 1266   0.959   4.536   0.257
  123SOL     OW 1267   1.432   0.948   1.925
  123SOL    HW1 1268   1.457   0.913   2.015
  123SOL    HW2 1269   1.515   0.968   1.872
  124SOL     OW 1270   3.050   2.802   0.912
  124SOL    HW1 1271   2.986   2.824   0.838
  124SOL    HW2 1272   3.058   2.703   0.921
  125SOL     OW 1273   3.437   2.602   6.912
  125SOL    HW1 1274   3.353   2.626   6.862
  125SOL    HW2 1275   3.440   2.652   6.998
  126SOL     OW 1276   3.341   2.908   2.828
  126SOL    HW1 1277   3.360   2.884   2.733
  126SOL    HW2 1278   3.253   2.868   2.855
  127SOL     OW 1279   6.556   6.116   5.883
  127SOL    HW1 1280   6.533   6.066   5.967
  127SOL    HW2 1281   6.472   6.147   5.839
  128SOL     OW 1282   5.043   3.464   1.753
  128SOL    HW1 1283   4.960   3.408   1.755
  128SOL    HW2 1284   5.119   3.410   1.720
  129SOL     OW 1285   2.123   5.730   0.843
  129SOL    HW1 1286   2.046   5.754   0.901
  129SOL    HW2 1287   2.204   5.780   0.874
  130SOL     OW 1288   5.685   2.154   4.636
  130SOL    HW1 1289   5.598   2.178   4.592
  130SOL    HW2 1290   5.666   2.098   4.717
  131SOL     OW 1291   6.817   1.312   4.151
  131SOL    HW1 1292   6.779   1.221   4.136
  131SOL    HW2 1293   6.824   1.360   4.064
  132SOL     OW 1294   3.167   3.957   1.337
  132SOL    HW1 1295   3.205   4.013   1.411
  132SOL    HW2 1296   3.074   3.987   1.317
  133SOL     OW 1297   5.381   0.555   4.546
  133SOL    HW1 1298   5.294   0.599   4.526
  133SOL    HW2 1299   5.436   0.550   4.462
  134SOL     OW 1300   6.100   0.721   2.329
  134SOL    HW1 1301   6.181   0.776   2.311
  134SOL    HW2 1302   6.051   0.758   2.408
  135SOL     OW 1303   4.919   3.465   4.280
  135SOL    HW1 1304   4.942   3.443   4.186
  135SOL    HW2 1305   4.995   3.438   4.340
  136SOL     OW 1306   2.354   6.141   5.002
  136SOL    HW1 1307   2.267   6.177   4.967
  136SOL    HW2 1308   2.351   6.140   5.102
  137SOL     OW 1309   4.122   2.065   4.611
  137SOL    HW1 1310   4.208   2.026   4.642
  137SOL    HW2 1311   4.046   2.022   4.660
  138SOL     OW 1312   0.745   5.391   3.965
  138SOL    HW1 1313   0.696   5.466   3.921
  138SOL    HW2 1314   0.769   5.322   3.897
  139SOL     OW 1315   2.256   5.462   6.399
  139SOL    HW1 1316   2.165   5.435   6.432
  139SOL    HW2 1317   2.288   5.396   6.332
  140SOL     OW 1318   2.186   0.562   2.974
  140SOL    HW1 1319   2.261   0.601   2.921
  140SOL    HW2 1320   2.216   0.476   3.016
  141SOL     OW 1321   6.390   3.674   6.965
  141SOL    HW1 1322   6.488   3.658   6.981
  141SOL    HW2 1323   6.368   3.768   6.990
  142SOL     OW 1324   1.007   4.412   1.769
  142SOL    HW1 1325   0.987   4.333   1.827
  142SOL    HW2 1326   0.954   4.491   1.801
  143SOL     OW 1327   5.806   6.385   1.476
  143SOL    HW1 1328   5.866   6.408   1.553
  143SOL    HW2 1329   5.836   6.299   1.436
  144SOL     OW 1330   2.740   4.852   4.099
  144SOL    HW1 1331   2.652   4.845   4.053
  144SOL    HW2 1332   2.765   4.949   4.109
  145SOL     OW 1333   6.800   4.810   2.877
  145SOL    HW1 1334   6.710   4.819   2.835
  145SOL    HW2 1335   6.824   4.896   2.921
  146SOL     OW 1336   5.905   1.593   5.711
  146SOL    HW1 1337   5.842   1.615   5.637
  146SOL    HW2 1338   5.998   1.621   5.685
  147SOL     OW 1339   5.196   1.686   5.192
  147SOL    HW1 1340   5.281   1.653   5.152
  147SOL    HW2 1341   5.148   1.611   5.237
  148SOL     OW 1342   1.222   4.561   1.232
  148SOL    HW1 1343   1.239   4.656   1.207
  148SOL    HW2 1344   1.148   4.557   1.299
  149SOL     OW 1345   2.681   2.155   5.054
  149SOL    HW1 1346   2.777   2.135   5.071
  149SOL    HW2 1347   2.626   2.125   5.131
  150SOL     OW 1348   4.193   1.874   5.698
  150SOL    HW1 1349   4.161   1.947   5.637
  150SOL    HW2 1350   4.134   1.871   5.779
  151SOL     OW 1351   3.884   1.238   0.987
  151SOL    HW1 1352   3.960   1.228   1.052
  151SOL    HW2 1353   3.801   1.263   1.037
  152SOL     OW 1354   1.023   1.690   6.897
  152SOL    HW1 1355   1.030   1.725   6.803
  152SOL    HW2 1356   1.094   1.620   6.911
  153SOL     OW 1357   2.801   1.115   3.556
  153SOL    HW1 1358   2.808   1.157   3.647
  153SOL    HW2 1359   2.748   1.174   3.496
  154SOL     OW 1360   6.473   1.747   1.104
  154SOL    HW1 1361   6.421   1.669   1.068
  154SOL    HW2 1362   6.409   1.817   1.138
  155SOL     OW 1363   0.197   0.242   2.158
  155SOL    HW1 1364   0.281   0.286   2.125
  155SOL    HW2 1365   0.151   0.303   2.222
  156SOL     OW 1366   4.594   0.825   0.391
  156SOL    HW1 1367   4.579   0.923   0.401
  156SOL    HW2 1368   4.561   0.795   0.301
  157SOL     OW 1369   5.316   3.711   0.621
  157SOL    HW1 1370   5.365   3.770   0.685
  157SOL    HW2 1371   5.295   3.763   0.538
  158SOL     OW 1372   1.582   3.072   2.619
  158SOL    HW1 1373   1.640   3.083   2.700
  158SOL    HW2 1374   1.595   3.151   2.558
  159SOL     OW 1375   4.898   5.097   1.005
  159SOL    HW1 1376   4.942   5.013   1.035
  159SOL    HW2 1377   4.891   5.098   0.905
  160SOL     OW 1378   5.801   1.025   0.486
  160SOL    HW1 1379   5.854   0.980   0.415
  160SOL    HW2 1380   5.860   1.046   0.564
  161SOL     OW 1381   0.892   6.560   0.491
  161SOL    HW1 1382   0.924   6.519   0.405
  161SOL    HW2 1383   0.969   6.604   0.537
  162SOL     OW 1384   2.245   5.975   0.371
  162SOL    HW1 1385   2.171   6.036   0.345
  162SOL    HW2 1386   2.207   5.893   0.414
  163SOL     OW 1387   6.829   4.849   3.259
  163SOL    HW1 1388   6.791   4.763   3.295
  163SOL    HW2 1389   6.855   4.908   3.335
  164SOL     OW 1390   1.528   1.743   2.976
  164SOL    HW1 1391   1.452   1.689   3.011
  164SOL    HW2 1392   1.492   1.815   2.916
  165SOL     OW 1393   0.325   5.521   2.667
  165SOL    HW1 1394   0.372   5.588   2.724
  165SOL    HW2 1395   0.365   5.523   2.575
  166SOL     OW 1396   6.162   3.945   1.491
  166SOL    HW1 1397   6.158   3.846   1.479
  166SOL    HW2 1398   6.100   3.989   1.425
  167SOL     OW 1399   5.559   1.779   6.911
  167SOL    HW1 1400   5.600   1.745   6.996
  167SOL    HW2 1401   5.484   1.719   6.884
  168SOL     OW 1402   4.355   3.437   1.681
  168SOL    HW1 1403   4.409   3.376   1.740
  168SOL    HW2 1404   4.417   3.491   1.625
  169SOL     OW 1405   6.222   3.269   0.746
  169SOL    HW1 1406   6.145   3.252   0.808
  169SOL    HW2 1407   6.279   3.341   0.785
  170SOL     OW 1408   1.460   5.241   2.715
  170SOL    HW1 1409   1.553   5.261   2.684
  170SOL    HW2 1410   1.418   5.177   2.651
  171SOL     OW 1411   2.074   3.164   0.116
  171SOL    HW1 1412   2.112   3.189   0.205
  171SOL    HW2 1413   1.986   3.210   0.103
  172SOL     OW 1414   5.650   2.245   1.615
  172SOL    HW1 1415   5.601   2.205   1.693
  172SOL    HW2 1416   5.665   2.342   1.632
  173SOL     OW 1417   6.196   1.095   5.501
  173SOL    HW1 1418   6.154   1.010   5.533
  173SOL    HW2 1419   6.187   1.101   5.401
  174SOL     OW 1420   5.415   5.666   5.488
  174SOL    HW1 1421   5.504   5.630   5.459
  174SOL    HW2 1422   5.422   5.700   5.582
  175SOL     OW 1423   1.802   0.940   0.675
  175SOL    HW1 1424   1.770   0.861   0.727
  175SOL    HW2 1425   1.747   1.020   0.700
  176SOL     OW 1426   4.796   4.739   2.926
  176SOL    HW1 1427   4.857   4.661   2.941
  176SOL    HW2 1428   4.704   4.716   2.959
  177SOL     OW 1429   5.404   1.880   4.354
  177SOL    HW1 1430   5.442   1.826   4.429
  177SOL    HW2 1431   5.439   1.974   4.359
  178SOL     OW 1432   2.485   5.859   5.015
  178SOL    HW1 1433   2.393   5.890   5.039
  178SOL    HW2 1434   2.543   5.938   4.996
  179SOL     OW 1435   4.529   5.254   0.364
  179SOL    HW1 1436   4.547   5.327   0.298
  179SOL    HW2 1437   4.616   5.220   0.399
  180SOL     OW 1438   3.916   0.008   0.909
  180SOL    HW1 1439   3.839   0.067   0.883
  180SOL    HW2 1440   3.912   7.013   1.007
  181SOL     OW 1441   3.198   2.665   5.294
  181SOL    HW1 1442   3.102   2.677   5.322
  181SOL    HW2 1443   3.210   2.573   5.256
  182SOL     OW 1444   4.996   3.068   6.902
  182SOL    HW1 1445   4.946   3.139   6.952
  182SOL    HW2 1446   4.970   3.072   6.805
  183SOL     OW 1447   3.814   1.997   4.557
  183SOL    HW1 1448   3.826   2.032   4.650
  183SOL    HW2 1449   3.717   1.995   4.534
  184SOL     OW 1450   0.975   6.322   3.433
  184SOL    HW1 1451   0.940   6.304   3.525
  184SOL    HW2 1452   1.028   6.406   3.434
  185SOL     OW 1453   0.334   1.760   3.988
  185SOL    HW1 1454   0.239   1.792   3.990
  185SOL    HW2 1455   0.389   1.816   4.050
  186SOL     OW 1456   5.327   5.924   4.460
  186SOL    HW1 1457   5.425   5.918   4.476
  186SOL    HW2 1458   5.294   6.015   4.488
  187SOL     OW 1459   3.971   5.328   2.516
  187SOL    HW1 1460   3.985   5.349   2.419
  187SOL    HW2 1461   4.049   5.360   2.569
  188SOL     OW 1462   2.290   2.304   3.331
  188SOL    HW1 1463   2.303   2.399   3.301
  188SOL    HW2 1464   2.200   2.272   3.302
  189SOL     OW 1465   6.302   5.600   0.083
  189SOL    HW1 1466   6.330   5.594   7.010
  189SOL    HW2 1467   6.239   5.677   0.095
  190SOL     OW 1468   6.264   5.338   0.100
  190SOL    HW1 1469   6.344   5.296   0.058
  190SOL    HW2 1470   6.269   5.438   0.090
  191SOL     OW 1471   0.016   0.998   5.980
  191SOL    HW1 1472   7.019   0.944   6.062
  191SOL    HW2 1473   0.030   1.094   6.006
  192SOL     OW 1474   0.238   4.543   1.387
  192SOL    HW1 1475   0.182   4.625   1.382
  192SOL    HW2 1476   0.207   4.477   1.318
  193SOL     OW 1477   3.590   4.885   5.902
  193SOL    HW1 1478   3.597   4.961   5.836
  193SOL    HW2 1479   3.510   4.830   5.881
  194SOL     OW 1480   3.779   6.670   2.085
  194SOL    HW1 1481   3.849   6.631   2.144
  194SOL    HW2 1482   3.794   6.768   2.075
  195SOL     OW 1483   3.258   0.690   2.500
  195SOL    HW1 1484   3.210   0.623   2.444
  195SOL    HW2 1485   3.257   0.662   2.596
  196SOL     OW 1486   2.785   1.070   6.413
  196SOL    HW1 1487   2.757   1.125   6.334
  196SOL    HW2 1488   2.707   1.017   6.446
  197SOL     OW 1489   2.363   6.127   6.914
  197SOL    HW1 1490   2.398   6.039   6.883
  197SOL    HW2 1491   2.316   6.115   7.002
  198SOL     OW 1492   4.652   5.825   0.824
  198SOL    HW1 1493   4.597   5.762   0.768
  198SOL    HW2 1494   4.688   5.775   0.904
  199SOL     OW 1495   5.604   0.918   1.857
  199SOL    HW1 1496   5.546   0.989   1.816
  199SOL    HW2 1497   5.647   0.865   1.784
  200SOL     OW 1498   1.361   3.037   2.224
  200SOL    HW1 1499   1.351   3.102   2.299
  200SOL    HW2 1500   1.379   2.946   2.260
  201SOL     OW 1501   2.585   0.956   6.846
  201SOL    HW1 1502   2.643   0.923   6.771
  201SOL    HW2 1503   2.606   1.052   6.864
  202SOL     OW 1504   4.941   6.707   4.382
  202SOL    HW1 1505   4.923   6.802   4.404
  202SOL    HW2 1506   5.033   6.698   4.344
  203SOL     OW 1507   5.240   3.342   5.885
  203SOL    HW1 1508   5.306   3.389   5.942
  203SOL    HW2 1509   5.148   3.360   5.919
  204SOL     OW 1510   0.807   6.775   0.254
  204SOL    HW1 1511   0.873   6.717   0.206
  204SOL    HW2 1512   0.744   6.816   0.187
  205SOL     OW 1513   0.577   1.747   1.046
  205SOL    HW1 1514   0.634   1.807   1.102
  205SOL    HW2 1515   0.587   1.653   1.078
  206SOL     OW 1516   0.895   4.317   1.135
  206SOL    HW1 1517   0.869   4.366   1.052
  206SOL    HW2 1518   0.911   4.384   1.209
  207SOL     OW 1519   4.122   0.352   5.443
  207SOL    HW1 1520   4.072   0.380   5.361
  207SOL    HW2 1521   4.059   0.311   5.509
  208SOL     OW 1522   5.358   4.440   6.204
  208SOL    HW1 1523   5.429   4.435   6.274
  208SOL    HW2 1524   5.268   4.429   6.247
  209SOL     OW 1525   0.322   5.995   5.749
  209SOL    HW1 1526   0.374   6.076   5.724
  209SOL    HW2 1527   0.259   5.972   5.675
  210SOL     OW 1528   4.264   2.283   2.043
  210SOL    HW1 1529   4.167   2.301   2.030
  210SOL    HW2 1530   4.279   2.185   2.057
  211SOL     OW 1531   0.963   1.197   2.365
  211SOL    HW1 1532   0.971   1.101   2.337
  211SOL    HW2 1533   1.050   1.243   2.349
  212SOL     OW 1534   1.130   4.794   3.219
  212SOL    HW1 1535   1.139   4.798   3.119
  212SOL    HW2 1536   1.221   4.795   3.261
  213SOL     OW 1537   5.009   1.687   0.041
  213SOL    HW1 1538   4.943   1.726   6.999
  213SOL    HW2 1539   4.976   1.701   0.134
  214SOL     OW 1540   0.965   6.767   3.427
  214SOL    HW1 1541   0.963   6.724   3.337
  214SOL    HW2 1542   1.023   6.849   3.424
  215SOL     OW 1543   3.835   2.853   1.795
  215SOL    HW1 1544   3.868   2.841   1.888
  215SOL    HW2 1545   3.806   2.948   1.781
  216SOL     OW 1546   1.404   7.014   4.846
  216SOL    HW1 1547   1.436   0.011   4.753
  216SOL    HW2 1548   1.304   7.019   4.849
  217SOL     OW 1549   2.149   2.576   4.368
  217SOL    HW1 1550   2.119   2.591   4.274
  217SOL    HW2 1551   2.148   2.477   4.387
  218SOL     OW 1552   0.980   2.119   4.392
  218SOL    HW1 1553   0.985   2.202   4.447
  218SOL    HW2 1554   1.064   2.109   4.339
  219SOL     OW 1555   3.536   3.795   0.018
  219SOL    HW1 1556   3.520   3.871   0.082
  219SOL    HW2 1557   3.550   3.832   6.949
  220SOL     OW 1558   2.219   5.942   0.083
  220SOL    HW1 1559   2.219   5.949   0.182
  220SOL    HW2 1560   2.297   5.887   0.053
  221SOL     OW 1561   5.794   3.529   3.854
  221SOL    HW1 1562   5.862   3.513   3.782
  221SOL    HW2 1563   5.841   3.562   3.936
  222SOL     OW 1564   1.538   5.418   5.187
  222SOL    HW1 1565   1.535   5.504   5.238
  222SOL    HW2 1566   1.557   5.437   5.091
  223SOL     OW 1567   0.108   3.824   1.472
  223SOL    HW1 1568   0.191   3.772   1.490
  223SOL    HW2 1569   0.042   3.810   1.546
  224SOL     OW 1570   2.496   2.454   2.766
  224SOL    HW1 1571   2.427   2.395   2.807
  224SOL    HW2 1572   2.558   2.400   2.710
  225SOL     OW 1573   5.959   1.414   0.267
  225SOL    HW1 1574   5.995   1.371   0.349
  225SOL    HW2 1575   5.953   1.513   0.281
  226SOL     OW 1576   1.221   0.298   0.939
  226SOL    HW1 1577   1.166   0.263   0.864
  226SOL    HW2 1578   1.309   0.330   0.904
  227SOL     OW 1579   1.553   3.689   2.980
  227SOL    HW1 1580   1.479   3.691   3.048
  227SOL    HW2 1581   1.598   3.778   2.977
  228SOL     OW 1582   3.690   6.800   4.578
  228SOL    HW1 1583   3.592   6.789   4.596
  228SOL    HW2 1584   3.733   6.710   4.571
  229SOL     OW 1585   6.029   5.845   1.160
  229SOL    HW1 1586   5.996   5.777   1.094
  229SOL    HW2 1587   6.022   5.936   1.120
  230SOL     OW 1588   1.935   3.865   4.260
  230SOL    HW1 1589   1.901   3.812   4.183
  230SOL    HW2 1590   2.035   3.867   4.259
  231SOL     OW 1591   6.456   2.891   6.228
  231SOL    HW1 1592   6.517   2.824   6.186
  231SOL    HW2 1593   6.474   2.982   6.190
  232SOL     OW 1594   1.370   3.268   6.334
  232SOL    HW1 1595   1.456   3.219   6.322
  232SOL    HW2 1596   1.326   3.280   6.244
  233SOL     OW 1597   2.324   0.778   5.321
  233SOL    HW1 1598   2.234   0.738   5.337
  233SOL    HW2 1599   2.313   0.868   5.278
  234SOL     OW 1600   2.514   5.064   6.609
  234SOL    HW1 1601   2.606   5.027   6.618
  234SOL    HW2 1602   2.516   5.145   6.550
  235SOL     OW 1603   3.644   3.539   3.673
  235SOL    HW1 1604   3.682   3.460   3.625
  235SOL    HW2 1605   3.694   3.621   3.646
  236SOL     OW 1606   6.447   3.211   6.641
  236SOL    HW1 1607   6.537   3.171   6.660
  236SOL    HW2 1608   6.376   3.155   6.684
  237SOL     OW 1609   0.035   6.542   1.077
  237SOL    HW1 1610   0.027   6.540   0.978
  237SOL    HW2 1611   0.129   6.518   1.104
  238SOL     OW 1612   5.569   3.709   1.463
  238SOL    HW1 1613   5.584   3.629   1.405
  238SOL    HW2 1614   5.585   3.684   1.559
  239SOL     OW 1615   0.042   5.388   6.851
  239SOL    HW1 1616   0.020   5.301   6.805
  239SOL    HW2 1617   6.986   5.448   6.848
  240SOL     OW 1618   0.721   3.495   5.991
  240SOL    HW1 1619   0.691   3.401   5.976
  240SOL    HW2 1620   0.681   3.529   6.077
  241SOL     OW 1621   0.471   1.286   3.520
  241SOL    HW1 1622   0.472   1.233   3.605
  241SOL    HW2 1623   0.495   1.227   3.443
  242SOL     OW 1624   1.443   2.894   5.306
  242SOL    HW1 1625   1.531   2.886   5.352
  242SOL    HW2 1626   1.428   2.814   5.248
  243SOL     OW 1627   4.704   0.304   6.070
  243SOL    HW1 1628   4.711   0.372   5.997
  243SOL    HW2 1629   4.630   0.240   6.049
  244SOL     OW 1630   4.876   1.846   5.059
  244SOL    HW1 1631   4.963   1.886   5.032
  244SOL    HW2 1632   4.801   1.901   5.021
  245SOL     OW 1633   6.597   2.379   5.002
  245SOL    HW1 1634   6.687   2.368   4.959
  245SOL    HW2 1635   6.535   2.308   4.968
  246SOL     OW 1636   4.875   3.723   4.294
  246SOL    HW1 1637   4.805   3.757   4.356
  246SOL    HW2 1638   4.875   3.623   4.296
  247SOL     OW 1639   2.453   1.358   3.209
  247SOL    HW1 1640   2.443   1.316   3.299
  247SOL    HW2 1641   2.402   1.444   3.206
  248SOL     OW 1642   5.112   2.139   4.799
  248SOL    HW1 1643   5.020   2.176   4.792
  248SOL    HW2 1644   5.148   2.121   4.707
  249SOL     OW 1645   3.392   6.573   4.730
  249SOL    HW1 1646   3.388   6.515   4.648
  249SOL    HW2 1647   3.304   6.619   4.743
  250SOL     OW 1648   5.832   2.275   5.497
  250SOL    HW1 1649   5.854   2.215   5.575
  250SOL    HW2 1650   5.763   2.230   5.440
  251SOL     OW 1651   4.242   3.147   6.106
  251SOL    HW1 1652   4.266   3.150   6.203
  251SOL    HW2 1653   4.249   3.053   6.072
  252SOL     OW 1654   6.871   1.373   5.304
  252SOL    HW1 1655   6.832   1.398   5.215
  252SOL    HW2 1656   6.799   1.338   5.364
  253SOL     OW 1657   1.645   3.079   1.254
  253SOL    HW1 1658   1.599   3.038   1.333
  253SOL    HW2 1659   1.631   3.020   1.174
  254SOL     OW 1660   6.949   3.322   4.404
  254SOL    HW1 1661   6.935   3.410   4.449
  254SOL    HW2 1662   6.926   3.330   4.307
  255SOL     OW 1663   3.139   2.101   3.392
  255SOL    HW1 1664   3.177   2.158   3.465
  255SOL    HW2 1665   3.201   2.025   3.373
  256SOL     OW 1666   6.316   5.253   6.650
  256SOL    HW1 1667   6.343   5.177   6.709
  256SOL    HW2 1668   6.375   5.254   6.569
  257SOL     OW 1669   2.830   5.800   6.248
  257SOL    HW1 1670   2.888   5.771   6.324
  257SOL    HW2 1671   2.811   5.721   6.189
  258SOL     OW 1672   4.867   4.567   4.539
  258SOL    HW1 1673   4.900   4.535   4.450
  258SOL    HW2 1674   4.898   4.660   4.555
  259SOL     OW 1675   1.920   3.093   2.566
  259SOL    HW1 1676   1.874   3.102   2.654
  259SOL    HW2 1677   1.951   2.999   2.553
  260SOL     OW 1678   5.003   0.530   6.276
  260SOL    HW1 1679   4.975   0.434   6.268
  260SOL    HW2 1680   4.977   0.579   6.193
  261SOL     OW 1681   0.263   4.108   1.695
  261SOL    HW1 1682   0.273   4.044   1.618
  261SOL    HW2 1683   0.178   4.159   1.685
  262SOL     OW 1684   1.320   3.160   2.447
  262SOL    HW1 1685   1.262   3.149   2.527
  262SOL    HW2 1686   1.410   3.194   2.475
  263SOL     OW 1687   0.677   2.285   4.650
  263SOL    HW1 1688   0.629   2.198   4.635
  263SOL    HW2 1689   0.689   2.299   4.748
  264SOL     OW 1690   0.983   3.544   5.599
  264SOL    HW1 1691   0.986   3.637   5.563
  264SOL    HW2 1692   1.055   3.532   5.668
  265SOL     OW 1693   4.978   4.465   4.324
  265SOL    HW1 1694   5.043   4.489   4.252
  265SOL    HW2 1695   4.967   4.365   4.327
  266SOL     OW 1696   3.936   1.860   0.531
  266SOL    HW1 1697   3.921   1.895   0.439
  266SOL    HW2 1698   4.014   1.797   0.530
  267SOL     OW 1699   1.590   2.648   6.790
  267SOL    HW1 1700   1.522   2.668   6.860
  267SOL    HW2 1701   1.676   2.620   6.833
  268SOL     OW 1702   4.477   4.589   4.434
  268SOL    HW1 1703   4.431   4.546   4.512
  268SOL    HW2 1704   4.413   4.651   4.388
  269SOL     OW 1705   1.620   1.767   6.654
  269SOL    HW1 1706   1.529   1.728   6.664
  269SOL    HW2 1707   1.641   1.778   6.557
  270SOL     OW 1708   5.767   1.016   2.395
  270SOL    HW1 1709   5.754   1.106   2.353
  270SOL    HW2 1710   5.727   1.015   2.487
  271SOL     OW 1711   1.864   1.115   1.036
  271SOL    HW1 1712   1.796   1.095   1.107
  271SOL    HW2 1713   1.955   1.117   1.078
  272SOL     OW 1714   4.082   5.175   4.497
  272SOL    HW1 1715   4.053   5.087   4.460
  272SOL    HW2 1716   4.081   5.170   4.597
  273SOL     OW 1717   1.530   5.868   4.517
  273SOL    HW1 1718   1.483   5.949   4.554
  273SOL    HW2 1719   1.538   5.798   4.588
  274SOL     OW 1720   5.891   2.808   3.345
  274SOL    HW1 1721   5.821   2.770   3.406
  274SOL    HW2 1722   5.930   2.890   3.388
  275SOL     OW 1723   6.810   6.507   6.015
  275SOL    HW1 1724   6.775   6.505   6.109
  275SOL    HW2 1725   6.808   6.415   5.976
  276SOL     OW 1726   6.926   5.930   3.446
  276SOL    HW1 1727   6.913   5.944   3.544
  276SOL    HW2 1728   7.012   5.974   3.418
  277SOL     OW 1729   3.418   1.368   5.620
  277SOL    HW1 1730   3.353   1.440   5.596
  277SOL    HW2 1731   3.494   1.408   5.671
  278SOL     OW 1732   4.978   4.443   2.196
  278SOL    HW1 1733   5.036   4.516   2.158
  278SOL    HW2 1734   4.887   4.448   2.155
  279SOL     OW 1735   0.069   3.076   3.290
  279SOL    HW1 1736   0.160   3.102   3.322
  279SOL    HW2 1737   0.075   3.051   3.193
  280SOL     OW 1738   4.445   6.734   3.928
  280SOL    HW1 1739   4.408   6.713   4.019
  280SOL    HW2 1740   4.370   6.740   3.862
  281SOL     OW 1741   4.108   5.534   3.832
  281SOL    HW1 1742   4.107   5.576   3.923
  281SOL    HW2 1743   4.191   5.480   3.821
  282SOL     OW 1744   4.528   2.073   6.261
  282SOL    HW1 1745   4.594   2.148   6.271
  282SOL    HW2 1746   4.471   2.068   6.342
  283SOL     OW 1747   6.404   0.794   4.843
  283SOL    HW1 1748   6.467   0.865   4.810
  283SOL    HW2 1749   6.438   0.757   4.930
  284SOL     OW 1750   0.437   4.881   4.910
  284SOL    HW1 1751   0.396   4.881   5.001
  284SOL    HW2 1752   0.385   4.819   4.851
  285SOL     OW 1753   4.695   0.205   0.115
  285SOL    HW1 1754   4.717   0.251   0.201
  285SOL    HW2 1755   4.745   0.248   0.041
  286SOL     OW 1756   3.673   5.270   4.722
  286SOL    HW1 1757   3.757   5.321   4.743
  286SOL    HW2 1758   3.614   5.327   4.665
  287SOL     OW 1759   1.176   5.638   6.320
  287SOL    HW1 1760   1.152   5.728   6.283
  287SOL    HW2 1761   1.105   5.607   6.383
  288SOL     OW 1762   3.728   0.448   1.187
  288SOL    HW1 1763   3.719   0.507   1.267
  288SOL    HW2 1764   3.695   0.356   1.209
  289SOL     OW 1765   0.780   6.106   5.569
  289SOL    HW1 1766   0.732   6.172   5.627
  289SOL    HW2 1767   0.865   6.147   5.536
  290SOL     OW 1768   4.557   0.718   3.009
  290SOL    HW1 1769   4.556   0.757   3.101
  290SOL    HW2 1770   4.535   0.791   2.943
  291SOL     OW 1771   4.528   0.540   4.377
  291SOL    HW1 1772   4.504   0.635   4.395
  291SOL    HW2 1773   4.473   0.479   4.434
  292SOL     OW 1774   3.841   0.124   3.989
  292SOL    HW1 1775   3.803   0.078   4.069
  292SOL    HW2 1776   3.813   0.076   3.906
  293SOL     OW 1777   4.772   6.484   2.187
  293SOL    HW1 1778   4.754   6.423   2.110
  293SOL    HW2 1779   4.753   6.579   2.160
  294SOL     OW 1780   5.663   0.187   5.888
  294SOL    HW1 1781   5.639   0.213   5.982
  294SOL    HW2 1782   5.754   0.145   5.888
  295SOL     OW 1783   1.449   2.419   5.011
  295SOL    HW1 1784   1.456   2.319   5.005
  295SOL    HW2 1785   1.498   2.461   4.935
  296SOL     OW 1786   6.331   0.975   1.313
  296SOL    HW1 1787   6.413   1.031   1.300
  296SOL    HW2 1788   6.347   0.910   1.387
  297SOL     OW 1789   4.809   4.870   3.811
  297SOL    HW1 1790   4.716   4.841   3.790
  297SOL    HW2 1791   4.863   4.871   3.726
  298SOL     OW 1792   4.176   0.428   0.557
  298SOL    HW1 1793   4.203   0.334   0.536
  298SOL    HW2 1794   4.250   0.490   0.532
  299SOL     OW 1795   3.427   1.589   0.274
  299SOL    HW1 1796   3.352   1.573   0.339
  299SOL    HW2 1797   3.390   1.626   0.189
  300SOL     OW 1798   3.506   1.064   2.238
  300SOL    HW1 1799   3.469   1.098   2.151
  300SOL    HW2 1800   3.438   1.007   2.283
  301SOL     OW 1801   5.002   5.984   1.835
  301SOL    HW1 1802   5.036   6.051   1.769
  301SOL    HW2 1803   5.055   5.992   1.920
  302SOL     OW 1804   0.281   6.362   1.765
  302SOL    HW1 1805   0.354   6.297   1.743
  302SOL    HW2 1806   0.303   6.451   1.725
  303SOL     OW 1807   5.799   5.775   2.226
  303SOL    HW1 1808   5.833   5.822   2.144
  303SOL    HW2 1809   5.702   5.795   2.238
  304SOL     OW 1810   1.193   6.564   5.438
  304SOL    HW1 1811   1.115   6.596   5.490
  304SOL    HW2 1812   1.267   6.538   5.500
  305SOL     OW 1813   0.966   3.272   1.822
  305SOL    HW1 1814   1.029   3.319   1.884
  305SOL    HW2 1815   0.980   3.173   1.830
  306SOL     OW 1816   6.873   1.132   2.454
  306SOL    HW1 1817   6.837   1.039   2.464
  306SOL    HW2 1818   6.799   1.195   2.433
  307SOL     OW 1819   3.476   3.144   0.664
  307SOL    HW1 1820   3.418   3.101   0.733
  307SOL    HW2 1821   3.484   3.241   0.684
  308SOL     OW 1822   5.708   1.601   4.592
  308SOL    HW1 1823   5.732   1.670   4.523
  308SOL    HW2 1824   5.753   1.624   4.679
  309SOL     OW 1825   0.073   0.054   6.907
  309SOL    HW1 1826   0.144   0.032   6.840
  309SOL    HW2 1827   0.002   0.110   6.864
  310SOL     OW 1828   5.464   6.493   4.417
  310SOL    HW1 1829   5.412   6.412   4.389
  310SOL    HW2 1830   5.530   6.517   4.346
  311SOL     OW 1831   2.737   5.040   2.848
  311SOL    HW1 1832   2.782   4.963   2.893
  311SOL    HW2 1833   2.647   5.055   2.888
  312SOL     OW 1834   4.369   2.372   3.361
  312SOL    HW1 1835   4.376   2.282   3.405
  312SOL    HW2 1836   4.441   2.432   3.396
  313SOL     OW 1837   3.755   3.279   2.394
  313SOL    HW1 1838   3.681   3.309   2.454
  313SOL    HW2 1839   3.739   3.185   2.366
  314SOL     OW 1840   1.837   5.610   4.977
  314SOL    HW1 1841   1.911   5.542   4.977
  314SOL    HW2 1842   1.858   5.681   4.909
  315SOL     OW 1843   6.344   1.497   3.576
  315SOL    HW1 1844   6.406   1.516   3.500
  315SOL    HW2 1845   6.353   1.401   3.603
  316SOL     OW 1846   4.308   1.649   5.626
  316SOL    HW1 1847   4.320   1.659   5.527
  316SOL    HW2 1848   4.264   1.731   5.663
  317SOL     OW 1849   1.833   1.784   1.917
  317SOL    HW1 1850   1.883   1.697   1.912
  317SOL    HW2 1851   1.779   1.797   1.834
  318SOL     OW 1852   6.596   0.625   5.953
  318SOL    HW1 1853   6.526   0.696   5.947
  318SOL    HW2 1854   6.641   0.629   6.042
  319SOL     OW 1855   0.546   2.208   2.589
  319SOL    HW1 1856   0.636   2.165   2.579
  319SOL    HW2 1857   0.476   2.137   2.594
  320SOL     OW 1858   5.706   2.303   6.902
  320SOL    HW1 1859   5.747   2.324   6.813
  320SOL    HW2 1860   5.705   2.204   6.916
  321SOL     OW 1861   3.822   3.561   0.482
  321SOL    HW1 1862   3.848   3.482   0.426
  321SOL    HW2 1863   3.773   3.627   0.426
  322SOL     OW 1864   3.820   3.176   6.294
  322SOL    HW1 1865   3.735   3.133   6.264
  322SOL    HW2 1866   3.883   3.106   6.327
  323SOL     OW 1867   0.511   2.877   3.486
  323SOL    HW1 1868   0.556   2.918   3.407
  323SOL    HW2 1869   0.421   2.842   3.459
  324SOL     OW 1870   2.454   6.677   3.528
  324SOL    HW1 1871   2.436   6.630   3.442
  324SOL    HW2 1872   2.404   6.632   3.603
  325SOL     OW 1873   1.217   3.834   2.319
  325SOL    HW1 1874   1.137   3.886   2.347
  325SOL    HW2 1875   1.188   3.755   2.265
  326SOL     OW 1876   1.539   4.941   6.467
  326SOL    HW1 1877   1.577   4.848   6.464
  326SOL    HW2 1878   1.609   5.007   6.442
  327SOL     OW 1879   2.855   4.716   2.615
  327SOL    HW1 1880   2.858   4.654   2.692
  327SOL    HW2 1881   2.798   4.677   2.542
  328SOL     OW 1882   1.075   4.151   1.921
  328SOL    HW1 1883   1.036   4.153   2.013
  328SOL    HW2 1884   1.129   4.068   1.910
  329SOL     OW 1885   2.908   3.857   1.042
  329SOL    HW1 1886   2.835   3.875   0.975
  329SOL    HW2 1887   2.996   3.886   1.003
  330SOL     OW 1888   3.772   5.635   0.070
  330SOL    HW1 1889   3.863   5.604   0.096
  330SOL    HW2 1890   3.730   5.569   0.008
  331SOL     OW 1891   5.492   4.933   0.967
  331SOL    HW1 1892   5.563   4.918   0.900
  331SOL    HW2 1893   5.472   5.031   0.974
  332SOL     OW 1894   5.473   1.733   3.893
  332SOL    HW1 1895   5.471   1.824   3.935
  332SOL    HW2 1896   5.414   1.671   3.945
  333SOL     OW 1897   4.248   1.100   5.242
  333SOL    HW1 1898   4.269   1.035   5.315
  333SOL    HW2 1899   4.153   1.131   5.252
  334SOL     OW 1900   3.513   2.846   2.280
  334SOL    HW1 1901   3.507   2.900   2.196
  334SOL    HW2 1902   3.488   2.752   2.260
  335SOL     OW 1903   4.287   0.061   6.888
  335SOL    HW1 1904   4.368   0.106   6.926
  335SOL    HW2 1905   4.290   0.066   6.788
  336SOL     OW 1906   3.087   1.189   3.217
  336SOL    HW1 1907   3.104   1.102   3.171
  336SOL    HW2 1908   3.002   1.229   3.182
  337SOL     OW 1909   1.592   2.122   5.958
  337SOL    HW1 1910   1.661   2.050   5.966
  337SOL    HW2 1911   1.590   2.176   6.041
  338SOL     OW 1912   4.051   3.030   1.164
  338SOL    HW1 1913   4.101   2.947   1.188
  338SOL    HW2 1914   3.953   3.014   1.170
  339SOL     OW 1915   4.282   4.719   4.264
  339SOL    HW1 1916   4.250   4.758   4.351
  339SOL    HW2 1917   4.266   4.785   4.191
  340SOL     OW 1918   5.286   3.162   4.884
  340SOL    HW1 1919   5.368   3.174   4.941
  340SOL    HW2 1920   5.296   3.213   4.799
  341SOL     OW 1921   5.711   5.705   4.750
  341SOL    HW1 1922   5.713   5.620   4.697
  341SOL    HW2 1923   5.770   5.773   4.706
  342SOL     OW 1924   4.681   3.778   1.016
  342SOL    HW1 1925   4.591   3.782   0.973
  342SOL    HW2 1926   4.750   3.817   0.955
  343SOL     OW 1927   0.444   6.521   2.681
  343SOL    HW1 1928   0.425   6.597   2.619
  343SOL    HW2 1929   0.537   6.487   2.664
  344SOL     OW 1930   0.988   1.833   2.058
  344SOL    HW1 1931   0.888   1.830   2.054
  344SOL    HW2 1932   1.017   1.906   2.119
  345SOL     OW 1933   6.609   2.274   4.310
  345SOL    HW1 1934   6.526   2.241   4.264
  345SOL    HW2 1935   6.647   2.201   4.367
  346SOL     OW 1936   1.887   6.732   2.563
  346SOL    HW1 1937   1.928   6.652   2.520
  346SOL    HW2 1938   1.899   6.725   2.663
  347SOL     OW 1939   2.439   5.857   6.871
  347SOL    HW1 1940   2.502   5.818   6.804
  347SOL    HW2 1941   2.414   5.788   6.938
  348SOL     OW 1942   4.316   4.984   2.462
  348SOL    HW1 1943   4.253   5.007   2.536
  348SOL    HW2 1944   4.310   4.886   2.441
  349SOL     OW 1945   6.556   4.243   2.383
  349SOL    HW1 1946   6.549   4.342   2.394
  349SOL    HW2 1947   6.529   4.218   2.290
  350SOL     OW 1948   3.031   2.707   0.241
  350SOL    HW1 1949   2.984   2.776   0.186
  350SOL    HW2 1950   2.975   2.624   0.245
  351SOL     OW 1951   2.915   3.662   0.654
  351SOL    HW1 1952   2.930   3.760   0.665
  351SOL    HW2 1953   2.924   3.617   0.743
  352SOL     OW 1954   4.061   6.477   3.291
  352SOL    HW1 1955   4.137   6.491   3.229
  352SOL    HW2 1956   4.092   6.487   3.386
  353SOL     OW 1957   3.447   6.951   5.846
  353SOL    HW1 1958   3.492   6.991   5.927
  353SOL    HW2 1959   3.354   6.986   5.840
  354SOL     OW 1960   5.448   3.065   0.360
  354SOL    HW1 1961   5.460   2.967   0.344
  354SOL    HW2 1962   5.528   3.100   0.408
  355SOL     OW 1963   1.985   2.836   2.517
  355SOL    HW1 1964   2.084   2.833   2.505
  355SOL    HW2 1965   1.947   2.744   2.507
  356SOL     OW 1966   2.074   0.685   4.605
  356SOL    HW1 1967   1.979   0.670   4.631
  356SOL    HW2 1968   2.080   0.700   4.507
  357SOL     OW 1969   0.072   5.738   4.362
  357SOL    HW1 1970   0.128   5.736   4.279
  357SOL    HW2 1971   0.131   5.727   4.442
  358SOL     OW 1972   4.546   6.611   1.058
  358SOL    HW1 1973   4.525   6.566   1.144
  358SOL    HW2 1974   4.618   6.680   1.072
  359SOL     OW 1975   3.372   0.747   1.506
  359SOL    HW1 1976   3.289   0.785   1.546
  359SOL    HW2 1977   3.421   0.818   1.456
  360SOL     OW 1978   1.636   4.167   4.660
  360SOL    HW1 1979   1.644   4.167   4.760
  360SOL    HW2 1980   1.725   4.190   4.620
  361SOL     OW 1981   5.755   6.196   2.511
  361SOL    HW1 1982   5.732   6.285   2.472
  361SOL    HW2 1983   5.724   6.124   2.449
  362SOL     OW 1984   3.947   4.223   0.767
  362SOL    HW1 1985   3.871   4.243   0.829
  362SOL    HW2 1986   3.968   4.125   0.771
  363SOL     OW 1987   5.948   4.545   3.015
  363SOL    HW1 1988   6.013   4.470   3.031
  363SOL    HW2 1989   5.881   4.516   2.946
  364SOL     OW 1990   0.519   4.812   6.403
  364SOL    HW1 1991   0.553   4.902   6.430
  364SOL    HW2 1992   0.529   4.749   6.480
  365SOL     OW 1993   3.453   0.907   1.259
  365SOL    HW1 1994   3.547   0.897   1.292
  365SOL    HW2 1995   3.452   0.959   1.174
  366SOL     OW 1996   5.876   2.881   6.551
  366SOL    HW1 1997   5.932   2.858   6.471
  366SOL    HW2 1998   5.917   2.839   6.632
  367SOL     OW 1999   6.034   2.511   6.018
  367SOL    HW1 2000   6.079   2.531   5.931
  367SOL    HW2 2001   5.994   2.595   6.055
  368SOL     OW 2002   6.926   2.161   5.924
  368SOL    HW1 2003   7.010   2.118   5.890
  368SOL    HW2 2004   6.934   2.175   6.022
  369SOL     OW 2005   6.041   4.317   2.716
  369SOL    HW1 2006   6.033   4.282   2.623
  369SOL    HW2 2007   6.138   4.324   2.741
  370SOL     OW 2008   1.168   1.706   4.333
  370SOL    HW1 2009   1.266   1.694   4.320
  370SOL    HW2 2010   1.125   1.733   4.247
  371SOL     OW 2011   1.765   4.644   6.741
  371SOL    HW1 2012   1.852   4.600   6.765
  371SOL    HW2 2013   1.775   4.743   6.750
  372SOL     OW 2014   1.922   6.826   5.217
  372SOL    HW1 2015   1.908   6.727   5.229
  372SOL    HW2 2016   1.843   6.875   5.252
  373SOL     OW 2017   5.584   6.818   5.422
  373SOL    HW1 2018   5.565   6.905   5.467
  373SOL    HW2 2019   5.586   6.832   5.323
  374SOL     OW 2020   2.538   1.839   3.103
  374SOL    HW1 2021   2.580   1.870   3.018
  374SOL    HW2 2022   2.497   1.918   3.150
  375SOL     OW 2023   0.762   5.087   4.654
  375SOL    HW1 2024   0.794   5.181   4.647
  375SOL    HW2 2025   0.749   5.063   4.750
  376SOL     OW 2026   2.096   1.455   5.422
  376SOL    HW1 2027   2.120   1.470   5.326
  376SOL    HW2 2028   2.085   1.544   5.467
  377SOL     OW 2029   1.937   2.401   0.323
  377SOL    HW1 2030   2.023   2.351   0.310
  377SOL    HW2 2031   1.942   2.455   0.406
  378SOL     OW 2032   3.739   1.460   6.477
  378SOL    HW1 2033   3.790   1.522   6.536
  378SOL    HW2 2034   3.692   1.391   6.532
  379SOL     OW 2035   4.989   2.712   6.774
  379SOL    HW1 2036   5.002   2.612   6.780
  379SOL    HW2 2037   4.946   2.744   6.858
  380SOL     OW 2038   2.516   1.424   1.279
  380SOL    HW1 2039   2.607   1.442   1.241
  380SOL    HW2 2040   2.520   1.428   1.378
  381SOL     OW 2041   1.610   3.804   4.025
  381SOL    HW1 2042   1.684   3.750   3.985
  381SOL    HW2 2043   1.644   3.897   4.044
  382SOL     OW 2044   5.800   0.284   6.923
  382SOL    HW1 2045   5.769   0.190   6.911
  382SOL    HW2 2046   5.860   0.289   7.003
  383SOL     OW 2047   4.356   2.637   0.547
  383SOL    HW1 2048   4.358   2.549   0.594
  383SOL    HW2 2049   4.279   2.691   0.579
  384SOL     OW 2050   0.208   4.698   4.192
  384SOL    HW1 2051   0.233   4.744   4.107
  384SOL    HW2 2052   0.208   4.599   4.178
  385SOL     OW 2053   3.563   5.770   5.815
  385SOL    HW1 2054   3.624   5.708   5.864
  385SOL    HW2 2055   3.572   5.755   5.717
  386SOL     OW 2056   4.161   0.593   4.374
  386SOL    HW1 2057   4.195   0.609   4.281
  386SOL    HW2 2058   4.132   0.498   4.383
  387SOL     OW 2059   1.683   5.672   2.620
  387SOL    HW1 2060   1.614   5.604   2.648
  387SOL    HW2 2061   1.639   5.761   2.609
  388SOL     OW 2062   1.968   1.750   6.447
  388SOL    HW1 2063   1.942   1.843   6.420
  388SOL    HW2 2064   1.992   1.749   6.544
  389SOL     OW 2065   3.985   3.112   2.244
  389SOL    HW1 2066   4.036   3.185   2.289
  389SOL    HW2 2067   3.909   3.084   2.303
  390SOL     OW 2068   3.246   1.078   4.000
  390SOL    HW1 2069   3.330   1.031   4.028
  390SOL    HW2 2070   3.257   1.111   3.906
  391SOL     OW 2071   2.152   2.625   6.673
  391SOL    HW1 2072   2.188   2.716   6.696
  391SOL    HW2 2073   2.074   2.634   6.612
  392SOL     OW 2074   2.010   4.369   0.081
  392SOL    HW1 2075   2.089   4.413   0.122
  392SOL    HW2 2076   2.038   4.285   0.035
  393SOL     OW 2077   6.738   4.752   5.506
  393SOL    HW1 2078   6.640   4.768   5.489
  393SOL    HW2 2079   6.754   4.745   5.605
  394SOL     OW 2080   0.329   0.504   0.288
  394SOL    HW1 2081   0.382   0.581   0.253
  394SOL    HW2 2082   0.290   0.527   0.377
  395SOL     OW 2083   4.953   3.931   2.819
  395SOL    HW1 2084   4.871   3.906   2.769
  395SOL    HW2 2085   5.024   3.962   2.755
  396SOL     OW 2086   3.838   3.801   2.056
  396SOL    HW1 2087   3.757   3.811   1.999
  396SOL    HW2 2088   3.914   3.765   2.001
  397SOL     OW 2089   3.623   2.712   5.871
  397SOL    HW1 2090   3.698   2.743   5.813
  397SOL    HW2 2091   3.563   2.652   5.818
  398SOL     OW 2092   0.496   6.670   2.289
  398SOL    HW1 2093   0.454   6.650   2.200
  398SOL    HW2 2094   0.595   6.673   2.278
  399SOL     OW 2095   4.784   6.147   2.382
  399SOL    HW1 2096   4.706   6.131   2.320
  399SOL    HW2 2097   4.751   6.193   2.464
  400SOL     OW 2098   6.474   0.287   5.332
  400SOL    HW1 2099   6.486   0.249   5.424
  400SOL    HW2 2100   6.563   0.310   5.294
  401SOL     OW 2101   4.395   0.946   6.051
  401SOL    HW1 2102   4.436   1.035   6.032
  401SOL    HW2 2103   4.302   0.960   6.088
  402SOL     OW 2104   6.048   6.436   2.757
  402SOL    HW1 2105   6.006   6.409   2.843
  402SOL    HW2 2106   6.021   6.529   2.734
  403SOL     OW 2107   3.875   2.246   5.560
  403SOL    HW1 2108   3.868   2.209   5.653
  403SOL    HW2 2109   3.798   2.213   5.505
  404SOL     OW 2110   1.535   6.450   3.941
  404SOL    HW1 2111   1.571   6.502   3.863
  404SOL    HW2 2112   1.529   6.353   3.917
  405SOL     OW 2113   1.455   3.309   1.690
  405SOL    HW1 2114   1.476   3.402   1.658
  405SOL    HW2 2115   1.506   3.291   1.775
  406SOL     OW 2116   0.869   3.663   3.472
  406SOL    HW1 2117   0.833   3.753   3.447
  406SOL    HW2 2118   0.793   3.603   3.496
  407SOL     OW 2119   1.922   0.514   3.968
  407SOL    HW1 2120   1.904   0.461   3.885
  407SOL    HW2 2121   1.976   0.595   3.944
  408SOL     OW 2122   1.462   0.953   2.934
  408SOL    HW1 2123   1.557   0.923   2.931
  408SOL    HW2 2124   1.443   0.993   3.023
  409SOL     OW 2125   6.120   2.803   1.774
  409SOL    HW1 2126   6.131   2.839   1.681
  409SOL    HW2 2127   6.204   2.819   1.826
  410SOL     OW 2128   2.353   0.313   6.860
  410SOL    HW1 2129   2.334   0.285   6.766
  410SOL    HW2 2130   2.447   0.345   6.867
  411SOL     OW 2131   5.730   0.006   6.914
  411SOL    HW1 2132   5.699   7.004   6.822
  411SOL    HW2 2133   5.819   6.987   6.932
  412SOL     OW 2134   4.710   6.728   3.606
  412SOL    HW1 2135   4.718   6.812   3.659
  412SOL    HW2 2136   4.683   6.653   3.665
  413SOL     OW 2137   5.338   4.690   1.539
  413SOL    HW1 2138   5.393   4.638   1.474
  413SOL    HW2 2139   5.269   4.630   1.579
  414SOL     OW 2140   3.653   5.106   3.798
  414SOL    HW1 2141   3.599   5.137   3.876
  414SOL    HW2 2142   3.617   5.019   3.764
  415SOL     OW 2143   0.772   5.880   7.005
  415SOL    HW1 2144   0.783   5.782   7.021
  415SOL    HW2 2145   0.802   5.930   0.064
  416SOL     OW 2146   5.093   5.171   4.805
  416SOL    HW1 2147   5.132   5.224   4.881
  416SOL    HW2 2148   5.014   5.119   4.838
  417SOL     OW 2149   2.855   5.811   0.966
  417SOL    HW1 2150   2.764   5.782   0.936
  417SOL    HW2 2151   2.848   5.863   1.052
  418SOL     OW 2152   4.245   5.904   1.629
  418SOL    HW1 2153   4.322   5.925   1.689
  418SOL    HW2 2154   4.271   5.832   1.564
  419SOL     OW 2155   1.785   0.265   1.695
  419SOL    HW1 2156   1.765   0.297   1.603
  419SOL    HW2 2157   1.722   0.306   1.760
  420SOL     OW 2158   6.478   2.942   1.624
  420SOL    HW1 2159   6.501   3.032   1.662
  420SOL    HW2 2160   6.527   2.929   1.537
  421SOL     OW 2161   6.935   4.763   5.812
  421SOL    HW1 2162   6.972   4.798   5.898
  421SOL    HW2 2163   6.835   4.773   5.813
  422SOL     OW 2164   5.982   4.279   0.194
  422SOL    HW1 2165   5.968   4.258   0.097
  422SOL    HW2 2166   6.078   4.304   0.209
  423SOL     OW 2167   0.470   2.659   0.004
  423SOL    HW1 2168   0.407   2.720   6.979
  423SOL    HW2 2169   0.537   2.623   6.963
  424SOL     OW 2170   2.779   3.447   1.309
  424SOL    HW1 2171   2.790   3.437   1.408
  424SOL    HW2 2172   2.786   3.544   1.284
  425SOL     OW 2173   6.068   1.091   2.543
  425SOL    HW1 2174   6.018   1.178   2.544
  425SOL    HW2 2175   6.131   1.090   2.466
  426SOL     OW 2176   5.274   2.254   4.284
  426SOL    HW1 2177   5.264   2.339   4.336
  426SOL    HW2 2178   5.188   2.232   4.238
  427SOL     OW 2179   5.772   4.829   2.296
  427SOL    HW1 2180   5.674   4.828   2.278
  427SOL    HW2 2181   5.792   4.771   2.375
  428SOL     OW 2182   4.476   6.990   4.860
  428SOL    HW1 2183   4.549   0.008   4.914
  428SOL    HW2 2184   4.406   6.952   4.921
  429SOL     OW 2185   2.678   3.916   1.421
  429SOL    HW1 2186   2.670   3.920   1.521
  429SOL    HW2 2187   2.613   3.980   1.380
  430SOL     OW 2188   0.347   0.230   4.387
  430SOL    HW1 2189   0.425   0.213   4.448
  430SOL    HW2 2190   0.347   0.162   4.314
  431SOL     OW 2191   3.415   0.221   0.500
  431SOL    HW1 2192   3.316   0.204   0.504
  431SOL    HW2 2193   3.452   0.217   0.593
  432SOL     OW 2194   6.261   2.415   2.138
  432SOL    HW1 2195   6.273   2.341   2.071
  432SOL    HW2 2196   6.203   2.487   2.099
  433SOL     OW 2197   3.147   6.330   4.699
  433SOL    HW1 2198   3.189   6.286   4.779
  433SOL    HW2 2199   3.217   6.355   4.633
  434SOL     OW 2200   4.098   5.206   1.837
  434SOL    HW1 2201   4.142   5.248   1.757
  434SOL    HW2 2202   4.018   5.153   1.807
  435SOL     OW 2203   3.772   2.056   5.176
  435SOL    HW1 2204   3.686   2.037   5.127
  435SOL    HW2 2205   3.849   2.049   5.113
  436SOL     OW 2206   3.152   5.918   0.430
  436SOL    HW1 2207   3.192   5.830   0.403
  436SOL    HW2 2208   3.225   5.986   0.441
  437SOL     OW 2209   1.187   6.568   6.403
  437SOL    HW1 2210   1.148   6.505   6.471
  437SOL    HW2 2211   1.198   6.659   6.443
  438SOL     OW 2212   1.933   2.971   2.256
  438SOL    HW1 2213   1.944   2.945   2.352
  438SOL    HW2 2214   2.013   2.942   2.204
  439SOL     OW 2215   6.290   4.491   3.220
  439SOL    HW1 2216   6.218   4.434   3.181
  439SOL    HW2 2217   6.307   4.462   3.314
  440SOL     OW 2218   1.273   1.469   5.098
  440SOL    HW1 2219   1.261   1.459   4.999
  440SOL    HW2 2220   1.237   1.557   5.127
  441SOL     OW 2221   0.400   2.343   3.893
  441SOL    HW1 2222   0.469   2.407   3.859
  441SOL    HW2 2223   0.353   2.301   3.816
  442SOL     OW 2224   2.342   5.137   6.852
  442SOL    HW1 2225   2.418   5.118   6.789
  442SOL    HW2 2226   2.371   5.117   6.945
  443SOL     OW 2227   0.828   3.809   4.517
  443SOL    HW1 2228   0.813   3.762   4.604
  443SOL    HW2 2229   0.922   3.791   4.485
  444SOL     OW 2230   4.966   2.261   5.808
  444SOL    HW1 2231   4.883   2.285   5.858
  444SOL    HW2 2232   5.043   2.253   5.871
  445SOL     OW 2233   1.085   5.877   3.416
  445SOL    HW1 2234   1.114   5.944   3.484
  445SOL    HW2 2235   1.136   5.792   3.430
  446SOL     OW 2236   3.976   4.779   4.182
  446SOL    HW1 2237   3.992   4.854   4.117
  446SOL    HW2 2238   4.042   4.706   4.165
  447SOL     OW 2239   0.856   2.709   6.665
  447SOL    HW1 2240   0.936   2.675   6.615
  447SOL    HW2 2241   0.873   2.803   6.694
  448SOL     OW 2242   2.753   0.740   4.392
  448SOL    HW1 2243   2.796   0.741   4.482
  448SOL    HW2 2244   2.679   0.673   4.392
  449SOL     OW 2245   4.209   0.391   4.859
  449SOL    HW1 2246   4.301   0.399   4.820
  449SOL    HW2 2247   4.211   0.328   4.936
  450SOL     OW 2248   1.766   6.002   3.845
  450SOL    HW1 2249   1.818   6.058   3.781
  450SOL    HW2 2250   1.822   5.981   3.925
  451SOL     OW 2251   1.910   2.083   3.500
  451SOL    HW1 2252   1.840   2.106   3.433
  451SOL    HW2 2253   1.955   1.997   3.474
  452SOL     OW 2254   6.344   5.811   1.317
  452SOL    HW1 2255   6.429   5.790   1.365
  452SOL    HW2 2256   6.343   5.764   1.228
  453SOL     OW 2257   3.464   0.564   4.564
  453SOL    HW1 2258   3.521   0.538   4.643
  453SOL    HW2 2259   3.446   0.662   4.567
  454SOL     OW 2260   0.071   4.898   6.021
  454SOL    HW1 2261   0.055   4.996   6.005
  454SOL    HW2 2262   0.120   4.886   6.107
  455SOL     OW 2263   6.670   2.132   3.357
  455SOL    HW1 2264   6.752   2.104   3.306
  455SOL    HW2 2265   6.666   2.084   3.444
  456SOL     OW 2266   5.164   5.765   4.622
  456SOL    HW1 2267   5.216   5.820   4.557
  456SOL    HW2 2268   5.213   5.760   4.709
  457SOL     OW 2269   2.131   3.581   3.848
  457SOL    HW1 2270   2.167   3.558   3.757
  457SOL    HW2 2271   2.163   3.673   3.873
  458SOL     OW 2272   4.363   5.566   3.657
  458SOL    HW1 2273   4.302   5.508   3.604
  458SOL    HW2 2274   4.310   5.630   3.712
  459SOL     OW 2275   2.004   6.482   4.685
  459SOL    HW1 2276   2.005   6.511   4.781
  459SOL    HW2 2277   1.916   6.442   4.663
  460SOL     OW 2278   1.568   0.028   3.646
  460SOL    HW1 2279   1.530   0.121   3.650
  460SOL    HW2 2280   1.530   7.003   3.567
  461SOL     OW 2281   6.043   6.986   5.276
  461SOL    HW1 2282   6.134   6.978   5.234
  461SOL    HW2 2283   5.979   0.001   5.209
  462SOL     OW 2284   3.674   2.685   6.135
  462SOL    HW1 2285   3.645   2.668   6.041
  462SOL    HW2 2286   3.720   2.604   6.171
  463SOL     OW 2287   6.673   5.279   3.522
  463SOL    HW1 2288   6.675   5.179   3.518
  463SOL    HW2 2289   6.599   5.313   3.463
  464SOL     OW 2290   2.819   2.675   6.158
  464SOL    HW1 2291   2.758   2.600   6.186
  464SOL    HW2 2292   2.867   2.710   6.238
  465SOL     OW 2293   1.228   2.596   4.162
  465SOL    HW1 2294   1.177   2.522   4.118
  465SOL    HW2 2295   1.189   2.615   4.251
  466SOL     OW 2296   1.506   4.957   3.024
  466SOL    HW1 2297   1.565   5.027   2.983
  466SOL    HW2 2298   1.419   4.999   3.050
  467SOL     OW 2299   1.187   1.214   0.190
  467SOL    HW1 2300   1.175   1.138   0.125
  467SOL    HW2 2301   1.265   1.195   0.249
  468SOL     OW 2302   3.485   6.134   6.720
  468SOL    HW1 2303   3.515   6.098   6.808
  468SOL    HW2 2304   3.390   6.164   6.726
  469SOL     OW 2305   3.013   4.676   0.223
  469SOL    HW1 2306   3.057   4.650   0.137
  469SOL    HW2 2307   2.914   4.661   0.215
  470SOL     OW 2308   4.556   0.130   2.380
  470SOL    HW1 2309   4.556   0.223   2.416
  470SOL    HW2 2310   4.461   0.099   2.369
  471SOL     OW 2311   1.836   2.329   4.395
  471SOL    HW1 2312   1.879   2.250   4.438
  471SOL    HW2 2313   1.828   2.315   4.297
  472SOL     OW 2314   5.265   3.838   6.628
  472SOL    HW1 2315   5.347   3.894   6.617
  472SOL    HW2 2316   5.247   3.824   6.726
  473SOL     OW 2317   0.722   3.101   2.140
  473SOL    HW1 2318   0.755   3.012   2.108
  473SOL    HW2 2319   0.800   3.163   2.152
  474SOL     OW 2320   5.028   5.323   4.055
  474SOL    HW1 2321   4.975   5.246   4.021
  474SOL    HW2 2322   5.066   5.374   3.978
  475SOL     OW 2323   5.519   0.705   6.443
  475SOL    HW1 2324   5.464   0.622   6.453
  475SOL    HW2 2325   5.552   0.712   6.349
  476SOL     OW 2326   6.577   3.966   3.044
  476SOL    HW1 2327   6.671   3.997   3.064
  476SOL    HW2 2328   6.520   4.046   3.025
  477SOL     OW 2329   1.042   4.432   4.487
  477SOL    HW1 2330   1.003   4.520   4.459
  477SOL    HW2 2331   1.142   4.437   4.483
  478SOL     OW 2332   3.139   6.867   2.139
  478SOL    HW1 2333   3.087   6.807   2.199
  478SOL    HW2 2334   3.155   6.822   2.051
  479SOL     OW 2335   4.102   2.323   6.779
  479SOL    HW1 2336   4.069   2.237   6.819
  479SOL    HW2 2337   4.196   2.310   6.746
  480SOL     OW 2338   2.001   1.340   0.280
  480SOL    HW1 2339   2.077   1.336   0.345
  480SOL    HW2 2340   1.949   1.424   0.295
  481SOL     OW 2341   1.453   0.432   0.481
  481SOL    HW1 2342   1.553   0.426   0.472
  481SOL    HW2 2343   1.417   0.342   0.505
  482SOL     OW 2344   4.930   5.174   3.089
  482SOL    HW1 2345   4.902   5.181   2.994
  482SOL    HW2 2346   4.896   5.089   3.128
  483SOL     OW 2347   6.988   1.570   1.789
  483SOL    HW1 2348   6.960   1.600   1.880
  483SOL    HW2 2349   0.040   1.628   1.757
  484SOL     OW 2350   1.340   2.780   4.788
  484SOL    HW1 2351   1.249   2.798   4.826
  484SOL    HW2 2352   1.347   2.820   4.697
  485SOL     OW 2353   3.709   5.280   2.496
  485SOL    HW1 2354   3.680   5.338   2.420
  485SOL    HW2 2355   3.809   5.277   2.499
  486SOL     OW 2356   6.818   2.322   0.746
  486SOL    HW1 2357   6.793   2.337   0.842
  486SOL    HW2 2358   6.850   2.228   0.734
  487SOL     OW 2359   1.338   2.131   1.239
  487SOL    HW1 2360   1.374   2.134   1.146
  487SOL    HW2 2361   1.249   2.176   1.242
  488SOL     OW 2362   0.898   2.000   1.821
  488SOL    HW1 2363   0.865   1.928   1.882
  488SOL    HW2 2364   0.954   1.959   1.749
  489SOL     OW 2365   3.238   6.219   6.310
  489SOL    HW1 2366   3.317   6.160   6.329
  489SOL    HW2 2367   3.265   6.315   6.320
  490SOL     OW 2368   6.664   5.815   3.067
  490SOL    HW1 2369   6.726   5.802   2.989
  490SOL    HW2 2370   6.690   5.753   3.141
  491SOL     OW 2371   0.207   3.056   2.397
  491SOL    HW1 2372   0.262   2.992   2.345
  491SOL    HW2 2373   0.257   3.086   2.478
  492SOL     OW 2374   2.399   0.281   5.326
  492SOL    HW1 2375   2.381   0.254   5.232
  492SOL    HW2 2376   2.420   0.379   5.330
  493SOL     OW 2377   4.961   6.719   5.833
  493SOL    HW1 2378   5.040   6.658   5.829
  493SOL    HW2 2379   4.905   6.696   5.913
  494SOL     OW 2380   6.729   0.719   6.737
  494SOL    HW1 2381   6.692   0.790   6.797
  494SOL    HW2 2382   6.661   0.696   6.668
  495SOL     OW 2383   4.846   6.036   3.693
  495SOL    HW1 2384   4.862   6.095   3.615
  495SOL    HW2 2385   4.911   5.960   3.693
  496SOL     OW 2386   5.267   3.394   2.130
  496SOL    HW1 2387   5.309   3.399   2.221
  496SOL    HW2 2388   5.308   3.463   2.071
  497SOL     OW 2389   3.522   1.237   4.221
  497SOL    HW1 2390   3.431   1.270   4.245
  497SOL    HW2 2391   3.547   1.271   4.130
  498SOL     OW 2392   1.849   4.288   1.380
  498SOL    HW1 2393   1.757   4.253   1.364
  498SOL    HW2 2394   1.901   4.287   1.294
  499SOL     OW 2395   2.625   0.297   3.985
  499SOL    HW1 2396   2.559   0.329   4.052
  499SOL    HW2 2397   2.717   0.327   4.011
  500SOL     OW 2398   0.721   3.462   3.574
  500SOL    HW1 2399   0.698   3.469   3.671
  500SOL    HW2 2400   0.656   3.402   3.528
  501SOL     OW 2401   2.553   6.344   6.981
  501SOL    HW1 2402   2.489   6.285   6.933
  501SOL    HW2 2403   2.584   6.416   6.919
  502SOL     OW 2404   6.565   3.987   0.030
  502SOL    HW1 2405   6.466   3.991   0.013
  502SOL    HW2 2406   6.612   3.960   6.968
  503SOL     OW 2407   6.021   5.970   6.149
  503SOL    HW1 2408   6.020   5.872   6.132
  503SOL    HW2 2409   6.041   5.988   6.245
  504SOL     OW 2410   1.743   5.251   3.164
  504SOL    HW1 2411   1.809   5.322   3.190
  504SOL    HW2 2412   1.738   5.182   3.236
  505SOL     OW 2413   3.561   6.186   4.875
  505SOL    HW1 2414   3.585   6.187   4.778
  505SOL    HW2 2415   3.462   6.181   4.885
  506SOL     OW 2416   2.057   5.452   4.996
  506SOL    HW1 2417   2.118   5.435   5.073
  506SOL    HW2 2418   2.057   5.373   4.934
  507SOL     OW 2419   3.869   0.399   3.564
  507SOL    HW1 2420   3.875   0.300   3.551
  507SOL    HW2 2421   3.910   0.446   3.486
  508SOL     OW 2422   6.608   3.935   2.292
  508SOL    HW1 2423   6.530   3.980   2.336
  508SOL    HW2 2424   6.635   3.987   2.211
  509SOL     OW 2425   3.674   1.138   1.923
  509SOL    HW1 2426   3.718   1.227   1.904
  509SOL    HW2 2427   3.592   1.152   1.978
  510SOL     OW 2428   6.421   5.048   6.821
  510SOL    HW1 2429   6.443   4.975   6.756
  510SOL    HW2 2430   6.407   5.009   6.912
  511SOL     OW 2431   0.402   1.470   6.301
  511SOL    HW1 2432   0.382   1.550   6.245
  511SOL    HW2 2433   0.317   1.421   6.322
  512SOL     OW 2434   6.897   2.801   6.663
  512SOL    HW1 2435   6.883   2.782   6.761
  512SOL    HW2 2436   6.844   2.736   6.609
  513SOL     OW 2437   6.000   6.087   2.953
  513SOL    HW1 2438   6.020   6.109   2.857
  513SOL    HW2 2439   6.054   6.007   2.981
  514SOL     OW 2440   6.730   2.969   4.110
  514SOL    HW1 2441   6.812   2.942   4.162
  514SOL    HW2 2442   6.649   2.956   4.168
  515SOL     OW 2443   1.937   0.554   6.564
  515SOL    HW1 2444   1.931   0.650   6.536
  515SOL    HW2 2445   1.889   0.543   6.651
  516SOL     OW 2446   2.559   4.499   1.807
  516SOL    HW1 2447   2.542   4.401   1.815
  516SOL    HW2 2448   2.652   4.519   1.837
  517SOL     OW 2449   4.886   5.427   2.269
  517SOL    HW1 2450   4.871   5.464   2.178
  517SOL    HW2 2451   4.805   5.375   2.297
  518SOL     OW 2452   1.972   2.144   2.786
  518SOL    HW1 2453   2.041   2.073   2.770
  518SOL    HW2 2454   1.882   2.109   2.760
  519SOL     OW 2455   0.642   0.690   4.367
  519SOL    HW1 2456   0.692   0.626   4.426
  519SOL    HW2 2457   0.708   0.745   4.315
  520SOL     OW 2458   6.154   4.487   6.986
  520SOL    HW1 2459   6.222   4.523   6.922
  520SOL    HW2 2460   6.135   4.556   0.033
  521SOL     OW 2461   0.059   3.774   6.210
  521SOL    HW1 2462   0.054   3.719   6.126
  521SOL    HW2 2463   0.124   3.849   6.198
  522SOL     OW 2464   3.871   3.541   5.288
  522SOL    HW1 2465   3.848   3.631   5.252
  522SOL    HW2 2466   3.788   3.485   5.295
  523SOL     OW 2467   0.614   4.966   1.365
  523SOL    HW1 2468   0.706   4.934   1.386
  523SOL    HW2 2469   0.547   4.905   1.409
  524SOL     OW 2470   1.087   1.638   0.741
  524SOL    HW1 2471   1.001   1.614   0.785
  524SOL    HW2 2472   1.122   1.560   0.690
  525SOL     OW 2473   2.191   3.554   6.661
  525SOL    HW1 2474   2.251   3.530   6.585
  525SOL    HW2 2475   2.099   3.522   6.642
  526SOL     OW 2476   3.997   6.794   4.161
  526SOL    HW1 2477   4.005   6.698   4.132
  526SOL    HW2 2478   4.009   6.801   4.260
  527SOL     OW 2479   6.660   3.037   6.741
  527SOL    HW1 2480   6.682   2.988   6.656
  527SOL    HW2 2481   6.692   2.983   6.819
  528SOL     OW 2482   1.053   1.369   3.876
  528SOL    HW1 2483   1.088   1.281   3.908
  528SOL    HW2 2484   0.954   1.361   3.860
  529SOL     OW 2485   1.062   6.576   4.132
  529SOL    HW1 2486   1.128   6.573   4.057
  529SOL    HW2 2487   1.107   6.609   4.215
  530SOL     OW 2488   2.989   3.192   4.852
  530SOL    HW1 2489   3.083   3.159   4.859
  530SOL    HW2 2490   2.928   3.129   4.899
  531SOL     OW 2491   0.187   0.276   2.651
  531SOL    HW1 2492   0.178   0.297   2.553
  531SOL    HW2 2493   0.097   0.261   2.691
  532SOL     OW 2494   1.659   2.323   0.291
  532SOL    HW1 2495   1.746   2.371   0.300
  532SOL    HW2 2496   1.675   2.225   0.287
  533SOL     OW 2497   4.301   6.425   3.451
  533SOL    HW1 2498   4.316   6.518   3.485
  533SOL    HW2 2499   4.312   6.360   3.526
  534SOL     OW 2500   5.290   5.498   3.496
  534SOL    HW1 2501   5.203   5.541   3.473
  534SOL    HW2 2502   5.360   5.527   3.431
  535SOL     OW 2503   0.409   3.634   4.538
  535SOL    HW1 2504   0.440   3.542   4.511
  535SOL    HW2 2505   0.443   3.701   4.472
  536SOL     OW 2506   0.095   5.235   1.719
  536SOL    HW1 2507   0.170   5.247   1.654
  536SOL    HW2 2508   0.129   5.250   1.812
  537SOL     OW 2509   2.238   6.254   3.519
  537SOL    HW1 2510   2.325   6.287   3.556
  537SOL    HW2 2511   2.235   6.154   3.524
  538SOL     OW 2512   1.095   4.068   2.659
  538SOL    HW1 2513   1.123   4.046   2.566
  538SOL    HW2 2514   0.997   4.086   2.661
  539SOL     OW 2515   0.838   6.393   0.076
  539SOL    HW1 2516   0.822   6.358   7.007
  539SOL    HW2 2517   0.758   6.375   0.133
  540SOL     OW 2518   0.346   1.427   2.306
  540SOL    HW1 2519   0.391   1.402   2.391
  540SOL    HW2 2520   0.388   1.379   2.230
  541SOL     OW 2521   3.320   6.284   3.980
  541SOL    HW1 2522   3.330   6.349   4.055
  541SOL    HW2 2523   3.296   6.194   4.016
  542SOL     OW 2524   6.405   0.355   0.049
  542SOL    HW1 2525   6.456   0.271   0.038
  542SOL    HW2 2526   6.464   0.433   0.029
  543SOL     OW 2527   1.544   4.878   5.555
  543SOL    HW1 2528   1.577   4.909   5.644
  543SOL    HW2 2529   1.620   4.839   5.503
  544SOL     OW 2530   1.889   4.270   1.093
  544SOL    HW1 2531   1.897   4.342   1.024
  544SOL    HW2 2532   1.803   4.221   1.079
  545SOL     OW 2533   3.359   0.370   3.015
  545SOL    HW1 2534   3.352   0.441   3.084
  545SOL    HW2 2535   3.378   0.282   3.058
  546SOL     OW 2536   1.609   3.025   0.229
  546SOL    HW1 2537   1.612   2.952   0.161
  546SOL    HW2 2538   1.702   3.045   0.260
  547SOL     OW 2539   2.808   1.517   0.054
  547SOL    HW1 2540   2.806   1.576   6.996
  547SOL    HW2 2541   2.715   1.505   0.088
  548SOL     OW 2542   3.933   3.104   1.980
  548SOL    HW1 2543   4.008   3.095   1.914
  548SOL    HW2 2544   3.970   3.108   2.072
  549SOL     OW 2545   4.630   3.173   0.939
  549SOL    HW1 2546   4.535   3.143   0.935
  549SOL    HW2 2547   4.681   3.130   0.864
  550SOL     OW 2548   6.420   4.766   3.415
  550SOL    HW1 2549   6.382   4.856   3.434
  550SOL    HW2 2550   6.349   4.696   3.430
  551SOL     OW 2551   1.005   0.740   1.219
  551SOL    HW1 2552   0.943   0.674   1.261
  551SOL    HW2 2553   1.047   0.698   1.138
  552SOL     OW 2554   4.616   4.962   0.539
  552SOL    HW1 2555   4.655   4.873   0.513
  552SOL    HW2 2556   4.676   5.035   0.507
  553SOL     OW 2557   2.550   6.664   1.970
  553SOL    HW1 2558   2.634   6.693   2.017
  553SOL    HW2 2559   2.548   6.565   1.964
  554SOL     OW 2560   5.524   6.621   5.597
  554SOL    HW1 2561   5.425   6.616   5.607
  554SOL    HW2 2562   5.548   6.703   5.544
  555SOL     OW 2563   2.123   5.001   3.226
  555SOL    HW1 2564   2.099   4.964   3.315
  555SOL    HW2 2565   2.047   5.053   3.188
  556SOL     OW 2566   5.789   2.204   3.789
  556SOL    HW1 2567   5.767   2.291   3.833
  556SOL    HW2 2568   5.735   2.193   3.705
  557SOL     OW 2569   0.251   4.786   0.423
  557SOL    HW1 2570   0.243   4.863   0.360
  557SOL    HW2 2571   0.344   4.751   0.421
  558SOL     OW 2572   3.099   4.083   4.620
  558SOL    HW1 2573   3.040   4.007   4.647
  558SOL    HW2 2574   3.090   4.157   4.686
  559SOL     OW 2575   6.493   6.010   6.535
  559SOL    HW1 2576   6.552   6.091   6.533
  559SOL    HW2 2577   6.532   5.942   6.598
  560SOL     OW 2578   4.074   5.585   0.031
  560SOL    HW1 2579   4.100   5.638   0.112
  560SOL    HW2 2580   4.056   5.490   0.056
  561SOL     OW 2581   6.414   1.128   6.848
  561SOL    HW1 2582   6.424   1.193   6.923
  561SOL    HW2 2583   6.367   1.171   6.772
  562SOL     OW 2584   4.386   0.515   6.071
  562SOL    HW1 2585   4.301   0.539   6.119
  562SOL    HW2 2586   4.442   0.456   6.130
  563SOL     OW 2587   2.084   6.475   3.539
  563SOL    HW1 2588   2.148   6.404   3.509
  563SOL    HW2 2589   1.996   6.461   3.494
  564SOL     OW 2590   2.599   1.691   6.660
  564SOL    HW1 2591   2.631   1.774   6.613
  564SOL    HW2 2592   2.590   1.617   6.594
  565SOL     OW 2593   4.235   3.269   5.578
  565SOL    HW1 2594   4.144   3.260   5.619
  565SOL    HW2 2595   4.299   3.303   5.646
  566SOL     OW 2596   6.275   3.869   3.869
  566SOL    HW1 2597   6.200   3.912   3.919
  566SOL    HW2 2598   6.279   3.771   3.891
  567SOL     OW 2599   3.651   4.042   3.269
  567SOL    HW1 2600   3.655   4.067   3.366
  567SOL    HW2 2601   3.738   4.003   3.241
  568SOL     OW 2602   3.488   2.630   0.387
  568SOL    HW1 2603   3.414   2.620   0.321
  568SOL    HW2 2604   3.525   2.722   0.383
  569SOL     OW 2605   1.647   3.424   0.314
  569SOL    HW1 2606   1.633   3.400   0.218
  569SOL    HW2 2607   1.564   3.406   0.366
  570SOL     OW 2608   2.060   6.516   6.100
  570SOL    HW1 2609   2.099   6.471   6.019
  570SOL    HW2 2610   2.052   6.614   6.082
  571SOL     OW 2611   3.414   0.128   3.128
  571SOL    HW1 2612   3.490   0.100   3.187
  571SOL    HW2 2613   3.329   0.129   3.180
  572SOL     OW 2614   2.206   5.169   5.534
  572SOL    HW1 2615   2.189   5.192   5.438
  572SOL    HW2 2616   2.192   5.071   5.547
  573SOL     OW 2617   4.354   1.341   5.391
  573SOL    HW1 2618   4.288   1.279   5.348
  573SOL    HW2 2619   4.318   1.434   5.389
  574SOL     OW 2620   2.327   2.128   3.980
  574SOL    HW1 2621   2.259   2.189   3.938
  574SOL    HW2 2622   2.296   2.034   3.973
  575SOL     OW 2623   6.606   3.514   6.314
  575SOL    HW1 2624   6.694   3.518   6.268
  575SOL    HW2 2625   6.532   3.514   6.246
  576SOL     OW 2626   1.325   2.483   2.006
  576SOL    HW1 2627   1.415   2.528   2.004
  576SOL    HW2 2628   1.254   2.553   2.013
  577SOL     OW 2629   1.686   0.796   3.284
  577SOL    HW1 2630   1.589   0.782   3.304
  577SOL    HW2 2631   1.706   0.894   3.280
  578SOL     OW 2632   6.563   4.173   3.469
  578SOL    HW1 2633   6.492   4.166   3.538
  578SOL    HW2 2634   6.523   4.200   3.382
  579SOL     OW 2635   3.104   2.531   0.971
  579SOL    HW1 2636   3.172   2.562   1.037
  579SOL    HW2 2637   3.069   2.441   0.999
  580SOL     OW 2638   0.369   4.207   0.065
  580SOL    HW1 2639   0.289   4.147   0.056
  580SOL    HW2 2640   0.391   4.246   6.998
  581SOL     OW 2641   3.327   3.275   2.599
  581SOL    HW1 2642   3.285   3.320   2.678
  581SOL    HW2 2643   3.297   3.179   2.595
  582SOL     OW 2644   5.201   5.330   2.832
  582SOL    HW1 2645   5.139   5.280   2.771
  582SOL    HW2 2646   5.223   5.273   2.911
  583SOL     OW 2647   2.211   5.166   6.369
  583SOL    HW1 2648   2.129   5.169   6.312
  583SOL    HW2 2649   2.185   5.170   6.466
  584SOL     OW 2650   1.150   5.069   5.346
  584SOL    HW1 2651   1.191   5.119   5.270
  584SOL    HW2 2652   1.093   5.132   5.400
  585SOL     OW 2653   6.049   2.795   6.024
  585SOL    HW1 2654   5.995   2.839   5.952
  585SOL    HW2 2655   6.146   2.804   6.003
  586SOL     OW 2656   3.093   0.608   6.645
  586SOL    HW1 2657   3.135   0.552   6.573
  586SOL    HW2 2658   3.056   0.692   6.606
  587SOL     OW 2659   2.760   2.446   5.089
  587SOL    HW1 2660   2.735   2.350   5.103
  587SOL    HW2 2661   2.699   2.488   5.022
  588SOL     OW 2662   2.765   5.333   0.791
  588SOL    HW1 2663   2.844   5.391   0.772
  588SOL    HW2 2664   2.709   5.323   0.709
  589SOL     OW 2665   3.823   5.123   1.707
  589SOL    HW1 2666   3.741   5.072   1.681
  589SOL    HW2 2667   3.807   5.221   1.695
  590SOL     OW 2668   5.757   2.967   1.600
  590SOL    HW1 2669   5.660   2.986   1.614
  590SOL    HW2 2670   5.808   3.054   1.598
  591SOL     OW 2671   4.139   6.145   3.844
  591SOL    HW1 2672   4.047   6.121   3.875
  591SOL    HW2 2673   4.206   6.107   3.908
  592SOL     OW 2674   4.222   0.032   1.196
  592SOL    HW1 2675   4.271   0.000   1.115
  592SOL    HW2 2676   4.283   0.089   1.251
  593SOL     OW 2677   4.463   2.115   3.519
  593SOL    HW1 2678   4.449   2.161   3.607
  593SOL    HW2 2679   4.412   2.029   3.519
  594SOL     OW 2680   4.426   2.429   6.179
  594SOL    HW1 2681   4.400   2.341   6.141
  594SOL    HW2 2682   4.485   2.415   6.259
  595SOL     OW 2683   4.915   6.638   3.432
  595SOL    HW1 2684   4.833   6.686   3.463
  595SOL    HW2 2685   4.965   6.603   3.512
  596SOL     OW 2686   0.692   3.671   1.727
  596SOL    HW1 2687   0.650   3.721   1.803
  596SOL    HW2 2688   0.695   3.574   1.749
  597SOL     OW 2689   5.153   0.329   5.350
  597SOL    HW1 2690   5.158   0.260   5.278
  597SOL    HW2 2691   5.059   0.365   5.355
  598SOL     OW 2692   3.401   4.166   6.951
  598SOL    HW1 2693   3.442   4.129   0.012
  598SOL    HW2 2694   3.444   4.253   6.929
  599SOL     OW 2695   1.406   0.140   3.059
  599SOL    HW1 2696   1.431   0.101   2.970
  599SOL    HW2 2697   1.315   0.183   3.052
  600SOL     OW 2698   1.413   0.798   1.137
  600SOL    HW1 2699   1.338   0.839   1.084
  600SOL    HW2 2700   1.378   0.771   1.228
  601SOL     OW 2701   2.926   5.732   4.250
  601SOL    HW1 2702   2.929   5.637   4.281
  601SOL    HW2 2703   2.845   5.777   4.288
  602SOL     OW 2704   1.460   2.317   0.082
  602SOL    HW1 2705   1.481   2.243   0.017
  602SOL    HW2 2706   1.538   2.330   0.143
  603SOL     OW 2707   4.119   2.010   3.778
  603SOL    HW1 2708   4.040   1.963   3.739
  603SOL    HW2 2709   4.134   2.097   3.730
  604SOL     OW 2710   0.290   3.961   1.228
  604SOL    HW1 2711   0.376   3.916   1.204
  604SOL    HW2 2712   0.217   3.893   1.232
  605SOL     OW 2713   6.513   5.180   2.989
  605SOL    HW1 2714   6.545   5.274   2.989
  605SOL    HW2 2715   6.531   5.138   3.078
  606SOL     OW 2716   5.191   0.593   5.341
  606SOL    HW1 2717   5.194   0.493   5.335
  606SOL    HW2 2718   5.125   0.620   5.412
  607SOL     OW 2719   5.378   0.493   5.028
  607SOL    HW1 2720   5.301   0.466   5.085
  607SOL    HW2 2721   5.374   0.443   4.941
  608SOL     OW 2722   3.793   6.454   0.482
  608SOL    HW1 2723   3.825   6.540   0.444
  608SOL    HW2 2724   3.693   6.451   0.480
  609SOL     OW 2725   3.207   3.638   4.017
  609SOL    HW1 2726   3.219   3.566   3.949
  609SOL    HW2 2727   3.122   3.624   4.067
  610SOL     OW 2728   5.583   2.241   3.140
  610SOL    HW1 2729   5.619   2.332   3.160
  610SOL    HW2 2730   5.492   2.231   3.182
  611SOL     OW 2731   1.102   0.226   6.544
  611SOL    HW1 2732   1.033   0.239   6.474
  611SOL    HW2 2733   1.159   0.307   6.551
  612SOL     OW 2734   3.450   5.475   5.763
  612SOL    HW1 2735   3.487   5.536   5.833
  612SOL    HW2 2736   3.516   5.402   5.745
  613SOL     OW 2737   4.932   6.955   5.416
  613SOL    HW1 2738   4.838   6.922   5.427
  613SOL    HW2 2739   4.951   0.004   5.483
  614SOL     OW 2740   6.266   4.381   0.921
  614SOL    HW1 2741   6.305   4.388   0.829
  614SOL    HW2 2742   6.168   4.367   0.915
  615SOL     OW 2743   0.871   1.844   0.991
  615SOL    HW1 2744   0.968   1.824   1.003
  615SOL    HW2 2745   0.846   1.923   1.047
  616SOL     OW 2746   5.957   1.739   3.017
  616SOL    HW1 2747   5.890   1.708   3.083
  616SOL    HW2 2748   5.910   1.774   2.935
  617SOL     OW 2749   0.267   3.537   6.902
  617SOL    HW1 2750   0.176   3.498   6.917
  617SOL    HW2 2751   0.278   3.559   6.805
  618SOL     OW 2752   6.602   3.166   0.604
  618SOL    HW1 2753   6.649   3.119   0.679
  618SOL    HW2 2754   6.508   3.134   0.598
  619SOL     OW 2755   4.003   0.040   6.621
  619SOL    HW1 2756   3.993   6.973   6.664
  619SOL    HW2 2757   3.953   0.108   6.675
  620SOL     OW 2758   5.925   2.846   0.998
  620SOL    HW1 2759   5.954   2.923   0.941
  620SOL    HW2 2760   5.877   2.882   1.079
  621SOL     OW 2761   1.762   7.022   5.309
  621SOL    HW1 2762   1.697   0.046   5.249
  621SOL    HW2 2763   1.729   0.003   5.403
  622SOL     OW 2764   0.480   1.964   5.307
  622SOL    HW1 2765   0.386   1.980   5.339
  622SOL    HW2 2766   0.479   1.934   5.212
  623SOL     OW 2767   0.609   0.065   4.875
  623SOL    HW1 2768   0.568   0.122   4.946
  623SOL    HW2 2769   0.562   7.000   4.870
  624SOL     OW 2770   6.439   1.316   0.033
  624SOL    HW1 2771   6.472   1.409   0.017
  624SOL    HW2 2772   6.501   1.270   0.096
  625SOL     OW 2773   1.413   1.732   0.898
  625SOL    HW1 2774   1.381   1.639   0.882
  625SOL    HW2 2775   1.502   1.728   0.944
  626SOL     OW 2776   1.041   5.492   2.562
  626SOL    HW1 2777   1.110   5.554   2.524
  626SOL    HW2 2778   0.950   5.531   2.548
  627SOL     OW 2779   6.477   6.652   0.120
  627SOL    HW1 2780   6.509   6.560   0.140
  627SOL    HW2 2781   6.546   6.701   0.068
  628SOL     OW 2782   5.787   3.866   5.169
  628SOL    HW1 2783   5.881   3.848   5.199
  628SOL    HW2 2784   5.741   3.780   5.150
  629SOL     OW 2785   0.541   0.910   0.080
  629SOL    HW1 2786   0.498   0.848   0.146
  629SOL    HW2 2787   0.489   0.911   7.018
  630SOL     OW 2788   0.211   2.334   0.747
  630SOL    HW1 2789   0.122   2.289   0.742
  630SOL    HW2 2790   0.232   2.355   0.843
  631SOL     OW 2791   4.111   1.600   4.315
  631SOL    HW1 2792   4.175   1.653   4.370
  631SOL    HW2 2793   4.049   1.549   4.374
  632SOL     OW 2794   4.083   2.839   0.837
  632SOL    HW1 2795   4.092   2.744   0.869
  632SOL    HW2 2796   4.053   2.839   0.742
  633SOL     OW 2797   2.977   4.683   6.785
  633SOL    HW1 2798   2.967   4.605   6.846
  633SOL    HW2 2799   2.987   4.651   6.691
  634SOL     OW 2800   4.052   3.264   3.071
  634SOL    HW1 2801   3.976   3.329   3.069
  634SOL    HW2 2802   4.023   3.177   3.033
  635SOL     OW 2803   4.498   6.882   0.388
  635SOL    HW1 2804   4.591   6.868   0.352
  635SOL    HW2 2805   4.474   6.807   0.449
  636SOL     OW 2806   3.196   0.020   5.846
  636SOL    HW1 2807   3.156   0.111   5.857
  636SOL    HW2 2808   3.124   6.977   5.824
  637SOL     OW 2809   5.844   2.257   2.460
  637SOL    HW1 2810   5.891   2.244   2.372
  637SOL    HW2 2811   5.763   2.313   2.446
  638SOL     OW 2812   5.666   3.773   3.875
  638SOL    HW1 2813   5.722   3.691   3.879
  638SOL    HW2 2814   5.695   3.837   3.945
  639SOL     OW 2815   5.512   4.266   3.997
  639SOL    HW1 2816   5.468   4.201   3.934
  639SOL    HW2 2817   5.584   4.315   3.948
  640SOL     OW 2818   6.699   4.737   3.605
  640SOL    HW1 2819   6.790   4.731   3.646
  640SOL    HW2 2820   6.696   4.683   3.521
  641SOL     OW 2821   0.606   4.716   4.774
  641SOL    HW1 2822   0.574   4.793   4.830
  641SOL    HW2 2823   0.641   4.751   4.687
  642SOL     OW 2824   1.407   2.525   4.659
  642SOL    HW1 2825   1.479   2.519   4.590
  642SOL    HW2 2826   1.412   2.613   4.706
  643SOL     OW 2827   6.030   0.529   6.505
  643SOL    HW1 2828   6.010   0.615   6.460
  643SOL    HW2 2829   5.967   0.458   6.473
  644SOL     OW 2830   1.822   0.604   4.629
  644SOL    HW1 2831   1.802   0.581   4.724
  644SOL    HW2 2832   1.739   0.590   4.574
  645SOL     OW 2833   3.274   5.183   4.136
  645SOL    HW1 2834   3.270   5.139   4.225
  645SOL    HW2 2835   3.201   5.147   4.077
  646SOL     OW 2836   3.817   0.519   4.535
  646SOL    HW1 2837   3.859   0.579   4.467
  646SOL    HW2 2838   3.753   0.571   4.591
  647SOL     OW 2839   5.596   1.979   4.818
  647SOL    HW1 2840   5.560   2.018   4.903
  647SOL    HW2 2841   5.659   1.904   4.839
  648SOL     OW 2842   6.831   3.575   3.538
  648SOL    HW1 2843   6.894   3.645   3.573
  648SOL    HW2 2844   6.750   3.571   3.595
  649SOL     OW 2845   2.328   3.921   0.635
  649SOL    HW1 2846   2.367   3.858   0.702
  649SOL    HW2 2847   2.246   3.881   0.595
  650SOL     OW 2848   6.976   5.581   0.633
  650SOL    HW1 2849   6.887   5.553   0.597
  650SOL    HW2 2850   0.025   5.531   0.586
  651SOL     OW 2851   1.729   0.349   5.636
  651SOL    HW1 2852   1.710   0.424   5.573
  651SOL    HW2 2853   1.674   0.360   5.719
  652SOL     OW 2854   4.257   6.651   2.115
  652SOL    HW1 2855   4.312   6.731   2.137
  652SOL    HW2 2856   4.302   6.598   2.042
  653SOL     OW 2857   0.362   6.261   0.554
  653SOL    HW1 2858   0.338   6.217   0.467
  653SOL    HW2 2859   0.376   6.192   0.624
  654SOL     OW 2860   6.504   6.423   6.099
  654SOL    HW1 2861   6.415   6.430   6.143
  654SOL    HW2 2862   6.576   6.447   6.164
  655SOL     OW 2863   6.762   5.561   1.610
  655SOL    HW1 2864   6.799   5.487   1.665
  655SOL    HW2 2865   6.745   5.641   1.668
  656SOL     OW 2866   1.990   6.091   0.221
  656SOL    HW1 2867   1.987   6.048   0.131
  656SOL    HW2 2868   1.968   6.189   0.212
  657SOL     OW 2869   3.319   3.831   0.780
  657SOL    HW1 2870   3.305   3.747   0.832
  657SOL    HW2 2871   3.269   3.825   0.693
  658SOL     OW 2872   1.281   4.194   5.796
  658SOL    HW1 2873   1.185   4.180   5.823
  658SOL    HW2 2874   1.325   4.254   5.863
  659SOL     OW 2875   2.428   5.890   4.612
  659SOL    HW1 2876   2.371   5.881   4.530
  659SOL    HW2 2877   2.440   5.987   4.633
  660SOL     OW 2878   4.284   4.727   2.376
  660SOL    HW1 2879   4.241   4.724   2.286
  660SOL    HW2 2880   4.371   4.679   2.373
  661SOL     OW 2881   4.770   4.150   4.366
  661SOL    HW1 2882   4.868   4.165   4.372
  661SOL    HW2 2883   4.721   4.235   4.387
  662SOL     OW 2884   4.265   1.341   6.152
  662SOL    HW1 2885   4.223   1.262   6.107
  662SOL    HW2 2886   4.309   1.311   6.237
  663SOL     OW 2887   0.244   4.804   0.026
  663SOL    HW1 2888   0.220   4.849   6.963
  663SOL    HW2 2889   0.341   4.819   0.045
  664SOL     OW 2890   1.297   5.679   6.574
  664SOL    HW1 2891   1.322   5.586   6.602
  664SOL    HW2 2892   1.255   5.676   6.483
  665SOL     OW 2893   4.082   5.211   0.810
  665SOL    HW1 2894   4.129   5.123   0.820
  665SOL    HW2 2895   4.107   5.252   0.722
  666SOL     OW 2896   3.942   2.453   1.137
  666SOL    HW1 2897   4.015   2.455   1.205
  666SOL    HW2 2898   3.909   2.359   1.125
  667SOL     OW 2899   0.365   3.815   3.878
  667SOL    HW1 2900   0.351   3.717   3.892
  667SOL    HW2 2901   0.443   3.846   3.934
  668SOL     OW 2902   4.924   5.344   0.369
  668SOL    HW1 2903   4.880   5.419   0.318
  668SOL    HW2 2904   5.007   5.316   0.321
  669SOL     OW 2905   2.349   6.219   3.182
  669SOL    HW1 2906   2.343   6.314   3.151
  669SOL    HW2 2907   2.289   6.206   3.261
  670SOL     OW 2908   3.374   3.608   2.004
  670SOL    HW1 2909   3.390   3.516   2.041
  670SOL    HW2 2910   3.288   3.644   2.040
  671SOL     OW 2911   2.580   5.962   6.271
  671SOL    HW1 2912   2.594   6.055   6.302
  671SOL    HW2 2913   2.658   5.905   6.300
  672SOL     OW 2914   0.553   3.842   2.281
  672SOL    HW1 2915   0.609   3.760   2.287
  672SOL    HW2 2916   0.610   3.920   2.258
  673SOL     OW 2917   4.571   0.383   1.051
  673SOL    HW1 2918   4.515   0.302   1.035
  673SOL    HW2 2919   4.597   0.424   0.963
  674SOL     OW 2920   0.179   3.279   4.207
  674SOL    HW1 2921   0.202   3.374   4.188
  674SOL    HW2 2922   0.083   3.263   4.184
  675SOL     OW 2923   0.731   1.813   5.167
  675SOL    HW1 2924   0.694   1.770   5.085
  675SOL    HW2 2925   0.778   1.898   5.141
  676SOL     OW 2926   3.045   5.172   3.235
  676SOL    HW1 2927   3.132   5.137   3.200
  676SOL    HW2 2928   2.989   5.203   3.159
  677SOL     OW 2929   5.895   1.426   6.179
  677SOL    HW1 2930   5.798   1.403   6.182
  677SOL    HW2 2931   5.915   1.478   6.096
  678SOL     OW 2932   2.140   1.322   5.138
  678SOL    HW1 2933   2.232   1.350   5.167
  678SOL    HW2 2934   2.116   1.236   5.184
  679SOL     OW 2935   4.285   0.933   4.675
  679SOL    HW1 2936   4.204   0.985   4.648
  679SOL    HW2 2937   4.366   0.991   4.671
  680SOL     OW 2938   6.043   4.872   5.785
  680SOL    HW1 2939   6.050   4.858   5.883
  680SOL    HW2 2940   6.131   4.853   5.742
  681SOL     OW 2941   6.073   0.368   1.030
  681SOL    HW1 2942   6.168   0.337   1.027
  681SOL    HW2 2943   6.014   0.293   1.059
  682SOL     OW 2944   1.710   6.478   6.676
  682SOL    HW1 2945   1.662   6.408   6.730
  682SOL    HW2 2946   1.784   6.517   6.731
  683SOL     OW 2947   3.267   0.626   5.959
  683SOL    HW1 2948   3.248   0.679   5.877
  683SOL    HW2 2949   3.185   0.576   5.986
  684SOL     OW 2950   6.253   1.673   6.309
  684SOL    HW1 2951   6.171   1.716   6.345
  684SOL    HW2 2952   6.238   1.575   6.298
  685SOL     OW 2953   5.074   0.103   5.617
  685SOL    HW1 2954   5.000   0.140   5.673
  685SOL    HW2 2955   5.154   0.162   5.623
  686SOL     OW 2956   5.588   2.926   3.196
  686SOL    HW1 2957   5.510   2.954   3.139
  686SOL    HW2 2958   5.667   2.983   3.175
  687SOL     OW 2959   6.690   2.696   5.451
  687SOL    HW1 2960   6.716   2.608   5.491
  687SOL    HW2 2961   6.661   2.682   5.356
  688SOL     OW 2962   1.815   4.217   0.199
  688SOL    HW1 2963   1.803   4.138   0.139
  688SOL    HW2 2964   1.901   4.263   0.176
  689SOL     OW 2965   0.732   4.299   5.228
  689SOL    HW1 2966   0.672   4.219   5.233
  689SOL    HW2 2967   0.791   4.291   5.148
  690SOL     OW 2968   0.276   3.746   3.277
  690SOL    HW1 2969   0.266   3.746   3.377
  690SOL    HW2 2970   0.222   3.671   3.239
  691SOL     OW 2971   2.544   1.339   6.679
  691SOL    HW1 2972   2.640   1.314   6.668
  691SOL    HW2 2973   2.520   1.335   6.776
  692SOL     OW 2974   3.301   6.928   3.786
  692SOL    HW1 2975   3.305   6.921   3.687
  692SOL    HW2 2976   3.355   7.006   3.817
  693SOL     OW 2977   6.773   1.433   3.425
  693SOL    HW1 2978   6.840   1.374   3.379
  693SOL    HW2 2979   6.744   1.390   3.510
  694SOL     OW 2980   3.115   5.814   2.181
  694SOL    HW1 2981   3.169   5.785   2.260
  694SOL    HW2 2982   3.123   5.746   2.108
  695SOL     OW 2983   5.217   4.710   5.706
  695SOL    HW1 2984   5.260   4.659   5.780
  695SOL    HW2 2985   5.169   4.789   5.744
  696SOL     OW 2986   3.349   5.214   1.656
  696SOL    HW1 2987   3.397   5.213   1.568
  696SOL    HW2 2988   3.366   5.129   1.705
  697SOL     OW 2989   1.223   2.734   5.692
  697SOL    HW1 2990   1.215   2.676   5.611
  697SOL    HW2 2991   1.132   2.756   5.727
  698SOL     OW 2992   6.026   0.631   5.370
  698SOL    HW1 2993   6.122   0.645   5.394
  698SOL    HW2 2994   5.969   0.644   5.451
  699SOL     OW 2995   0.527   4.075   0.268
  699SOL    HW1 2996   0.610   4.029   0.236
  699SOL    HW2 2997   0.487   4.126   0.192
  700SOL     OW 2998   3.383   1.899   3.591
  700SOL    HW1 2999   3.396   1.818   3.649
  700SOL    HW2 3000   3.421   1.881   3.500
  701SOL     OW 3001   0.737   4.285   6.312
  701SOL    HW1 3002   0.646   4.245   6.322
  701SOL    HW2 3003   0.730   4.372   6.263
  702SOL     OW 3004   5.714   6.463   6.435
  702SOL    HW1 3005   5.683   6.474   6.529
  702SOL    HW2 3006   5.654   6.516   6.374
  703SOL     OW 3007   4.447   3.827   6.495
  703SOL    HW1 3008   4.523   3.837   6.431
  703SOL    HW2 3009   4.376   3.894   6.472
  704SOL     OW 3010   1.811   1.536   6.071
  704SOL    HW1 3011   1.802   1.462   6.138
  704SOL    HW2 3012   1.855   1.500   5.989
  705SOL     OW 3013   5.253   7.006   3.587
  705SOL    HW1 3014   5.329   0.018   3.642
  705SOL    HW2 3015   5.252   6.907   3.591
  706SOL     OW 3016   4.187   2.238   3.617
  706SOL    HW1 3017   4.225   2.330   3.623
  706SOL    HW2 3018   4.115   2.236   3.547
  707SOL     OW 3019   4.690   0.057   2.683
  707SOL    HW1 3020   4.753   0.084   2.609
  707SOL    HW2 3021   4.609   0.116   2.680
  708SOL     OW 3022   4.129   0.302   1.016
  708SOL    HW1 3023   4.103   0.319   1.111
  708SOL    HW2 3024   4.213   0.249   1.014
  709SOL     OW 3025   1.528   5.571   0.561
  709SOL    HW1 3026   1.508   5.554   0.465
  709SOL    HW2 3027   1.452   5.538   0.617
  710SOL     OW 3028   4.098   3.313   2.630
  710SOL    HW1 3029   4.168   3.372   2.671
  710SOL    HW2 3030   4.007   3.344   2.660
  711SOL     OW 3031   1.187   2.079   6.004
  711SOL    HW1 3032   1.171   2.161   5.949
  711SOL    HW2 3033   1.188   2.104   6.101
  712SOL     OW 3034   2.254   4.416   0.637
  712SOL    HW1 3035   2.295   4.354   0.704
  712SOL    HW2 3036   2.230   4.502   0.681
  713SOL     OW 3037   2.884   3.752   0.303
  713SOL    HW1 3038   2.887   3.720   0.398
  713SOL    HW2 3039   2.792   3.786   0.283
  714SOL     OW 3040   6.500   4.713   4.903
  714SOL    HW1 3041   6.508   4.615   4.920
  714SOL    HW2 3042   6.550   4.764   4.974
  715SOL     OW 3043   4.932   6.195   0.523
  715SOL    HW1 3044   4.970   6.186   0.615
  715SOL    HW2 3045   4.860   6.265   0.523
  716SOL     OW 3046   0.765   6.477   0.727
  716SOL    HW1 3047   0.778   6.378   0.726
  716SOL    HW2 3048   0.794   6.515   0.639
  717SOL     OW 3049   5.990   5.442   6.457
  717SOL    HW1 3050   5.954   5.495   6.534
  717SOL    HW2 3051   6.017   5.351   6.489
  718SOL     OW 3052   4.094   1.904   5.995
  718SOL    HW1 3053   4.010   1.868   6.035
  718SOL    HW2 3054   4.108   1.998   6.024
  719SOL     OW 3055   5.882   2.572   1.560
  719SOL    HW1 3056   5.898   2.641   1.489
  719SOL    HW2 3057   5.867   2.618   1.648
  720SOL     OW 3058   3.053   0.747   6.316
  720SOL    HW1 3059   3.035   0.752   6.217
  720SOL    HW2 3060   3.044   0.652   6.346
  721SOL     OW 3061   1.842   6.754   4.494
  721SOL    HW1 3062   1.933   6.776   4.531
  721SOL    HW2 3063   1.818   6.661   4.521
  722SOL     OW 3064   3.329   6.856   5.004
  722SOL    HW1 3065   3.394   6.926   5.032
  722SOL    HW2 3066   3.345   6.833   4.908
  723SOL     OW 3067   2.249   3.012   2.247
  723SOL    HW1 3068   2.330   3.063   2.274
  723SOL    HW2 3069   2.253   2.919   2.285
  724SOL     OW 3070   1.156   1.156   4.415
  724SOL    HW1 3071   1.128   1.245   4.451
  724SOL    HW2 3072   1.225   1.116   4.475
  725SOL     OW 3073   3.002   5.003   1.477
  725SOL    HW1 3074   2.932   5.037   1.414
  725SOL    HW2 3075   2.961   4.987   1.567
  726SOL     OW 3076   4.391   4.438   0.778
  726SOL    HW1 3077   4.427   4.380   0.851
  726SOL    HW2 3078   4.466   4.482   0.730
  727SOL     OW 3079   4.655   5.789   4.878
  727SOL    HW1 3080   4.648   5.883   4.846
  727SOL    HW2 3081   4.572   5.739   4.853
  728SOL     OW 3082   0.594   4.024   5.313
  728SOL    HW1 3083   0.680   3.987   5.278
  728SOL    HW2 3084   0.596   4.024   5.413
  729SOL     OW 3085   2.327   0.809   0.417
  729SOL    HW1 3086   2.241   0.857   0.398
  729SOL    HW2 3087   2.404   0.863   0.383
  730SOL     OW 3088   5.524   0.124   3.693
  730SOL    HW1 3089   5.515   0.171   3.605
  730SOL    HW2 3090   5.489   0.182   3.766
  731SOL     OW 3091   5.682   3.349   5.975
  731SOL    HW1 3092   5.709   3.422   5.912
  731SOL    HW2 3093   5.744   3.348   6.054
  732SOL     OW 3094   0.189   3.616   0.968
  732SOL    HW1 3095   0.112   3.678   0.955
  732SOL    HW2 3096   0.226   3.628   1.060
  733SOL     OW 3097   5.848   4.561   4.698
  733SOL    HW1 3098   5.837   4.485   4.633
  733SOL    HW2 3099   5.773   4.559   4.764
  734SOL     OW 3100   6.541   4.715   2.562
  734SOL    HW1 3101   6.529   4.806   2.521
  734SOL    HW2 3102   6.530   4.722   2.661
  735SOL     OW 3103   3.141   2.555   0.702
  735SOL    HW1 3104   3.129   2.546   0.801
  735SOL    HW2 3105   3.236   2.580   0.683
  736SOL     OW 3106   6.331   6.015   2.623
  736SOL    HW1 3107   6.326   5.995   2.721
  736SOL    HW2 3108   6.426   6.030   2.597
  737SOL     OW 3109   4.535   3.062   0.533
  737SOL    HW1 3110   4.608   3.128   0.553
  737SOL    HW2 3111   4.462   3.072   0.600
  738SOL     OW 3112   1.939   4.636   2.921
  738SOL    HW1 3113   1.881   4.694   2.979
  738SOL    HW2 3114   2.034   4.645   2.950
  739SOL     OW 3115   4.729   6.358   5.675
  739SOL    HW1 3116   4.703   6.268   5.640
  739SOL    HW2 3117   4.785   6.406   5.607
  740SOL     OW 3118   5.008   0.477   0.753
  740SOL    HW1 3119   5.002   0.380   0.729
  740SOL    HW2 3120   4.920   0.521   0.738
  741SOL     OW 3121   2.120   6.329   2.961
  741SOL    HW1 3122   2.205   6.344   2.910
  741SOL    HW2 3123   2.141   6.315   3.058
  742SOL     OW 3124   2.614   6.692   1.683
  742SOL    HW1 3125   2.541   6.749   1.721
  742SOL    HW2 3126   2.595   6.674   1.586
  743SOL     OW 3127   1.753   3.659   4.603
  743SOL    HW1 3128   1.680   3.598   4.573
  743SOL    HW2 3129   1.822   3.607   4.652
  744SOL     OW 3130   6.205   0.259   6.480
  744SOL    HW1 3131   6.177   0.177   6.531
  744SOL    HW2 3132   6.190   0.340   6.537
  745SOL     OW 3133   0.723   5.027   4.405
  745SOL    HW1 3134   0.810   5.035   4.356
  745SOL    HW2 3135   0.732   5.066   4.496
  746SOL     OW 3136   0.497   5.982   5.234
  746SOL    HW1 3137   0.421   5.961   5.296
  746SOL    HW2 3138   0.531   5.898   5.193
  747SOL     OW 3139   4.733   4.498   4.786
  747SOL    HW1 3140   4.761   4.500   4.690
  747SOL    HW2 3141   4.727   4.592   4.820
  748SOL     OW 3142   3.723   5.231   2.886
  748SOL    HW1 3143   3.820   5.209   2.883
  748SOL    HW2 3144   3.706   5.297   2.960
  749SOL     OW 3145   6.629   3.604   4.921
  749SOL    HW1 3146   6.691   3.587   4.844
  749SOL    HW2 3147   6.668   3.564   5.004
  750SOL     OW 3148   1.828   3.510   0.632
  750SOL    HW1 3149   1.748   3.454   0.655
  750SOL    HW2 3150   1.799   3.591   0.582
  751SOL     OW 3151   3.930   2.105   6.568
  751SOL    HW1 3152   3.904   2.186   6.621
  751SOL    HW2 3153   3.855   2.040   6.567
  752SOL     OW 3154   4.300   2.389   1.663
  752SOL    HW1 3155   4.241   2.308   1.659
  752SOL    HW2 3156   4.248   2.470   1.635
  753SOL     OW 3157   2.029   2.872   4.133
  753SOL    HW1 3158   2.084   2.888   4.215
  753SOL    HW2 3159   1.947   2.821   4.158
  754SOL     OW 3160   5.750   3.155   6.537
  754SOL    HW1 3161   5.681   3.115   6.477
  754SOL    HW2 3162   5.821   3.087   6.556
  755SOL     OW 3163   1.482   5.872   6.582
  755SOL    HW1 3164   1.414   5.800   6.593
  755SOL    HW2 3165   1.478   5.908   6.488
  756SOL     OW 3166   4.455   6.479   1.268
  756SOL    HW1 3167   4.426   6.392   1.229
  756SOL    HW2 3168   4.521   6.463   1.341
  757SOL     OW 3169   0.706   6.333   2.957
  757SOL    HW1 3170   0.712   6.416   3.011
  757SOL    HW2 3171   0.631   6.276   2.990
  758SOL     OW 3172   4.028   0.925   1.596
  758SOL    HW1 3173   3.985   0.974   1.520
  758SOL    HW2 3174   3.975   0.938   1.679
  759SOL     OW 3175   0.442   0.919   0.590
  759SOL    HW1 3176   0.472   0.992   0.528
  759SOL    HW2 3177   0.383   0.856   0.541
  760SOL     OW 3178   4.404   0.818   6.421
  760SOL    HW1 3179   4.431   0.769   6.504
  760SOL    HW2 3180   4.307   0.802   6.402
  761SOL     OW 3181   5.703   3.979   5.664
  761SOL    HW1 3182   5.711   4.006   5.568
  761SOL    HW2 3183   5.609   3.951   5.683
  762SOL     OW 3184   2.305   6.512   4.014
  762SOL    HW1 3185   2.400   6.543   4.025
  762SOL    HW2 3186   2.301   6.413   4.025
  763SOL     OW 3187   4.217   5.047   6.318
  763SOL    HW1 3188   4.186   4.991   6.241
  763SOL    HW2 3189   4.291   5.000   6.366
  764SOL     OW 3190   4.500   0.489   3.765
  764SOL    HW1 3191   4.554   0.453   3.689
  764SOL    HW2 3192   4.429   0.550   3.730
  765SOL     OW 3193   1.311   6.576   0.943
  765SOL    HW1 3194   1.290   6.499   0.883
  765SOL    HW2 3195   1.313   6.545   1.038
  766SOL     OW 3196   0.686   2.472   1.028
  766SOL    HW1 3197   0.640   2.518   0.953
  766SOL    HW2 3198   0.753   2.407   0.991
  767SOL     OW 3199   6.582   6.001   2.507
  767SOL    HW1 3200   6.582   5.939   2.428
  767SOL    HW2 3201   6.588   6.095   2.475
  768SOL     OW 3202   2.739   6.854   2.167
  768SOL    HW1 3203   2.733   6.949   2.200
  768SOL    HW2 3204   2.804   6.804   2.224
  769SOL     OW 3205   3.145   0.679   4.001
  769SOL    HW1 3206   3.077   0.737   4.047
  769SOL    HW2 3207   3.197   0.628   4.069
  770SOL     OW 3208   1.311   4.505   2.794
  770SOL    HW1 3209   1.341   4.598   2.814
  770SOL    HW2 3210   1.369   4.440   2.843
  771SOL     OW 3211   2.037   5.713   2.449
  771SOL    HW1 3212   2.009   5.621   2.475
  771SOL    HW2 3213   2.120   5.708   2.394
  772SOL     OW 3214   6.885   5.199   0.928
  772SOL    HW1 3215   6.887   5.130   0.856
  772SOL    HW2 3216   6.797   5.245   0.929
  773SOL     OW 3217   0.032   4.032   3.519
  773SOL    HW1 3218   0.107   4.065   3.461
  773SOL    HW2 3219   6.968   4.045   3.470
  774SOL     OW 3220   1.107   1.431   2.388
  774SOL    HW1 3221   1.011   1.456   2.401
  774SOL    HW2 3222   1.158   1.510   2.355
  775SOL     OW 3223   0.490   1.775   3.105
  775SOL    HW1 3224   0.514   1.770   3.008
  775SOL    HW2 3225   0.513   1.866   3.140
  776SOL     OW 3226   6.726   1.196   5.466
  776SOL    HW1 3227   6.694   1.121   5.408
  776SOL    HW2 3228   6.669   1.201   5.548
  777SOL     OW 3229   3.439   6.216   0.991
  777SOL    HW1 3230   3.527   6.207   1.038
  777SOL    HW2 3231   3.429   6.143   0.924
  778SOL     OW 3232   3.702   1.169   3.358
  778SOL    HW1 3233   3.672   1.233   3.286
  778SOL    HW2 3234   3.765   1.102   3.319
  779SOL     OW 3235   0.749   1.907   2.933
  779SOL    HW1 3236   0.846   1.928   2.939
  779SOL    HW2 3237   0.697   1.972   2.989
  780SOL     OW 3238   6.657   3.952   4.205
  780SOL    HW1 3239   6.674   4.026   4.271
  780SOL    HW2 3240   6.640   3.867   4.255
  781SOL     OW 3241   5.292   1.581   6.428
  781SOL    HW1 3242   5.255   1.539   6.511
  781SOL    HW2 3243   5.392   1.576   6.429
  782SOL     OW 3244   0.722   3.650   0.080
  782SOL    HW1 3245   0.763   3.680   7.017
  782SOL    HW2 3246   0.627   3.621   0.064
  783SOL     OW 3247   3.898   4.735   0.470
  783SOL    HW1 3248   3.897   4.772   0.562
  783SOL    HW2 3249   3.926   4.638   0.474
  784SOL     OW 3250   5.138   6.822   6.244
  784SOL    HW1 3251   5.048   6.854   6.274
  784SOL    HW2 3252   5.193   6.798   6.324
  785SOL     OW 3253   6.914   2.161   3.577
  785SOL    HW1 3254   6.902   2.258   3.601
  785SOL    HW2 3255   6.824   2.116   3.578
  786SOL     OW 3256   1.650   1.540   0.923
  786SOL    HW1 3257   1.633   1.516   0.827
  786SOL    HW2 3258   1.744   1.573   0.934
  787SOL     OW 3259   3.325   1.730   6.372
  787SOL    HW1 3260   3.385   1.650   6.371
  787SOL    HW2 3261   3.304   1.755   6.467
  788SOL     OW 3262   2.511   2.291   4.834
  788SOL    HW1 3263   2.542   2.235   4.911
  788SOL    HW2 3264   2.546   2.384   4.845
  789SOL     OW 3265   5.438   4.226   0.960
  789SOL    HW1 3266   5.443   4.140   1.009
  789SOL    HW2 3267   5.348   4.267   0.974
  790SOL     OW 3268   2.680   1.159   4.078
  790SOL    HW1 3269   2.752   1.132   4.142
  790SOL    HW2 3270   2.623   1.229   4.120
  791SOL     OW 3271   3.710   6.823   3.324
  791SOL    HW1 3272   3.743   6.730   3.341
  791SOL    HW2 3273   3.787   6.882   3.302
  792SOL     OW 3274   0.400   0.387   2.045
  792SOL    HW1 3275   0.421   0.484   2.045
  792SOL    HW2 3276   0.403   0.352   1.951
  793SOL     OW 3277   4.101   6.145   2.442
  793SOL    HW1 3278   4.115   6.061   2.389
  793SOL    HW2 3279   4.178   6.207   2.427
  794SOL     OW 3280   2.934   3.364   5.046
  794SOL    HW1 3281   3.009   3.348   5.111
  794SOL    HW2 3282   2.947   3.306   4.965
  795SOL     OW 3283   3.414   5.492   5.046
  795SOL    HW1 3284   3.422   5.558   4.971
  795SOL    HW2 3285   3.380   5.539   5.128
  796SOL     OW 3286   1.161   2.362   6.317
  796SOL    HW1 3287   1.087   2.357   6.250
  796SOL    HW2 3288   1.225   2.434   6.291
  797SOL     OW 3289   4.836   2.375   2.401
  797SOL    HW1 3290   4.927   2.335   2.406
  797SOL    HW2 3291   4.836   2.451   2.336
  798SOL     OW 3292   5.368   0.079   1.222
  798SOL    HW1 3293   5.377   0.139   1.302
  798SOL    HW2 3294   5.284   0.102   1.173
  799SOL     OW 3295   6.012   1.493   4.421
  799SOL    HW1 3296   5.968   1.433   4.487
  799SOL    HW2 3297   6.112   1.486   4.431
  800SOL     OW 3298   5.436   1.478   2.433
  800SOL    HW1 3299   5.440   1.485   2.532
  800SOL    HW2 3300   5.365   1.540   2.398
  801SOL     OW 3301   1.921   3.112   3.522
  801SOL    HW1 3302   1.893   3.017   3.508
  801SOL    HW2 3303   1.907   3.163   3.437
  802SOL     OW 3304   4.088   0.112   0.532
  802SOL    HW1 3305   3.989   0.118   0.518
  802SOL    HW2 3306   4.135   0.157   0.456
  803SOL     OW 3307   0.643   5.287   5.032
  803SOL    HW1 3308   0.602   5.237   5.109
  803SOL    HW2 3309   0.577   5.294   4.958
  804SOL     OW 3310   6.188   5.999   6.884
  804SOL    HW1 3311   6.210   5.902   6.894
  804SOL    HW2 3312   6.206   6.029   6.791
  805SOL     OW 3313   3.329   2.025   5.681
  805SOL    HW1 3314   3.242   2.053   5.642
  805SOL    HW2 3315   3.314   1.981   5.769
  806SOL     OW 3316   4.435   1.146   4.593
  806SOL    HW1 3317   4.376   1.126   4.515
  806SOL    HW2 3318   4.529   1.161   4.562
  807SOL     OW 3319   0.797   1.937   3.925
  807SOL    HW1 3320   0.858   1.975   3.857
  807SOL    HW2 3321   0.723   2.002   3.945
  808SOL     OW 3322   4.656   3.828   6.330
  808SOL    HW1 3323   4.659   3.927   6.317
  808SOL    HW2 3324   4.728   3.801   6.394
  809SOL     OW 3325   0.639   4.748   1.823
  809SOL    HW1 3326   0.596   4.824   1.774
  809SOL    HW2 3327   0.635   4.765   1.921
  810SOL     OW 3328   3.682   2.523   1.253
  810SOL    HW1 3329   3.750   2.552   1.186
  810SOL    HW2 3330   3.710   2.436   1.295
  811SOL     OW 3331   4.133   5.639   4.091
  811SOL    HW1 3332   4.211   5.695   4.116
  811SOL    HW2 3333   4.092   5.600   4.174
  812SOL     OW 3334   0.747   1.522   2.266
  812SOL    HW1 3335   0.681   1.598   2.267
  812SOL    HW2 3336   0.726   1.459   2.341
  813SOL     OW 3337   3.946   4.947   4.419
  813SOL    HW1 3338   3.863   4.999   4.398
  813SOL    HW2 3339   3.963   4.882   4.345
  814SOL     OW 3340   5.142   6.347   3.510
  814SOL    HW1 3341   5.076   6.368   3.582
  814SOL    HW2 3342   5.227   6.312   3.551
  815SOL     OW 3343   7.009   3.124   2.791
  815SOL    HW1 3344   0.061   3.104   2.854
  815SOL    HW2 3345   6.949   3.045   2.785
  816SOL     OW 3346   6.511   6.823   0.476
  816SOL    HW1 3347   6.434   6.848   0.535
  816SOL    HW2 3348   6.512   6.724   0.463
  817SOL     OW 3349   2.257   3.955   2.024
  817SOL    HW1 3350   2.357   3.954   2.020
  817SOL    HW2 3351   2.221   3.894   1.953
  818SOL     OW 3352   6.229   2.922   1.545
  818SOL    HW1 3353   6.192   2.974   1.468
  818SOL    HW2 3354   6.328   2.917   1.538
  819SOL     OW 3355   5.620   3.513   3.643
  819SOL    HW1 3356   5.674   3.496   3.726
  819SOL    HW2 3357   5.570   3.599   3.654
  820SOL     OW 3358   1.876   2.730   6.626
  820SOL    HW1 3359   1.854   2.751   6.721
  820SOL    HW2 3360   1.813   2.779   6.565
  821SOL     OW 3361   2.183   4.947   0.790
  821SOL    HW1 3362   2.214   5.030   0.836
  821SOL    HW2 3363   2.107   4.907   0.842
  822SOL     OW 3364   0.704   4.612   4.323
  822SOL    HW1 3365   0.636   4.636   4.253
  822SOL    HW2 3366   0.696   4.515   4.344
  823SOL     OW 3367   5.051   4.071   6.825
  823SOL    HW1 3368   5.098   3.984   6.840
  823SOL    HW2 3369   5.034   4.084   6.728
  824SOL     OW 3370   5.107   0.767   5.182
  824SOL    HW1 3371   5.145   0.690   5.234
  824SOL    HW2 3372   5.181   0.816   5.136
  825SOL     OW 3373   1.294   4.294   1.741
  825SOL    HW1 3374   1.292   4.258   1.648
  825SOL    HW2 3375   1.219   4.253   1.794
  826SOL     OW 3376   5.873   3.456   0.468
  826SOL    HW1 3377   5.925   3.374   0.491
  826SOL    HW2 3378   5.781   3.431   0.439
  827SOL     OW 3379   3.397   5.811   6.048
  827SOL    HW1 3380   3.326   5.881   6.046
  827SOL    HW2 3381   3.425   5.790   5.954
  828SOL     OW 3382   6.102   0.091   5.507
  828SOL    HW1 3383   6.024   0.153   5.505
  828SOL    HW2 3384   6.097   0.027   5.430
  829SOL     OW 3385   2.935   3.747   3.867
  829SOL    HW1 3386   2.903   3.747   3.961
  829SOL    HW2 3387   2.936   3.653   3.832
  830SOL     OW 3388   5.038   4.682   6.545
  830SOL    HW1 3389   5.059   4.726   6.632
  830SOL    HW2 3390   5.034   4.583   6.558
  831SOL     OW 3391   6.741   0.382   5.317
  831SOL    HW1 3392   6.722   0.309   5.383
  831SOL    HW2 3393   6.837   0.377   5.289
  832SOL     OW 3394   1.864   1.078   0.453
  832SOL    HW1 3395   1.832   1.028   0.534
  832SOL    HW2 3396   1.793   1.142   0.423
  833SOL     OW 3397   0.429   4.945   6.033
  833SOL    HW1 3398   0.527   4.924   6.035
  833SOL    HW2 3399   0.395   4.936   5.940
  834SOL     OW 3400   3.379   3.520   1.206
  834SOL    HW1 3401   3.331   3.576   1.275
  834SOL    HW2 3402   3.453   3.469   1.250
  835SOL     OW 3403   3.486   6.910   4.275
  835SOL    HW1 3404   3.406   6.970   4.268
  835SOL    HW2 3405   3.551   6.949   4.340
  836SOL     OW 3406   3.538   6.500   6.733
  836SOL    HW1 3407   3.524   6.426   6.799
  836SOL    HW2 3408   3.566   6.462   6.645
  837SOL     OW 3409   5.107   6.697   6.953
  837SOL    HW1 3410   5.056   6.671   6.870
  837SOL    HW2 3411   5.196   6.734   6.927
  838SOL     OW 3412   1.040   0.424   5.217
  838SOL    HW1 3413   1.067   0.486   5.292
  838SOL    HW2 3414   1.042   0.474   5.131
  839SOL     OW 3415   2.609   2.385   2.117
  839SOL    HW1 3416   2.666   2.342   2.047
  839SOL    HW2 3417   2.665   2.406   2.197
  840SOL     OW 3418   6.084   0.333   5.995
  840SOL    HW1 3419   6.002   0.357   6.048
  840SOL    HW2 3420   6.142   0.271   6.049
  841SOL     OW 3421   6.040   4.562   0.260
  841SOL    HW1 3422   6.048   4.660   0.242
  841SOL    HW2 3423   5.987   4.518   0.187
  842SOL     OW 3424   4.514   5.052   4.408
  842SOL    HW1 3425   4.521   5.060   4.507
  842SOL    HW2 3426   4.583   4.987   4.375
  843SOL     OW 3427   4.025   2.562   6.702
  843SOL    HW1 3428   4.047   2.469   6.732
  843SOL    HW2 3429   4.099   2.624   6.727
  844SOL     OW 3430   4.311   6.911   0.977
  844SOL    HW1 3431   4.267   6.934   0.890
  844SOL    HW2 3432   4.258   6.839   1.022
  845SOL     OW 3433   6.310   3.859   4.535
  845SOL    HW1 3434   6.359   3.829   4.617
  845SOL    HW2 3435   6.223   3.901   4.562
  846SOL     OW 3436   4.892   1.889   6.891
  846SOL    HW1 3437   4.798   1.874   6.920
  846SOL    HW2 3438   4.920   1.818   6.827
  847SOL     OW 3439   6.850   3.359   7.017
  847SOL    HW1 3440   6.887   3.268   6.998
  847SOL    HW2 3441   6.812   3.361   0.086
  848SOL     OW 3442   6.550   2.028   6.390
  848SOL    HW1 3443   6.475   2.056   6.330
  848SOL    HW2 3444   6.567   2.100   6.458
  849SOL     OW 3445   1.078   5.024   5.778
  849SOL    HW1 3446   1.068   4.936   5.732
  849SOL    HW2 3447   1.049   5.098   5.716
  850SOL     OW 3448   5.372   0.927   3.399
  850SOL    HW1 3449   5.351   1.025   3.395
  850SOL    HW2 3450   5.306   0.882   3.459
  851SOL     OW 3451   0.475   1.893   1.725
  851SOL    HW1 3452   0.397   1.940   1.766
  851SOL    HW2 3453   0.486   1.803   1.768
  852SOL     OW 3454   2.665   2.608   0.258
  852SOL    HW1 3455   2.607   2.557   0.194
  852SOL    HW2 3456   2.643   2.705   0.253
  853SOL     OW 3457   1.351   4.040   2.192
  853SOL    HW1 3458   1.350   4.043   2.092
  853SOL    HW2 3459   1.372   3.947   2.222
  854SOL     OW 3460   4.595   5.823   2.133
  854SOL    HW1 3461   4.675   5.834   2.073
  854SOL    HW2 3462   4.530   5.760   2.090
  855SOL     OW 3463   6.483   0.112   1.256
  855SOL    HW1 3464   6.414   0.042   1.240
  855SOL    HW2 3465   6.550   0.078   1.323
  856SOL     OW 3466   2.066   1.328   4.654
  856SOL    HW1 3467   1.985   1.382   4.633
  856SOL    HW2 3468   2.055   1.284   4.743
  857SOL     OW 3469   6.102   5.370   1.169
  857SOL    HW1 3470   6.068   5.351   1.262
  857SOL    HW2 3471   6.178   5.435   1.175
  858SOL     OW 3472   2.231   4.383   1.517
  858SOL    HW1 3473   2.269   4.345   1.601
  858SOL    HW2 3474   2.144   4.428   1.537
  859SOL     OW 3475   5.299   5.329   6.843
  859SOL    HW1 3476   5.328   5.278   6.763
  859SOL    HW2 3477   5.375   5.336   6.908
  860SOL     OW 3478   4.601   4.161   0.820
  860SOL    HW1 3479   4.644   4.247   0.847
  860SOL    HW2 3480   4.661   4.085   0.845
  861SOL     OW 3481   1.840   0.297   4.976
  861SOL    HW1 3482   1.855   0.302   5.074
  861SOL    HW2 3483   1.928   0.285   4.929
  862SOL     OW 3484   6.318   4.629   5.273
  862SOL    HW1 3485   6.377   4.612   5.195
  862SOL    HW2 3486   6.374   4.648   5.354
  863SOL     OW 3487   1.126   0.162   0.722
  863SOL    HW1 3488   1.115   0.216   0.638
  863SOL    HW2 3489   1.168   0.074   0.698
  864SOL     OW 3490   4.919   4.812   3.232
  864SOL    HW1 3491   4.875   4.731   3.194
  864SOL    HW2 3492   5.017   4.808   3.214
  865SOL     OW 3493   1.487   6.146   5.694
  865SOL    HW1 3494   1.463   6.154   5.598
  865SOL    HW2 3495   1.425   6.202   5.750
  866SOL     OW 3496   1.930   2.793   1.284
  866SOL    HW1 3497   1.917   2.888   1.257
  866SOL    HW2 3498   2.000   2.751   1.225
  867SOL     OW 3499   3.715   2.563   0.951
  867SOL    HW1 3500   3.706   2.636   0.883
  867SOL    HW2 3501   3.796   2.508   0.929
  868SOL     OW 3502   6.382   6.770   1.090
  868SOL    HW1 3503   6.399   6.849   1.031
  868SOL    HW2 3504   6.319   6.707   1.044
  869SOL     OW 3505   6.629   5.124   2.696
  869SOL    HW1 3506   6.565   5.115   2.773
  869SOL    HW2 3507   6.701   5.190   2.721
  870SOL     OW 3508   6.030   3.641   0.332
  870SOL    HW1 3509   6.127   3.620   0.346
  870SOL    HW2 3510   5.976   3.603   0.408
  871SOL     OW 3511   6.794   3.233   2.303
  871SOL    HW1 3512   6.882   3.194   2.332
  871SOL    HW2 3513   6.721   3.196   2.360
  872SOL     OW 3514   6.531   4.312   3.811
  872SOL    HW1 3515   6.542   4.312   3.911
  872SOL    HW2 3516   6.540   4.406   3.777
  873SOL     OW 3517   4.433   7.011   3.508
  873SOL    HW1 3518   4.348   0.036   3.487
  873SOL    HW2 3519   4.463   0.014   3.600
  874SOL     OW 3520   1.715   4.161   5.798
  874SOL    HW1 3521   1.643   4.172   5.866
  874SOL    HW2 3522   1.797   4.211   5.827
  875SOL     OW 3523   4.930   3.869   1.218
  875SOL    HW1 3524   4.922   3.771   1.237
  875SOL    HW2 3525   4.839   3.909   1.207
  876SOL     OW 3526   0.191   5.316   3.427
  876SOL    HW1 3527   0.199   5.260   3.345
  876SOL    HW2 3528   0.098   5.352   3.434
  877SOL     OW 3529   4.194   4.466   6.916
  877SOL    HW1 3530   4.205   4.558   6.879
  877SOL    HW2 3531   4.256   4.453   6.993
  878SOL     OW 3532   4.117   5.728   6.587
  878SOL    HW1 3533   4.108   5.664   6.664
  878SOL    HW2 3534   4.105   5.678   6.502
  879SOL     OW 3535   3.651   2.088   2.307
  879SOL    HW1 3536   3.663   2.142   2.223
  879SOL    HW2 3537   3.558   2.050   2.309
  880SOL     OW 3538   3.139   5.141   6.808
  880SOL    HW1 3539   3.149   5.056   6.757
  880SOL    HW2 3540   3.158   5.125   6.904
  881SOL     OW 3541   4.186   4.702   5.245
  881SOL    HW1 3542   4.201   4.626   5.183
  881SOL    HW2 3543   4.113   4.761   5.210
  882SOL     OW 3544   2.005   1.311   3.948
  882SOL    HW1 3545   2.016   1.231   3.889
  882SOL    HW2 3546   2.095   1.339   3.984
  883SOL     OW 3547   4.752   5.537   5.237
  883SOL    HW1 3548   4.849   5.558   5.251
  883SOL    HW2 3549   4.697   5.592   5.300
  884SOL     OW 3550   6.702   3.708   2.159
  884SOL    HW1 3551   6.694   3.784   2.223
  884SOL    HW2 3552   6.685   3.740   2.066
  885SOL     OW 3553   5.402   5.968   6.768
  885SOL    HW1 3554   5.357   5.899   6.711
  885SOL    HW2 3555   5.360   6.058   6.751
  886SOL     OW 3556   4.149   0.525   0.248
  886SOL    HW1 3557   4.153   0.526   0.348
  886SOL    HW2 3558   4.206   0.598   0.211
  887SOL     OW 3559   4.357   6.491   5.455
  887SOL    HW1 3560   4.399   6.404   5.430
  887SOL    HW2 3561   4.419   6.542   5.515
  888SOL     OW 3562   6.562   6.460   3.047
  888SOL    HW1 3563   6.537   6.380   2.993
  888SOL    HW2 3564   6.498   6.469   3.124
  889SOL     OW 3565   6.791   6.720   5.838
  889SOL    HW1 3566   6.810   6.650   5.908
  889SOL    HW2 3567   6.815   6.810   5.874
  890SOL     OW 3568   2.678   4.643   2.092
  890SOL    HW1 3569   2.630   4.563   2.127
  890SOL    HW2 3570   2.725   4.619   2.007
  891SOL     OW 3571   5.726   3.639   1.036
  891SOL    HW1 3572   5.807   3.639   1.095
  891SOL    HW2 3573   5.712   3.547   0.999
  892SOL     OW 3574   4.156   3.683   0.288
  892SOL    HW1 3575   4.253   3.704   0.295
  892SOL    HW2 3576   4.126   3.638   0.372
  893SOL     OW 3577   2.042   0.631   1.420
  893SOL    HW1 3578   2.075   0.537   1.413
  893SOL    HW2 3579   2.092   0.679   1.492
  894SOL     OW 3580   2.058   4.067   3.938
  894SOL    HW1 3581   1.976   4.009   3.948
  894SOL    HW2 3582   2.090   4.094   4.028
  895SOL     OW 3583   1.969   6.283   4.918
  895SOL    HW1 3584   1.962   6.232   5.003
  895SOL    HW2 3585   1.882   6.330   4.900
  896SOL     OW 3586   5.121   5.974   3.558
  896SOL    HW1 3587   5.043   6.018   3.515
  896SOL    HW2 3588   5.193   5.959   3.490
  897SOL     OW 3589   4.855   1.327   0.419
  897SOL    HW1 3590   4.913   1.394   0.465
  897SOL    HW2 3591   4.763   1.331   0.456
  898SOL     OW 3592   4.035   5.880   3.735
  898SOL    HW1 3593   4.132   5.902   3.727
  898SOL    HW2 3594   3.981   5.951   3.690
  899SOL     OW 3595   0.192   5.126   0.041
  899SOL    HW1 3596   0.201   5.088   0.133
  899SOL    HW2 3597   0.221   5.221   0.040
  900SOL     OW 3598   5.198   5.958   1.456
  900SOL    HW1 3599   5.226   5.927   1.365
  900SOL    HW2 3600   5.249   6.041   1.480
  901SOL     OW 3601   0.027   1.465   4.842
  901SOL    HW1 3602   7.004   1.437   4.758
  901SOL    HW2 3603   7.006   1.422   4.921
  902SOL     OW 3604   0.150   1.405   6.374
  902SOL    HW1 3605   0.107   1.456   6.448
  902SOL    HW2 3606   0.127   1.308   6.383
  903SOL     OW 3607   6.573   4.573   6.741
  903SOL    HW1 3608   6.594   4.503   6.809
  903SOL    HW2 3609   6.648   4.579   6.675
  904SOL     OW 3610   1.456   1.919   4.220
  904SOL    HW1 3611   1.468   1.995   4.283
  904SOL    HW2 3612   1.503   1.939   4.134
  905SOL     OW 3613   5.391   2.540   6.621
  905SOL    HW1 3614   5.465   2.600   6.591
  905SOL    HW2 3615   5.318   2.538   6.552
  906SOL     OW 3616   0.292   3.962   6.213
  906SOL    HW1 3617   0.372   3.912   6.248
  906SOL    HW2 3618   0.281   4.047   6.265
  907SOL     OW 3619   5.816   2.690   3.096
  907SOL    HW1 3620   5.839   2.744   3.177
  907SOL    HW2 3621   5.783   2.600   3.124
  908SOL     OW 3622   0.991   0.237   4.255
  908SOL    HW1 3623   1.086   0.227   4.286
  908SOL    HW2 3624   0.961   0.331   4.269
  909SOL     OW 3625   2.485   1.039   0.712
  909SOL    HW1 3626   2.563   0.978   0.696
  909SOL    HW2 3627   2.443   1.016   0.800
  910SOL     OW 3628   2.277   0.665   0.865
  910SOL    HW1 3629   2.212   0.606   0.816
  910SOL    HW2 3630   2.227   0.740   0.909
  911SOL     OW 3631   0.338   4.803   1.294
  911SOL    HW1 3632   0.341   4.847   1.384
  911SOL    HW2 3633   0.375   4.710   1.300
  912SOL     OW 3634   0.351   1.170   5.572
  912SOL    HW1 3635   0.404   1.148   5.654
  912SOL    HW2 3636   0.265   1.119   5.573
  913SOL     OW 3637   2.195   0.417   3.537
  913SOL    HW1 3638   2.100   0.399   3.561
  913SOL    HW2 3639   2.220   0.364   3.456
  914SOL     OW 3640   2.114   5.609   5.426
  914SOL    HW1 3641   2.201   5.618   5.378
  914SOL    HW2 3642   2.129   5.564   5.514
  915SOL     OW 3643   0.499   3.405   1.045
  915SOL    HW1 3644   0.594   3.379   1.029
  915SOL    HW2 3645   0.438   3.332   1.014
  916SOL     OW 3646   1.664   2.216   2.281
  916SOL    HW1 3647   1.622   2.126   2.275
  916SOL    HW2 3648   1.687   2.248   2.190
  917SOL     OW 3649   3.858   1.320   1.414
  917SOL    HW1 3650   3.776   1.334   1.470
  917SOL    HW2 3651   3.938   1.314   1.473
  918SOL     OW 3652   2.928   6.205   0.132
  918SOL    HW1 3653   2.919   6.203   0.032
  918SOL    HW2 3654   2.874   6.131   0.171
  919SOL     OW 3655   1.760   6.674   1.886
  919SOL    HW1 3656   1.843   6.619   1.893
  919SOL    HW2 3657   1.706   6.641   1.808
  920SOL     OW 3658   2.273   0.109   3.366
  920SOL    HW1 3659   2.351   0.102   3.303
  920SOL    HW2 3660   2.190   0.126   3.314
  921SOL     OW 3661   4.854   4.843   3.512
  921SOL    HW1 3662   4.875   4.941   3.511
  921SOL    HW2 3663   4.888   4.801   3.428
  922SOL     OW 3664   3.395   2.932   6.403
  922SOL    HW1 3665   3.485   2.891   6.421
  922SOL    HW2 3666   3.346   2.945   6.490
  923SOL     OW 3667   2.885   5.953   0.518
  923SOL    HW1 3668   2.836   6.003   0.447
  923SOL    HW2 3669   2.974   5.924   0.484
  924SOL     OW 3670   5.325   3.451   2.768
  924SOL    HW1 3671   5.371   3.511   2.702
  924SOL    HW2 3672   5.276   3.379   2.719
  925SOL     OW 3673   6.853   1.871   5.502
  925SOL    HW1 3674   6.923   1.807   5.469
  925SOL    HW2 3675   6.780   1.878   5.433
  926SOL     OW 3676   6.030   1.171   6.883
  926SOL    HW1 3677   5.959   1.110   6.921
  926SOL    HW2 3678   6.050   1.144   6.789
  927SOL     OW 3679   4.972   3.965   4.182
  927SOL    HW1 3680   5.014   3.957   4.091
  927SOL    HW2 3681   4.950   3.873   4.217
  928SOL     OW 3682   1.849   0.414   0.846
  928SOL    HW1 3683   1.777   0.361   0.801
  928SOL    HW2 3684   1.836   0.511   0.828
  929SOL     OW 3685   6.609   2.439   1.852
  929SOL    HW1 3686   6.648   2.354   1.818
  929SOL    HW2 3687   6.562   2.422   1.939
  930SOL     OW 3688   6.796   5.590   4.791
  930SOL    HW1 3689   6.730   5.646   4.841
  930SOL    HW2 3690   6.860   5.650   4.743
  931SOL     OW 3691   0.229   3.998   3.113
  931SOL    HW1 3692   0.174   3.962   3.037
  931SOL    HW2 3693   0.270   3.923   3.164
  932SOL     OW 3694   3.413   6.320   1.524
  932SOL    HW1 3695   3.466   6.402   1.505
  932SOL    HW2 3696   3.389   6.275   1.438
  933SOL     OW 3697   0.677   4.864   2.419
  933SOL    HW1 3698   0.676   4.948   2.474
  933SOL    HW2 3699   0.584   4.845   2.386
  934SOL     OW 3700   2.655   1.257   4.533
  934SOL    HW1 3701   2.592   1.331   4.559
  934SOL    HW2 3702   2.614   1.202   4.461
  935SOL     OW 3703   4.719   3.648   5.798
  935SOL    HW1 3704   4.746   3.705   5.876
  935SOL    HW2 3705   4.801   3.616   5.750
  936SOL     OW 3706   0.503   6.796   6.982
  936SOL    HW1 3707   0.583   6.821   0.014
  936SOL    HW2 3708   0.501   6.852   6.899
  937SOL     OW 3709   4.346   2.102   5.137
  937SOL    HW1 3710   4.388   2.080   5.225
  937SOL    HW2 3711   4.408   2.160   5.084
  938SOL     OW 3712   0.057   4.597   6.203
  938SOL    HW1 3713   0.126   4.602   6.275
  938SOL    HW2 3714   0.094   4.551   6.123
  939SOL     OW 3715   4.903   1.365   5.690
  939SOL    HW1 3716   4.836   1.392   5.759
  939SOL    HW2 3717   4.939   1.446   5.644
  940SOL     OW 3718   6.604   1.994   3.052
  940SOL    HW1 3719   6.611   2.061   3.126
  940SOL    HW2 3720   6.509   1.962   3.045
  941SOL     OW 3721   6.202   1.003   4.212
  941SOL    HW1 3722   6.131   0.981   4.280
  941SOL    HW2 3723   6.291   0.974   4.246
  942SOL     OW 3724   5.165   0.567   4.817
  942SOL    HW1 3725   5.164   0.504   4.894
  942SOL    HW2 3726   5.102   0.535   4.746
  943SOL     OW 3727   0.387   3.102   2.618
  943SOL    HW1 3728   0.434   3.056   2.694
  943SOL    HW2 3729   0.368   3.196   2.644
  944SOL     OW 3730   6.110   3.173   5.976
  944SOL    HW1 3731   6.083   3.264   5.946
  944SOL    HW2 3732   6.156   3.178   6.064
  945SOL     OW 3733   5.534   4.888   5.005
  945SOL    HW1 3734   5.512   4.934   4.919
  945SOL    HW2 3735   5.583   4.803   4.987
  946SOL     OW 3736   5.642   2.648   6.545
  946SOL    HW1 3737   5.709   2.651   6.470
  946SOL    HW2 3738   5.689   2.648   6.633
  947SOL     OW 3739   3.154   3.346   5.266
  947SOL    HW1 3740   3.104   3.302   5.339
  947SOL    HW2 3741   3.196   3.276   5.207
  948SOL     OW 3742   4.116   0.741   1.324
  948SOL    HW1 3743   4.042   0.760   1.390
  948SOL    HW2 3744   4.203   0.771   1.362
  949SOL     OW 3745   6.266   6.187   5.915
  949SOL    HW1 3746   6.245   6.138   6.000
  949SOL    HW2 3747   6.228   6.280   5.920
  950SOL     OW 3748   4.071   5.058   2.580
  950SOL    HW1 3749   3.994   5.000   2.555
  950SOL    HW2 3750   4.040   5.153   2.584
  951SOL     OW 3751   1.957   0.352   2.166
  951SOL    HW1 3752   2.011   0.287   2.112
  951SOL    HW2 3753   1.860   0.332   2.156
  952SOL     OW 3754   5.961   1.819   2.346
  952SOL    HW1 3755   6.002   1.876   2.274
  952SOL    HW2 3756   5.930   1.877   2.421
  953SOL     OW 3757   4.633   5.723   5.388
  953SOL    HW1 3758   4.562   5.738   5.458
  953SOL    HW2 3759   4.723   5.723   5.432
  954SOL     OW 3760   5.785   0.616   0.767
  954SOL    HW1 3761   5.767   0.699   0.715
  954SOL    HW2 3762   5.723   0.612   0.845
  955SOL     OW 3763   0.972   4.995   3.802
  955SOL    HW1 3764   0.964   4.899   3.777
  955SOL    HW2 3765   1.066   5.026   3.787
  956SOL     OW 3766   1.251   1.831   1.889
  956SOL    HW1 3767   1.272   1.744   1.845
  956SOL    HW2 3768   1.158   1.829   1.925
  957SOL     OW 3769   1.322   4.604   5.048
  957SOL    HW1 3770   1.249   4.650   5.098
  957SOL    HW2 3771   1.410   4.640   5.076
  958SOL     OW 3772   4.801   2.044   0.961
  958SOL    HW1 3773   4.833   2.002   1.046
  958SOL    HW2 3774   4.720   1.997   0.928
  959SOL     OW 3775   3.314   4.986   3.230
  959SOL    HW1 3776   3.395   4.959   3.282
  959SOL    HW2 3777   3.232   4.957   3.279
  960SOL     OW 3778   0.942   6.071   3.750
  960SOL    HW1 3779   0.935   6.041   3.845
  960SOL    HW2 3780   0.880   6.018   3.693
  961SOL     OW 3781   4.597   6.246   2.884
  961SOL    HW1 3782   4.568   6.170   2.942
  961SOL    HW2 3783   4.566   6.332   2.923
  962SOL     OW 3784   1.532   1.051   4.008
  962SOL    HW1 3785   1.533   1.077   4.105
  962SOL    HW2 3786   1.596   1.109   3.957
  963SOL     OW 3787   5.822   0.730   0.305
  963SOL    HW1 3788   5.870   0.808   0.266
  963SOL    HW2 3789   5.859   0.645   0.267
  964SOL     OW 3790   6.026   3.559   0.904
  964SOL    HW1 3791   6.090   3.594   0.835
  964SOL    HW2 3792   6.018   3.625   0.978
  965SOL     OW 3793   6.097   1.727   1.114
  965SOL    HW1 3794   6.087   1.627   1.120
  965SOL    HW2 3795   6.097   1.755   1.019
  966SOL     OW 3796   6.226   1.760   2.448
  966SOL    HW1 3797   6.180   1.747   2.536
  966SOL    HW2 3798   6.161   1.796   2.381
  967SOL     OW 3799   1.460   5.096   0.148
  967SOL    HW1 3800   1.438   5.154   0.226
  967SOL    HW2 3801   1.482   5.004   0.180
  968SOL     OW 3802   4.577   2.622   2.299
  968SOL    HW1 3803   4.652   2.567   2.260
  968SOL    HW2 3804   4.504   2.631   2.232
  969SOL     OW 3805   3.298   5.911   5.725
  969SOL    HW1 3806   3.232   5.921   5.799
  969SOL    HW2 3807   3.389   5.939   5.757
  970SOL     OW 3808   4.690   1.389   5.125
  970SOL    HW1 3809   4.747   1.415   5.204
  970SOL    HW2 3810   4.648   1.300   5.142
  971SOL     OW 3811   0.473   1.493   2.737
  971SOL    HW1 3812   0.553   1.511   2.795
  971SOL    HW2 3813   0.391   1.491   2.793
  972SOL     OW 3814   5.765   4.126   0.902
  972SOL    HW1 3815   5.705   4.053   0.933
  972SOL    HW2 3816   5.721   4.175   0.826
  973SOL     OW 3817   0.241   4.882   6.239
  973SOL    HW1 3818   0.230   4.798   6.293
  973SOL    HW2 3819   0.335   4.889   6.207
  974SOL     OW 3820   4.075   0.470   2.237
  974SOL    HW1 3821   3.996   0.483   2.296
  974SOL    HW2 3822   4.157   0.505   2.282
  975SOL     OW 3823   1.906   6.181   6.748
  975SOL    HW1 3824   1.844   6.161   6.824
  975SOL    HW2 3825   1.855   6.223   6.673
  976SOL     OW 3826   6.604   3.135   2.877
  976SOL    HW1 3827   6.612   3.225   2.835
  976SOL    HW2 3828   6.508   3.112   2.889
  977SOL     OW 3829   2.448   1.334   4.237
  977SOL    HW1 3830   2.401   1.374   4.158
  977SOL    HW2 3831   2.483   1.407   4.295
  978SOL     OW 3832   5.254   3.962   5.002
  978SOL    HW1 3833   5.274   3.934   5.096
  978SOL    HW2 3834   5.320   4.032   4.973
  979SOL     OW 3835   6.243   1.570   2.924
  979SOL    HW1 3836   6.179   1.493   2.935
  979SOL    HW2 3837   6.238   1.629   3.004
  980SOL     OW 3838   4.889   1.906   3.848
  980SOL    HW1 3839   4.849   1.873   3.933
  980SOL    HW2 3840   4.972   1.854   3.827
  981SOL     OW 3841   1.069   1.697   4.971
  981SOL    HW1 3842   1.088   1.763   5.044
  981SOL    HW2 3843   1.027   1.744   4.893
  982SOL     OW 3844   1.947   2.760   3.246
  982SOL    HW1 3845   2.042   2.749   3.219
  982SOL    HW2 3846   1.943   2.792   3.341
  983SOL     OW 3847   5.765   2.698   3.573
  983SOL    HW1 3848   5.762   2.744   3.662
  983SOL    HW2 3849   5.789   2.602   3.585
  984SOL     OW 3850   3.483   0.591   4.943
  984SOL    HW1 3851   3.561   0.598   4.881
  984SOL    HW2 3852   3.505   0.528   5.017
  985SOL     OW 3853   5.340   4.931   6.884
  985SOL    HW1 3854   5.351   4.986   6.801
  985SOL    HW2 3855   5.298   4.986   6.956
  986SOL     OW 3856   5.298   5.366   0.233
  986SOL    HW1 3857   5.255   5.319   0.310
  986SOL    HW2 3858   5.265   5.461   0.229
  987SOL     OW 3859   3.889   6.201   1.224
  987SOL    HW1 3860   3.799   6.235   1.250
  987SOL    HW2 3861   3.880   6.109   1.185
  988SOL     OW 3862   4.094   2.806   1.452
  988SOL    HW1 3863   4.013   2.858   1.478
  988SOL    HW2 3864   4.082   2.769   1.359
  989SOL     OW 3865   0.382   0.835   5.784
  989SOL    HW1 3866   0.300   0.861   5.732
  989SOL    HW2 3867   0.446   0.788   5.723
  990SOL     OW 3868   4.638   0.322   3.595
  990SOL    HW1 3869   4.554   0.311   3.543
  990SOL    HW2 3870   4.715   0.281   3.546
  991SOL     OW 3871   1.760   1.536   5.212
  991SOL    HW1 3872   1.771   1.597   5.291
  991SOL    HW2 3873   1.840   1.543   5.153
  992SOL     OW 3874   0.692   3.224   0.785
  992SOL    HW1 3875   0.656   3.187   0.699
  992SOL    HW2 3876   0.749   3.154   0.830
  993SOL     OW 3877   2.036   5.534   2.220
  993SOL    HW1 3878   1.967   5.583   2.274
  993SOL    HW2 3879   1.999   5.446   2.191
  994SOL     OW 3880   3.822   3.659   2.538
  994SOL    HW1 3881   3.874   3.578   2.566
  994SOL    HW2 3882   3.808   3.718   2.618
  995SOL     OW 3883   2.625   2.179   6.342
  995SOL    HW1 3884   2.698   2.134   6.290
  995SOL    HW2 3885   2.571   2.110   6.390
  996SOL     OW 3886   1.732   4.006   3.819
  996SOL    HW1 3887   1.656   3.950   3.787
  996SOL    HW2 3888   1.697   4.087   3.866
  997SOL     OW 3889   6.696   6.992   1.398
  997SOL    HW1 3890   6.644   6.920   1.443
  997SOL    HW2 3891   6.769   6.950   1.343
  998SOL     OW 3892   4.517   0.101   3.750
  998SOL    HW1 3893   4.436   0.109   3.810
  998SOL    HW2 3894   4.552   0.193   3.730
  999SOL     OW 3895   5.460   5.498   1.348
  999SOL    HW1 3896   5.559   5.488   1.355
  999SOL    HW2 3897   5.427   5.556   1.423
 1000SOL     OW 3898   1.248   0.826   2.537
 1000SOL    HW1 3899   1.271   0.832   2.635
 1000SOL    HW2 3900   1.326   0.858   2.483
 1001SOL     OW 3901   4.757   6.633   6.835
 1001SOL    HW1 3902   4.843   6.614   6.788
 1001SOL    HW2 3903   4.695   6.682   6.774
 1002SOL     OW 3904   5.802   1.911   6.475
 1002SOL    HW1 3905   5.761   1.913   6.566
 1002SOL    HW2 3906   5.746   1.856   6.414
 1003SOL     OW 3907   2.759   6.920   1.485
 1003SOL    HW1 3908   2.794   6.833   1.521
 1003SOL    HW2 3909   2.669   6.905   1.443
 1004SOL     OW 3910   6.951   0.476   0.718
 1004SOL    HW1 3911   6.929   0.570   0.742
 1004SOL    HW2 3912   6.868   0.427   0.692
 1005SOL     OW 3913   0.085   1.037   3.126
 1005SOL    HW1 3914   0.172   1.086   3.129
 1005SOL    HW2 3915   0.031   1.071   3.049
 1006SOL     OW 3916   2.458   6.200   1.557
 1006SOL    HW1 3917   2.454   6.250   1.643
 1006SOL    HW2 3918   2.539   6.228   1.506
 1007SOL     OW 3919   6.179   6.937   3.637
 1007SOL    HW1 3920   6.262   6.886   3.616
 1007SOL    HW2 3921   6.150   6.988   3.556
 1008SOL     OW 3922   1.828   2.802   4.726
 1008SOL    HW1 3923   1.914   2.822   4.679
 1008SOL    HW2 3924   1.754   2.798   4.660
 1009SOL     OW 3925   0.352   6.011   4.063
 1009SOL    HW1 3926   0.292   6.026   3.985
 1009SOL    HW2 3927   0.315   5.936   4.119
 1010SOL     OW 3928   3.554   2.370   6.860
 1010SOL    HW1 3929   3.496   2.292   6.882
 1010SOL    HW2 3930   3.507   2.455   6.883
 1011SOL     OW 3931   2.698   5.496   2.708
 1011SOL    HW1 3932   2.731   5.590   2.704
 1011SOL    HW2 3933   2.767   5.435   2.671
 1012SOL     OW 3934   6.885   5.834   0.590
 1012SOL    HW1 3935   6.908   5.739   0.614
 1012SOL    HW2 3936   6.933   5.860   0.506
 1013SOL     OW 3937   0.461   1.145   6.396
 1013SOL    HW1 3938   0.408   1.165   6.479
 1013SOL    HW2 3939   0.398   1.129   6.319
 1014SOL     OW 3940   5.166   5.783   0.014
 1014SOL    HW1 3941   5.250   5.836   0.004
 1014SOL    HW2 3942   5.102   5.808   6.964
 1015SOL     OW 3943   2.514   6.641   5.411
 1015SOL    HW1 3944   2.515   6.741   5.404
 1015SOL    HW2 3945   2.561   6.601   5.332
 1016SOL     OW 3946   2.308   3.120   0.875
 1016SOL    HW1 3947   2.268   3.080   0.957
 1016SOL    HW2 3948   2.243   3.183   0.833
 1017SOL     OW 3949   4.417   2.497   0.977
 1017SOL    HW1 3950   4.439   2.454   1.065
 1017SOL    HW2 3951   4.337   2.556   0.989
 1018SOL     OW 3952   1.874   3.714   4.027
 1018SOL    HW1 3953   1.882   3.727   3.928
 1018SOL    HW2 3954   1.891   3.618   4.050
 1019SOL     OW 3955   1.222   0.502   0.623
 1019SOL    HW1 3956   1.313   0.483   0.587
 1019SOL    HW2 3957   1.162   0.425   0.604
 1020SOL     OW 3958   1.916   6.805   1.242
 1020SOL    HW1 3959   1.830   6.839   1.280
 1020SOL    HW2 3960   1.900   6.767   1.151
 1021SOL     OW 3961   6.627   0.813   0.301
 1021SOL    HW1 3962   6.605   0.883   0.233
 1021SOL    HW2 3963   6.660   0.856   0.385
 1022SOL     OW 3964   3.724   4.233   6.114
 1022SOL    HW1 3965   3.693   4.165   6.180
 1022SOL    HW2 3966   3.798   4.287   6.155
 1023SOL     OW 3967   6.217   0.128   2.504
 1023SOL    HW1 3968   6.270   0.098   2.583
 1023SOL    HW2 3969   6.123   0.098   2.514
 1024SOL     OW 3970   6.521   2.894   4.256
 1024SOL    HW1 3971   6.470   2.828   4.202
 1024SOL    HW2 3972   6.509   2.874   4.354
 1025SOL     OW 3973   3.499   4.036   0.160
 1025SOL    HW1 3974   3.588   4.041   0.205
 1025SOL    HW2 3975   3.429   4.011   0.227
 1026SOL     OW 3976   1.508   2.140   1.028
 1026SOL    HW1 3977   1.497   2.173   0.934
 1026SOL    HW2 3978   1.594   2.090   1.036
 1027SOL     OW 3979   2.847   6.250   1.030
 1027SOL    HW1 3980   2.849   6.346   1.004
 1027SOL    HW2 3981   2.939   6.211   1.025
 1028SOL     OW 3982   3.382   5.793   6.992
 1028SOL    HW1 3983   3.339   5.788   6.901
 1028SOL    HW2 3984   3.313   5.821   0.036
 1029SOL     OW 3985   1.715   0.452   0.452
 1029SOL    HW1 3986   1.773   0.528   0.482
 1029SOL    HW2 3987   1.765   0.393   0.389
 1030SOL     OW 3988   3.007   3.151   2.375
 1030SOL    HW1 3989   2.926   3.192   2.334
 1030SOL    HW2 3990   3.038   3.074   2.318
 1031SOL     OW 3991   5.049   5.077   0.521
 1031SOL    HW1 3992   4.983   5.055   0.593
 1031SOL    HW2 3993   5.125   5.012   0.524
 1032SOL     OW 3994   1.479   1.647   4.881
 1032SOL    HW1 3995   1.385   1.624   4.856
 1032SOL    HW2 3996   1.482   1.673   4.978
 1033SOL     OW 3997   1.127   6.758   1.495
 1033SOL    HW1 3998   1.044   6.728   1.449
 1033SOL    HW2 3999   1.103   6.809   1.578
 1034SOL     OW 4000   1.260   6.292   4.753
 1034SOL    HW1 4001   1.247   6.378   4.705
 1034SOL    HW2 4002   1.270   6.309   4.851
 1035SOL     OW 4003   2.971   1.694   3.557
 1035SOL    HW1 4004   3.038   1.761   3.588
 1035SOL    HW2 4005   3.017   1.616   3.515
 1036SOL     OW 4006   2.955   0.577   0.983
 1036SOL    HW1 4007   3.009   0.530   1.053
 1036SOL    HW2 4008   2.923   0.665   1.019
 1037SOL     OW 4009   1.509   1.161   1.545
 1037SOL    HW1 4010   1.474   1.219   1.619
 1037SOL    HW2 4011   1.435   1.103   1.510
 1038SOL     OW 4012   1.254   0.917   5.781
 1038SOL    HW1 4013   1.314   0.874   5.714
 1038SOL    HW2 4014   1.172   0.951   5.736
 1039SOL     OW 4015   4.367   2.551   5.552
 1039SOL    HW1 4016   4.411   2.501   5.627
 1039SOL    HW2 4017   4.434   2.614   5.511
 1040SOL     OW 4018   5.223   3.226   2.984
 1040SOL    HW1 4019   5.277   3.215   2.900
 1040SOL    HW2 4020   5.277   3.278   3.051
 1041SOL     OW 4021   6.697   6.912   4.279
 1041SOL    HW1 4022   6.786   6.872   4.301
 1041SOL    HW2 4023   6.644   6.849   4.223
 1042SOL     OW 4024   3.179   4.901   2.201
 1042SOL    HW1 4025   3.117   4.909   2.279
 1042SOL    HW2 4026   3.266   4.862   2.232
 1043SOL     OW 4027   4.798   1.168   5.559
 1043SOL    HW1 4028   4.736   1.218   5.498
 1043SOL    HW2 4029   4.844   1.232   5.620
 1044SOL     OW 4030   4.108   2.560   1.575
 1044SOL    HW1 4031   4.103   2.658   1.559
 1044SOL    HW2 4032   4.019   2.527   1.607
 1045SOL     OW 4033   2.913   0.297   1.468
 1045SOL    HW1 4034   2.896   0.224   1.534
 1045SOL    HW2 4035   2.864   0.278   1.383
 1046SOL     OW 4036   2.142   6.874   6.810
 1046SOL    HW1 4037   2.167   6.791   6.760
 1046SOL    HW2 4038   2.143   6.952   6.748
 1047SOL     OW 4039   1.319   5.349   2.931
 1047SOL    HW1 4040   1.238   5.394   2.895
 1047SOL    HW2 4041   1.365   5.298   2.858
 1048SOL     OW 4042   4.411   5.555   5.525
 1048SOL    HW1 4043   4.484   5.527   5.588
 1048SOL    HW2 4044   4.326   5.510   5.551
 1049SOL     OW 4045   6.876   4.522   4.855
 1049SOL    HW1 4046   6.884   4.441   4.914
 1049SOL    HW2 4047   6.783   4.557   4.861
 1050SOL     OW 4048   3.110   5.320   1.185
 1050SOL    HW1 4049   3.178   5.284   1.121
 1050SOL    HW2 4050   3.066   5.401   1.146
 1051SOL     OW 4051   3.560   4.734   6.939
 1051SOL    HW1 4052   3.568   4.825   6.979
 1051SOL    HW2 4053   3.650   4.703   6.908
 1052SOL     OW 4054   4.423   0.389   4.010
 1052SOL    HW1 4055   4.442   0.417   3.916
 1052SOL    HW2 4056   4.351   0.447   4.048
 1053SOL     OW 4057   5.292   5.900   3.314
 1053SOL    HW1 4058   5.276   5.990   3.272
 1053SOL    HW2 4059   5.387   5.893   3.342
 1054SOL     OW 4060   2.601   4.810   5.301
 1054SOL    HW1 4061   2.510   4.813   5.259
 1054SOL    HW2 4062   2.634   4.716   5.302
 1055SOL     OW 4063   5.573   6.934   4.078
 1055SOL    HW1 4064   5.625   6.962   4.158
 1055SOL    HW2 4065   5.636   6.904   4.006
 1056SOL     OW 4066   1.788   6.010   5.274
 1056SOL    HW1 4067   1.733   5.964   5.204
 1056SOL    HW2 4068   1.805   5.948   5.350
 1057SOL     OW 4069   3.480   3.685   2.792
 1057SOL    HW1 4070   3.402   3.623   2.781
 1057SOL    HW2 4071   3.483   3.719   2.885
 1058SOL     OW 4072   4.863   1.558   2.575
 1058SOL    HW1 4073   4.913   1.525   2.495
 1058SOL    HW2 4074   4.927   1.602   2.638
 1059SOL     OW 4075   3.165   0.547   2.290
 1059SOL    HW1 4076   3.226   0.567   2.214
 1059SOL    HW2 4077   3.114   0.463   2.271
 1060SOL     OW 4078   0.303   3.466   5.203
 1060SOL    HW1 4079   0.316   3.550   5.256
 1060SOL    HW2 4080   0.205   3.449   5.192
 1061SOL     OW 4081   4.557   4.275   1.403
 1061SOL    HW1 4082   4.553   4.282   1.503
 1061SOL    HW2 4083   4.487   4.211   1.371
 1062SOL     OW 4084   6.687   5.671   5.996
 1062SOL    HW1 4085   6.603   5.622   6.017
 1062SOL    HW2 4086   6.751   5.610   5.950
 1063SOL     OW 4087   1.132   4.520   0.963
 1063SOL    HW1 4088   1.164   4.553   1.052
 1063SOL    HW2 4089   1.032   4.515   0.963
 1064SOL     OW 4090   0.838   4.292   2.494
 1064SOL    HW1 4091   0.913   4.320   2.554
 1064SOL    HW2 4092   0.823   4.362   2.425
 1065SOL     OW 4093   4.729   0.408   4.729
 1065SOL    HW1 4094   4.735   0.483   4.795
 1065SOL    HW2 4095   4.813   0.354   4.733
 1066SOL     OW 4096   5.284   0.793   4.255
 1066SOL    HW1 4097   5.313   0.874   4.305
 1066SOL    HW2 4098   5.241   0.727   4.317
 1067SOL     OW 4099   1.460   2.717   0.335
 1067SOL    HW1 4100   1.476   2.700   0.432
 1067SOL    HW2 4101   1.367   2.751   0.322
 1068SOL     OW 4102   5.572   4.381   1.952
 1068SOL    HW1 4103   5.472   4.384   1.956
 1068SOL    HW2 4104   5.608   4.356   2.042
 1069SOL     OW 4105   4.965   5.028   1.363
 1069SOL    HW1 4106   4.958   4.933   1.333
 1069SOL    HW2 4107   5.060   5.050   1.383
 1070SOL     OW 4108   1.253   1.521   6.979
 1070SOL    HW1 4109   1.296   1.446   0.006
 1070SOL    HW2 4110   1.322   1.571   6.928
 1071SOL     OW 4111   4.002   0.524   3.379
 1071SOL    HW1 4112   4.073   0.594   3.381
 1071SOL    HW2 4113   3.993   0.489   3.286
 1072SOL     OW 4114   1.909   6.275   1.905
 1072SOL    HW1 4115   1.976   6.211   1.944
 1072SOL    HW2 4116   1.945   6.368   1.912
 1073SOL     OW 4117   3.826   5.536   2.621
 1073SOL    HW1 4118   3.841   5.553   2.719
 1073SOL    HW2 4119   3.869   5.449   2.596
 1074SOL     OW 4120   1.903   5.432   1.602
 1074SOL    HW1 4121   1.894   5.346   1.652
 1074SOL    HW2 4122   1.840   5.500   1.639
 1075SOL     OW 4123   4.921   5.129   3.511
 1075SOL    HW1 4124   4.994   5.186   3.473
 1075SOL    HW2 4125   4.832   5.169   3.489
 1076SOL     OW 4126   0.524   4.483   4.893
 1076SOL    HW1 4127   0.581   4.408   4.858
 1076SOL    HW2 4128   0.540   4.565   4.838
 1077SOL     OW 4129   5.958   0.218   0.120
 1077SOL    HW1 4130   6.051   0.182   0.126
 1077SOL    HW2 4131   5.910   0.199   0.205
 1078SOL     OW 4132   1.537   0.946   2.569
 1078SOL    HW1 4133   1.602   0.968   2.497
 1078SOL    HW2 4134   1.575   0.876   2.629
 1079SOL     OW 4135   1.676   5.158   2.925
 1079SOL    HW1 4136   1.708   5.209   3.005
 1079SOL    HW2 4137   1.717   5.197   2.842
 1080SOL     OW 4138   1.465   4.132   3.219
 1080SOL    HW1 4139   1.443   4.035   3.224
 1080SOL    HW2 4140   1.522   4.157   3.297
 1081SOL     OW 4141   0.236   0.947   5.251
 1081SOL    HW1 4142   0.321   0.934   5.302
 1081SOL    HW2 4143   0.192   1.032   5.281
 1082SOL     OW 4144   1.476   0.154   6.016
 1082SOL    HW1 4145   1.419   0.208   6.078
 1082SOL    HW2 4146   1.491   0.064   6.055
 1083SOL     OW 4147   3.541   4.151   2.266
 1083SOL    HW1 4148   3.467   4.143   2.199
 1083SOL    HW2 4149   3.564   4.247   2.278
 1084SOL     OW 4150   6.730   5.896   1.032
 1084SOL    HW1 4151   6.670   5.826   0.993
 1084SOL    HW2 4152   6.809   5.853   1.075
 1085SOL     OW 4153   1.766   3.828   3.252
 1085SOL    HW1 4154   1.776   3.787   3.161
 1085SOL    HW2 4155   1.782   3.927   3.246
 1086SOL     OW 4156   6.380   5.722   3.094
 1086SOL    HW1 4157   6.343   5.637   3.057
 1086SOL    HW2 4158   6.476   5.709   3.117
 1087SOL     OW 4159   5.607   2.747   5.439
 1087SOL    HW1 4160   5.688   2.802   5.459
 1087SOL    HW2 4161   5.540   2.803   5.390
 1088SOL     OW 4162   6.348   5.015   3.467
 1088SOL    HW1 4163   6.357   5.095   3.526
 1088SOL    HW2 4164   6.271   5.028   3.405
 1089SOL     OW 4165   1.115   0.233   4.706
 1089SOL    HW1 4166   1.064   0.318   4.722
 1089SOL    HW2 4167   1.213   0.250   4.720
 1090SOL     OW 4168   2.827   1.259   3.805
 1090SOL    HW1 4169   2.916   1.260   3.851
 1090SOL    HW2 4170   2.755   1.241   3.872
 1091SOL     OW 4171   1.841   1.739   4.306
 1091SOL    HW1 4172   1.807   1.709   4.395
 1091SOL    HW2 4173   1.778   1.710   4.234
 1092SOL     OW 4174   2.230   3.509   1.268
 1092SOL    HW1 4175   2.293   3.562   1.326
 1092SOL    HW2 4176   2.169   3.571   1.219
 1093SOL     OW 4177   2.385   1.614   3.438
 1093SOL    HW1 4178   2.470   1.640   3.393
 1093SOL    HW2 4179   2.405   1.551   3.513
 1094SOL     OW 4180   6.965   6.720   2.646
 1094SOL    HW1 4181   6.988   6.812   2.616
 1094SOL    HW2 4182   7.004   6.704   2.737
 1095SOL     OW 4183   6.693   2.176   5.781
 1095SOL    HW1 4184   6.778   2.187   5.831
 1095SOL    HW2 4185   6.713   2.169   5.683
 1096SOL     OW 4186   3.614   4.469   1.426
 1096SOL    HW1 4187   3.535   4.409   1.440
 1096SOL    HW2 4188   3.687   4.417   1.381
 1097SOL     OW 4189   0.768   4.366   4.479
 1097SOL    HW1 4190   0.743   4.270   4.465
 1097SOL    HW2 4191   0.867   4.373   4.489
 1098SOL     OW 4192   5.560   2.730   0.998
 1098SOL    HW1 4193   5.624   2.744   0.922
 1098SOL    HW2 4194   5.574   2.803   1.066
 1099SOL     OW 4195   4.199   1.397   4.544
 1099SOL    HW1 4196   4.114   1.450   4.546
 1099SOL    HW2 4197   4.197   1.330   4.618
 1100SOL     OW 4198   1.747   1.538   6.444
 1100SOL    HW1 4199   1.664   1.564   6.396
 1100SOL    HW2 4200   1.815   1.611   6.435
 1101SOL     OW 4201   5.370   2.680   1.335
 1101SOL    HW1 4202   5.309   2.736   1.390
 1101SOL    HW2 4203   5.450   2.653   1.389
 1102SOL     OW 4204   1.525   4.756   3.192
 1102SOL    HW1 4205   1.510   4.822   3.119
 1102SOL    HW2 4206   1.544   4.805   3.278
 1103SOL     OW 4207   2.394   0.732   1.116
 1103SOL    HW1 4208   2.370   0.693   1.027
 1103SOL    HW2 4209   2.387   0.832   1.111
 1104SOL     OW 4210   1.541   3.887   6.258
 1104SOL    HW1 4211   1.618   3.919   6.314
 1104SOL    HW2 4212   1.556   3.792   6.233
 1105SOL     OW 4213   5.185   3.800   5.630
 1105SOL    HW1 4214   5.242   3.858   5.689
 1105SOL    HW2 4215   5.093   3.840   5.624
 1106SOL     OW 4216   1.287   1.615   0.418
 1106SOL    HW1 4217   1.233   1.589   0.338
 1106SOL    HW2 4218   1.246   1.697   0.460
 1107SOL     OW 4219   0.329   0.382   6.838
 1107SOL    HW1 4220   0.311   0.289   6.871
 1107SOL    HW2 4221   0.405   0.422   6.889
 1108SOL     OW 4222   2.834   0.482   5.842
 1108SOL    HW1 4223   2.765   0.554   5.847
 1108SOL    HW2 4224   2.797   0.403   5.792
 1109SOL     OW 4225   4.446   5.649   4.776
 1109SOL    HW1 4226   4.397   5.733   4.753
 1109SOL    HW2 4227   4.478   5.606   4.692
 1110SOL     OW 4228   3.276   1.781   2.383
 1110SOL    HW1 4229   3.292   1.877   2.362
 1110SOL    HW2 4230   3.188   1.771   2.431
 1111SOL     OW 4231   5.493   6.223   0.234
 1111SOL    HW1 4232   5.522   6.194   0.325
 1111SOL    HW2 4233   5.482   6.143   0.175
 1112SOL     OW 4234   6.229   1.456   2.515
 1112SOL    HW1 4235   6.292   1.517   2.467
 1112SOL    HW2 4236   6.135   1.483   2.495
 1113SOL     OW 4237   6.054   3.457   2.599
 1113SOL    HW1 4238   6.097   3.494   2.682
 1113SOL    HW2 4239   6.098   3.495   2.518
 1114SOL     OW 4240   4.677   0.632   6.342
 1114SOL    HW1 4241   4.608   0.700   6.366
 1114SOL    HW2 4242   4.632   0.545   6.321
 1115SOL     OW 4243   4.430   3.664   7.013
 1115SOL    HW1 4244   4.502   3.627   0.048
 1115SOL    HW2 4245   4.460   3.663   6.918
 1116SOL     OW 4246   5.167   5.518   4.372
 1116SOL    HW1 4247   5.075   5.485   4.349
 1116SOL    HW2 4248   5.185   5.500   4.469
 1117SOL     OW 4249   2.851   2.521   1.353
 1117SOL    HW1 4250   2.920   2.455   1.383
 1117SOL    HW2 4251   2.777   2.524   1.420
 1118SOL     OW 4252   1.597   5.081   2.134
 1118SOL    HW1 4253   1.635   4.990   2.114
 1118SOL    HW2 4254   1.497   5.074   2.142
 1119SOL     OW 4255   3.632   3.928   0.972
 1119SOL    HW1 4256   3.551   3.921   1.030
 1119SOL    HW2 4257   3.610   3.895   0.880
 1120SOL     OW 4258   5.460   6.477   5.987
 1120SOL    HW1 4259   5.495   6.388   5.959
 1120SOL    HW2 4260   5.511   6.549   5.939
 1121SOL     OW 4261   5.014   3.363   2.706
 1121SOL    HW1 4262   4.949   3.342   2.633
 1121SOL    HW2 4263   4.992   3.310   2.788
 1122SOL     OW 4264   5.056   3.043   5.978
 1122SOL    HW1 4265   5.154   3.022   5.979
 1122SOL    HW2 4266   5.043   3.142   5.982
 1123SOL     OW 4267   4.955   1.423   2.339
 1123SOL    HW1 4268   4.867   1.386   2.366
 1123SOL    HW2 4269   4.961   1.425   2.239
 1124SOL     OW 4270   6.742   4.181   4.950
 1124SOL    HW1 4271   6.658   4.131   4.931
 1124SOL    HW2 4272   6.820   4.128   4.920
 1125SOL     OW 4273   2.731   1.782   5.122
 1125SOL    HW1 4274   2.667   1.799   5.197
 1125SOL    HW2 4275   2.680   1.754   5.040
 1126SOL     OW 4276   4.790   0.412   6.962
 1126SOL    HW1 4277   4.710   0.408   6.901
 1126SOL    HW2 4278   4.780   0.489   0.002
 1127SOL     OW 4279   3.788   5.414   5.293
 1127SOL    HW1 4280   3.751   5.378   5.208
 1127SOL    HW2 4281   3.715   5.416   5.363
 1128SOL     OW 4282   4.756   2.621   4.680
 1128SOL    HW1 4283   4.750   2.656   4.774
 1128SOL    HW2 4284   4.697   2.541   4.672
 1129SOL     OW 4285   3.912   6.763   0.002
 1129SOL    HW1 4286   4.008   6.789   0.013
 1129SOL    HW2 4287   3.889   6.692   0.068
 1130SOL     OW 4288   1.717   4.136   0.652
 1130SOL    HW1 4289   1.716   4.198   0.574
 1130SOL    HW2 4290   1.801   4.149   0.704
 1131SOL     OW 4291   0.171   6.243   5.829
 1131SOL    HW1 4292   0.130   6.166   5.878
 1131SOL    HW2 4293   0.104   6.317   5.821
 1132SOL     OW 4294   4.436   0.421   0.024
 1132SOL    HW1 4295   4.378   0.456   6.974
 1132SOL    HW2 4296   4.397   0.337   0.061
 1133SOL     OW 4297   6.821   2.418   1.012
 1133SOL    HW1 4298   6.751   2.358   1.050
 1133SOL    HW2 4299   6.778   2.502   0.978
 1134SOL     OW 4300   5.840   2.085   0.371
 1134SOL    HW1 4301   5.748   2.087   0.411
 1134SOL    HW2 4302   5.903   2.134   0.432
 1135SOL     OW 4303   3.036   1.850   2.489
 1135SOL    HW1 4304   2.951   1.821   2.533
 1135SOL    HW2 4305   3.083   1.917   2.547
 1136SOL     OW 4306   3.111   4.883   4.761
 1136SOL    HW1 4307   3.032   4.824   4.744
 1136SOL    HW2 4308   3.080   4.971   4.795
 1137SOL     OW 4309   1.019   3.084   0.212
 1137SOL    HW1 4310   0.935   3.073   0.266
 1137SOL    HW2 4311   1.098   3.079   0.273
 1138SOL     OW 4312   1.610   1.706   6.121
 1138SOL    HW1 4313   1.673   1.633   6.098
 1138SOL    HW2 4314   1.559   1.733   6.040
 1139SOL     OW 4315   2.468   6.816   2.411
 1139SOL    HW1 4316   2.548   6.819   2.351
 1139SOL    HW2 4317   2.477   6.887   2.481
 1140SOL     OW 4318   3.943   2.063   2.354
 1140SOL    HW1 4319   3.976   2.060   2.448
 1140SOL    HW2 4320   3.845   2.082   2.353
 1141SOL     OW 4321   6.327   5.892   5.615
 1141SOL    HW1 4322   6.415   5.906   5.660
 1141SOL    HW2 4323   6.290   5.803   5.641
 1142SOL     OW 4324   4.725   0.633   4.884
 1142SOL    HW1 4325   4.790   0.686   4.939
 1142SOL    HW2 4326   4.632   0.667   4.902
 1143SOL     OW 4327   3.391   2.087   2.654
 1143SOL    HW1 4328   3.463   2.156   2.643
 1143SOL    HW2 4329   3.428   2.007   2.700
 1144SOL     OW 4330   6.683   4.618   4.593
 1144SOL    HW1 4331   6.637   4.707   4.589
 1144SOL    HW2 4332   6.614   4.546   4.604
 1145SOL     OW 4333   0.419   5.072   3.449
 1145SOL    HW1 4334   0.420   5.133   3.528
 1145SOL    HW2 4335   0.350   5.103   3.384
 1146SOL     OW 4336   5.556   1.198   1.237
 1146SOL    HW1 4337   5.499   1.237   1.310
 1146SOL    HW2 4338   5.501   1.187   1.154
 1147SOL     OW 4339   1.060   4.038   0.736
 1147SOL    HW1 4340   1.139   4.098   0.728
 1147SOL    HW2 4341   1.084   3.956   0.788
 1148SOL     OW 4342   2.748   6.728   6.987
 1148SOL    HW1 4343   2.847   6.740   6.978
 1148SOL    HW2 4344   2.728   6.647   0.019
 1149SOL     OW 4345   5.451   3.267   3.165
 1149SOL    HW1 4346   5.457   3.199   3.238
 1149SOL    HW2 4347   5.527   3.255   3.102
 1150SOL     OW 4348   2.141   4.168   1.038
 1150SOL    HW1 4349   2.165   4.175   1.135
 1150SOL    HW2 4350   2.047   4.198   1.024
 1151SOL     OW 4351   5.302   5.768   6.617
 1151SOL    HW1 4352   5.330   5.715   6.537
 1151SOL    HW2 4353   5.302   5.709   6.698
 1152SOL     OW 4354   0.982   6.782   5.283
 1152SOL    HW1 4355   1.006   6.764   5.379
 1152SOL    HW2 4356   0.985   6.881   5.266
 1153SOL     OW 4357   2.856   6.585   1.909
 1153SOL    HW1 4358   2.949   6.552   1.893
 1153SOL    HW2 4359   2.858   6.685   1.918
 1154SOL     OW 4360   0.288   3.595   1.581
 1154SOL    HW1 4361   0.328   3.503   1.584
 1154SOL    HW2 4362   0.212   3.600   1.645
 1155SOL     OW 4363   3.860   5.258   6.408
 1155SOL    HW1 4364   3.825   5.195   6.477
 1155SOL    HW2 4365   3.956   5.237   6.390
 1156SOL     OW 4366   2.023   0.502   4.240
 1156SOL    HW1 4367   2.116   0.532   4.218
 1156SOL    HW2 4368   1.964   0.517   4.161
 1157SOL     OW 4369   6.332   2.113   4.527
 1157SOL    HW1 4370   6.279   2.160   4.457
 1157SOL    HW2 4371   6.430   2.131   4.512
 1158SOL     OW 4372   6.167   5.163   5.391
 1158SOL    HW1 4373   6.223   5.244   5.370
 1158SOL    HW2 4374   6.097   5.152   5.319
 1159SOL     OW 4375   4.630   0.566   2.754
 1159SOL    HW1 4376   4.602   0.568   2.850
 1159SOL    HW2 4377   4.713   0.511   2.745
 1160SOL     OW 4378   3.616   3.337   1.342
 1160SOL    HW1 4379   3.710   3.367   1.361
 1160SOL    HW2 4380   3.581   3.286   1.421
 1161SOL     OW 4381   5.109   0.392   5.052
 1161SOL    HW1 4382   5.151   0.328   4.988
 1161SOL    HW2 4383   5.011   0.395   5.037
 1162SOL     OW 4384   3.828   3.195   0.495
 1162SOL    HW1 4385   3.911   3.251   0.497
 1162SOL    HW2 4386   3.795   3.188   0.401
 1163SOL     OW 4387   5.342   2.303   2.109
 1163SOL    HW1 4388   5.349   2.317   2.208
 1163SOL    HW2 4389   5.316   2.208   2.091
 1164SOL     OW 4390   5.658   2.856   3.791
 1164SOL    HW1 4391   5.658   2.956   3.785
 1164SOL    HW2 4392   5.741   2.824   3.836
 1165SOL     OW 4393   1.871   4.033   3.576
 1165SOL    HW1 4394   1.837   4.032   3.670
 1165SOL    HW2 4395   1.958   3.983   3.572
 1166SOL     OW 4396   3.902   0.748   6.791
 1166SOL    HW1 4397   3.821   0.804   6.811
 1166SOL    HW2 4398   3.969   0.760   6.864
 1167SOL     OW 4399   3.036   0.475   6.010
 1167SOL    HW1 4400   3.055   0.377   6.005
 1167SOL    HW2 4401   2.965   0.498   5.944
 1168SOL     OW 4402   5.898   0.095   2.311
 1168SOL    HW1 4403   5.951   0.163   2.259
 1168SOL    HW2 4404   5.879   0.016   2.253
 1169SOL     OW 4405   0.578   3.263   0.257
 1169SOL    HW1 4406   0.549   3.352   0.290
 1169SOL    HW2 4407   0.512   3.228   0.190
 1170SOL     OW 4408   4.218   0.833   1.906
 1170SOL    HW1 4409   4.150   0.762   1.924
 1170SOL    HW2 4410   4.293   0.793   1.852
 1171SOL     OW 4411   2.577   5.761   0.600
 1171SOL    HW1 4412   2.673   5.746   0.623
 1171SOL    HW2 4413   2.519   5.719   0.670
 1172SOL     OW 4414   3.230   4.076   3.322
 1172SOL    HW1 4415   3.139   4.062   3.285
 1172SOL    HW2 4416   3.296   4.088   3.247
 1173SOL     OW 4417   3.523   6.506   5.877
 1173SOL    HW1 4418   3.449   6.455   5.921
 1173SOL    HW2 4419   3.610   6.478   5.916
 1174SOL     OW 4420   3.076   5.571   1.020
 1174SOL    HW1 4421   3.156   5.623   0.990
 1174SOL    HW2 4422   3.043   5.608   1.107
 1175SOL     OW 4423   5.141   3.811   6.886
 1175SOL    HW1 4424   5.074   3.742   6.856
 1175SOL    HW2 4425   5.176   3.787   6.976
 1176SOL     OW 4426   6.276   4.774   0.332
 1176SOL    HW1 4427   6.198   4.799   0.275
 1176SOL    HW2 4428   6.255   4.794   0.428
 1177SOL     OW 4429   0.215   2.048   5.377
 1177SOL    HW1 4430   0.217   2.049   5.477
 1177SOL    HW2 4431   0.124   2.074   5.345
 1178SOL     OW 4432   4.503   3.617   1.522
 1178SOL    HW1 4433   4.531   3.587   1.431
 1178SOL    HW2 4434   4.454   3.704   1.515
 1179SOL     OW 4435   2.906   5.015   0.603
 1179SOL    HW1 4436   2.998   5.009   0.565
 1179SOL    HW2 4437   2.851   4.937   0.572
 1180SOL     OW 4438   2.521   0.211   3.720
 1180SOL    HW1 4439   2.575   0.224   3.803
 1180SOL    HW2 4440   2.582   0.187   3.645
 1181SOL     OW 4441   0.725   3.285   4.411
 1181SOL    HW1 4442   0.812   3.317   4.447
 1181SOL    HW2 4443   0.721   3.185   4.418
 1182SOL     OW 4444   2.008   4.988   2.889
 1182SOL    HW1 4445   1.986   4.925   2.814
 1182SOL    HW2 4446   2.107   4.986   2.906
 1183SOL     OW 4447   4.217   5.215   2.340
 1183SOL    HW1 4448   4.244   5.137   2.397
 1183SOL    HW2 4449   4.166   5.182   2.261
 1184SOL     OW 4450   3.331   2.322   5.405
 1184SOL    HW1 4451   3.344   2.395   5.473
 1184SOL    HW2 4452   3.276   2.357   5.330
 1185SOL     OW 4453   2.319   0.470   0.501
 1185SOL    HW1 4454   2.389   0.433   0.440
 1185SOL    HW2 4455   2.353   0.552   0.546
 1186SOL     OW 4456   5.951   0.302   6.271
 1186SOL    HW1 4457   5.893   0.221   6.264
 1186SOL    HW2 4458   6.046   0.274   6.286
 1187SOL     OW 4459   5.207   6.025   5.257
 1187SOL    HW1 4460   5.285   6.004   5.317
 1187SOL    HW2 4461   5.215   6.120   5.226
 1188SOL     OW 4462   3.271   6.485   6.323
 1188SOL    HW1 4463   3.205   6.551   6.359
 1188SOL    HW2 4464   3.341   6.534   6.271
 1189SOL     OW 4465   5.211   1.379   2.084
 1189SOL    HW1 4466   5.246   1.314   2.152
 1189SOL    HW2 4467   5.111   1.379   2.086
 1190SOL     OW 4468   4.218   4.786   4.517
 1190SOL    HW1 4469   4.282   4.774   4.593
 1190SOL    HW2 4470   4.128   4.811   4.552
 1191SOL     OW 4471   3.610   5.438   5.510
 1191SOL    HW1 4472   3.528   5.380   5.513
 1191SOL    HW2 4473   3.584   5.533   5.527
 1192SOL     OW 4474   5.547   4.848   3.185
 1192SOL    HW1 4475   5.561   4.806   3.095
 1192SOL    HW2 4476   5.542   4.777   3.255
 1193SOL     OW 4477   6.471   0.788   4.109
 1193SOL    HW1 4478   6.521   0.717   4.158
 1193SOL    HW2 4479   6.451   0.756   4.016
 1194SOL     OW 4480   0.520   1.216   1.037
 1194SOL    HW1 4481   0.558   1.157   1.108
 1194SOL    HW2 4482   0.513   1.165   0.951
 1195SOL     OW 4483   6.466   1.791   0.806
 1195SOL    HW1 4484   6.437   1.846   0.885
 1195SOL    HW2 4485   6.433   1.833   0.722
 1196SOL     OW 4486   7.019   4.874   1.932
 1196SOL    HW1 4487   6.919   4.878   1.931
 1196SOL    HW2 4488   0.032   4.943   1.995
 1197SOL     OW 4489   3.884   5.835   5.670
 1197SOL    HW1 4490   3.869   5.830   5.571
 1197SOL    HW2 4491   3.950   5.907   5.691
 1198SOL     OW 4492   2.343   2.600   2.209
 1198SOL    HW1 4493   2.414   2.566   2.271
 1198SOL    HW2 4494   2.385   2.625   2.122
 1199SOL     OW 4495   3.987   3.041   2.639
 1199SOL    HW1 4496   4.042   2.965   2.604
 1199SOL    HW2 4497   4.041   3.125   2.637
 1200SOL     OW 4498   4.141   3.469   4.786
 1200SOL    HW1 4499   4.234   3.433   4.773
 1200SOL    HW2 4500   4.119   3.471   4.883
 1201SOL     OW 4501   0.591   1.366   4.162
 1201SOL    HW1 4502   0.656   1.441   4.150
 1201SOL    HW2 4503   0.514   1.377   4.099
 1202SOL     OW 4504   6.363   0.868   5.752
 1202SOL    HW1 4505   6.379   0.838   5.846
 1202SOL    HW2 4506   6.309   0.953   5.753
 1203SOL     OW 4507   5.761   6.860   0.947
 1203SOL    HW1 4508   5.672   6.896   0.976
 1203SOL    HW2 4509   5.760   6.760   0.951
 1204SOL     OW 4510   4.124   1.116   0.415
 1204SOL    HW1 4511   4.098   1.208   0.443
 1204SOL    HW2 4512   4.045   1.055   0.422
 1205SOL     OW 4513   4.638   3.009   6.560
 1205SOL    HW1 4514   4.609   3.099   6.528
 1205SOL    HW2 4515   4.629   2.942   6.486
 1206SOL     OW 4516   1.769   1.526   4.856
 1206SOL    HW1 4517   1.833   1.595   4.822
 1206SOL    HW2 4518   1.687   1.571   4.892
 1207SOL     OW 4519   6.858   6.833   1.254
 1207SOL    HW1 4520   6.943   6.786   1.278
 1207SOL    HW2 4521   6.786   6.766   1.241
 1208SOL     OW 4522   3.757   3.851   2.708
 1208SOL    HW1 4523   3.692   3.865   2.634
 1208SOL    HW2 4524   3.713   3.867   2.796
 1209SOL     OW 4525   5.790   6.505   4.748
 1209SOL    HW1 4526   5.750   6.594   4.770
 1209SOL    HW2 4527   5.799   6.496   4.649
 1210SOL     OW 4528   4.583   6.507   2.954
 1210SOL    HW1 4529   4.602   6.541   3.046
 1210SOL    HW2 4530   4.599   6.580   2.887
 1211SOL     OW 4531   1.867   3.341   3.723
 1211SOL    HW1 4532   1.815   3.425   3.740
 1211SOL    HW2 4533   1.848   3.310   3.629
 1212SOL     OW 4534   0.353   2.284   5.292
 1212SOL    HW1 4535   0.294   2.208   5.316
 1212SOL    HW2 4536   0.303   2.350   5.236
 1213SOL     OW 4537   5.801   2.841   4.717
 1213SOL    HW1 4538   5.795   2.742   4.725
 1213SOL    HW2 4539   5.886   2.873   4.759
 1214SOL     OW 4540   1.515   3.107   4.510
 1214SOL    HW1 4541   1.604   3.148   4.491
 1214SOL    HW2 4542   1.443   3.174   4.495
 1215SOL     OW 4543   2.014   4.607   2.242
 1215SOL    HW1 4544   2.097   4.650   2.207
 1215SOL    HW2 4545   1.996   4.522   2.192
 1216SOL     OW 4546   0.426   0.324   1.779
 1216SOL    HW1 4547   0.366   0.352   1.704
 1216SOL    HW2 4548   0.505   0.276   1.743
 1217SOL     OW 4549   1.881   6.678   1.012
 1217SOL    HW1 4550   1.820   6.599   1.020
 1217SOL    HW2 4551   1.929   6.674   0.925
 1218SOL     OW 4552   1.090   2.843   4.853
 1218SOL    HW1 4553   1.072   2.922   4.912
 1218SOL    HW2 4554   1.005   2.791   4.841
 1219SOL     OW 4555   4.512   4.858   0.987
 1219SOL    HW1 4556   4.429   4.815   1.023
 1219SOL    HW2 4557   4.496   4.886   0.893
 1220SOL     OW 4558   5.057   4.256   2.375
 1220SOL    HW1 4559   4.993   4.312   2.324
 1220SOL    HW2 4560   5.141   4.308   2.391
 1221SOL     OW 4561   5.848   3.297   6.897
 1221SOL    HW1 4562   5.874   3.389   6.869
 1221SOL    HW2 4563   5.755   3.278   6.868
 1222SOL     OW 4564   0.206   0.280   1.063
 1222SOL    HW1 4565   0.135   0.247   1.001
 1222SOL    HW2 4566   0.295   0.244   1.035
 1223SOL     OW 4567   5.333   1.191   0.768
 1223SOL    HW1 4568   5.343   1.224   0.674
 1223SOL    HW2 4569   5.261   1.121   0.772
 1224SOL     OW 4570   3.592   5.975   6.945
 1224SOL    HW1 4571   3.692   5.976   6.952
 1224SOL    HW2 4572   3.557   5.887   6.977
 1225SOL     OW 4573   3.983   2.132   1.228
 1225SOL    HW1 4574   3.895   2.086   1.216
 1225SOL    HW2 4575   4.027   2.145   1.140
 1226SOL     OW 4576   5.590   6.518   1.386
 1226SOL    HW1 4577   5.679   6.482   1.412
 1226SOL    HW2 4578   5.534   6.531   1.468
 1227SOL     OW 4579   6.030   5.130   5.646
 1227SOL    HW1 4580   6.043   5.044   5.695
 1227SOL    HW2 4581   6.089   5.133   5.566
 1228SOL     OW 4582   3.700   2.998   0.631
 1228SOL    HW1 4583   3.630   3.063   0.660
 1228SOL    HW2 4584   3.774   3.047   0.584
 1229SOL     OW 4585   2.044   0.300   1.821
 1229SOL    HW1 4586   2.066   0.212   1.864
 1229SOL    HW2 4587   1.959   0.291   1.769
 1230SOL     OW 4588   5.156   5.895   2.978
 1230SOL    HW1 4589   5.238   5.952   2.984
 1230SOL    HW2 4590   5.154   5.831   3.056
 1231SOL     OW 4591   1.885   2.871   6.200
 1231SOL    HW1 4592   1.820   2.895   6.127
 1231SOL    HW2 4593   1.940   2.793   6.169
 1232SOL     OW 4594   4.632   1.315   5.413
 1232SOL    HW1 4595   4.675   1.405   5.419
 1232SOL    HW2 4596   4.533   1.325   5.424
 1233SOL     OW 4597   1.203   5.319   3.576
 1233SOL    HW1 4598   1.178   5.410   3.607
 1233SOL    HW2 4599   1.291   5.293   3.616
 1234SOL     OW 4600   0.308   2.579   6.664
 1234SOL    HW1 4601   0.405   2.557   6.670
 1234SOL    HW2 4602   0.283   2.593   6.569
 1235SOL     OW 4603   6.476   5.288   6.965
 1235SOL    HW1 4604   6.558   5.299   7.022
 1235SOL    HW2 4605   6.502   5.246   6.878
 1236SOL     OW 4606   3.466   1.849   0.355
 1236SOL    HW1 4607   3.494   1.839   0.450
 1236SOL    HW2 4608   3.455   1.759   0.314
 1237SOL     OW 4609   1.749   6.438   4.879
 1237SOL    HW1 4610   1.673   6.495   4.910
 1237SOL    HW2 4611   1.722   6.387   4.798
 1238SOL     OW 4612   0.178   0.012   3.538
 1238SOL    HW1 4613   0.213   0.085   3.596
 1238SOL    HW2 4614   0.144   0.050   3.452
 1239SOL     OW 4615   6.752   5.306   4.721
 1239SOL    HW1 4616   6.790   5.394   4.748
 1239SOL    HW2 4617   6.725   5.255   4.803
 1240SOL     OW 4618   5.953   5.293   2.171
 1240SOL    HW1 4619   5.923   5.199   2.188
 1240SOL    HW2 4620   5.876   5.356   2.184
 1241SOL     OW 4621   6.943   4.817   4.994
 1241SOL    HW1 4622   6.971   4.890   5.057
 1241SOL    HW2 4623   6.939   4.854   4.901
 1242SOL     OW 4624   2.077   3.813   0.523
 1242SOL    HW1 4625   2.039   3.834   0.613
 1242SOL    HW2 4626   2.004   3.811   0.455
 1243SOL     OW 4627   0.173   1.994   4.615
 1243SOL    HW1 4628   0.213   1.902   4.624
 1243SOL    HW2 4629   0.203   2.036   4.530
 1244SOL     OW 4630   5.343   0.063   5.179
 1244SOL    HW1 4631   5.379   0.152   5.207
 1244SOL    HW2 4632   5.412   7.015   5.193
 1245SOL     OW 4633   5.141   6.033   1.187
 1245SOL    HW1 4634   5.057   6.027   1.241
 1245SOL    HW2 4635   5.135   6.111   1.125
 1246SOL     OW 4636   4.006   1.327   2.314
 1246SOL    HW1 4637   4.007   1.343   2.216
 1246SOL    HW2 4638   4.094   1.289   2.343
 1247SOL     OW 4639   6.158   6.740   4.609
 1247SOL    HW1 4640   6.204   6.825   4.581
 1247SOL    HW2 4641   6.063   6.742   4.578
 1248SOL     OW 4642   0.872   6.344   3.738
 1248SOL    HW1 4643   0.773   6.341   3.728
 1248SOL    HW2 4644   0.905   6.259   3.779
 1249SOL     OW 4645   6.783   4.280   1.661
 1249SOL    HW1 4646   6.731   4.195   1.664
 1249SOL    HW2 4647   6.757   4.337   1.739
 1250SOL     OW 4648   6.472   3.055   5.320
 1250SOL    HW1 4649   6.435   3.135   5.366
 1250SOL    HW2 4650   6.443   3.055   5.224
 1251SOL     OW 4651   2.039   0.723   2.689
 1251SOL    HW1 4652   2.020   0.752   2.783
 1251SOL    HW2 4653   1.991   0.637   2.670
 1252SOL     OW 4654   3.608   5.322   6.373
 1252SOL    HW1 4655   3.587   5.417   6.394
 1252SOL    HW2 4656   3.705   5.305   6.390
 1253SOL     OW 4657   2.816   0.895   1.581
 1253SOL    HW1 4658   2.801   0.843   1.497
 1253SOL    HW2 4659   2.772   0.984   1.574
 1254SOL     OW 4660   6.497   1.522   3.355
 1254SOL    HW1 4661   6.499   1.617   3.325
 1254SOL    HW2 4662   6.585   1.479   3.336
 1255SOL     OW 4663   5.744   2.942   5.153
 1255SOL    HW1 4664   5.738   2.857   5.102
 1255SOL    HW2 4665   5.834   2.983   5.138
 1256SOL     OW 4666   0.023   6.151   2.956
 1256SOL    HW1 4667   6.998   6.108   3.033
 1256SOL    HW2 4668   0.011   6.095   2.874
 1257SOL     OW 4669   6.667   4.735   4.257
 1257SOL    HW1 4670   6.767   4.746   4.253
 1257SOL    HW2 4671   6.634   4.701   4.170
 1258SOL     OW 4672   2.304   6.228   2.674
 1258SOL    HW1 4673   2.294   6.186   2.765
 1258SOL    HW2 4674   2.214   6.251   2.639
 1259SOL     OW 4675   3.642   6.695   4.875
 1259SOL    HW1 4676   3.569   6.681   4.808
 1259SOL    HW2 4677   3.656   6.793   4.888
 1260SOL     OW 4678   3.234   1.014   2.030
 1260SOL    HW1 4679   3.301   1.083   2.006
 1260SOL    HW2 4680   3.146   1.058   2.048
 1261SOL     OW 4681   6.763   3.388   0.263
 1261SOL    HW1 4682   6.821   3.468   0.276
 1261SOL    HW2 4683   6.687   3.390   0.329
 1262SOL     OW 4684   4.691   4.408   0.880
 1262SOL    HW1 4685   4.658   4.497   0.846
 1262SOL    HW2 4686   4.703   4.413   0.979
 1263SOL     OW 4687   6.076   1.988   1.224
 1263SOL    HW1 4688   6.047   1.905   1.176
 1263SOL    HW2 4689   6.165   1.974   1.266
 1264SOL     OW 4690   0.337   4.280   2.961
 1264SOL    HW1 4691   0.384   4.360   3.000
 1264SOL    HW2 4692   0.399   4.202   2.960
 1265SOL     OW 4693   6.538   4.542   3.696
 1265SOL    HW1 4694   6.482   4.623   3.711
 1265SOL    HW2 4695   6.632   4.569   3.673
 1266SOL     OW 4696   2.410   0.926   3.979
 1266SOL    HW1 4697   2.506   0.910   3.959
 1266SOL    HW2 4698   2.393   0.917   4.077
 1267SOL     OW 4699   5.800   5.826   1.574
 1267SOL    HW1 4700   5.709   5.792   1.599
 1267SOL    HW2 4701   5.805   5.841   1.476
 1268SOL     OW 4702   5.196   2.303   0.194
 1268SOL    HW1 4703   5.109   2.350   0.182
 1268SOL    HW2 4704   5.183   2.222   0.251
 1269SOL     OW 4705   5.997   6.503   4.987
 1269SOL    HW1 4706   5.922   6.569   4.980
 1269SOL    HW2 4707   5.984   6.447   5.069
 1270SOL     OW 4708   2.126   4.201   4.169
 1270SOL    HW1 4709   2.135   4.192   4.268
 1270SOL    HW2 4710   2.180   4.279   4.138
 1271SOL     OW 4711   3.553   1.700   3.061
 1271SOL    HW1 4712   3.536   1.708   2.963
 1271SOL    HW2 4713   3.468   1.673   3.107
 1272SOL     OW 4714   6.947   6.187   1.092
 1272SOL    HW1 4715   6.935   6.090   1.071
 1272SOL    HW2 4716   7.000   6.197   1.176
 1273SOL     OW 4717   2.219   3.858   6.980
 1273SOL    HW1 4718   2.163   3.836   6.900
 1273SOL    HW2 4719   2.288   3.787   6.993
 1274SOL     OW 4720   6.773   3.197   1.537
 1274SOL    HW1 4721   6.837   3.186   1.460
 1274SOL    HW2 4722   6.791   3.127   1.605
 1275SOL     OW 4723   4.554   0.467   3.196
 1275SOL    HW1 4724   4.593   0.384   3.157
 1275SOL    HW2 4725   4.519   0.525   3.122
 1276SOL     OW 4726   6.945   0.569   3.475
 1276SOL    HW1 4727   6.874   0.508   3.440
 1276SOL    HW2 4728   6.981   0.624   3.400
 1277SOL     OW 4729   0.825   0.561   4.583
 1277SOL    HW1 4730   0.919   0.550   4.549
 1277SOL    HW2 4731   0.766   0.493   4.540
 1278SOL     OW 4732   1.659   1.630   5.456
 1278SOL    HW1 4733   1.588   1.559   5.445
 1278SOL    HW2 4734   1.712   1.611   5.538
 1279SOL     OW 4735   2.062   0.091   0.840
 1279SOL    HW1 4736   2.042   0.095   0.742
 1279SOL    HW2 4737   2.055   0.182   0.880
 1280SOL     OW 4738   2.556   6.297   3.508
 1280SOL    HW1 4739   2.502   6.338   3.434
 1280SOL    HW2 4740   2.587   6.207   3.481
 1281SOL     OW 4741   1.107   5.675   3.071
 1281SOL    HW1 4742   1.202   5.698   3.050
 1281SOL    HW2 4743   1.058   5.757   3.101
 1282SOL     OW 4744   1.078   0.930   0.606
 1282SOL    HW1 4745   1.064   1.004   0.672
 1282SOL    HW2 4746   1.168   0.941   0.562
 1283SOL     OW 4747   5.488   2.957   5.310
 1283SOL    HW1 4748   5.572   2.959   5.256
 1283SOL    HW2 4749   5.410   2.982   5.252
 1284SOL     OW 4750   3.407   2.989   1.792
 1284SOL    HW1 4751   3.410   2.890   1.780
 1284SOL    HW2 4752   3.402   3.033   1.702
 1285SOL     OW 4753   5.593   3.397   6.375
 1285SOL    HW1 4754   5.546   3.356   6.296
 1285SOL    HW2 4755   5.634   3.325   6.430
 1286SOL     OW 4756   4.637   4.335   2.488
 1286SOL    HW1 4757   4.646   4.310   2.391
 1286SOL    HW2 4758   4.693   4.273   2.543
 1287SOL     OW 4759   5.488   4.449   6.439
 1287SOL    HW1 4760   5.587   4.455   6.430
 1287SOL    HW2 4761   5.459   4.498   6.521
 1288SOL     OW 4762   6.678   3.674   1.607
 1288SOL    HW1 4763   6.615   3.718   1.544
 1288SOL    HW2 4764   6.627   3.624   1.676
 1289SOL     OW 4765   0.736   6.125   2.073
 1289SOL    HW1 4766   0.763   6.083   2.159
 1289SOL    HW2 4767   0.778   6.216   2.066
 1290SOL     OW 4768   0.608   1.066   0.378
 1290SOL    HW1 4769   0.598   1.106   0.287
 1290SOL    HW2 4770   0.675   0.991   0.375
 1291SOL     OW 4771   1.293   4.230   6.105
 1291SOL    HW1 4772   1.297   4.312   6.048
 1291SOL    HW2 4773   1.375   4.175   6.090
 1292SOL     OW 4774   6.611   5.171   2.240
 1292SOL    HW1 4775   6.522   5.182   2.283
 1292SOL    HW2 4776   6.642   5.259   2.204
 1293SOL     OW 4777   2.680   1.328   6.314
 1293SOL    HW1 4778   2.759   1.325   6.374
 1293SOL    HW2 4779   2.605   1.377   6.359
 1294SOL     OW 4780   0.727   3.114   1.192
 1294SOL    HW1 4781   0.756   3.205   1.160
 1294SOL    HW2 4782   0.794   3.046   1.161
 1295SOL     OW 4783   6.448   3.584   2.686
 1295SOL    HW1 4784   6.457   3.611   2.591
 1295SOL    HW2 4785   6.499   3.500   2.702
 1296SOL     OW 4786   4.195   1.194   5.686
 1296SOL    HW1 4787   4.279   1.233   5.725
 1296SOL    HW2 4788   4.148   1.263   5.632
 1297SOL     OW 4789   5.878   0.850   6.487
 1297SOL    HW1 4790   5.791   0.898   6.486
 1297SOL    HW2 4791   5.876   0.780   6.558
 1298SOL     OW 4792   6.300   3.518   3.394
 1298SOL    HW1 4793   6.345   3.567   3.319
 1298SOL    HW2 4794   6.285   3.423   3.367
 1299SOL     OW 4795   0.881   3.615   2.546
 1299SOL    HW1 4796   0.810   3.580   2.607
 1299SOL    HW2 4797   0.839   3.651   2.463
 1300SOL     OW 4798   3.522   3.601   2.396
 1300SOL    HW1 4799   3.526   3.699   2.415
 1300SOL    HW2 4800   3.586   3.578   2.323
 1301SOL     OW 4801   0.872   5.976   2.666
 1301SOL    HW1 4802   0.939   6.013   2.601
 1301SOL    HW2 4803   0.780   5.999   2.636
 1302SOL     OW 4804   3.170   0.094   4.912
 1302SOL    HW1 4805   3.138   0.115   4.820
 1302SOL    HW2 4806   3.260   0.136   4.927
 1303SOL     OW 4807   4.145   1.677   0.490
 1303SOL    HW1 4808   4.198   1.634   0.562
 1303SOL    HW2 4809   4.196   1.754   0.452
 1304SOL     OW 4810   1.785   1.400   6.676
 1304SOL    HW1 4811   1.863   1.339   6.662
 1304SOL    HW2 4812   1.766   1.449   6.591
 1305SOL     OW 4813   6.054   5.797   6.568
 1305SOL    HW1 4814   6.039   5.894   6.585
 1305SOL    HW2 4815   6.056   5.781   6.469
 1306SOL     OW 4816   0.539   4.908   5.337
 1306SOL    HW1 4817   0.634   4.900   5.306
 1306SOL    HW2 4818   0.489   4.824   5.314
 1307SOL     OW 4819   1.840   2.895   4.353
 1307SOL    HW1 4820   1.768   2.838   4.393
 1307SOL    HW2 4821   1.916   2.901   4.417
 1308SOL     OW 4822   3.833   5.735   4.870
 1308SOL    HW1 4823   3.852   5.649   4.918
 1308SOL    HW2 4824   3.875   5.733   4.779
 1309SOL     OW 4825   5.286   2.993   5.126
 1309SOL    HW1 4826   5.276   3.091   5.104
 1309SOL    HW2 4827   5.206   2.963   5.178
 1310SOL     OW 4828   6.148   3.816   4.918
 1310SOL    HW1 4829   6.130   3.861   5.006
 1310SOL    HW2 4830   6.223   3.863   4.872
 1311SOL     OW 4831   6.498   6.459   4.009
 1311SOL    HW1 4832   6.494   6.493   4.103
 1311SOL    HW2 4833   6.407   6.426   3.982
 1312SOL     OW 4834   0.910   0.493   6.801
 1312SOL    HW1 4835   0.873   0.417   6.747
 1312SOL    HW2 4836   0.914   0.575   6.745
 1313SOL     OW 4837   1.740   5.451   5.711
 1313SOL    HW1 4838   1.714   5.539   5.670
 1313SOL    HW2 4839   1.728   5.378   5.645
 1314SOL     OW 4840   2.239   1.908   5.502
 1314SOL    HW1 4841   2.280   1.971   5.568
 1314SOL    HW2 4842   2.210   1.824   5.548
 1315SOL     OW 4843   0.902   1.216   0.289
 1315SOL    HW1 4844   1.000   1.214   0.270
 1315SOL    HW2 4845   0.853   1.167   0.217
 1316SOL     OW 4846   2.015   6.740   3.566
 1316SOL    HW1 4847   1.974   6.724   3.656
 1316SOL    HW2 4848   2.079   6.667   3.546
 1317SOL     OW 4849   1.235   3.913   4.754
 1317SOL    HW1 4850   1.221   3.917   4.655
 1317SOL    HW2 4851   1.328   3.883   4.773
 1318SOL     OW 4852   0.060   0.812   0.532
 1318SOL    HW1 4853   0.028   0.895   0.488
 1318SOL    HW2 4854   0.012   0.800   0.619
 1319SOL     OW 4855   6.629   1.589   0.302
 1319SOL    HW1 4856   6.566   1.572   0.226
 1319SOL    HW2 4857   6.717   1.617   0.266
 1320SOL     OW 4858   5.867   3.901   0.199
 1320SOL    HW1 4859   5.909   3.877   0.286
 1320SOL    HW2 4860   5.857   3.818   0.143
 1321SOL     OW 4861   4.057   2.788   6.303
 1321SOL    HW1 4862   4.066   2.701   6.255
 1321SOL    HW2 4863   4.148   2.821   6.330
 1322SOL     OW 4864   5.452   0.785   3.182
 1322SOL    HW1 4865   5.523   0.827   3.125
 1322SOL    HW2 4866   5.437   0.841   3.263
 1323SOL     OW 4867   4.986   2.036   5.398
 1323SOL    HW1 4868   4.918   1.973   5.359
 1323SOL    HW2 4869   5.078   2.000   5.381
 1324SOL     OW 4870   1.036   2.641   1.793
 1324SOL    HW1 4871   1.054   2.617   1.888
 1324SOL    HW2 4872   0.992   2.565   1.746
 1325SOL     OW 4873   2.885   6.852   1.912
 1325SOL    HW1 4874   2.944   6.923   1.873
 1325SOL    HW2 4875   2.845   6.884   1.997
 1326SOL     OW 4876   4.740   2.867   4.823
 1326SOL    HW1 4877   4.813   2.904   4.880
 1326SOL    HW2 4878   4.732   2.921   4.739
 1327SOL     OW 4879   2.958   5.370   2.672
 1327SOL    HW1 4880   3.033   5.393   2.609
 1327SOL    HW2 4881   2.994   5.364   2.765
 1328SOL     OW 4882   0.840   3.000   0.906
 1328SOL    HW1 4883   0.831   2.931   0.833
 1328SOL    HW2 4884   0.854   2.954   0.994
 1329SOL     OW 4885   0.141   1.679   0.359
 1329SOL    HW1 4886   0.205   1.686   0.283
 1329SOL    HW2 4887   0.142   1.585   0.394
 1330SOL     OW 4888   6.684   0.180   1.081
 1330SOL    HW1 4889   6.630   0.173   1.164
 1330SOL    HW2 4890   6.723   0.271   1.074
 1331SOL     OW 4891   4.576   2.158   2.763
 1331SOL    HW1 4892   4.564   2.068   2.721
 1331SOL    HW2 4893   4.645   2.210   2.713
 1332SOL     OW 4894   3.212   6.961   7.003
 1332SOL    HW1 4895   3.133   7.019   6.983
 1332SOL    HW2 4896   3.286   6.983   6.939
 1333SOL     OW 4897   3.841   4.143   6.448
 1333SOL    HW1 4898   3.880   4.205   6.380
 1333SOL    HW2 4899   3.749   4.116   6.420
 1334SOL     OW 4900   0.411   2.880   4.317
 1334SOL    HW1 4901   0.374   2.830   4.395
 1334SOL    HW2 4902   0.474   2.821   4.267
 1335SOL     OW 4903   3.162   6.393   3.192
 1335SOL    HW1 4904   3.107   6.336   3.132
 1335SOL    HW2 4905   3.150   6.362   3.287
 1336SOL     OW 4906   1.855   1.265   6.303
 1336SOL    HW1 4907   1.931   1.290   6.363
 1336SOL    HW2 4908   1.771   1.308   6.337
 1337SOL     OW 4909   0.937   1.508   5.156
 1337SOL    HW1 4910   0.990   1.561   5.090
 1337SOL    HW2 4911   0.871   1.567   5.201
 1338SOL     OW 4912   4.397   3.715   5.825
 1338SOL    HW1 4913   4.496   3.718   5.806
 1338SOL    HW2 4914   4.347   3.701   5.740
 1339SOL     OW 4915   0.011   6.707   0.015
 1339SOL    HW1 4916   7.001   6.749   0.100
 1339SOL    HW2 4917   0.110   6.696   0.018
 1340SOL     OW 4918   1.117   1.608   2.096
 1340SOL    HW1 4919   1.083   1.539   2.033
 1340SOL    HW2 4920   1.072   1.696   2.078
 1341SOL     OW 4921   3.829   0.248   5.376
 1341SOL    HW1 4922   3.760   0.199   5.321
 1341SOL    HW2 4923   3.883   0.307   5.316
 1342SOL     OW 4924   0.997   4.928   6.021
 1342SOL    HW1 4925   0.921   4.982   6.059
 1342SOL    HW2 4926   1.025   4.968   5.933
 1343SOL     OW 4927   4.077   6.653   2.658
 1343SOL    HW1 4928   4.022   6.570   2.649
 1343SOL    HW2 4929   4.167   6.639   2.617
 1344SOL     OW 4930   6.702   3.941   3.423
 1344SOL    HW1 4931   6.717   3.913   3.518
 1344SOL    HW2 4932   6.659   4.031   3.421
 1345SOL     OW 4933   0.731   1.740   3.603
 1345SOL    HW1 4934   0.807   1.681   3.630
 1345SOL    HW2 4935   0.667   1.749   3.679
 1346SOL     OW 4936   2.070   6.975   2.889
 1346SOL    HW1 4937   1.991   0.006   2.861
 1346SOL    HW2 4938   2.151   7.007   2.840
 1347SOL     OW 4939   6.300   6.169   3.636
 1347SOL    HW1 4940   6.382   6.221   3.659
 1347SOL    HW2 4941   6.281   6.103   3.708
 1348SOL     OW 4942   5.602   5.434   2.867
 1348SOL    HW1 4943   5.667   5.505   2.839
 1348SOL    HW2 4944   5.514   5.477   2.890
 1349SOL     OW 4945   4.957   2.611   6.320
 1349SOL    HW1 4946   4.893   2.626   6.395
 1349SOL    HW2 4947   4.986   2.700   6.283
 1350SOL     OW 4948   3.849   4.730   6.870
 1350SOL    HW1 4949   3.878   4.653   6.814
 1350SOL    HW2 4950   3.869   4.815   6.823
 1351SOL     OW 4951   0.246   1.582   2.927
 1351SOL    HW1 4952   0.267   1.672   2.967
 1351SOL    HW2 4953   0.147   1.568   2.926
 1352SOL     OW 4954   0.635   0.886   3.268
 1352SOL    HW1 4955   0.699   0.833   3.324
 1352SOL    HW2 4956   0.644   0.859   3.172
 1353SOL     OW 4957   7.012   4.243   5.863
 1353SOL    HW1 4958   0.046   4.206   5.937
 1353SOL    HW2 4959   6.920   4.261   5.898
 1354SOL     OW 4960   0.075   2.024   0.524
 1354SOL    HW1 4961   0.100   1.930   0.548
 1354SOL    HW2 4962   0.158   2.079   0.513
 1355SOL     OW 4963   5.374   3.487   6.090
 1355SOL    HW1 4964   5.295   3.508   6.148
 1355SOL    HW2 4965   5.435   3.566   6.088
 1356SOL     OW 4966   3.306   3.925   4.172
 1356SOL    HW1 4967   3.306   3.980   4.256
 1356SOL    HW2 4968   3.265   3.977   4.098
 1357SOL     OW 4969   2.728   3.188   5.977
 1357SOL    HW1 4970   2.670   3.205   5.897
 1357SOL    HW2 4971   2.695   3.106   6.025
 1358SOL     OW 4972   2.980   1.740   6.479
 1358SOL    HW1 4973   2.949   1.659   6.529
 1358SOL    HW2 4974   3.080   1.747   6.486
 1359SOL     OW 4975   6.922   4.666   1.123
 1359SOL    HW1 4976   6.894   4.762   1.112
 1359SOL    HW2 4977   6.933   4.625   1.033
 1360SOL     OW 4978   4.125   3.569   2.800
 1360SOL    HW1 4979   4.052   3.544   2.864
 1360SOL    HW2 4980   4.214   3.548   2.842
 1361SOL     OW 4981   6.851   6.932   6.704
 1361SOL    HW1 4982   6.829   7.009   6.764
 1361SOL    HW2 4983   6.931   6.955   6.649
 1362SOL     OW 4984   2.880   3.573   4.591
 1362SOL    HW1 4985   2.796   3.523   4.612
 1362SOL    HW2 4986   2.947   3.557   4.664
 1363SOL     OW 4987   6.825   6.154   3.784
 1363SOL    HW1 4988   6.819   6.121   3.879
 1363SOL    HW2 4989   6.920   6.175   3.762
 1364SOL     OW 4990   0.243   2.344   6.857
 1364SOL    HW1 4991   0.199   2.276   6.799
 1364SOL    HW2 4992   0.189   2.429   6.854
 1365SOL     OW 4993   1.409   3.558   5.389
 1365SOL    HW1 4994   1.369   3.601   5.469
 1365SOL    HW2 4995   1.423   3.461   5.407
 1366SOL     OW 4996   0.295   3.996   0.932
 1366SOL    HW1 4997   0.306   4.027   1.027
 1366SOL    HW2 4998   0.370   3.935   0.908
 1367SOL     OW 4999   1.037   5.425   3.050
 1367SOL    HW1 5000   1.075   5.516   3.032
 1367SOL    HW2 5001   1.023   5.377   2.964
 1368SOL     OW 5002   6.649   0.655   4.277
 1368SOL    HW1 5003   6.737   0.702   4.288
 1368SOL    HW2 5004   6.663   0.556   4.284
 1369SOL     OW 5005   2.258   6.602   2.064
 1369SOL    HW1 5006   2.336   6.582   2.123
 1369SOL    HW2 5007   2.288   6.652   1.983
 1370SOL     OW 5008   6.352   2.141   4.239
 1370SOL    HW1 5009   6.361   2.133   4.139
 1370SOL    HW2 5010   6.256   2.153   4.262
 1371SOL     OW 5011   4.831   1.113   4.768
 1371SOL    HW1 5012   4.752   1.081   4.820
 1371SOL    HW2 5013   4.800   1.150   4.681
 1372SOL     OW 5014   0.019   1.877   1.232
 1372SOL    HW1 5015   0.017   1.940   1.154
 1372SOL    HW2 5016   0.032   1.784   1.200
 1373SOL     OW 5017   4.693   2.113   0.378
 1373SOL    HW1 5018   4.778   2.119   0.430
 1373SOL    HW2 5019   4.710   2.140   0.283
 1374SOL     OW 5020   5.439   4.262   6.881
 1374SOL    HW1 5021   5.359   4.287   6.827
 1374SOL    HW2 5022   5.424   4.288   6.977
 1375SOL     OW 5023   0.062   6.817   6.482
 1375SOL    HW1 5024   0.082   6.830   6.385
 1375SOL    HW2 5025   0.113   6.738   6.517
 1376SOL     OW 5026   3.629   4.687   5.488
 1376SOL    HW1 5027   3.616   4.773   5.438
 1376SOL    HW2 5028   3.542   4.657   5.526
 1377SOL     OW 5029   1.264   3.190   3.592
 1377SOL    HW1 5030   1.322   3.139   3.656
 1377SOL    HW2 5031   1.174   3.203   3.632
 1378SOL     OW 5032   5.295   2.556   4.933
 1378SOL    HW1 5033   5.280   2.458   4.947
 1378SOL    HW2 5034   5.223   2.593   4.873
 1379SOL     OW 5035   4.394   5.533   2.944
 1379SOL    HW1 5036   4.474   5.539   3.003
 1379SOL    HW2 5037   4.422   5.535   2.848
 1380SOL     OW 5038   0.017   6.460   2.913
 1380SOL    HW1 5039   6.950   6.498   2.892
 1380SOL    HW2 5040   0.015   6.360   2.903
 1381SOL     OW 5041   5.867   1.877   0.140
 1381SOL    HW1 5042   5.860   1.967   0.183
 1381SOL    HW2 5043   5.775   1.845   0.116
 1382SOL     OW 5044   5.062   3.094   1.214
 1382SOL    HW1 5045   5.004   3.169   1.184
 1382SOL    HW2 5046   5.081   3.103   1.312
 1383SOL     OW 5047   1.168   0.326   1.531
 1383SOL    HW1 5048   1.154   0.289   1.439
 1383SOL    HW2 5049   1.085   0.312   1.586
 1384SOL     OW 5050   4.689   6.956   1.658
 1384SOL    HW1 5051   4.688   6.872   1.713
 1384SOL    HW2 5052   4.627   6.945   1.580
 1385SOL     OW 5053   2.753   4.795   3.524
 1385SOL    HW1 5054   2.673   4.841   3.562
 1385SOL    HW2 5055   2.815   4.768   3.598
 1386SOL     OW 5056   3.403   0.290   3.995
 1386SOL    HW1 5057   3.445   0.198   3.995
 1386SOL    HW2 5058   3.371   0.312   3.903
 1387SOL     OW 5059   3.497   5.800   2.794
 1387SOL    HW1 5060   3.569   5.865   2.821
 1387SOL    HW2 5061   3.407   5.841   2.814
 1388SOL     OW 5062   6.713   6.852   2.122
 1388SOL    HW1 5063   6.746   6.896   2.205
 1388SOL    HW2 5064   6.750   6.759   2.116
 1389SOL     OW 5065   6.218   1.847   4.268
 1389SOL    HW1 5066   6.179   1.818   4.181
 1389SOL    HW2 5067   6.296   1.789   4.291
 1390SOL     OW 5068   0.531   3.693   6.601
 1390SOL    HW1 5069   0.601   3.664   6.535
 1390SOL    HW2 5070   0.462   3.621   6.609
 1391SOL     OW 5071   5.926   6.533   4.460
 1391SOL    HW1 5072   5.876   6.466   4.405
 1391SOL    HW2 5073   6.010   6.490   4.495
 1392SOL     OW 5074   6.085   6.212   6.353
 1392SOL    HW1 5075   6.174   6.183   6.319
 1392SOL    HW2 5076   6.031   6.248   6.277
 1393SOL     OW 5077   6.116   4.756   5.159
 1393SOL    HW1 5078   6.179   4.702   5.215
 1393SOL    HW2 5079   6.053   4.805   5.218
 1394SOL     OW 5080   3.416   5.236   5.523
 1394SOL    HW1 5081   3.344   5.224   5.454
 1394SOL    HW2 5082   3.468   5.150   5.532
 1395SOL     OW 5083   2.585   4.385   5.737
 1395SOL    HW1 5084   2.656   4.402   5.669
 1395SOL    HW2 5085   2.582   4.460   5.803
 1396SOL     OW 5086   0.972   1.274   5.276
 1396SOL    HW1 5087   0.960   1.356   5.220
 1396SOL    HW2 5088   1.069   1.254   5.286
 1397SOL     OW 5089   6.959   0.175   4.063
 1397SOL    HW1 5090   6.931   0.136   4.150
 1397SOL    HW2 5091   6.893   0.245   4.035
 1398SOL     OW 5092   3.100   0.490   6.314
 1398SOL    HW1 5093   3.101   0.460   6.218
 1398SOL    HW2 5094   3.182   0.456   6.360
 1399SOL     OW 5095   3.745   5.435   0.327
 1399SOL    HW1 5096   3.658   5.397   0.295
 1399SOL    HW2 5097   3.819   5.370   0.309
 1400SOL     OW 5098   7.015   1.510   2.900
 1400SOL    HW1 5099   7.011   1.413   2.923
 1400SOL    HW2 5100   6.923   1.545   2.883
 1401SOL     OW 5101   6.254   1.406   4.575
 1401SOL    HW1 5102   6.278   1.378   4.482
 1401SOL    HW2 5103   6.291   1.341   4.641
 1402SOL     OW 5104   6.910   3.782   0.004
 1402SOL    HW1 5105   6.958   3.718   6.967
 1402SOL    HW2 5106   6.883   3.863   6.975
 1403SOL     OW 5107   2.188   2.531   1.532
 1403SOL    HW1 5108   2.250   2.480   1.592
 1403SOL    HW2 5109   2.218   2.627   1.527
 1404SOL     OW 5110   5.891   6.617   0.196
 1404SOL    HW1 5111   5.985   6.646   0.181
 1404SOL    HW2 5112   5.829   6.692   0.174
 1405SOL     OW 5113   2.172   3.890   1.035
 1405SOL    HW1 5114   2.094   3.840   1.073
 1405SOL    HW2 5115   2.154   3.988   1.040
 1406SOL     OW 5116   0.981   5.467   0.910
 1406SOL    HW1 5117   0.941   5.459   1.001
 1406SOL    HW2 5118   1.074   5.502   0.918
 1407SOL     OW 5119   0.461   2.412   2.448
 1407SOL    HW1 5120   0.490   2.372   2.361
 1407SOL    HW2 5121   0.494   2.357   2.524
 1408SOL     OW 5122   5.297   1.045   5.929
 1408SOL    HW1 5123   5.348   1.130   5.946
 1408SOL    HW2 5124   5.203   1.068   5.904
 1409SOL     OW 5125   0.516   0.281   5.400
 1409SOL    HW1 5126   0.470   0.293   5.312
 1409SOL    HW2 5127   0.614   0.292   5.388
 1410SOL     OW 5128   1.514   3.012   6.468
 1410SOL    HW1 5129   1.528   2.969   6.557
 1410SOL    HW2 5130   1.573   3.092   6.460
 1411SOL     OW 5131   3.073   6.706   1.218
 1411SOL    HW1 5132   3.149   6.708   1.284
 1411SOL    HW2 5133   3.108   6.730   1.127
 1412SOL     OW 5134   0.328   1.751   1.173
 1412SOL    HW1 5135   0.262   1.696   1.122
 1412SOL    HW2 5136   0.413   1.758   1.120
 1413SOL     OW 5137   1.795   2.129   5.501
 1413SOL    HW1 5138   1.820   2.062   5.571
 1413SOL    HW2 5139   1.878   2.165   5.459
 1414SOL     OW 5140   2.445   1.468   2.421
 1414SOL    HW1 5141   2.429   1.453   2.324
 1414SOL    HW2 5142   2.519   1.409   2.453
 1415SOL     OW 5143   2.534   0.850   4.740
 1415SOL    HW1 5144   2.614   0.884   4.791
 1415SOL    HW2 5145   2.565   0.794   4.663
 1416SOL     OW 5146   4.945   5.245   4.577
 1416SOL    HW1 5147   4.978   5.214   4.665
 1416SOL    HW2 5148   4.956   5.172   4.509
 1417SOL     OW 5149   2.844   2.161   0.197
 1417SOL    HW1 5150   2.806   2.108   0.273
 1417SOL    HW2 5151   2.789   2.146   0.116
 1418SOL     OW 5152   3.048   3.907   3.175
 1418SOL    HW1 5153   3.108   3.830   3.154
 1418SOL    HW2 5154   2.955   3.886   3.143
 1419SOL     OW 5155   2.755   5.543   4.633
 1419SOL    HW1 5156   2.849   5.531   4.602
 1419SOL    HW2 5157   2.740   5.638   4.661
 1420SOL     OW 5158   2.870   0.241   1.013
 1420SOL    HW1 5159   2.956   0.293   1.018
 1420SOL    HW2 5160   2.802   0.285   1.072
 1421SOL     OW 5161   1.761   4.152   3.171
 1421SOL    HW1 5162   1.836   4.203   3.214
 1421SOL    HW2 5163   1.682   4.213   3.160
 1422SOL     OW 5164   1.377   3.829   1.322
 1422SOL    HW1 5165   1.308   3.764   1.353
 1422SOL    HW2 5166   1.331   3.909   1.283
 1423SOL     OW 5167   5.055   6.434   3.249
 1423SOL    HW1 5168   4.999   6.408   3.327
 1423SOL    HW2 5169   5.134   6.487   3.280
 1424SOL     OW 5170   6.510   5.344   6.417
 1424SOL    HW1 5171   6.557   5.426   6.449
 1424SOL    HW2 5172   6.536   5.326   6.322
 1425SOL     OW 5173   0.879   6.048   4.930
 1425SOL    HW1 5174   0.898   6.117   5.000
 1425SOL    HW2 5175   0.884   6.090   4.839
 1426SOL     OW 5176   1.917   3.332   6.079
 1426SOL    HW1 5177   1.910   3.330   5.979
 1426SOL    HW2 5178   2.000   3.283   6.107
 1427SOL     OW 5179   0.279   0.417   3.576
 1427SOL    HW1 5180   0.303   0.323   3.599
 1427SOL    HW2 5181   0.190   0.440   3.614
 1428SOL     OW 5182   6.788   3.045   0.391
 1428SOL    HW1 5183   6.724   3.095   0.449
 1428SOL    HW2 5184   6.788   2.948   0.416
 1429SOL     OW 5185   4.520   2.077   7.003
 1429SOL    HW1 5186   4.547   2.161   0.027
 1429SOL    HW2 5187   4.432   2.045   0.015
 1430SOL     OW 5188   1.821   4.619   3.883
 1430SOL    HW1 5189   1.901   4.595   3.937
 1430SOL    HW2 5190   1.843   4.616   3.786
 1431SOL     OW 5191   2.574   2.087   0.772
 1431SOL    HW1 5192   2.569   2.175   0.820
 1431SOL    HW2 5193   2.653   2.035   0.805
 1432SOL     OW 5194   2.789   1.582   2.452
 1432SOL    HW1 5195   2.830   1.534   2.374
 1432SOL    HW2 5196   2.725   1.652   2.418
 1433SOL     OW 5197   4.043   0.689   5.100
 1433SOL    HW1 5198   4.088   0.645   5.022
 1433SOL    HW2 5199   4.111   0.710   5.170
 1434SOL     OW 5200   0.119   0.195   5.599
 1434SOL    HW1 5201   0.106   0.194   5.698
 1434SOL    HW2 5202   0.213   0.170   5.578
 1435SOL     OW 5203   6.169   0.409   3.269
 1435SOL    HW1 5204   6.185   0.310   3.269
 1435SOL    HW2 5205   6.085   0.429   3.219
 1436SOL     OW 5206   5.488   3.917   0.091
 1436SOL    HW1 5207   5.550   3.976   0.144
 1436SOL    HW2 5208   5.394   3.943   0.110
 1437SOL     OW 5209   2.670   2.302   3.587
 1437SOL    HW1 5210   2.576   2.269   3.588
 1437SOL    HW2 5211   2.728   2.239   3.534
 1438SOL     OW 5212   3.249   5.973   1.417
 1438SOL    HW1 5213   3.269   5.879   1.388
 1438SOL    HW2 5214   3.156   5.977   1.454
 1439SOL     OW 5215   6.886   5.537   1.360
 1439SOL    HW1 5216   6.843   5.555   1.449
 1439SOL    HW2 5217   6.974   5.492   1.375
 1440SOL     OW 5218   3.188   2.822   6.686
 1440SOL    HW1 5219   3.233   2.910   6.696
 1440SOL    HW2 5220   3.098   2.835   6.644
 1441SOL     OW 5221   6.370   0.677   3.848
 1441SOL    HW1 5222   6.276   0.665   3.878
 1441SOL    HW2 5223   6.372   0.684   3.748
 1442SOL     OW 5224   0.379   6.074   0.366
 1442SOL    HW1 5225   0.417   6.006   0.429
 1442SOL    HW2 5226   0.391   6.043   0.272
 1443SOL     OW 5227   0.515   3.222   3.708
 1443SOL    HW1 5228   0.531   3.306   3.760
 1443SOL    HW2 5229   0.540   3.237   3.613
 1444SOL     OW 5230   4.930   5.894   0.982
 1444SOL    HW1 5231   4.977   5.968   1.030
 1444SOL    HW2 5232   4.867   5.933   0.915
 1445SOL     OW 5233   1.237   2.771   3.394
 1445SOL    HW1 5234   1.276   2.839   3.332
 1445SOL    HW2 5235   1.256   2.797   3.488
 1446SOL     OW 5236   6.248   1.589   6.965
 1446SOL    HW1 5237   6.204   1.608   6.877
 1446SOL    HW2 5238   6.207   1.507   7.005
 1447SOL     OW 5239   5.774   6.314   4.357
 1447SOL    HW1 5240   5.861   6.269   4.335
 1447SOL    HW2 5241   5.699   6.252   4.335
 1448SOL     OW 5242   6.748   3.109   5.298
 1448SOL    HW1 5243   6.775   3.105   5.201
 1448SOL    HW2 5244   6.650   3.092   5.306
 1449SOL     OW 5245   1.693   2.933   6.026
 1449SOL    HW1 5246   1.662   3.023   5.994
 1449SOL    HW2 5247   1.724   2.878   5.949
 1450SOL     OW 5248   0.924   1.818   0.421
 1450SOL    HW1 5249   0.906   1.802   0.518
 1450SOL    HW2 5250   0.848   1.870   0.381
 1451SOL     OW 5251   0.600   6.105   2.648
 1451SOL    HW1 5252   0.583   6.099   2.550
 1451SOL    HW2 5253   0.525   6.154   2.692
 1452SOL     OW 5254   4.565   1.787   5.388
 1452SOL    HW1 5255   4.538   1.746   5.301
 1452SOL    HW2 5256   4.500   1.858   5.414
 1453SOL     OW 5257   0.670   4.124   5.797
 1453SOL    HW1 5258   0.682   4.090   5.890
 1453SOL    HW2 5259   0.690   4.222   5.794
 1454SOL     OW 5260   0.589   2.651   2.215
 1454SOL    HW1 5261   0.562   2.687   2.304
 1454SOL    HW2 5262   0.508   2.631   2.160
 1455SOL     OW 5263   1.734   0.002   1.665
 1455SOL    HW1 5264   1.815   6.981   1.705
 1455SOL    HW2 5265   1.753   0.099   1.651
 1456SOL     OW 5266   6.405   0.376   6.309
 1456SOL    HW1 5267   6.388   0.472   6.330
 1456SOL    HW2 5268   6.332   0.320   6.347
 1457SOL     OW 5269   0.725   6.290   1.226
 1457SOL    HW1 5270   0.711   6.225   1.151
 1457SOL    HW2 5271   0.766   6.243   1.304
 1458SOL     OW 5272   5.816   5.196   4.441
 1458SOL    HW1 5273   5.748   5.143   4.390
 1458SOL    HW2 5274   5.808   5.293   4.417
 1459SOL     OW 5275   3.784   6.358   5.891
 1459SOL    HW1 5276   3.816   6.272   5.852
 1459SOL    HW2 5277   3.839   6.379   5.972
 1460SOL     OW 5278   0.934   0.031   5.223
 1460SOL    HW1 5279   0.945   0.042   5.124
 1460SOL    HW2 5280   0.875   0.105   5.258
 1461SOL     OW 5281   6.342   4.212   2.655
 1461SOL    HW1 5282   6.436   4.194   2.683
 1461SOL    HW2 5283   6.286   4.131   2.672
 1462SOL     OW 5284   1.422   1.330   0.028
 1462SOL    HW1 5285   1.512   1.311   7.012
 1462SOL    HW2 5286   1.420   1.297   0.123
 1463SOL     OW 5287   0.017   5.541   6.071
 1463SOL    HW1 5288   0.052   5.469   6.132
 1463SOL    HW2 5289   0.090   5.570   6.009
 1464SOL     OW 5290   0.319   5.772   2.266
 1464SOL    HW1 5291   0.393   5.832   2.236
 1464SOL    HW2 5292   0.237   5.826   2.284
 1465SOL     OW 5293   1.598   1.137   4.299
 1465SOL    HW1 5294   1.687   1.157   4.340
 1465SOL    HW2 5295   1.547   1.222   4.288
 1466SOL     OW 5296   2.584   2.019   2.532
 1466SOL    HW1 5297   2.524   2.027   2.452
 1466SOL    HW2 5298   2.674   2.057   2.509
 1467SOL     OW 5299   2.146   1.417   3.599
 1467SOL    HW1 5300   2.091   1.347   3.646
 1467SOL    HW2 5301   2.195   1.472   3.667
 1468SOL     OW 5302   2.305   5.763   2.359
 1468SOL    HW1 5303   2.354   5.818   2.291
 1468SOL    HW2 5304   2.321   5.800   2.450
 1469SOL     OW 5305   6.974   0.615   2.878
 1469SOL    HW1 5306   7.020   0.535   2.918
 1469SOL    HW2 5307   0.010   0.656   2.809
 1470SOL     OW 5308   1.314   1.868   2.261
 1470SOL    HW1 5309   1.308   1.776   2.223
 1470SOL    HW2 5310   1.409   1.900   2.256
 1471SOL     OW 5311   0.675   0.243   0.648
 1471SOL    HW1 5312   0.729   0.238   0.564
 1471SOL    HW2 5313   0.691   0.330   0.694
 1472SOL     OW 5314   1.970   5.348   5.804
 1472SOL    HW1 5315   1.881   5.391   5.789
 1472SOL    HW2 5316   2.043   5.408   5.770
 1473SOL     OW 5317   3.505   5.685   5.548
 1473SOL    HW1 5318   3.409   5.715   5.548
 1473SOL    HW2 5319   3.560   5.751   5.497
 1474SOL     OW 5320   5.203   5.010   1.891
 1474SOL    HW1 5321   5.139   5.083   1.915
 1474SOL    HW2 5322   5.151   4.929   1.862
 1475SOL     OW 5323   5.477   0.755   1.389
 1475SOL    HW1 5324   5.423   0.748   1.473
 1475SOL    HW2 5325   5.506   0.849   1.376
 1476SOL     OW 5326   2.734   0.946   1.966
 1476SOL    HW1 5327   2.723   0.849   1.944
 1476SOL    HW2 5328   2.691   1.001   1.895
 1477SOL     OW 5329   3.210   6.588   6.005
 1477SOL    HW1 5330   3.223   6.610   5.908
 1477SOL    HW2 5331   3.168   6.498   6.013
 1478SOL     OW 5332   6.244   5.833   5.319
 1478SOL    HW1 5333   6.209   5.833   5.226
 1478SOL    HW2 5334   6.287   5.921   5.339
 1479SOL     OW 5335   2.471   2.545   0.996
 1479SOL    HW1 5336   2.442   2.640   0.981
 1479SOL    HW2 5337   2.503   2.534   1.090
 1480SOL     OW 5338   3.071   0.526   4.691
 1480SOL    HW1 5339   3.098   0.568   4.605
 1480SOL    HW2 5340   3.152   0.487   4.736
 1481SOL     OW 5341   6.051   3.188   6.475
 1481SOL    HW1 5342   5.974   3.163   6.417
 1481SOL    HW2 5343   6.077   3.111   6.533
 1482SOL     OW 5344   4.632   1.268   1.508
 1482SOL    HW1 5345   4.685   1.248   1.590
 1482SOL    HW2 5346   4.586   1.186   1.476
 1483SOL     OW 5347   5.132   2.366   5.605
 1483SOL    HW1 5348   5.074   2.415   5.540
 1483SOL    HW2 5349   5.075   2.311   5.666
 1484SOL     OW 5350   4.580   4.856   4.013
 1484SOL    HW1 5351   4.637   4.794   4.066
 1484SOL    HW2 5352   4.585   4.948   4.052
 1485SOL     OW 5353   4.338   0.756   4.471
 1485SOL    HW1 5354   4.315   0.803   4.556
 1485SOL    HW2 5355   4.265   0.691   4.448
 1486SOL     OW 5356   5.890   0.661   2.992
 1486SOL    HW1 5357   5.898   0.628   2.898
 1486SOL    HW2 5358   5.805   0.713   3.002
 1487SOL     OW 5359   0.173   2.622   0.180
 1487SOL    HW1 5360   0.097   2.647   0.120
 1487SOL    HW2 5361   0.229   2.552   0.136
 1488SOL     OW 5362   5.809   0.105   3.712
 1488SOL    HW1 5363   5.873   0.160   3.765
 1488SOL    HW2 5364   5.717   0.145   3.719
 1489SOL     OW 5365   4.494   5.204   6.302
 1489SOL    HW1 5366   4.400   5.203   6.335
 1489SOL    HW2 5367   4.542   5.122   6.335
 1490SOL     OW 5368   0.361   3.592   1.236
 1490SOL    HW1 5369   0.429   3.552   1.175
 1490SOL    HW2 5370   0.407   3.631   1.315
 1491SOL     OW 5371   6.202   4.908   2.028
 1491SOL    HW1 5372   6.233   4.829   2.082
 1491SOL    HW2 5373   6.204   4.885   1.931
 1492SOL     OW 5374   6.311   0.327   2.226
 1492SOL    HW1 5375   6.314   0.385   2.308
 1492SOL    HW2 5376   6.327   0.232   2.252
 1493SOL     OW 5377   3.974   6.658   6.288
 1493SOL    HW1 5378   3.889   6.703   6.264
 1493SOL    HW2 5379   3.973   6.632   6.384
 1494SOL     OW 5380   5.201   2.258   6.425
 1494SOL    HW1 5381   5.211   2.235   6.522
 1494SOL    HW2 5382   5.187   2.357   6.415
 1495SOL     OW 5383   0.754   3.841   5.159
 1495SOL    HW1 5384   0.757   3.743   5.177
 1495SOL    HW2 5385   0.839   3.868   5.112
 1496SOL     OW 5386   0.865   1.564   0.916
 1496SOL    HW1 5387   0.849   1.659   0.941
 1496SOL    HW2 5388   0.862   1.507   0.999
 1497SOL     OW 5389   5.129   2.933   2.639
 1497SOL    HW1 5390   5.190   3.002   2.679
 1497SOL    HW2 5391   5.034   2.957   2.659
 1498SOL     OW 5392   2.483   4.499   6.316
 1498SOL    HW1 5393   2.519   4.411   6.284
 1498SOL    HW2 5394   2.475   4.497   6.416
 1499SOL     OW 5395   1.078   2.129   5.256
 1499SOL    HW1 5396   1.172   2.097   5.268
 1499SOL    HW2 5397   1.047   2.110   5.163
 1500SOL     OW 5398   0.577   0.174   0.004
 1500SOL    HW1 5399   0.492   0.122   0.012
 1500SOL    HW2 5400   0.557   0.271   0.009
 1501SOL     OW 5401   5.287   2.064   6.173
 1501SOL    HW1 5402   5.273   2.132   6.244
 1501SOL    HW2 5403   5.316   1.978   6.214
 1502SOL     OW 5404   4.228   0.489   6.882
 1502SOL    HW1 5405   4.191   0.567   6.934
 1502SOL    HW2 5406   4.172   0.408   6.900
 1503SOL     OW 5407   1.408   2.773   2.310
 1503SOL    HW1 5408   1.488   2.730   2.268
 1503SOL    HW2 5409   1.427   2.791   2.407
 1504SOL     OW 5410   0.430   0.587   4.233
 1504SOL    HW1 5411   0.361   0.656   4.256
 1504SOL    HW2 5412   0.508   0.595   4.295
 1505SOL     OW 5413   4.538   0.359   5.031
 1505SOL    HW1 5414   4.514   0.398   5.120
 1505SOL    HW2 5415   4.515   0.425   4.958
 1506SOL     OW 5416   0.586   6.340   0.409
 1506SOL    HW1 5417   0.616   6.434   0.423
 1506SOL    HW2 5418   0.490   6.331   0.438
 1507SOL     OW 5419   6.872   1.885   5.806
 1507SOL    HW1 5420   6.918   1.847   5.726
 1507SOL    HW2 5421   6.907   1.976   5.825
 1508SOL     OW 5422   6.210   1.142   0.748
 1508SOL    HW1 5423   6.234   1.149   0.844
 1508SOL    HW2 5424   6.112   1.158   0.737
 1509SOL     OW 5425   4.201   1.900   5.045
 1509SOL    HW1 5426   4.148   1.870   5.124
 1509SOL    HW2 5427   4.256   1.980   5.069
 1510SOL     OW 5428   5.114   1.054   4.794
 1510SOL    HW1 5429   5.156   1.141   4.771
 1510SOL    HW2 5430   5.015   1.061   4.788
 1511SOL     OW 5431   4.001   3.210   3.505
 1511SOL    HW1 5432   3.920   3.152   3.501
 1511SOL    HW2 5433   4.029   3.222   3.600
 1512SOL     OW 5434   6.555   6.282   0.955
 1512SOL    HW1 5435   6.564   6.236   1.043
 1512SOL    HW2 5436   6.645   6.315   0.924
 1513SOL     OW 5437   3.850   0.801   4.797
 1513SOL    HW1 5438   3.898   0.843   4.874
 1513SOL    HW2 5439   3.907   0.729   4.757
 1514SOL     OW 5440   3.887   2.972   5.275
 1514SOL    HW1 5441   3.967   3.032   5.284
 1514SOL    HW2 5442   3.908   2.882   5.314
 1515SOL     OW 5443   5.371   2.251   2.389
 1515SOL    HW1 5444   5.327   2.162   2.402
 1515SOL    HW2 5445   5.355   2.307   2.470
 1516SOL     OW 5446   6.232   5.640   5.678
 1516SOL    HW1 5447   6.220   5.613   5.582
 1516SOL    HW2 5448   6.148   5.622   5.729
 1517SOL     OW 5449   3.925   5.503   2.890
 1517SOL    HW1 5450   4.010   5.555   2.892
 1517SOL    HW2 5451   3.895   5.484   2.983
 1518SOL     OW 5452   0.213   2.329   0.347
 1518SOL    HW1 5453   0.199   2.392   0.423
 1518SOL    HW2 5454   0.250   2.379   0.268
 1519SOL     OW 5455   6.568   4.419   1.536
 1519SOL    HW1 5456   6.525   4.507   1.555
 1519SOL    HW2 5457   6.663   4.420   1.567
 1520SOL     OW 5458   0.333   4.457   1.819
 1520SOL    HW1 5459   0.385   4.514   1.756
 1520SOL    HW2 5460   0.235   4.465   1.799
 1521SOL     OW 5461   2.021   4.392   6.513
 1521SOL    HW1 5462   2.017   4.435   6.603
 1521SOL    HW2 5463   2.109   4.347   6.501
 1522SOL     OW 5464   5.709   6.242   5.112
 1522SOL    HW1 5465   5.663   6.288   5.188
 1522SOL    HW2 5466   5.695   6.294   5.028
 1523SOL     OW 5467   4.185   6.502   6.830
 1523SOL    HW1 5468   4.092   6.474   6.856
 1523SOL    HW2 5469   4.204   6.471   6.737
 1524SOL     OW 5470   2.216   1.703   2.814
 1524SOL    HW1 5471   2.235   1.792   2.773
 1524SOL    HW2 5472   2.298   1.667   2.856
 1525SOL     OW 5473   6.356   3.473   0.434
 1525SOL    HW1 5474   6.335   3.385   0.391
 1525SOL    HW2 5475   6.445   3.468   0.479
 1526SOL     OW 5476   6.777   0.994   0.013
 1526SOL    HW1 5477   6.703   0.968   6.973
 1526SOL    HW2 5478   6.846   0.921   0.015
 1527SOL     OW 5479   4.124   1.676   4.906
 1527SOL    HW1 5480   4.025   1.665   4.899
 1527SOL    HW2 5481   4.146   1.748   4.971
 1528SOL     OW 5482   3.845   4.836   2.756
 1528SOL    HW1 5483   3.872   4.768   2.688
 1528SOL    HW2 5484   3.925   4.865   2.809
 1529SOL     OW 5485   3.960   0.051   0.167
 1529SOL    HW1 5486   3.904   0.074   0.246
 1529SOL    HW2 5487   4.003   6.985   0.181
 1530SOL     OW 5488   4.219   1.825   2.315
 1530SOL    HW1 5489   4.137   1.866   2.276
 1530SOL    HW2 5490   4.199   1.731   2.343
 1531SOL     OW 5491   4.507   6.908   5.322
 1531SOL    HW1 5492   4.561   6.890   5.405
 1531SOL    HW2 5493   4.492   6.822   5.273
 1532SOL     OW 5494   3.491   3.581   6.259
 1532SOL    HW1 5495   3.418   3.611   6.320
 1532SOL    HW2 5496   3.530   3.496   6.295
 1533SOL     OW 5497   5.882   5.287   6.766
 1533SOL    HW1 5498   5.964   5.241   6.735
 1533SOL    HW2 5499   5.906   5.377   6.803
 1534SOL     OW 5500   2.757   5.726   6.873
 1534SOL    HW1 5501   2.686   5.717   6.803
 1534SOL    HW2 5502   2.715   5.741   6.962
 1535SOL     OW 5503   4.863   6.257   4.345
 1535SOL    HW1 5504   4.911   6.179   4.386
 1535SOL    HW2 5505   4.790   6.286   4.407
 1536SOL     OW 5506   3.847   4.240   5.615
 1536SOL    HW1 5507   3.845   4.172   5.542
 1536SOL    HW2 5508   3.861   4.193   5.703
 1537SOL     OW 5509   3.889   5.642   3.677
 1537SOL    HW1 5510   3.947   5.588   3.737
 1537SOL    HW2 5511   3.942   5.717   3.638
 1538SOL     OW 5512   3.158   6.918   6.522
 1538SOL    HW1 5513   3.078   6.952   6.472
 1538SOL    HW2 5514   3.143   6.932   6.620
 1539SOL     OW 5515   4.906   3.754   1.934
 1539SOL    HW1 5516   4.845   3.701   1.875
 1539SOL    HW2 5517   4.994   3.765   1.888
 1540SOL     OW 5518   0.516   6.148   4.930
 1540SOL    HW1 5519   0.426   6.152   4.886
 1540SOL    HW2 5520   0.562   6.064   4.903
 1541SOL     OW 5521   2.991   3.232   3.939
 1541SOL    HW1 5522   2.960   3.199   4.028
 1541SOL    HW2 5523   3.085   3.267   3.947
 1542SOL     OW 5524   6.575   0.035   2.568
 1542SOL    HW1 5525   6.666   0.067   2.594
 1542SOL    HW2 5526   6.506   0.080   2.625
 1543SOL     OW 5527   3.299   4.871   5.422
 1543SOL    HW1 5528   3.370   4.935   5.391
 1543SOL    HW2 5529   3.274   4.812   5.346
 1544SOL     OW 5530   3.221   3.581   2.758
 1544SOL    HW1 5531   3.127   3.552   2.777
 1544SOL    HW2 5532   3.222   3.647   2.683
 1545SOL     OW 5533   5.030   0.550   3.032
 1545SOL    HW1 5534   4.975   0.502   3.100
 1545SOL    HW2 5535   4.984   0.634   3.005
 1546SOL     OW 5536   3.868   6.645   5.438
 1546SOL    HW1 5537   3.880   6.605   5.529
 1546SOL    HW2 5538   3.952   6.692   5.411
 1547SOL     OW 5539   2.002   4.050   1.652
 1547SOL    HW1 5540   1.976   3.953   1.656
 1547SOL    HW2 5541   1.922   4.107   1.669
 1548SOL     OW 5542   5.511   3.714   6.102
 1548SOL    HW1 5543   5.515   3.721   6.201
 1548SOL    HW2 5544   5.603   3.724   6.064
 1549SOL     OW 5545   4.229   1.978   1.833
 1549SOL    HW1 5546   4.167   2.056   1.834
 1549SOL    HW2 5547   4.188   1.904   1.779
 1550SOL     OW 5548   2.424   3.688   0.026
 1550SOL    HW1 5549   2.381   3.665   0.114
 1550SOL    HW2 5550   2.453   3.604   7.003
 1551SOL     OW 5551   1.995   4.310   6.238
 1551SOL    HW1 5552   1.970   4.353   6.324
 1551SOL    HW2 5553   2.008   4.212   6.251
 1552SOL     OW 5554   1.213   6.029   6.952
 1552SOL    HW1 5555   1.284   6.098   6.942
 1552SOL    HW2 5556   1.209   5.998   0.024
 1553SOL     OW 5557   6.845   1.925   6.541
 1553SOL    HW1 5558   6.933   1.954   6.505
 1553SOL    HW2 5559   6.784   2.005   6.547
 1554SOL     OW 5560   3.959   2.073   2.658
 1554SOL    HW1 5561   3.986   1.987   2.700
 1554SOL    HW2 5562   4.013   2.148   2.697
 1555SOL     OW 5563   5.195   2.676   0.342
 1555SOL    HW1 5564   5.257   2.600   0.365
 1555SOL    HW2 5565   5.152   2.658   0.254
 1556SOL     OW 5566   3.041   1.864   0.357
 1556SOL    HW1 5567   2.971   1.933   0.371
 1556SOL    HW2 5568   3.041   1.835   0.261
 1557SOL     OW 5569   1.951   2.141   5.206
 1557SOL    HW1 5570   1.961   2.216   5.270
 1557SOL    HW2 5571   1.963   2.054   5.254
 1558SOL     OW 5572   5.955   0.538   4.892
 1558SOL    HW1 5573   6.041   0.579   4.923
 1558SOL    HW2 5574   5.923   0.587   4.811
 1559SOL     OW 5575   1.648   2.839   0.061
 1559SOL    HW1 5576   1.707   2.823   7.005
 1559SOL    HW2 5577   1.598   2.756   0.083
 1560SOL     OW 5578   0.030   1.181   5.647
 1560SOL    HW1 5579   0.052   1.248   5.576
 1560SOL    HW2 5580   6.955   1.162   5.646
 1561SOL     OW 5581   6.237   6.284   4.075
 1561SOL    HW1 5582   6.291   6.249   4.151
 1561SOL    HW2 5583   6.216   6.380   4.090
 1562SOL     OW 5584   4.498   5.444   2.706
 1562SOL    HW1 5585   4.458   5.366   2.754
 1562SOL    HW2 5586   4.583   5.416   2.661
 1563SOL     OW 5587   2.436   6.923   5.423
 1563SOL    HW1 5588   2.446   7.013   5.466
 1563SOL    HW2 5589   2.341   6.894   5.428
 1564SOL     OW 5590   1.189   2.547   3.783
 1564SOL    HW1 5591   1.156   2.504   3.699
 1564SOL    HW2 5592   1.213   2.476   3.849
 1565SOL     OW 5593   4.364   4.629   3.380
 1565SOL    HW1 5594   4.402   4.542   3.409
 1565SOL    HW2 5595   4.296   4.660   3.446
 1566SOL     OW 5596   5.771   4.887   2.880
 1566SOL    HW1 5597   5.678   4.853   2.893
 1566SOL    HW2 5598   5.817   4.834   2.809
 1567SOL     OW 5599   6.175   6.104   0.815
 1567SOL    HW1 5600   6.188   6.126   0.718
 1567SOL    HW2 5601   6.258   6.062   0.851
 1568SOL     OW 5602   1.610   6.619   6.975
 1568SOL    HW1 5603   1.571   6.528   6.964
 1568SOL    HW2 5604   1.651   6.649   6.889
 1569SOL     OW 5605   4.625   6.174   3.289
 1569SOL    HW1 5606   4.677   6.259   3.290
 1569SOL    HW2 5607   4.527   6.195   3.282
 1570SOL     OW 5608   1.822   0.376   1.444
 1570SOL    HW1 5609   1.826   0.458   1.501
 1570SOL    HW2 5610   1.913   0.335   1.438
 1571SOL     OW 5611   5.066   2.402   1.228
 1571SOL    HW1 5612   5.137   2.336   1.254
 1571SOL    HW2 5613   5.019   2.370   1.146
 1572SOL     OW 5614   0.534   6.557   0.848
 1572SOL    HW1 5615   0.629   6.530   0.834
 1572SOL    HW2 5616   0.475   6.477   0.841
 1573SOL     OW 5617   5.409   2.723   2.721
 1573SOL    HW1 5618   5.409   2.707   2.622
 1573SOL    HW2 5619   5.324   2.688   2.760
 1574SOL     OW 5620   6.589   0.678   1.623
 1574SOL    HW1 5621   6.562   0.743   1.552
 1574SOL    HW2 5622   6.513   0.616   1.641
 1575SOL     OW 5623   3.559   0.988   0.862
 1575SOL    HW1 5624   3.644   1.039   0.847
 1575SOL    HW2 5625   3.485   1.031   0.810
 1576SOL     OW 5626   0.581   6.998   3.467
 1576SOL    HW1 5627   0.530   6.986   3.382
 1576SOL    HW2 5628   0.675   7.023   3.447
 1577SOL     OW 5629   3.172   2.193   4.594
 1577SOL    HW1 5630   3.215   2.151   4.675
 1577SOL    HW2 5631   3.209   2.285   4.582
 1578SOL     OW 5632   6.456   3.168   6.043
 1578SOL    HW1 5633   6.395   3.233   6.089
 1578SOL    HW2 5634   6.551   3.187   6.069
 1579SOL     OW 5635   6.756   1.742   3.073
 1579SOL    HW1 5636   6.752   1.664   3.010
 1579SOL    HW2 5637   6.703   1.818   3.036
 1580SOL     OW 5638   2.845   3.972   5.153
 1580SOL    HW1 5639   2.854   4.070   5.173
 1580SOL    HW2 5640   2.774   3.932   5.210
 1581SOL     OW 5641   0.283   4.139   4.969
 1581SOL    HW1 5642   0.285   4.171   4.875
 1581SOL    HW2 5643   0.361   4.077   4.985
 1582SOL     OW 5644   1.379   6.797   4.487
 1582SOL    HW1 5645   1.349   6.753   4.571
 1582SOL    HW2 5646   1.442   6.871   4.509
 1583SOL     OW 5647   1.021   4.372   3.472
 1583SOL    HW1 5648   1.034   4.312   3.550
 1583SOL    HW2 5649   0.974   4.322   3.399
 1584SOL     OW 5650   1.586   6.633   4.951
 1584SOL    HW1 5651   1.625   6.726   4.953
 1584SOL    HW2 5652   1.491   6.637   4.981
 1585SOL     OW 5653   5.848   1.482   3.511
 1585SOL    HW1 5654   5.788   1.513   3.437
 1585SOL    HW2 5655   5.929   1.541   3.514
 1586SOL     OW 5656   3.236   4.065   0.914
 1586SOL    HW1 5657   3.259   3.989   0.853
 1586SOL    HW2 5658   3.162   4.119   0.872
 1587SOL     OW 5659   2.853   5.792   6.537
 1587SOL    HW1 5660   2.883   5.873   6.588
 1587SOL    HW2 5661   2.758   5.771   6.561
 1588SOL     OW 5662   5.206   1.615   3.130
 1588SOL    HW1 5663   5.158   1.528   3.116
 1588SOL    HW2 5664   5.305   1.597   3.134
 1589SOL     OW 5665   6.017   4.347   2.287
 1589SOL    HW1 5666   5.969   4.302   2.362
 1589SOL    HW2 5667   6.001   4.446   2.293
 1590SOL     OW 5668   2.599   6.206   6.385
 1590SOL    HW1 5669   2.694   6.234   6.398
 1590SOL    HW2 5670   2.543   6.285   6.362
 1591SOL     OW 5671   0.363   5.276   2.357
 1591SOL    HW1 5672   0.289   5.240   2.413
 1591SOL    HW2 5673   0.373   5.374   2.374
 1592SOL     OW 5674   1.944   4.470   0.920
 1592SOL    HW1 5675   1.876   4.540   0.900
 1592SOL    HW2 5676   2.018   4.510   0.974
 1593SOL     OW 5677   0.671   6.683   3.831
 1593SOL    HW1 5678   0.669   6.683   3.731
 1593SOL    HW2 5679   0.701   6.773   3.864
 1594SOL     OW 5680   6.811   5.885   2.647
 1594SOL    HW1 5681   6.809   5.793   2.607
 1594SOL    HW2 5682   6.733   5.937   2.614
 1595SOL     OW 5683   1.327   5.241   6.960
 1595SOL    HW1 5684   1.397   5.194   7.014
 1595SOL    HW2 5685   1.356   5.243   6.864
 1596SOL     OW 5686   0.633   3.192   4.701
 1596SOL    HW1 5687   0.659   3.201   4.605
 1596SOL    HW2 5688   0.709   3.221   4.759
 1597SOL     OW 5689   2.132   6.287   6.898
 1597SOL    HW1 5690   2.085   6.279   6.810
 1597SOL    HW2 5691   2.215   6.230   6.897
 1598SOL     OW 5692   0.912   3.663   0.262
 1598SOL    HW1 5693   0.945   3.584   0.314
 1598SOL    HW2 5694   0.826   3.639   0.217
 1599SOL     OW 5695   4.885   4.133   5.719
 1599SOL    HW1 5696   4.799   4.166   5.681
 1599SOL    HW2 5697   4.901   4.177   5.808
 1600SOL     OW 5698   5.278   2.015   5.144
 1600SOL    HW1 5699   5.235   1.961   5.072
 1600SOL    HW2 5700   5.287   1.959   5.227
 1601SOL     OW 5701   6.952   4.677   4.264
 1601SOL    HW1 5702   6.934   4.603   4.329
 1601SOL    HW2 5703   0.024   4.671   4.232
 1602SOL     OW 5704   2.138   5.160   4.004
 1602SOL    HW1 5705   2.069   5.098   3.967
 1602SOL    HW2 5706   2.145   5.147   4.102
 1603SOL     OW 5707   0.291   5.987   2.630
 1603SOL    HW1 5708   0.356   6.011   2.557
 1603SOL    HW2 5709   0.297   5.888   2.648
 1604SOL     OW 5710   6.343   4.546   6.590
 1604SOL    HW1 5711   6.326   4.449   6.571
 1604SOL    HW2 5712   6.410   4.554   6.663
 1605SOL     OW 5713   6.436   6.569   2.120
 1605SOL    HW1 5714   6.375   6.490   2.116
 1605SOL    HW2 5715   6.530   6.538   2.136
 1606SOL     OW 5716   3.150   0.419   5.071
 1606SOL    HW1 5717   3.166   0.320   5.074
 1606SOL    HW2 5718   3.137   0.448   4.976
 1607SOL     OW 5719   4.322   2.260   0.549
 1607SOL    HW1 5720   4.338   2.273   0.451
 1607SOL    HW2 5721   4.401   2.215   0.590
 1608SOL     OW 5722   1.648   0.420   5.212
 1608SOL    HW1 5723   1.584   0.484   5.253
 1608SOL    HW2 5724   1.611   0.327   5.218
 1609SOL     OW 5725   4.606   0.545   0.214
 1609SOL    HW1 5726   4.540   0.554   0.139
 1609SOL    HW2 5727   4.564   0.494   0.289
 1610SOL     OW 5728   5.917   4.439   5.692
 1610SOL    HW1 5729   5.826   4.396   5.692
 1610SOL    HW2 5730   5.911   4.531   5.654
 1611SOL     OW 5731   3.059   2.957   1.762
 1611SOL    HW1 5732   3.100   2.907   1.838
 1611SOL    HW2 5733   3.007   2.894   1.705
 1612SOL     OW 5734   2.655   1.179   5.112
 1612SOL    HW1 5735   2.745   1.206   5.079
 1612SOL    HW2 5736   2.592   1.174   5.035
 1613SOL     OW 5737   1.424   6.055   1.337
 1613SOL    HW1 5738   1.422   5.956   1.321
 1613SOL    HW2 5739   1.518   6.087   1.340
 1614SOL     OW 5740   6.214   3.921   0.245
 1614SOL    HW1 5741   6.224   3.887   0.338
 1614SOL    HW2 5742   6.131   3.883   0.204
 1615SOL     OW 5743   6.384   4.962   0.703
 1615SOL    HW1 5744   6.452   4.890   0.718
 1615SOL    HW2 5745   6.362   5.006   0.791
 1616SOL     OW 5746   4.075   2.033   5.508
 1616SOL    HW1 5747   3.984   2.042   5.546
 1616SOL    HW2 5748   4.106   2.123   5.475
 1617SOL     OW 5749   6.273   0.031   1.466
 1617SOL    HW1 5750   6.305   6.962   1.442
 1617SOL    HW2 5751   6.180   0.044   1.433
 1618SOL     OW 5752   1.135   3.660   1.195
 1618SOL    HW1 5753   1.165   3.749   1.162
 1618SOL    HW2 5754   1.158   3.589   1.128
 1619SOL     OW 5755   1.029   1.709   3.368
 1619SOL    HW1 5756   0.973   1.783   3.405
 1619SOL    HW2 5757   1.011   1.699   3.271
 1620SOL     OW 5758   2.406   5.594   1.140
 1620SOL    HW1 5759   2.446   5.531   1.074
 1620SOL    HW2 5760   2.440   5.572   1.232
 1621SOL     OW 5761   1.126   1.489   0.211
 1621SOL    HW1 5762   1.176   1.540   0.142
 1621SOL    HW2 5763   1.117   1.393   0.182
 1622SOL     OW 5764   0.638   2.430   4.303
 1622SOL    HW1 5765   0.567   2.495   4.332
 1622SOL    HW2 5766   0.704   2.477   4.245
 1623SOL     OW 5767   2.531   3.315   5.519
 1623SOL    HW1 5768   2.567   3.233   5.475
 1623SOL    HW2 5769   2.469   3.362   5.457
 1624SOL     OW 5770   3.199   0.782   5.734
 1624SOL    HW1 5771   3.260   0.812   5.661
 1624SOL    HW2 5772   3.192   0.854   5.803
 1625SOL     OW 5773   1.520   5.814   1.684
 1625SOL    HW1 5774   1.471   5.792   1.768
 1625SOL    HW2 5775   1.534   5.913   1.678
 1626SOL     OW 5776   2.965   2.294   6.310
 1626SOL    HW1 5777   2.975   2.195   6.318
 1626SOL    HW2 5778   2.886   2.324   6.362
 1627SOL     OW 5779   6.352   2.408   3.998
 1627SOL    HW1 5780   6.416   2.335   4.022
 1627SOL    HW2 5781   6.355   2.423   3.899
 1628SOL     OW 5782   4.478   4.733   6.776
 1628SOL    HW1 5783   4.525   4.669   6.836
 1628SOL    HW2 5784   4.381   4.737   6.800
 1629SOL     OW 5785   2.860   1.582   4.326
 1629SOL    HW1 5786   2.941   1.634   4.353
 1629SOL    HW2 5787   2.789   1.645   4.294
 1630SOL     OW 5788   1.051   6.193   5.498
 1630SOL    HW1 5789   1.079   6.162   5.589
 1630SOL    HW2 5790   1.131   6.226   5.448
 1631SOL     OW 5791   0.458   1.479   6.591
 1631SOL    HW1 5792   0.450   1.464   6.493
 1631SOL    HW2 5793   0.367   1.486   6.632
 1632SOL     OW 5794   0.049   1.754   0.040
 1632SOL    HW1 5795   0.044   1.775   6.965
 1632SOL    HW2 5796   0.101   1.825   0.087
 1633SOL     OW 5797   5.064   2.266   4.084
 1633SOL    HW1 5798   5.079   2.191   4.020
 1633SOL    HW2 5799   4.971   2.260   4.121
 1634SOL     OW 5800   3.818   4.514   5.906
 1634SOL    HW1 5801   3.734   4.528   5.958
 1634SOL    HW2 5802   3.811   4.559   5.818
 1635SOL     OW 5803   6.511   5.474   5.274
 1635SOL    HW1 5804   6.427   5.481   5.328
 1635SOL    HW2 5805   6.556   5.387   5.294
 1636SOL     OW 5806   2.437   3.631   1.380
 1636SOL    HW1 5807   2.537   3.638   1.388
 1636SOL    HW2 5808   2.401   3.588   1.462
 1637SOL     OW 5809   0.336   0.630   2.966
 1637SOL    HW1 5810   0.355   0.662   3.059
 1637SOL    HW2 5811   0.267   0.558   2.969
 1638SOL     OW 5812   0.570   3.916   4.025
 1638SOL    HW1 5813   0.598   3.996   4.078
 1638SOL    HW2 5814   0.610   3.834   4.067
 1639SOL     OW 5815   4.170   6.847   3.011
 1639SOL    HW1 5816   4.088   6.830   2.956
 1639SOL    HW2 5817   4.251   6.834   2.955
 1640SOL     OW 5818   5.728   2.003   1.334
 1640SOL    HW1 5819   5.687   2.094   1.343
 1640SOL    HW2 5820   5.814   2.000   1.384
 1641SOL     OW 5821   5.211   2.828   4.063
 1641SOL    HW1 5822   5.279   2.779   4.009
 1641SOL    HW2 5823   5.222   2.805   4.160
 1642SOL     OW 5824   6.120   3.274   6.826
 1642SOL    HW1 5825   6.137   3.360   6.777
 1642SOL    HW2 5826   6.022   3.261   6.839
 1643SOL     OW 5827   2.865   5.077   4.202
 1643SOL    HW1 5828   2.790   5.124   4.248
 1643SOL    HW2 5829   2.907   5.139   4.136
 1644SOL     OW 5830   1.176   3.143   1.282
 1644SOL    HW1 5831   1.196   3.129   1.379
 1644SOL    HW2 5832   1.106   3.077   1.252
 1645SOL     OW 5833   2.631   6.306   5.686
 1645SOL    HW1 5834   2.640   6.217   5.642
 1645SOL    HW2 5835   2.722   6.347   5.697
 1646SOL     OW 5836   2.360   6.580   1.318
 1646SOL    HW1 5837   2.328   6.581   1.223
 1646SOL    HW2 5838   2.347   6.488   1.356
 1647SOL     OW 5839   5.895   3.000   4.473
 1647SOL    HW1 5840   5.939   2.934   4.411
 1647SOL    HW2 5841   5.813   3.037   4.430
 1648SOL     OW 5842   5.959   6.102   1.025
 1648SOL    HW1 5843   6.032   6.133   0.964
 1648SOL    HW2 5844   5.889   6.174   1.033
 1649SOL     OW 5845   3.984   6.864   3.893
 1649SOL    HW1 5846   3.902   6.830   3.847
 1649SOL    HW2 5847   3.975   6.852   3.991
 1650SOL     OW 5848   2.084   6.776   4.627
 1650SOL    HW1 5849   2.112   6.681   4.610
 1650SOL    HW2 5850   2.052   6.784   4.721
 1651SOL     OW 5851   1.204   0.898   1.754
 1651SOL    HW1 5852   1.285   0.909   1.812
 1651SOL    HW2 5853   1.126   0.942   1.797
 1652SOL     OW 5854   1.791   3.158   1.890
 1652SOL    HW1 5855   1.852   3.181   1.814
 1652SOL    HW2 5856   1.711   3.218   1.886
 1653SOL     OW 5857   0.052   6.646   1.324
 1653SOL    HW1 5858   0.031   6.597   1.240
 1653SOL    HW2 5859   0.118   6.594   1.378
 1654SOL     OW 5860   6.425   2.823   2.254
 1654SOL    HW1 5861   6.493   2.765   2.299
 1654SOL    HW2 5862   6.471   2.887   2.193
 1655SOL     OW 5863   5.883   3.235   5.261
 1655SOL    HW1 5864   5.801   3.179   5.268
 1655SOL    HW2 5865   5.894   3.289   5.344
 1656SOL     OW 5866   1.741   4.532   2.754
 1656SOL    HW1 5867   1.801   4.595   2.803
 1656SOL    HW2 5868   1.791   4.490   2.678
 1657SOL     OW 5869   6.900   0.781   4.309
 1657SOL    HW1 5870   6.965   0.706   4.317
 1657SOL    HW2 5871   6.900   0.834   4.394
 1658SOL     OW 5872   1.058   0.787   2.320
 1658SOL    HW1 5873   1.133   0.782   2.386
 1658SOL    HW2 5874   1.070   0.869   2.263
 1659SOL     OW 5875   3.607   1.098   6.216
 1659SOL    HW1 5876   3.645   1.130   6.303
 1659SOL    HW2 5877   3.639   1.006   6.196
 1660SOL     OW 5878   1.582   4.697   3.970
 1660SOL    HW1 5879   1.673   4.658   3.955
 1660SOL    HW2 5880   1.541   4.657   4.052
 1661SOL     OW 5881   2.886   1.696   1.703
 1661SOL    HW1 5882   2.889   1.712   1.801
 1661SOL    HW2 5883   2.932   1.609   1.682
 1662SOL     OW 5884   6.636   1.034   4.380
 1662SOL    HW1 5885   6.541   1.039   4.411
 1662SOL    HW2 5886   6.639   1.045   4.280
 1663SOL     OW 5887   3.165   0.724   3.205
 1663SOL    HW1 5888   3.201   0.817   3.207
 1663SOL    HW2 5889   3.241   0.659   3.204
 1664SOL     OW 5890   1.646   0.193   4.101
 1664SOL    HW1 5891   1.587   0.239   4.035
 1664SOL    HW2 5892   1.634   0.094   4.092
 1665SOL     OW 5893   6.719   1.568   2.860
 1665SOL    HW1 5894   6.627   1.599   2.834
 1665SOL    HW2 5895   6.743   1.486   2.808
 1666SOL     OW 5896   5.615   3.358   0.433
 1666SOL    HW1 5897   5.529   3.376   0.479
 1666SOL    HW2 5898   5.601   3.359   0.334
 1667SOL     OW 5899   5.532   6.945   1.062
 1667SOL    HW1 5900   5.485   6.862   1.092
 1667SOL    HW2 5901   5.485   0.003   1.099
 1668SOL     OW 5902   5.208   5.511   5.590
 1668SOL    HW1 5903   5.215   5.540   5.686
 1668SOL    HW2 5904   5.282   5.552   5.537
 1669SOL     OW 5905   6.238   0.126   0.101
 1669SOL    HW1 5906   6.284   0.205   0.060
 1669SOL    HW2 5907   6.291   0.094   0.180
 1670SOL     OW 5908   0.006   5.150   6.701
 1670SOL    HW1 5909   6.977   5.128   6.619
 1670SOL    HW2 5910   0.101   5.121   6.690
 1671SOL     OW 5911   4.316   2.256   1.235
 1671SOL    HW1 5912   4.325   2.212   1.145
 1671SOL    HW2 5913   4.403   2.251   1.284
 1672SOL     OW 5914   2.141   3.790   2.233
 1672SOL    HW1 5915   2.074   3.853   2.270
 1672SOL    HW2 5916   2.180   3.827   2.148
 1673SOL     OW 5917   0.386   2.546   4.397
 1673SOL    HW1 5918   0.325   2.537   4.318
 1673SOL    HW2 5919   0.342   2.506   4.478
 1674SOL     OW 5920   0.267   4.108   1.989
 1674SOL    HW1 5921   0.305   4.119   1.897
 1674SOL    HW2 5922   0.330   4.146   2.056
 1675SOL     OW 5923   4.344   0.337   5.843
 1675SOL    HW1 5924   4.387   0.402   5.906
 1675SOL    HW2 5925   4.337   0.378   5.752
 1676SOL     OW 5926   3.195   0.981   2.401
 1676SOL    HW1 5927   3.100   0.950   2.397
 1676SOL    HW2 5928   3.254   0.910   2.363
 1677SOL     OW 5929   4.264   2.805   5.333
 1677SOL    HW1 5930   4.233   2.723   5.284
 1677SOL    HW2 5931   4.342   2.781   5.391
 1678SOL     OW 5932   5.219   4.604   4.832
 1678SOL    HW1 5933   5.190   4.644   4.745
 1678SOL    HW2 5934   5.209   4.671   4.905
 1679SOL     OW 5935   2.164   3.453   4.965
 1679SOL    HW1 5936   2.236   3.400   5.011
 1679SOL    HW2 5937   2.185   3.550   4.974
 1680SOL     OW 5938   0.485   1.931   4.142
 1680SOL    HW1 5939   0.564   1.918   4.203
 1680SOL    HW2 5940   0.506   2.001   4.075
 1681SOL     OW 5941   6.915   5.802   1.188
 1681SOL    HW1 5942   6.888   5.715   1.230
 1681SOL    HW2 5943   7.011   5.797   1.161
 1682SOL     OW 5944   6.764   2.693   4.984
 1682SOL    HW1 5945   6.819   2.773   4.959
 1682SOL    HW2 5946   6.823   2.613   4.991
 1683SOL     OW 5947   4.158   5.633   0.822
 1683SOL    HW1 5948   4.112   5.675   0.743
 1683SOL    HW2 5949   4.090   5.584   0.877
 1684SOL     OW 5950   1.561   6.102   2.754
 1684SOL    HW1 5951   1.607   6.139   2.835
 1684SOL    HW2 5952   1.531   6.178   2.695
 1685SOL     OW 5953   2.787   1.126   6.141
 1685SOL    HW1 5954   2.745   1.214   6.164
 1685SOL    HW2 5955   2.776   1.108   6.043
 1686SOL     OW 5956   1.850   5.093   5.029
 1686SOL    HW1 5957   1.824   5.181   5.068
 1686SOL    HW2 5958   1.771   5.031   5.032
 1687SOL     OW 5959   2.385   2.789   0.913
 1687SOL    HW1 5960   2.431   2.870   0.950
 1687SOL    HW2 5961   2.347   2.810   0.823
 1688SOL     OW 5962   1.472   2.445   4.199
 1688SOL    HW1 5963   1.556   2.499   4.191
 1688SOL    HW2 5964   1.396   2.506   4.222
 1689SOL     OW 5965   4.198   1.102   2.001
 1689SOL    HW1 5966   4.223   1.011   1.966
 1689SOL    HW2 5967   4.119   1.136   1.952
 1690SOL     OW 5968   1.376   3.047   3.836
 1690SOL    HW1 5969   1.383   3.036   3.935
 1690SOL    HW2 5970   1.464   3.079   3.800
 1691SOL     OW 5971   4.888   3.817   3.638
 1691SOL    HW1 5972   4.985   3.832   3.661
 1691SOL    HW2 5973   4.863   3.723   3.659
 1692SOL     OW 5974   6.723   0.272   1.464
 1692SOL    HW1 5975   6.707   0.321   1.378
 1692SOL    HW2 5976   6.637   0.234   1.498
 1693SOL     OW 5977   0.279   2.204   2.335
 1693SOL    HW1 5978   0.320   2.238   2.419
 1693SOL    HW2 5979   0.316   2.114   2.314
 1694SOL     OW 5980   5.067   0.180   3.656
 1694SOL    HW1 5981   5.008   0.132   3.721
 1694SOL    HW2 5982   5.121   0.113   3.605
 1695SOL     OW 5983   2.251   1.107   5.758
 1695SOL    HW1 5984   2.313   1.160   5.816
 1695SOL    HW2 5985   2.233   1.018   5.800
 1696SOL     OW 5986   5.397   4.947   0.412
 1696SOL    HW1 5987   5.338   4.927   0.490
 1696SOL    HW2 5988   5.441   5.036   0.425
 1697SOL     OW 5989   5.777   6.127   2.138
 1697SOL    HW1 5990   5.698   6.104   2.196
 1697SOL    HW2 5991   5.860   6.095   2.183
 1698SOL     OW 5992   4.633   0.930   0.816
 1698SOL    HW1 5993   4.551   0.885   0.780
 1698SOL    HW2 5994   4.616   1.029   0.823
 1699SOL     OW 5995   2.954   1.087   2.082
 1699SOL    HW1 5996   2.903   1.120   2.161
 1699SOL    HW2 5997   2.899   1.020   2.033
 1700SOL     OW 5998   6.016   1.729   3.482
 1700SOL    HW1 5999   6.018   1.732   3.582
 1700SOL    HW2 6000   6.072   1.805   3.445
 1701SOL     OW 6001   5.082   2.847   5.282
 1701SOL    HW1 6002   5.102   2.751   5.302
 1701SOL    HW2 6003   5.088   2.900   5.367
 1702SOL     OW 6004   6.981   2.635   0.860
 1702SOL    HW1 6005   6.925   2.563   0.902
 1702SOL    HW2 6006   0.031   2.661   0.923
 1703SOL     OW 6007   3.661   3.955   2.939
 1703SOL    HW1 6008   3.603   4.033   2.915
 1703SOL    HW2 6009   3.627   3.913   3.023
 1704SOL     OW 6010   0.739   1.460   2.003
 1704SOL    HW1 6011   0.748   1.507   2.090
 1704SOL    HW2 6012   0.825   1.417   1.979
 1705SOL     OW 6013   3.451   1.977   2.072
 1705SOL    HW1 6014   3.366   2.023   2.097
 1705SOL    HW2 6015   3.525   2.045   2.067
 1706SOL     OW 6016   4.463   0.121   1.657
 1706SOL    HW1 6017   4.460   0.216   1.625
 1706SOL    HW2 6018   4.558   0.094   1.673
 1707SOL     OW 6019   4.587   1.839   3.172
 1707SOL    HW1 6020   4.685   1.830   3.190
 1707SOL    HW2 6021   4.537   1.772   3.227
 1708SOL     OW 6022   4.698   5.149   2.226
 1708SOL    HW1 6023   4.644   5.229   2.199
 1708SOL    HW2 6024   4.664   5.114   2.314
 1709SOL     OW 6025   2.759   6.006   1.530
 1709SOL    HW1 6026   2.769   6.105   1.540
 1709SOL    HW2 6027   2.710   5.969   1.609
 1710SOL     OW 6028   5.710   4.412   3.866
 1710SOL    HW1 6029   5.644   4.423   3.791
 1710SOL    HW2 6030   5.793   4.464   3.845
 1711SOL     OW 6031   1.190   4.176   4.830
 1711SOL    HW1 6032   1.195   4.081   4.798
 1711SOL    HW2 6033   1.119   4.224   4.780
 1712SOL     OW 6034   1.189   3.027   6.600
 1712SOL    HW1 6035   1.226   2.973   6.676
 1712SOL    HW2 6036   1.224   3.120   6.605
 1713SOL     OW 6037   3.761   2.031   1.112
 1713SOL    HW1 6038   3.677   2.000   1.157
 1713SOL    HW2 6039   3.750   2.127   1.085
 1714SOL     OW 6040   4.700   1.391   6.060
 1714SOL    HW1 6041   4.612   1.432   6.083
 1714SOL    HW2 6042   4.744   1.445   5.988
 1715SOL     OW 6043   6.825   3.652   2.733
 1715SOL    HW1 6044   6.743   3.670   2.786
 1715SOL    HW2 6045   6.900   3.707   2.768
 1716SOL     OW 6046   5.028   6.642   1.578
 1716SOL    HW1 6047   5.112   6.672   1.622
 1716SOL    HW2 6048   4.991   6.716   1.522
 1717SOL     OW 6049   1.548   6.685   6.399
 1717SOL    HW1 6050   1.553   6.692   6.498
 1717SOL    HW2 6051   1.585   6.597   6.369
 1718SOL     OW 6052   1.777   2.028   1.286
 1718SOL    HW1 6053   1.756   2.124   1.271
 1718SOL    HW2 6054   1.841   1.996   1.216
 1719SOL     OW 6055   2.512   4.100   1.288
 1719SOL    HW1 6056   2.517   4.169   1.216
 1719SOL    HW2 6057   2.444   4.030   1.263
 1720SOL     OW 6058   6.584   1.090   1.234
 1720SOL    HW1 6059   6.588   1.185   1.205
 1720SOL    HW2 6060   6.658   1.072   1.299
 1721SOL     OW 6061   1.186   6.535   2.962
 1721SOL    HW1 6062   1.146   6.563   2.875
 1721SOL    HW2 6063   1.265   6.476   2.945
 1722SOL     OW 6064   4.756   1.668   3.752
 1722SOL    HW1 6065   4.755   1.576   3.713
 1722SOL    HW2 6066   4.849   1.705   3.748
 1723SOL     OW 6067   6.739   2.981   3.069
 1723SOL    HW1 6068   6.835   2.959   3.082
 1723SOL    HW2 6069   6.722   3.007   2.974
 1724SOL     OW 6070   5.820   2.071   1.087
 1724SOL    HW1 6071   5.918   2.078   1.105
 1724SOL    HW2 6072   5.773   2.047   1.172
 1725SOL     OW 6073   2.785   5.185   0.417
 1725SOL    HW1 6074   2.868   5.225   0.377
 1725SOL    HW2 6075   2.806   5.146   0.506
 1726SOL     OW 6076   6.046   4.251   5.028
 1726SOL    HW1 6077   6.044   4.348   5.003
 1726SOL    HW2 6078   6.140   4.224   5.050
 1727SOL     OW 6079   3.681   2.908   4.333
 1727SOL    HW1 6080   3.741   2.914   4.413
 1727SOL    HW2 6081   3.710   2.833   4.275
 1728SOL     OW 6082   5.698   5.447   4.650
 1728SOL    HW1 6083   5.781   5.404   4.687
 1728SOL    HW2 6084   5.698   5.438   4.550
 1729SOL     OW 6085   2.138   3.911   3.493
 1729SOL    HW1 6086   2.187   3.824   3.484
 1729SOL    HW2 6087   2.146   3.964   3.409
 1730SOL     OW 6088   6.778   0.321   5.016
 1730SOL    HW1 6089   6.814   0.414   5.022
 1730SOL    HW2 6090   6.765   0.284   5.108
 1731SOL     OW 6091   1.105   5.284   2.144
 1731SOL    HW1 6092   1.102   5.333   2.057
 1731SOL    HW2 6093   1.011   5.266   2.174
 1732SOL     OW 6094   2.139   4.404   6.011
 1732SOL    HW1 6095   2.090   4.379   6.094
 1732SOL    HW2 6096   2.103   4.490   5.975
 1733SOL     OW 6097   0.916   3.904   2.387
 1733SOL    HW1 6098   0.876   3.899   2.296
 1733SOL    HW2 6099   0.856   3.955   2.448
 1734SOL     OW 6100   4.972   3.152   1.907
 1734SOL    HW1 6101   5.038   3.131   1.979
 1734SOL    HW2 6102   4.889   3.098   1.920
 1735SOL     OW 6103   6.094   5.624   0.963
 1735SOL    HW1 6104   6.125   5.579   1.047
 1735SOL    HW2 6105   6.173   5.643   0.904
 1736SOL     OW 6106   4.350   2.220   0.976
 1736SOL    HW1 6107   4.319   2.308   0.940
 1736SOL    HW2 6108   4.404   2.173   0.907
 1737SOL     OW 6109   3.090   1.153   4.472
 1737SOL    HW1 6110   3.007   1.120   4.517
 1737SOL    HW2 6111   3.154   1.186   4.542
 1738SOL     OW 6112   2.049   2.124   3.840
 1738SOL    HW1 6113   2.004   2.186   3.775
 1738SOL    HW2 6114   2.125   2.078   3.795
 1739SOL     OW 6115   5.167   2.545   5.212
 1739SOL    HW1 6116   5.258   2.516   5.240
 1739SOL    HW2 6117   5.173   2.598   5.127
 1740SOL     OW 6118   0.349   1.873   6.405
 1740SOL    HW1 6119   0.335   1.790   6.350
 1740SOL    HW2 6120   0.368   1.950   6.344
 1741SOL     OW 6121   2.603   0.625   4.000
 1741SOL    HW1 6122   2.650   0.712   3.983
 1741SOL    HW2 6123   2.646   0.579   4.077
 1742SOL     OW 6124   4.730   6.072   6.340
 1742SOL    HW1 6125   4.660   6.138   6.314
 1742SOL    HW2 6126   4.698   5.979   6.320
 1743SOL     OW 6127   1.910   1.943   2.144
 1743SOL    HW1 6128   1.869   1.880   2.079
 1743SOL    HW2 6129   1.916   2.034   2.103
 1744SOL     OW 6130   0.698   0.311   1.636
 1744SOL    HW1 6131   0.758   0.232   1.646
 1744SOL    HW2 6132   0.656   0.310   1.545
 1745SOL     OW 6133   6.829   0.886   4.043
 1745SOL    HW1 6134   6.880   0.812   3.999
 1745SOL    HW2 6135   6.828   0.872   4.142
 1746SOL     OW 6136   2.154   5.260   4.700
 1746SOL    HW1 6137   2.153   5.213   4.788
 1746SOL    HW2 6138   2.061   5.285   4.673
 1747SOL     OW 6139   5.406   0.420   2.899
 1747SOL    HW1 6140   5.381   0.478   2.976
 1747SOL    HW2 6141   5.394   0.471   2.814
 1748SOL     OW 6142   0.480   1.131   3.766
 1748SOL    HW1 6143   0.556   1.079   3.726
 1748SOL    HW2 6144   0.403   1.070   3.783
 1749SOL     OW 6145   2.907   6.567   5.367
 1749SOL    HW1 6146   2.991   6.516   5.347
 1749SOL    HW2 6147   2.921   6.621   5.450
 1750SOL     OW 6148   6.470   0.276   3.266
 1750SOL    HW1 6149   6.484   0.320   3.354
 1750SOL    HW2 6150   6.530   0.196   3.259
 1751SOL     OW 6151   3.886   5.950   5.077
 1751SOL    HW1 6152   3.845   5.859   5.073
 1751SOL    HW2 6153   3.944   5.965   4.997
 1752SOL     OW 6154   7.017   2.172   2.652
 1752SOL    HW1 6155   0.027   2.109   2.582
 1752SOL    HW2 6156   7.021   2.266   2.617
 1753SOL     OW 6157   0.649   2.112   0.799
 1753SOL    HW1 6158   0.636   2.013   0.796
 1753SOL    HW2 6159   0.570   2.157   0.757
 1754SOL     OW 6160   3.564   3.219   1.097
 1754SOL    HW1 6161   3.581   3.251   1.190
 1754SOL    HW2 6162   3.581   3.294   1.032
 1755SOL     OW 6163   5.730   5.488   2.135
 1755SOL    HW1 6164   5.708   5.447   2.223
 1755SOL    HW2 6165   5.750   5.585   2.148
 1756SOL     OW 6166   4.152   4.418   6.110
 1756SOL    HW1 6167   4.249   4.434   6.096
 1756SOL    HW2 6168   4.109   4.393   6.024
 1757SOL     OW 6169   2.430   5.272   4.589
 1757SOL    HW1 6170   2.335   5.268   4.620
 1757SOL    HW2 6171   2.436   5.333   4.509
 1758SOL     OW 6172   2.218   0.292   3.861
 1758SOL    HW1 6173   2.265   0.356   3.800
 1758SOL    HW2 6174   2.273   0.209   3.871
 1759SOL     OW 6175   0.908   4.672   5.433
 1759SOL    HW1 6176   0.815   4.646   5.407
 1759SOL    HW2 6177   0.974   4.609   5.393
 1760SOL     OW 6178   6.475   1.591   1.552
 1760SOL    HW1 6179   6.497   1.494   1.564
 1760SOL    HW2 6180   6.525   1.626   1.472
 1761SOL     OW 6181   0.215   0.413   0.724
 1761SOL    HW1 6182   0.125   0.455   0.712
 1761SOL    HW2 6183   0.205   0.313   0.719
 1762SOL     OW 6184   6.131   1.932   4.958
 1762SOL    HW1 6185   6.063   1.993   4.917
 1762SOL    HW2 6186   6.207   1.918   4.895
 1763SOL     OW 6187   2.202   3.899   4.231
 1763SOL    HW1 6188   2.200   3.805   4.265
 1763SOL    HW2 6189   2.279   3.910   4.168
 1764SOL     OW 6190   1.357   3.903   2.555
 1764SOL    HW1 6191   1.407   3.833   2.607
 1764SOL    HW2 6192   1.272   3.864   2.519
 1765SOL     OW 6193   3.663   1.728   6.746
 1765SOL    HW1 6194   3.631   1.712   6.839
 1765SOL    HW2 6195   3.763   1.717   6.742
 1766SOL     OW 6196   4.902   3.134   3.888
 1766SOL    HW1 6197   4.874   3.158   3.981
 1766SOL    HW2 6198   4.975   3.065   3.893
 1767SOL     OW 6199   6.127   3.623   2.810
 1767SOL    HW1 6200   6.143   3.623   2.909
 1767SOL    HW2 6201   6.188   3.690   2.767
 1768SOL     OW 6202   3.613   1.516   4.918
 1768SOL    HW1 6203   3.656   1.440   4.967
 1768SOL    HW2 6204   3.669   1.541   4.839
 1769SOL     OW 6205   4.262   2.246   4.905
 1769SOL    HW1 6206   4.220   2.299   4.979
 1769SOL    HW2 6207   4.267   2.302   4.823
 1770SOL     OW 6208   0.455   5.231   4.792
 1770SOL    HW1 6209   0.450   5.147   4.739
 1770SOL    HW2 6210   0.496   5.304   4.737
 1771SOL     OW 6211   2.422   5.320   0.165
 1771SOL    HW1 6212   2.488   5.346   0.094
 1771SOL    HW2 6213   2.399   5.223   0.153
 1772SOL     OW 6214   2.866   6.671   3.623
 1772SOL    HW1 6215   2.823   6.762   3.621
 1772SOL    HW2 6216   2.946   6.671   3.563
 1773SOL     OW 6217   2.679   4.827   6.037
 1773SOL    HW1 6218   2.700   4.824   5.939
 1773SOL    HW2 6219   2.620   4.751   6.061
 1774SOL     OW 6220   4.242   6.968   1.635
 1774SOL    HW1 6221   4.324   7.010   1.674
 1774SOL    HW2 6222   4.186   0.015   1.591
 1775SOL     OW 6223   0.972   3.965   4.277
 1775SOL    HW1 6224   0.968   4.064   4.291
 1775SOL    HW2 6225   0.895   3.936   4.220
 1776SOL     OW 6226   3.635   0.424   4.285
 1776SOL    HW1 6227   3.621   0.429   4.384
 1776SOL    HW2 6228   3.733   0.431   4.265
 1777SOL     OW 6229   3.288   4.916   5.976
 1777SOL    HW1 6230   3.285   4.957   6.067
 1777SOL    HW2 6231   3.224   4.839   5.972
 1778SOL     OW 6232   4.624   2.821   5.902
 1778SOL    HW1 6233   4.643   2.918   5.889
 1778SOL    HW2 6234   4.710   2.771   5.910
 1779SOL     OW 6235   4.581   1.081   4.884
 1779SOL    HW1 6236   4.538   1.059   4.972
 1779SOL    HW2 6237   4.510   1.103   4.817
 1780SOL     OW 6238   3.074   3.004   5.776
 1780SOL    HW1 6239   2.986   2.966   5.747
 1780SOL    HW2 6240   3.060   3.095   5.815
 1781SOL     OW 6241   4.379   5.888   3.770
 1781SOL    HW1 6242   4.347   5.951   3.841
 1781SOL    HW2 6243   4.466   5.847   3.798
 1782SOL     OW 6244   2.984   2.080   2.874
 1782SOL    HW1 6245   2.934   1.994   2.873
 1782SOL    HW2 6246   2.980   2.119   2.966
 1783SOL     OW 6247   1.250   4.271   6.670
 1783SOL    HW1 6248   1.231   4.239   6.577
 1783SOL    HW2 6249   1.267   4.193   6.729
 1784SOL     OW 6250   3.706   1.386   5.357
 1784SOL    HW1 6251   3.759   1.341   5.429
 1784SOL    HW2 6252   3.726   1.342   5.269
 1785SOL     OW 6253   6.410   5.227   3.633
 1785SOL    HW1 6254   6.331   5.275   3.593
 1785SOL    HW2 6255   6.463   5.292   3.687
 1786SOL     OW 6256   1.110   2.862   1.357
 1786SOL    HW1 6257   1.180   2.842   1.288
 1786SOL    HW2 6258   1.145   2.836   1.447
 1787SOL     OW 6259   2.350   0.575   5.070
 1787SOL    HW1 6260   2.331   0.603   5.164
 1787SOL    HW2 6261   2.308   0.639   5.006
 1788SOL     OW 6262   3.339   2.890   0.006
 1788SOL    HW1 6263   3.426   2.929   7.001
 1788SOL    HW2 6264   3.352   2.833   0.087
 1789SOL     OW 6265   5.850   2.382   2.952
 1789SOL    HW1 6266   5.803   2.452   2.899
 1789SOL    HW2 6267   5.784   2.313   2.982
 1790SOL     OW 6268   3.617   6.406   3.930
 1790SOL    HW1 6269   3.562   6.455   3.862
 1790SOL    HW2 6270   3.588   6.310   3.931
 1791SOL     OW 6271   6.855   0.982   3.437
 1791SOL    HW1 6272   6.882   1.076   3.459
 1791SOL    HW2 6273   6.871   0.923   3.516
 1792SOL     OW 6274   0.105   2.972   3.874
 1792SOL    HW1 6275   0.156   3.053   3.845
 1792SOL    HW2 6276   0.141   2.939   3.962
 1793SOL     OW 6277   6.625   6.856   3.259
 1793SOL    HW1 6278   6.689   6.783   3.232
 1793SOL    HW2 6279   6.540   6.816   3.290
 1794SOL     OW 6280   6.021   6.376   6.135
 1794SOL    HW1 6281   6.072   6.397   6.051
 1794SOL    HW2 6282   5.987   6.460   6.176
 1795SOL     OW 6283   0.381   3.338   1.596
 1795SOL    HW1 6284   0.440   3.319   1.517
 1795SOL    HW2 6285   0.303   3.276   1.595
 1796SOL     OW 6286   2.441   0.374   4.200
 1796SOL    HW1 6287   2.376   0.450   4.194
 1796SOL    HW2 6288   2.392   0.287   4.194
 1797SOL     OW 6289   1.472   0.445   0.126
 1797SOL    HW1 6290   1.537   0.378   0.163
 1797SOL    HW2 6291   1.500   0.537   0.152
 1798SOL     OW 6292   5.191   2.089   4.537
 1798SOL    HW1 6293   5.167   2.006   4.487
 1798SOL    HW2 6294   5.290   2.099   4.539
 1799SOL     OW 6295   6.447   2.096   5.922
 1799SOL    HW1 6296   6.469   2.000   5.907
 1799SOL    HW2 6297   6.527   2.152   5.902
 1800SOL     OW 6298   3.955   4.877   2.415
 1800SOL    HW1 6299   4.002   4.807   2.468
 1800SOL    HW2 6300   4.016   4.911   2.343
 1801SOL     OW 6301   0.686   0.825   2.225
 1801SOL    HW1 6302   0.664   0.729   2.207
 1801SOL    HW2 6303   0.725   0.833   2.317
 1802SOL     OW 6304   5.138   5.464   2.192
 1802SOL    HW1 6305   5.108   5.486   2.099
 1802SOL    HW2 6306   5.059   5.442   2.248
 1803SOL     OW 6307   0.026   6.256   6.921
 1803SOL    HW1 6308   0.124   6.240   6.926
 1803SOL    HW2 6309   0.008   6.355   6.916
 1804SOL     OW 6310   2.300   3.688   5.657
 1804SOL    HW1 6311   2.259   3.693   5.566
 1804SOL    HW2 6312   2.379   3.749   5.662
 1805SOL     OW 6313   6.306   3.981   5.523
 1805SOL    HW1 6314   6.257   3.895   5.538
 1805SOL    HW2 6315   6.241   4.051   5.493
 1806SOL     OW 6316   1.318   1.375   0.555
 1806SOL    HW1 6317   1.335   1.464   0.513
 1806SOL    HW2 6318   1.220   1.363   0.570
 1807SOL     OW 6319   4.733   2.382   5.984
 1807SOL    HW1 6320   4.724   2.467   5.932
 1807SOL    HW2 6321   4.668   2.315   5.950
 1808SOL     OW 6322   0.346   3.628   5.599
 1808SOL    HW1 6323   0.406   3.599   5.673
 1808SOL    HW2 6324   0.323   3.725   5.611
 1809SOL     OW 6325   2.213   2.340   4.524
 1809SOL    HW1 6326   2.245   2.370   4.614
 1809SOL    HW2 6327   2.290   2.303   4.472
 1810SOL     OW 6328   2.881   0.427   4.027
 1810SOL    HW1 6329   2.872   0.460   3.933
 1810SOL    HW2 6330   2.883   0.505   4.089
 1811SOL     OW 6331   4.558   4.449   3.459
 1811SOL    HW1 6332   4.629   4.503   3.503
 1811SOL    HW2 6333   4.539   4.368   3.514
 1812SOL     OW 6334   4.208   6.715   5.577
 1812SOL    HW1 6335   4.143   6.701   5.652
 1812SOL    HW2 6336   4.261   6.631   5.562
 1813SOL     OW 6337   6.069   5.095   0.453
 1813SOL    HW1 6338   6.113   5.163   0.513
 1813SOL    HW2 6339   6.123   5.084   0.370
 1814SOL     OW 6340   6.676   1.482   0.542
 1814SOL    HW1 6341   6.609   1.503   0.613
 1814SOL    HW2 6342   6.654   1.534   0.459
 1815SOL     OW 6343   6.284   2.560   1.776
 1815SOL    HW1 6344   6.361   2.502   1.804
 1815SOL    HW2 6345   6.294   2.650   1.817
 1816SOL     OW 6346   2.394   3.704   0.811
 1816SOL    HW1 6347   2.353   3.686   0.900
 1816SOL    HW2 6348   2.337   3.664   0.739
 1817SOL     OW 6349   3.418   6.792   3.244
 1817SOL    HW1 6350   3.402   6.696   3.266
 1817SOL    HW2 6351   3.503   6.822   3.287
 1818SOL     OW 6352   1.729   6.430   2.143
 1818SOL    HW1 6353   1.689   6.340   2.133
 1818SOL    HW2 6354   1.829   6.422   2.146
 1819SOL     OW 6355   0.510   5.228   1.836
 1819SOL    HW1 6356   0.507   5.321   1.800
 1819SOL    HW2 6357   0.429   5.211   1.892
 1820SOL     OW 6358   5.101   0.902   1.964
 1820SOL    HW1 6359   5.111   0.837   1.888
 1820SOL    HW2 6360   5.162   0.979   1.949
 1821SOL     OW 6361   2.445   0.878   1.925
 1821SOL    HW1 6362   2.376   0.818   1.967
 1821SOL    HW2 6363   2.530   0.872   1.977
 1822SOL     OW 6364   1.576   2.639   1.814
 1822SOL    HW1 6365   1.537   2.564   1.760
 1822SOL    HW2 6366   1.658   2.673   1.769
 1823SOL     OW 6367   2.799   5.703   3.266
 1823SOL    HW1 6368   2.874   5.725   3.328
 1823SOL    HW2 6369   2.718   5.680   3.319
 1824SOL     OW 6370   3.413   3.091   1.339
 1824SOL    HW1 6371   3.318   3.072   1.313
 1824SOL    HW2 6372   3.415   3.128   1.432
 1825SOL     OW 6373   1.255   1.547   3.787
 1825SOL    HW1 6374   1.179   1.504   3.833
 1825SOL    HW2 6375   1.279   1.632   3.834
 1826SOL     OW 6376   3.069   0.087   1.136
 1826SOL    HW1 6377   2.986   0.117   1.089
 1826SOL    HW2 6378   3.044   0.027   1.212
 1827SOL     OW 6379   6.925   6.140   1.937
 1827SOL    HW1 6380   6.960   6.227   1.972
 1827SOL    HW2 6381   6.986   6.107   1.864
 1828SOL     OW 6382   1.160   2.786   0.669
 1828SOL    HW1 6383   1.120   2.860   0.615
 1828SOL    HW2 6384   1.106   2.703   0.656
 1829SOL     OW 6385   3.515   0.253   3.471
 1829SOL    HW1 6386   3.441   0.208   3.521
 1829SOL    HW2 6387   3.569   0.309   3.534
 1830SOL     OW 6388   5.488   6.319   3.953
 1830SOL    HW1 6389   5.462   6.223   3.951
 1830SOL    HW2 6390   5.410   6.374   3.984
 1831SOL     OW 6391   6.437   0.476   1.999
 1831SOL    HW1 6392   6.511   0.414   1.974
 1831SOL    HW2 6393   6.374   0.429   2.060
 1832SOL     OW 6394   5.466   1.112   0.974
 1832SOL    HW1 6395   5.445   1.014   0.979
 1832SOL    HW2 6396   5.420   1.152   0.895
 1833SOL     OW 6397   5.155   0.209   6.104
 1833SOL    HW1 6398   5.154   0.258   6.018
 1833SOL    HW2 6399   5.186   0.115   6.089
 1834SOL     OW 6400   2.608   4.131   0.241
 1834SOL    HW1 6401   2.703   4.101   0.244
 1834SOL    HW2 6402   2.563   4.105   0.326
 1835SOL     OW 6403   0.555   3.753   1.982
 1835SOL    HW1 6404   0.500   3.675   2.010
 1835SOL    HW2 6405   0.497   3.818   1.932
 1836SOL     OW 6406   4.903   1.900   0.685
 1836SOL    HW1 6407   4.891   1.964   0.760
 1836SOL    HW2 6408   4.922   1.809   0.721
 1837SOL     OW 6409   0.839   1.852   4.524
 1837SOL    HW1 6410   0.891   1.778   4.483
 1837SOL    HW2 6411   0.896   1.934   4.530
 1838SOL     OW 6412   0.281   1.398   4.204
 1838SOL    HW1 6413   0.189   1.434   4.219
 1838SOL    HW2 6414   0.283   1.301   4.227
 1839SOL     OW 6415   5.413   2.813   4.966
 1839SOL    HW1 6416   5.348   2.738   4.951
 1839SOL    HW2 6417   5.371   2.882   5.025
 1840SOL     OW 6418   3.543   5.713   1.551
 1840SOL    HW1 6419   3.606   5.754   1.617
 1840SOL    HW2 6420   3.595   5.671   1.477
 1841SOL     OW 6421   2.226   1.541   3.840
 1841SOL    HW1 6422   2.128   1.543   3.860
 1841SOL    HW2 6423   2.267   1.461   3.883
 1842SOL     OW 6424   1.432   5.546   0.302
 1842SOL    HW1 6425   1.360   5.611   0.326
 1842SOL    HW2 6426   1.493   5.587   0.234
 1843SOL     OW 6427   6.479   2.156   3.997
 1843SOL    HW1 6428   6.504   2.062   3.974
 1843SOL    HW2 6429   6.542   2.219   3.950
 1844SOL     OW 6430   3.598   0.147   5.226
 1844SOL    HW1 6431   3.513   0.148   5.279
 1844SOL    HW2 6432   3.615   0.054   5.193
 1845SOL     OW 6433   1.970   6.626   4.925
 1845SOL    HW1 6434   1.887   6.570   4.930
 1845SOL    HW2 6435   2.035   6.595   4.994
 1846SOL     OW 6436   4.304   1.951   0.362
 1846SOL    HW1 6437   4.332   2.045   0.383
 1846SOL    HW2 6438   4.378   1.903   0.315
 1847SOL     OW 6439   1.269   0.435   6.498
 1847SOL    HW1 6440   1.360   0.395   6.507
 1847SOL    HW2 6441   1.275   0.534   6.513
 1848SOL     OW 6442   1.152   6.878   2.619
 1848SOL    HW1 6443   1.138   6.953   2.555
 1848SOL    HW2 6444   1.074   6.871   2.680
 1849SOL     OW 6445   3.373   2.129   0.966
 1849SOL    HW1 6446   3.274   2.117   0.953
 1849SOL    HW2 6447   3.408   2.193   0.897
 1850SOL     OW 6448   0.930   3.106   2.549
 1850SOL    HW1 6449   0.998   3.116   2.621
 1850SOL    HW2 6450   0.841   3.137   2.582
 1851SOL     OW 6451   0.309   2.649   1.559
 1851SOL    HW1 6452   0.368   2.572   1.584
 1851SOL    HW2 6453   0.281   2.641   1.464
 1852SOL     OW 6454   5.815   3.755   2.525
 1852SOL    HW1 6455   5.723   3.761   2.562
 1852SOL    HW2 6456   5.811   3.744   2.426
 1853SOL     OW 6457   0.206   3.198   3.032
 1853SOL    HW1 6458   0.298   3.237   3.019
 1853SOL    HW2 6459   0.213   3.098   3.040
 1854SOL     OW 6460   2.731   5.943   3.629
 1854SOL    HW1 6461   2.645   5.915   3.672
 1854SOL    HW2 6462   2.713   5.985   3.541
 1855SOL     OW 6463   5.245   3.807   6.154
 1855SOL    HW1 6464   5.216   3.732   6.214
 1855SOL    HW2 6465   5.337   3.788   6.119
 1856SOL     OW 6466   6.125   3.435   5.855
 1856SOL    HW1 6467   6.142   3.501   5.781
 1856SOL    HW2 6468   6.045   3.464   5.908
 1857SOL     OW 6469   3.894   1.253   5.535
 1857SOL    HW1 6470   3.945   1.332   5.569
 1857SOL    HW2 6471   3.863   1.197   5.612
 1858SOL     OW 6472   6.230   3.599   3.659
 1858SOL    HW1 6473   6.257   3.695   3.660
 1858SOL    HW2 6474   6.239   3.563   3.566
 1859SOL     OW 6475   4.874   1.866   3.222
 1859SOL    HW1 6476   4.846   1.950   3.270
 1859SOL    HW2 6477   4.936   1.890   3.147
 1860SOL     OW 6478   6.555   0.597   4.617
 1860SOL    HW1 6479   6.577   0.518   4.674
 1860SOL    HW2 6480   6.509   0.566   4.533
 1861SOL     OW 6481   5.823   0.345   1.717
 1861SOL    HW1 6482   5.833   0.298   1.805
 1861SOL    HW2 6483   5.911   0.379   1.686
 1862SOL     OW 6484   2.283   0.502   5.821
 1862SOL    HW1 6485   2.274   0.462   5.912
 1862SOL    HW2 6486   2.240   0.593   5.820
 1863SOL     OW 6487   1.381   2.009   1.468
 1863SOL    HW1 6488   1.478   2.010   1.494
 1863SOL    HW2 6489   1.366   2.072   1.392
 1864SOL     OW 6490   0.793   0.014   5.648
 1864SOL    HW1 6491   0.765   0.091   5.705
 1864SOL    HW2 6492   0.758   0.027   5.555
 1865SOL     OW 6493   3.559   6.420   6.233
 1865SOL    HW1 6494   3.567   6.402   6.331
 1865SOL    HW2 6495   3.533   6.515   6.218
 1866SOL     OW 6496   4.300   4.910   3.459
 1866SOL    HW1 6497   4.396   4.884   3.469
 1866SOL    HW2 6498   4.242   4.837   3.494
 1867SOL     OW 6499   0.294   3.804   7.001
 1867SOL    HW1 6500   0.380   3.827   6.955
 1867SOL    HW2 6501   0.273   3.708   6.986
 1868SOL     OW 6502   4.558   4.505   6.942
 1868SOL    HW1 6503   4.484   4.526   7.006
 1868SOL    HW2 6504   4.560   4.407   6.923
 1869SOL     OW 6505   6.134   2.595   5.769
 1869SOL    HW1 6506   6.199   2.670   5.777
 1869SOL    HW2 6507   6.063   2.619   5.703
 1870SOL     OW 6508   2.186   2.601   5.736
 1870SOL    HW1 6509   2.212   2.683   5.787
 1870SOL    HW2 6510   2.118   2.625   5.667
 1871SOL     OW 6511   0.768   0.512   0.736
 1871SOL    HW1 6512   0.833   0.582   0.705
 1871SOL    HW2 6513   0.785   0.493   0.833
 1872SOL     OW 6514   3.409   2.105   6.515
 1872SOL    HW1 6515   3.495   2.092   6.466
 1872SOL    HW2 6516   3.341   2.144   6.453
 1873SOL     OW 6517   4.875   1.701   5.535
 1873SOL    HW1 6518   4.955   1.648   5.563
 1873SOL    HW2 6519   4.877   1.790   5.580
 1874SOL     OW 6520   3.446   1.132   1.101
 1874SOL    HW1 6521   3.512   1.207   1.106
 1874SOL    HW2 6522   3.460   1.081   1.016
 1875SOL     OW 6523   0.339   1.250   0.247
 1875SOL    HW1 6524   0.426   1.209   0.219
 1875SOL    HW2 6525   0.265   1.185   0.231
 1876SOL     OW 6526   3.949   6.444   6.098
 1876SOL    HW1 6527   3.930   6.508   6.172
 1876SOL    HW2 6528   4.045   6.417   6.101
 1877SOL     OW 6529   0.458   0.228   2.711
 1877SOL    HW1 6530   0.494   0.315   2.679
 1877SOL    HW2 6531   0.359   0.224   2.696
 1878SOL     OW 6532   6.885   2.448   3.668
 1878SOL    HW1 6533   6.845   2.522   3.613
 1878SOL    HW2 6534   6.931   2.487   3.748
 1879SOL     OW 6535   1.426   4.476   4.238
 1879SOL    HW1 6536   1.368   4.529   4.176
 1879SOL    HW2 6537   1.382   4.467   4.327
 1880SOL     OW 6538   6.674   1.305   4.487
 1880SOL    HW1 6539   6.618   1.344   4.414
 1880SOL    HW2 6540   6.667   1.205   4.485
 1881SOL     OW 6541   5.963   2.026   3.263
 1881SOL    HW1 6542   5.899   2.053   3.191
 1881SOL    HW2 6543   6.026   2.101   3.281
 1882SOL     OW 6544   1.301   3.829   6.126
 1882SOL    HW1 6545   1.384   3.841   6.181
 1882SOL    HW2 6546   1.321   3.851   6.031
 1883SOL     OW 6547   0.099   1.978   3.484
 1883SOL    HW1 6548   0.026   2.032   3.527
 1883SOL    HW2 6549   0.070   1.883   3.476
 1884SOL     OW 6550   6.861   2.506   0.558
 1884SOL    HW1 6551   6.858   2.591   0.610
 1884SOL    HW2 6552   6.841   2.429   0.618
 1885SOL     OW 6553   1.907   2.087   6.671
 1885SOL    HW1 6554   1.958   2.165   6.707
 1885SOL    HW2 6555   1.955   2.002   6.695
 1886SOL     OW 6556   1.857   1.199   1.884
 1886SOL    HW1 6557   1.889   1.114   1.924
 1886SOL    HW2 6558   1.842   1.266   1.957
 1887SOL     OW 6559   0.935   6.233   4.702
 1887SOL    HW1 6560   0.962   6.304   4.767
 1887SOL    HW2 6561   0.944   6.269   4.609
 1888SOL     OW 6562   2.724   2.018   0.400
 1888SOL    HW1 6563   2.760   1.999   0.492
 1888SOL    HW2 6564   2.663   1.944   0.373
 1889SOL     OW 6565   0.591   3.304   5.579
 1889SOL    HW1 6566   0.575   3.206   5.564
 1889SOL    HW2 6567   0.686   3.326   5.558
 1890SOL     OW 6568   1.838   6.170   4.564
 1890SOL    HW1 6569   1.805   6.093   4.509
 1890SOL    HW2 6570   1.762   6.209   4.615
 1891SOL     OW 6571   5.738   2.517   2.234
 1891SOL    HW1 6572   5.667   2.579   2.200
 1891SOL    HW2 6573   5.794   2.486   2.158
 1892SOL     OW 6574   2.379   0.242   2.979
 1892SOL    HW1 6575   2.463   0.296   2.966
 1892SOL    HW2 6576   2.354   0.199   2.892
 1893SOL     OW 6577   3.072   3.048   6.987
 1893SOL    HW1 6578   3.104   3.073   0.055
 1893SOL    HW2 6579   3.116   2.963   6.957
 1894SOL     OW 6580   3.675   4.144   4.043
 1894SOL    HW1 6581   3.575   4.144   4.034
 1894SOL    HW2 6582   3.700   4.176   4.135
 1895SOL     OW 6583   4.633   0.717   1.522
 1895SOL    HW1 6584   4.691   0.641   1.494
 1895SOL    HW2 6585   4.689   0.799   1.535
 1896SOL     OW 6586   5.286   0.423   1.140
 1896SOL    HW1 6587   5.209   0.419   1.076
 1896SOL    HW2 6588   5.349   0.495   1.113
 1897SOL     OW 6589   2.437   5.513   1.395
 1897SOL    HW1 6590   2.346   5.526   1.434
 1897SOL    HW2 6591   2.441   5.425   1.346
 1898SOL     OW 6592   2.327   5.491   3.188
 1898SOL    HW1 6593   2.233   5.525   3.179
 1898SOL    HW2 6594   2.348   5.477   3.284
 1899SOL     OW 6595   0.941   1.184   1.767
 1899SOL    HW1 6596   0.847   1.151   1.761
 1899SOL    HW2 6597   0.995   1.121   1.823
 1900SOL     OW 6598   1.810   0.329   6.412
 1900SOL    HW1 6599   1.870   0.404   6.441
 1900SOL    HW2 6600   1.853   0.279   6.338
 1901SOL     OW 6601   1.553   2.436   1.208
 1901SOL    HW1 6602   1.516   2.344   1.195
 1901SOL    HW2 6603   1.623   2.434   1.279
 1902SOL     OW 6604   2.007   1.098   5.257
 1902SOL    HW1 6605   1.984   1.003   5.238
 1902SOL    HW2 6606   1.944   1.134   5.327
 1903SOL     OW 6607   0.070   3.420   2.892
 1903SOL    HW1 6608   7.021   3.434   2.961
 1903SOL    HW2 6609   0.080   3.322   2.875
 1904SOL     OW 6610   5.537   5.711   3.611
 1904SOL    HW1 6611   5.505   5.656   3.534
 1904SOL    HW2 6612   5.498   5.676   3.696
 1905SOL     OW 6613   1.166   0.103   3.388
 1905SOL    HW1 6614   1.198   0.098   3.482
 1905SOL    HW2 6615   1.212   0.034   3.333
 1906SOL     OW 6616   2.212   0.021   4.803
 1906SOL    HW1 6617   2.278   0.010   4.878
 1906SOL    HW2 6618   2.136   6.980   4.817
 1907SOL     OW 6619   3.565   1.538   1.903
 1907SOL    HW1 6620   3.530   1.498   1.988
 1907SOL    HW2 6621   3.508   1.509   1.826
 1908SOL     OW 6622   3.446   6.895   5.460
 1908SOL    HW1 6623   3.379   6.851   5.400
 1908SOL    HW2 6624   3.504   6.825   5.502
 1909SOL     OW 6625   0.515   3.820   2.714
 1909SOL    HW1 6626   0.515   3.747   2.783
 1909SOL    HW2 6627   0.540   3.907   2.758
 1910SOL     OW 6628   0.236   4.462   6.818
 1910SOL    HW1 6629   0.293   4.388   6.853
 1910SOL    HW2 6630   0.292   4.545   6.808
 1911SOL     OW 6631   0.270   3.739   5.014
 1911SOL    HW1 6632   0.368   3.719   5.000
 1911SOL    HW2 6633   0.250   3.734   5.112
 1912SOL     OW 6634   3.238   5.616   0.390
 1912SOL    HW1 6635   3.186   5.612   0.305
 1912SOL    HW2 6636   3.211   5.541   0.450
 1913SOL     OW 6637   2.504   6.968   4.900
 1913SOL    HW1 6638   2.543   0.032   4.870
 1913SOL    HW2 6639   2.563   6.927   4.970
 1914SOL     OW 6640   3.647   2.827   6.402
 1914SOL    HW1 6641   3.680   2.817   6.308
 1914SOL    HW2 6642   3.618   2.737   6.436
 1915SOL     OW 6643   3.655   2.204   5.394
 1915SOL    HW1 6644   3.705   2.161   5.319
 1915SOL    HW2 6645   3.572   2.246   5.357
 1916SOL     OW 6646   4.037   5.591   1.543
 1916SOL    HW1 6647   3.982   5.669   1.513
 1916SOL    HW2 6648   4.127   5.596   1.501
 1917SOL     OW 6649   2.453   2.987   6.461
 1917SOL    HW1 6650   2.518   3.019   6.392
 1917SOL    HW2 6651   2.501   2.969   6.547
 1918SOL     OW 6652   1.477   1.279   4.805
 1918SOL    HW1 6653   1.424   1.328   4.736
 1918SOL    HW2 6654   1.575   1.289   4.786
 1919SOL     OW 6655   1.565   1.240   1.861
 1919SOL    HW1 6656   1.663   1.224   1.863
 1919SOL    HW2 6657   1.527   1.224   1.952
 1920SOL     OW 6658   0.584   4.151   3.068
 1920SOL    HW1 6659   0.539   4.203   3.141
 1920SOL    HW2 6660   0.683   4.150   3.084
 1921SOL     OW 6661   1.472   3.591   6.509
 1921SOL    HW1 6662   1.482   3.528   6.432
 1921SOL    HW2 6663   1.546   3.577   6.574
 1922SOL     OW 6664   2.684   3.116   1.667
 1922SOL    HW1 6665   2.778   3.097   1.639
 1922SOL    HW2 6666   2.639   3.030   1.693
 1923SOL     OW 6667   4.180   1.120   6.029
 1923SOL    HW1 6668   4.111   1.053   6.059
 1923SOL    HW2 6669   4.155   1.154   5.938
 1924SOL     OW 6670   4.710   6.600   0.383
 1924SOL    HW1 6671   4.643   6.543   0.336
 1924SOL    HW2 6672   4.728   6.682   0.330
 1925SOL     OW 6673   1.917   5.027   0.498
 1925SOL    HW1 6674   1.858   4.956   0.535
 1925SOL    HW2 6675   1.908   5.110   0.553
 1926SOL     OW 6676   2.904   6.832   2.941
 1926SOL    HW1 6677   2.893   6.788   2.852
 1926SOL    HW2 6678   2.874   6.770   3.013
 1927SOL     OW 6679   2.591   4.911   0.386
 1927SOL    HW1 6680   2.608   4.937   0.291
 1927SOL    HW2 6681   2.492   4.903   0.401
 1928SOL     OW 6682   6.081   4.021   4.544
 1928SOL    HW1 6683   5.985   3.996   4.531
 1928SOL    HW2 6684   6.086   4.106   4.597
 1929SOL     OW 6685   2.460   0.400   1.274
 1929SOL    HW1 6686   2.378   0.343   1.277
 1929SOL    HW2 6687   2.440   0.490   1.312
 1930SOL     OW 6688   4.783   3.737   6.544
 1930SOL    HW1 6689   4.735   3.801   6.604
 1930SOL    HW2 6690   4.872   3.775   6.519
 1931SOL     OW 6691   0.977   2.555   1.371
 1931SOL    HW1 6692   0.920   2.507   1.439
 1931SOL    HW2 6693   1.073   2.533   1.387
 1932SOL     OW 6694   4.876   2.490   3.051
 1932SOL    HW1 6695   4.906   2.433   2.975
 1932SOL    HW2 6696   4.853   2.581   3.017
 1933SOL     OW 6697   1.356   3.140   0.537
 1933SOL    HW1 6698   1.326   3.093   0.454
 1933SOL    HW2 6699   1.379   3.234   0.515
 1934SOL     OW 6700   6.978   0.587   4.996
 1934SOL    HW1 6701   0.018   0.664   5.010
 1934SOL    HW2 6702   6.894   0.602   5.048
 1935SOL     OW 6703   4.584   4.889   3.508
 1935SOL    HW1 6704   4.566   4.851   3.599
 1935SOL    HW2 6705   4.679   4.871   3.482
 1936SOL     OW 6706   5.102   4.493   4.090
 1936SOL    HW1 6707   5.200   4.485   4.074
 1936SOL    HW2 6708   5.064   4.565   4.031
 1937SOL     OW 6709   3.994   5.970   0.040
 1937SOL    HW1 6710   3.938   5.954   0.121
 1937SOL    HW2 6711   4.091   5.965   0.064
 1938SOL     OW 6712   1.362   1.606   1.722
 1938SOL    HW1 6713   1.350   1.508   1.706
 1938SOL    HW2 6714   1.315   1.657   1.651
 1939SOL     OW 6715   6.736   6.552   4.288
 1939SOL    HW1 6716   6.812   6.610   4.316
 1939SOL    HW2 6717   6.752   6.459   4.322
 1940SOL     OW 6718   6.684   5.232   0.707
 1940SOL    HW1 6719   6.695   5.162   0.637
 1940SOL    HW2 6720   6.670   5.321   0.663
 1941SOL     OW 6721   1.480   2.672   4.392
 1941SOL    HW1 6722   1.554   2.618   4.431
 1941SOL    HW2 6723   1.497   2.687   4.295
 1942SOL     OW 6724   5.428   2.736   2.439
 1942SOL    HW1 6725   5.469   2.775   2.357
 1942SOL    HW2 6726   5.328   2.733   2.428
 1943SOL     OW 6727   1.788   6.501   3.370
 1943SOL    HW1 6728   1.846   6.527   3.293
 1943SOL    HW2 6729   1.708   6.562   3.373
 1944SOL     OW 6730   6.031   4.026   6.996
 1944SOL    HW1 6731   5.972   4.100   6.963
 1944SOL    HW2 6732   5.984   3.977   0.047
 1945SOL     OW 6733   3.771   5.162   7.018
 1945SOL    HW1 6734   3.751   5.089   0.061
 1945SOL    HW2 6735   3.685   5.200   6.985
 1946SOL     OW 6736   5.614   0.237   0.889
 1946SOL    HW1 6737   5.631   0.276   0.980
 1946SOL    HW2 6738   5.516   0.219   0.879
 1947SOL     OW 6739   5.179   6.351   4.776
 1947SOL    HW1 6740   5.252   6.359   4.844
 1947SOL    HW2 6741   5.138   6.441   4.762
 1948SOL     OW 6742   6.010   5.275   3.080
 1948SOL    HW1 6743   5.945   5.350   3.082
 1948SOL    HW2 6744   5.989   5.214   3.004
 1949SOL     OW 6745   3.784   3.425   6.809
 1949SOL    HW1 6746   3.714   3.476   6.759
 1949SOL    HW2 6747   3.781   3.451   6.905
 1950SOL     OW 6748   3.457   3.017   2.070
 1950SOL    HW1 6749   3.544   3.066   2.067
 1950SOL    HW2 6750   3.415   3.017   1.979
 1951SOL     OW 6751   6.774   4.540   6.563
 1951SOL    HW1 6752   6.730   4.456   6.532
 1951SOL    HW2 6753   6.865   4.519   6.598
 1952SOL     OW 6754   5.781   4.321   1.102
 1952SOL    HW1 6755   5.727   4.400   1.071
 1952SOL    HW2 6756   5.759   4.241   1.046
 1953SOL     OW 6757   6.576   1.866   5.841
 1953SOL    HW1 6758   6.666   1.898   5.813
 1953SOL    HW2 6759   6.582   1.772   5.874
 1954SOL     OW 6760   6.318   0.280   1.124
 1954SOL    HW1 6761   6.347   0.314   1.034
 1954SOL    HW2 6762   6.394   0.232   1.168
 1955SOL     OW 6763   0.516   0.436   2.436
 1955SOL    HW1 6764   0.488   0.454   2.530
 1955SOL    HW2 6765   0.476   0.505   2.376
 1956SOL     OW 6766   4.978   0.529   1.645
 1956SOL    HW1 6767   5.043   0.589   1.598
 1956SOL    HW2 6768   4.904   0.505   1.583
 1957SOL     OW 6769   4.985   4.680   3.936
 1957SOL    HW1 6770   5.066   4.736   3.920
 1957SOL    HW2 6771   4.905   4.740   3.947
 1958SOL     OW 6772   4.667   1.710   1.652
 1958SOL    HW1 6773   4.649   1.741   1.559
 1958SOL    HW2 6774   4.622   1.771   1.717
 1959SOL     OW 6775   0.510   6.926   3.734
 1959SOL    HW1 6776   0.530   6.963   3.643
 1959SOL    HW2 6777   0.584   6.950   3.797
 1960SOL     OW 6778   0.259   3.950   2.728
 1960SOL    HW1 6779   0.342   3.921   2.680
 1960SOL    HW2 6780   0.252   4.049   2.726
 1961SOL     OW 6781   6.239   4.525   4.453
 1961SOL    HW1 6782   6.257   4.583   4.532
 1961SOL    HW2 6783   6.228   4.582   4.371
 1962SOL     OW 6784   1.584   6.983   2.072
 1962SOL    HW1 6785   1.552   0.030   2.135
 1962SOL    HW2 6786   1.560   6.892   2.108
 1963SOL     OW 6787   1.339   1.340   1.696
 1963SOL    HW1 6788   1.264   1.308   1.637
 1963SOL    HW2 6789   1.353   1.274   1.770
 1964SOL     OW 6790   3.860   4.866   1.028
 1964SOL    HW1 6791   3.813   4.778   1.016
 1964SOL    HW2 6792   3.917   4.862   1.110
 1965SOL     OW 6793   2.043   2.126   4.474
 1965SOL    HW1 6794   2.059   2.110   4.377
 1965SOL    HW2 6795   2.101   2.201   4.506
 1966SOL     OW 6796   0.795   5.990   1.510
 1966SOL    HW1 6797   0.772   5.909   1.564
 1966SOL    HW2 6798   0.884   5.978   1.468
 1967SOL     OW 6799   6.202   2.927   4.281
 1967SOL    HW1 6800   6.119   2.929   4.225
 1967SOL    HW2 6801   6.208   2.839   4.329
 1968SOL     OW 6802   1.961   0.207   5.595
 1968SOL    HW1 6803   2.048   0.234   5.553
 1968SOL    HW2 6804   1.890   0.273   5.571
 1969SOL     OW 6805   2.751   1.442   1.466
 1969SOL    HW1 6806   2.802   1.400   1.541
 1969SOL    HW2 6807   2.813   1.458   1.389
 1970SOL     OW 6808   0.930   0.069   4.967
 1970SOL    HW1 6809   0.843   0.064   4.918
 1970SOL    HW2 6810   0.953   0.165   4.984
 1971SOL     OW 6811   0.518   1.088   5.777
 1971SOL    HW1 6812   0.514   0.991   5.754
 1971SOL    HW2 6813   0.447   1.109   5.845
 1972SOL     OW 6814   5.727   2.555   1.158
 1972SOL    HW1 6815   5.804   2.553   1.094
 1972SOL    HW2 6816   5.649   2.602   1.115
 1973SOL     OW 6817   2.606   4.231   1.669
 1973SOL    HW1 6818   2.696   4.268   1.643
 1973SOL    HW2 6819   2.554   4.211   1.586
 1974SOL     OW 6820   4.904   0.163   4.787
 1974SOL    HW1 6821   4.983   0.128   4.736
 1974SOL    HW2 6822   4.861   0.088   4.837
 1975SOL     OW 6823   2.082   2.073   4.205
 1975SOL    HW1 6824   2.085   2.167   4.171
 1975SOL    HW2 6825   2.174   2.035   4.206
 1976SOL     OW 6826   5.718   6.153   0.832
 1976SOL    HW1 6827   5.700   6.118   0.924
 1976SOL    HW2 6828   5.691   6.083   0.765
 1977SOL     OW 6829   1.860   3.211   5.264
 1977SOL    HW1 6830   1.837   3.281   5.196
 1977SOL    HW2 6831   1.884   3.126   5.216
 1978SOL     OW 6832   2.190   5.884   2.936
 1978SOL    HW1 6833   2.093   5.900   2.918
 1978SOL    HW2 6834   2.200   5.813   3.007
 1979SOL     OW 6835   5.584   5.116   0.195
 1979SOL    HW1 6836   5.620   5.026   0.220
 1979SOL    HW2 6837   5.557   5.165   0.278
 1980SOL     OW 6838   4.111   0.068   3.740
 1980SOL    HW1 6839   4.066   7.013   3.784
 1980SOL    HW2 6840   4.182   0.104   3.801
 1981SOL     OW 6841   5.749   2.966   2.722
 1981SOL    HW1 6842   5.778   2.989   2.629
 1981SOL    HW2 6843   5.824   2.922   2.771
 1982SOL     OW 6844   6.733   3.861   3.677
 1982SOL    HW1 6845   6.824   3.819   3.679
 1982SOL    HW2 6846   6.681   3.832   3.757
 1983SOL     OW 6847   2.217   0.754   1.600
 1983SOL    HW1 6848   2.169   0.741   1.687
 1983SOL    HW2 6849   2.269   0.839   1.602
 1984SOL     OW 6850   4.526   2.416   4.924
 1984SOL    HW1 6851   4.531   2.515   4.930
 1984SOL    HW2 6852   4.430   2.387   4.925
 1985SOL     OW 6853   0.256   6.163   1.963
 1985SOL    HW1 6854   0.169   6.135   2.002
 1985SOL    HW2 6855   0.242   6.241   1.902
 1986SOL     OW 6856   2.989   0.856   6.584
 1986SOL    HW1 6857   3.005   0.858   6.485
 1986SOL    HW2 6858   2.893   0.879   6.602
 1987SOL     OW 6859   2.489   1.460   3.644
 1987SOL    HW1 6860   2.585   1.433   3.647
 1987SOL    HW2 6861   2.433   1.385   3.680
 1988SOL     OW 6862   0.353   2.633   0.884
 1988SOL    HW1 6863   0.273   2.626   0.943
 1988SOL    HW2 6864   0.422   2.691   0.927
 1989SOL     OW 6865   2.166   5.711   5.069
 1989SOL    HW1 6866   2.117   5.633   5.108
 1989SOL    HW2 6867   2.256   5.681   5.038
 1990SOL     OW 6868   3.421   5.528   6.990
 1990SOL    HW1 6869   3.417   5.628   6.994
 1990SOL    HW2 6870   3.334   5.492   6.958
 1991SOL     OW 6871   1.573   5.958   0.640
 1991SOL    HW1 6872   1.484   5.999   0.660
 1991SOL    HW2 6873   1.601   5.983   0.548
 1992SOL     OW 6874   0.259   0.603   0.519
 1992SOL    HW1 6875   0.192   0.669   0.555
 1992SOL    HW2 6876   0.248   0.516   0.566
 1993SOL     OW 6877   3.277   1.626   5.595
 1993SOL    HW1 6878   3.196   1.645   5.651
 1993SOL    HW2 6879   3.274   1.683   5.513
 1994SOL     OW 6880   6.055   2.418   1.673
 1994SOL    HW1 6881   6.140   2.470   1.665
 1994SOL    HW2 6882   5.978   2.475   1.646
 1995SOL     OW 6883   5.694   3.286   3.977
 1995SOL    HW1 6884   5.683   3.289   4.076
 1995SOL    HW2 6885   5.739   3.370   3.946
 1996SOL     OW 6886   2.716   1.936   1.206
 1996SOL    HW1 6887   2.673   2.012   1.255
 1996SOL    HW2 6888   2.645   1.875   1.171
 1997SOL     OW 6889   3.838   1.708   3.805
 1997SOL    HW1 6890   3.935   1.691   3.823
 1997SOL    HW2 6891   3.820   1.697   3.707
 1998SOL     OW 6892   1.714   3.840   0.792
 1998SOL    HW1 6893   1.721   3.936   0.764
 1998SOL    HW2 6894   1.800   3.810   0.832
 1999SOL     OW 6895   0.958   0.286   5.809
 1999SOL    HW1 6896   0.866   0.275   5.771
 1999SOL    HW2 6897   1.013   0.342   5.747
 2000SOL     OW 6898   3.776   2.853   5.708
 2000SOL    HW1 6899   3.811   2.890   5.794
 2000SOL    HW2 6900   3.832   2.886   5.632
 2001SOL     OW 6901   2.199   1.365   0.963
 2001SOL    HW1 6902   2.218   1.268   0.980
 2001SOL    HW2 6903   2.116   1.374   0.908
 2002SOL     OW 6904   0.669   4.890   0.837
 2002SOL    HW1 6905   0.647   4.909   0.933
 2002SOL    HW2 6906   0.590   4.846   0.793
 2003SOL     OW 6907   6.572   4.909   2.150
 2003SOL    HW1 6908   6.604   4.997   2.184
 2003SOL    HW2 6909   6.608   4.893   2.058
 2004SOL     OW 6910   4.842   0.819   4.643
 2004SOL    HW1 6911   4.786   0.901   4.658
 2004SOL    HW2 6912   4.857   0.774   4.731
 2005SOL     OW 6913   0.055   4.582   0.435
 2005SOL    HW1 6914   0.120   4.655   0.456
 2005SOL    HW2 6915   0.104   4.502   0.402
 2006SOL     OW 6916   5.767   6.894   3.873
 2006SOL    HW1 6917   5.749   6.810   3.821
 2006SOL    HW2 6918   5.771   6.972   3.810
 2007SOL     OW 6919   5.370   4.492   0.893
 2007SOL    HW1 6920   5.371   4.592   0.899
 2007SOL    HW2 6921   5.460   4.456   0.915
 2008SOL     OW 6922   2.103   3.587   3.488
 2008SOL    HW1 6923   2.123   3.497   3.525
 2008SOL    HW2 6924   2.004   3.602   3.488
 2009SOL     OW 6925   4.971   6.282   2.228
 2009SOL    HW1 6926   4.933   6.369   2.198
 2009SOL    HW2 6927   4.907   6.239   2.293
 2010SOL     OW 6928   2.545   1.687   2.044
 2010SOL    HW1 6929   2.584   1.766   1.997
 2010SOL    HW2 6930   2.448   1.702   2.062
 2011SOL     OW 6931   0.552   1.191   5.170
 2011SOL    HW1 6932   0.648   1.213   5.149
 2011SOL    HW2 6933   0.496   1.206   5.088
 2012SOL     OW 6934   1.535   3.687   2.332
 2012SOL    HW1 6935   1.477   3.617   2.376
 2012SOL    HW2 6936   1.505   3.700   2.238
 2013SOL     OW 6937   6.212   3.122   3.860
 2013SOL    HW1 6938   6.117   3.097   3.878
 2013SOL    HW2 6939   6.267   3.103   3.941
 2014SOL     OW 6940   3.168   0.109   3.241
 2014SOL    HW1 6941   3.152   0.196   3.287
 2014SOL    HW2 6942   3.091   0.047   3.260
 2015SOL     OW 6943   2.624   6.490   0.731
 2015SOL    HW1 6944   2.710   6.448   0.703
 2015SOL    HW2 6945   2.574   6.520   0.650
 2016SOL     OW 6946   1.494   5.781   5.273
 2016SOL    HW1 6947   1.399   5.761   5.248
 2016SOL    HW2 6948   1.497   5.828   5.361
 2017SOL     OW 6949   4.386   0.154   3.214
 2017SOL    HW1 6950   4.444   0.077   3.238
 2017SOL    HW2 6951   4.394   0.226   3.284
 2018SOL     OW 6952   6.363   2.895   3.641
 2018SOL    HW1 6953   6.396   2.818   3.696
 2018SOL    HW2 6954   6.409   2.979   3.671
 2019SOL     OW 6955   5.945   4.371   6.237
 2019SOL    HW1 6956   5.955   4.470   6.251
 2019SOL    HW2 6957   5.853   4.344   6.262
 2020SOL     OW 6958   1.817   6.417   5.860
 2020SOL    HW1 6959   1.787   6.349   5.793
 2020SOL    HW2 6960   1.914   6.436   5.846
 2021SOL     OW 6961   6.460   6.560   4.257
 2021SOL    HW1 6962   6.559   6.574   4.264
 2021SOL    HW2 6963   6.416   6.592   4.341
 2022SOL     OW 6964   1.649   4.659   4.252
 2022SOL    HW1 6965   1.611   4.567   4.262
 2022SOL    HW2 6966   1.638   4.709   4.337
 2023SOL     OW 6967   0.742   0.535   0.112
 2023SOL    HW1 6968   0.792   0.474   0.051
 2023SOL    HW2 6969   0.766   0.629   0.092
 2024SOL     OW 6970   0.053   5.836   3.935
 2024SOL    HW1 6971   0.105   5.903   3.882
 2024SOL    HW2 6972   7.008   5.883   3.992
 2025SOL     OW 6973   3.656   0.954   4.349
 2025SOL    HW1 6974   3.713   0.976   4.429
 2025SOL    HW2 6975   3.572   1.009   4.353
 2026SOL     OW 6976   6.776   2.191   6.613
 2026SOL    HW1 6977   6.719   2.271   6.595
 2026SOL    HW2 6978   6.829   2.207   6.696
 2027SOL     OW 6979   1.261   0.019   1.465
 2027SOL    HW1 6980   1.325   0.075   1.412
 2027SOL    HW2 6981   1.250   6.953   1.422
 2028SOL     OW 6982   3.338   5.307   3.791
 2028SOL    HW1 6983   3.272   5.373   3.753
 2028SOL    HW2 6984   3.406   5.356   3.845
 2029SOL     OW 6985   6.661   2.323   6.881
 2029SOL    HW1 6986   6.595   2.320   6.955
 2029SOL    HW2 6987   6.650   2.242   6.823
 2030SOL     OW 6988   3.402   0.212   2.735
 2030SOL    HW1 6989   3.428   0.127   2.782
 2030SOL    HW2 6990   3.328   0.256   2.786
 2031SOL     OW 6991   0.165   6.667   2.412
 2031SOL    HW1 6992   0.229   6.717   2.471
 2031SOL    HW2 6993   0.078   6.656   2.460
 2032SOL     OW 6994   3.624   1.341   1.546
 2032SOL    HW1 6995   3.637   1.420   1.605
 2032SOL    HW2 6996   3.534   1.345   1.503
 2033SOL     OW 6997   2.278   1.061   0.938
 2033SOL    HW1 6998   2.223   0.978   0.940
 2033SOL    HW2 6999   2.358   1.048   0.997
 2034SOL     OW 7000   1.644   4.843   5.821
 2034SOL    HW1 7001   1.599   4.864   5.908
 2034SOL    HW2 7002   1.730   4.894   5.815
 2035SOL     OW 7003   6.492   6.460   2.697
 2035SOL    HW1 7004   6.501   6.369   2.739
 2035SOL    HW2 7005   6.582   6.501   2.685
 2036SOL     OW 7006   1.287   3.712   3.102
 2036SOL    HW1 7007   1.290   3.786   3.034
 2036SOL    HW2 7008   1.215   3.648   3.077
 2037SOL     OW 7009   6.037   2.799   6.303
 2037SOL    HW1 7010   6.044   2.791   6.204
 2037SOL    HW2 7011   6.111   2.747   6.346
 2038SOL     OW 7012   2.564   1.526   0.623
 2038SOL    HW1 7013   2.596   1.621   0.621
 2038SOL    HW2 7014   2.603   1.479   0.701
 2039SOL     OW 7015   0.183   6.820   3.239
 2039SOL    HW1 7016   0.135   6.741   3.199
 2039SOL    HW2 7017   0.269   6.834   3.191
 2040SOL     OW 7018   2.372   2.152   0.227
 2040SOL    HW1 7019   2.330   2.076   0.277
 2040SOL    HW2 7020   2.463   2.170   0.264
 2041SOL     OW 7021   1.386   0.404   5.382
 2041SOL    HW1 7022   1.399   0.330   5.448
 2041SOL    HW2 7023   1.337   0.369   5.302
 2042SOL     OW 7024   5.130   0.358   5.870
 2042SOL    HW1 7025   5.039   0.317   5.870
 2042SOL    HW2 7026   5.173   0.344   5.780
 2043SOL     OW 7027   6.370   2.982   2.917
 2043SOL    HW1 7028   6.402   2.895   2.880
 2043SOL    HW2 7029   6.273   2.994   2.897
 2044SOL     OW 7030   6.060   0.561   0.817
 2044SOL    HW1 7031   6.077   0.506   0.898
 2044SOL    HW2 7032   5.963   0.555   0.793
 2045SOL     OW 7033   0.878   5.342   4.633
 2045SOL    HW1 7034   0.916   5.433   4.613
 2045SOL    HW2 7035   0.928   5.301   4.709
 2046SOL     OW 7036   6.190   2.200   5.166
 2046SOL    HW1 7037   6.109   2.165   5.120
 2046SOL    HW2 7038   6.251   2.123   5.190
 2047SOL     OW 7039   6.397   2.927   1.195
 2047SOL    HW1 7040   6.340   2.992   1.146
 2047SOL    HW2 7041   6.408   2.844   1.141
 2048SOL     OW 7042   0.435   0.350   4.928
 2048SOL    HW1 7043   0.335   0.352   4.921
 2048SOL    HW2 7044   0.472   0.437   4.894
 2049SOL     OW 7045   5.350   1.509   4.004
 2049SOL    HW1 7046   5.391   1.421   3.980
 2049SOL    HW2 7047   5.391   1.543   4.089
 2050SOL     OW 7048   6.912   2.602   4.545
 2050SOL    HW1 7049   6.916   2.626   4.449
 2050SOL    HW2 7050   6.830   2.643   4.587
 2051SOL     OW 7051   1.774   6.191   0.003
 2051SOL    HW1 7052   1.812   6.266   0.057
 2051SOL    HW2 7053   1.771   6.108   0.059
 2052SOL     OW 7054   1.532   2.931   0.596
 2052SOL    HW1 7055   1.471   2.879   0.657
 2052SOL    HW2 7056   1.497   3.024   0.586
 2053SOL     OW 7057   1.076   5.357   5.087
 2053SOL    HW1 7058   1.006   5.289   5.108
 2053SOL    HW2 7059   1.077   5.428   5.158
 2054SOL     OW 7060   3.181   3.875   2.853
 2054SOL    HW1 7061   3.108   3.831   2.904
 2054SOL    HW2 7062   3.260   3.889   2.913
 2055SOL     OW 7063   6.254   3.010   4.897
 2055SOL    HW1 7064   6.177   3.071   4.915
 2055SOL    HW2 7065   6.339   3.063   4.896
 2056SOL     OW 7066   4.172   4.843   1.359
 2056SOL    HW1 7067   4.177   4.909   1.434
 2056SOL    HW2 7068   4.145   4.754   1.395
 2057SOL     OW 7069   4.786   3.571   5.457
 2057SOL    HW1 7070   4.779   3.622   5.371
 2057SOL    HW2 7071   4.696   3.563   5.498
 2058SOL     OW 7072   0.764   6.364   2.323
 2058SOL    HW1 7073   0.702   6.388   2.248
 2058SOL    HW2 7074   0.776   6.265   2.326
 2059SOL     OW 7075   2.586   6.923   5.970
 2059SOL    HW1 7076   2.534   6.972   5.901
 2059SOL    HW2 7077   2.548   6.831   5.982
 2060SOL     OW 7078   0.062   3.590   1.760
 2060SOL    HW1 7079   0.051   3.495   1.733
 2060SOL    HW2 7080   0.025   3.604   1.852
 2061SOL     OW 7081   1.901   2.158   2.444
 2061SOL    HW1 7082   1.883   2.229   2.512
 2061SOL    HW2 7083   1.819   2.145   2.388
 2062SOL     OW 7084   6.959   5.710   5.084
 2062SOL    HW1 7085   0.002   5.674   5.150
 2062SOL    HW2 7086   6.871   5.665   5.097
 2063SOL     OW 7087   1.325   6.605   4.983
 2063SOL    HW1 7088   1.239   6.648   5.010
 2063SOL    HW2 7089   1.315   6.505   4.986
 2064SOL     OW 7090   0.322   3.143   4.405
 2064SOL    HW1 7091   0.346   3.055   4.364
 2064SOL    HW2 7092   0.249   3.186   4.352
 2065SOL     OW 7093   5.708   3.104   5.768
 2065SOL    HW1 7094   5.609   3.095   5.760
 2065SOL    HW2 7095   5.731   3.196   5.800
 2066SOL     OW 7096   6.511   4.181   5.559
 2066SOL    HW1 7097   6.486   4.092   5.521
 2066SOL    HW2 7098   6.595   4.171   5.614
 2067SOL     OW 7099   6.597   5.241   0.968
 2067SOL    HW1 7100   6.602   5.235   0.868
 2067SOL    HW2 7101   6.536   5.170   1.002
 2068SOL     OW 7102   3.915   0.731   4.355
 2068SOL    HW1 7103   3.947   0.821   4.384
 2068SOL    HW2 7104   3.993   0.669   4.346
 2069SOL     OW 7105   0.278   2.421   4.115
 2069SOL    HW1 7106   0.333   2.423   4.031
 2069SOL    HW2 7107   0.225   2.336   4.119
 2070SOL     OW 7108   1.099   2.754   0.955
 2070SOL    HW1 7109   1.070   2.659   0.946
 2070SOL    HW2 7110   1.093   2.800   0.866
 2071SOL     OW 7111   5.875   1.589   5.968
 2071SOL    HW1 7112   5.892   1.599   5.870
 2071SOL    HW2 7113   5.863   1.680   6.009
 2072SOL     OW 7114   4.544   5.014   4.884
 2072SOL    HW1 7115   4.551   4.932   4.829
 2072SOL    HW2 7116   4.482   5.079   4.840
 2073SOL     OW 7117   3.594   6.081   5.611
 2073SOL    HW1 7118   3.627   6.014   5.545
 2073SOL    HW2 7119   3.670   6.136   5.644
 2074SOL     OW 7120   1.926   2.449   6.557
 2074SOL    HW1 7121   1.909   2.548   6.560
 2074SOL    HW2 7122   1.984   2.424   6.635
 2075SOL     OW 7123   6.500   2.337   3.258
 2075SOL    HW1 7124   6.590   2.298   3.275
 2075SOL    HW2 7125   6.476   2.325   3.162
 2076SOL     OW 7126   5.822   0.628   5.614
 2076SOL    HW1 7127   5.818   0.728   5.619
 2076SOL    HW2 7128   5.779   0.589   5.695
 2077SOL     OW 7129   6.487   2.105   1.976
 2077SOL    HW1 7130   6.447   2.043   2.044
 2077SOL    HW2 7131   6.578   2.073   1.952
 2078SOL     OW 7132   1.275   4.874   6.127
 2078SOL    HW1 7133   1.198   4.918   6.080
 2078SOL    HW2 7134   1.316   4.938   6.191
 2079SOL     OW 7135   6.059   1.032   2.830
 2079SOL    HW1 7136   6.061   1.049   2.732
 2079SOL    HW2 7137   6.151   1.011   2.862
 2080SOL     OW 7138   3.591   1.923   4.937
 2080SOL    HW1 7139   3.536   1.988   4.989
 2080SOL    HW2 7140   3.541   1.837   4.928
 2081SOL     OW 7141   0.952   6.599   3.828
 2081SOL    HW1 7142   0.939   6.502   3.807
 2081SOL    HW2 7143   0.871   6.634   3.875
 2082SOL     OW 7144   0.795   6.502   3.178
 2082SOL    HW1 7145   0.876   6.553   3.207
 2082SOL    HW2 7146   0.755   6.456   3.257
 2083SOL     OW 7147   1.376   6.077   4.581
 2083SOL    HW1 7148   1.422   6.146   4.525
 2083SOL    HW2 7149   1.314   6.123   4.645
 2084SOL     OW 7150   0.766   2.963   1.737
 2084SOL    HW1 7151   0.804   2.944   1.647
 2084SOL    HW2 7152   0.724   3.054   1.738
 2085SOL     OW 7153   5.062   6.495   0.941
 2085SOL    HW1 7154   5.107   6.559   0.878
 2085SOL    HW2 7155   5.103   6.404   0.931
 2086SOL     OW 7156   3.836   5.817   6.875
 2086SOL    HW1 7157   3.923   5.859   6.898
 2086SOL    HW2 7158   3.811   5.751   6.946
 2087SOL     OW 7159   4.535   1.836   0.240
 2087SOL    HW1 7160   4.577   1.835   0.150
 2087SOL    HW2 7161   4.596   1.882   0.305
 2088SOL     OW 7162   1.043   6.048   5.753
 2088SOL    HW1 7163   1.078   5.972   5.808
 2088SOL    HW2 7164   0.943   6.042   5.748
 2089SOL     OW 7165   4.132   2.201   5.290
 2089SOL    HW1 7166   4.082   2.281   5.257
 2089SOL    HW2 7167   4.185   2.162   5.216
 2090SOL     OW 7168   5.041   3.012   5.518
 2090SOL    HW1 7169   4.977   2.965   5.579
 2090SOL    HW2 7170   5.057   3.105   5.552
 2091SOL     OW 7171   6.533   6.106   0.707
 2091SOL    HW1 7172   6.616   6.120   0.653
 2091SOL    HW2 7173   6.546   6.146   0.798
 2092SOL     OW 7174   5.656   3.893   1.001
 2092SOL    HW1 7175   5.687   3.812   1.050
 2092SOL    HW2 7176   5.576   3.932   1.047
 2093SOL     OW 7177   3.541   1.831   2.268
 2093SOL    HW1 7178   3.504   1.884   2.191
 2093SOL    HW2 7179   3.467   1.781   2.313
 2094SOL     OW 7180   5.236   2.371   0.766
 2094SOL    HW1 7181   5.326   2.394   0.804
 2094SOL    HW2 7182   5.167   2.428   0.811
 2095SOL     OW 7183   6.089   6.225   3.459
 2095SOL    HW1 7184   6.153   6.212   3.535
 2095SOL    HW2 7185   5.999   6.188   3.484
 2096SOL     OW 7186   4.434   5.674   2.607
 2096SOL    HW1 7187   4.473   5.587   2.637
 2096SOL    HW2 7188   4.335   5.667   2.603
 2097SOL     OW 7189   2.712   3.313   6.975
 2097SOL    HW1 7190   2.791   3.352   7.022
 2097SOL    HW2 7191   2.628   3.355   7.009
 2098SOL     OW 7192   4.187   5.769   3.295
 2098SOL    HW1 7193   4.141   5.787   3.382
 2098SOL    HW2 7194   4.280   5.738   3.312
 2099SOL     OW 7195   4.322   1.566   6.695
 2099SOL    HW1 7196   4.255   1.540   6.765
 2099SOL    HW2 7197   4.285   1.542   6.605
 2100SOL     OW 7198   4.980   1.537   0.576
 2100SOL    HW1 7199   5.047   1.578   0.637
 2100SOL    HW2 7200   4.916   1.608   0.546
 2101SOL     OW 7201   6.775   6.450   1.212
 2101SOL    HW1 7202   6.843   6.468   1.142
 2101SOL    HW2 7203   6.710   6.526   1.216
 2102SOL     OW 7204   4.869   3.621   1.366
 2102SOL    HW1 7205   4.897   3.526   1.382
 2102SOL    HW2 7206   4.780   3.622   1.321
 2103SOL     OW 7207   3.187   3.622   0.535
 2103SOL    HW1 7208   3.193   3.523   0.546
 2103SOL    HW2 7209   3.130   3.660   0.607
 2104SOL     OW 7210   1.517   4.933   1.817
 2104SOL    HW1 7211   1.579   4.929   1.739
 2104SOL    HW2 7212   1.529   4.852   1.874
 2105SOL     OW 7213   3.952   4.943   6.745
 2105SOL    HW1 7214   4.024   4.982   6.803
 2105SOL    HW2 7215   3.993   4.899   6.666
 2106SOL     OW 7216   5.229   3.736   1.048
 2106SOL    HW1 7217   5.215   3.817   1.105
 2106SOL    HW2 7218   5.222   3.654   1.105
 2107SOL     OW 7219   6.170   2.950   5.624
 2107SOL    HW1 7220   6.250   2.995   5.665
 2107SOL    HW2 7221   6.090   2.964   5.682
 2108SOL     OW 7222   5.548   6.282   5.644
 2108SOL    HW1 7223   5.554   6.272   5.744
 2108SOL    HW2 7224   5.459   6.250   5.613
 2109SOL     OW 7225   3.213   6.040   2.057
 2109SOL    HW1 7226   3.193   6.026   1.960
 2109SOL    HW2 7227   3.188   5.959   2.109
 2110SOL     OW 7228   3.782   0.600   5.858
 2110SOL    HW1 7229   3.729   0.658   5.797
 2110SOL    HW2 7230   3.734   0.513   5.872
 2111SOL     OW 7231   1.318   1.980   5.207
 2111SOL    HW1 7232   1.353   2.036   5.132
 2111SOL    HW2 7233   1.358   2.011   5.293
 2112SOL     OW 7234   5.809   2.302   6.633
 2112SOL    HW1 7235   5.860   2.275   6.552
 2112SOL    HW2 7236   5.711   2.287   6.619
 2113SOL     OW 7237   2.091   0.283   4.829
 2113SOL    HW1 7238   2.140   0.197   4.836
 2113SOL    HW2 7239   2.057   0.295   4.736
 2114SOL     OW 7240   2.261   2.834   6.799
 2114SOL    HW1 7241   2.356   2.857   6.775
 2114SOL    HW2 7242   2.259   2.799   6.893
 2115SOL     OW 7243   1.267   4.588   1.770
 2115SOL    HW1 7244   1.224   4.499   1.784
 2115SOL    HW2 7245   1.347   4.596   1.829
 2116SOL     OW 7246   0.928   2.884   1.125
 2116SOL    HW1 7247   0.989   2.845   1.056
 2116SOL    HW2 7248   0.966   2.867   1.216
 2117SOL     OW 7249   5.376   3.083   1.864
 2117SOL    HW1 7250   5.300   3.089   1.929
 2117SOL    HW2 7251   5.410   2.989   1.861
 2118SOL     OW 7252   6.036   3.920   2.540
 2118SOL    HW1 7253   6.122   3.879   2.510
 2118SOL    HW2 7254   5.964   3.851   2.542
 2119SOL     OW 7255   1.678   1.538   0.383
 2119SOL    HW1 7256   1.627   1.619   0.352
 2119SOL    HW2 7257   1.715   1.555   0.474
 2120SOL     OW 7258   6.537   2.630   2.416
 2120SOL    HW1 7259   6.454   2.589   2.377
 2120SOL    HW2 7260   6.553   2.593   2.507
 2121SOL     OW 7261   2.071   2.295   6.360
 2121SOL    HW1 7262   2.019   2.210   6.371
 2121SOL    HW2 7263   2.009   2.373   6.374
 2122SOL     OW 7264   5.943   6.928   6.120
 2122SOL    HW1 7265   5.977   6.905   6.212
 2122SOL    HW2 7266   6.011   6.903   6.052
 2123SOL     OW 7267   6.531   6.002   2.190
 2123SOL    HW1 7268   6.454   6.052   2.229
 2123SOL    HW2 7269   6.591   6.065   2.141
 2124SOL     OW 7270   2.921   1.363   5.622
 2124SOL    HW1 7271   2.867   1.412   5.555
 2124SOL    HW2 7272   2.909   1.405   5.712
 2125SOL     OW 7273   1.585   5.931   2.532
 2125SOL    HW1 7274   1.593   5.978   2.620
 2125SOL    HW2 7275   1.648   5.972   2.466
 2126SOL     OW 7276   4.114   2.815   6.798
 2126SOL    HW1 7277   4.108   2.902   6.748
 2126SOL    HW2 7278   4.046   2.814   6.871
 2127SOL     OW 7279   0.462   1.765   5.504
 2127SOL    HW1 7280   0.545   1.709   5.505
 2127SOL    HW2 7281   0.475   1.841   5.439
 2128SOL     OW 7282   6.307   3.089   0.567
 2128SOL    HW1 7283   6.256   3.004   0.577
 2128SOL    HW2 7284   6.278   3.155   0.637
 2129SOL     OW 7285   5.366   4.519   4.040
 2129SOL    HW1 7286   5.440   4.583   4.058
 2129SOL    HW2 7287   5.400   4.425   4.046
 2130SOL     OW 7288   2.293   1.526   1.153
 2130SOL    HW1 7289   2.281   1.464   1.076
 2130SOL    HW2 7290   2.372   1.497   1.207
 2131SOL     OW 7291   4.940   2.094   0.505
 2131SOL    HW1 7292   4.913   2.020   0.567
 2131SOL    HW2 7293   5.028   2.132   0.535
 2132SOL     OW 7294   3.420   1.459   6.902
 2132SOL    HW1 7295   3.341   1.446   6.843
 2132SOL    HW2 7296   3.421   1.553   6.936
 2133SOL     OW 7297   2.539   2.099   1.310
 2133SOL    HW1 7298   2.524   2.150   1.395
 2133SOL    HW2 7299   2.467   2.031   1.299
 2134SOL     OW 7300   1.313   1.005   4.592
 2134SOL    HW1 7301   1.401   1.029   4.634
 2134SOL    HW2 7302   1.326   0.928   4.530
 2135SOL     OW 7303   0.322   2.012   4.359
 2135SOL    HW1 7304   0.404   2.023   4.302
 2135SOL    HW2 7305   0.261   1.945   4.318
 2136SOL     OW 7306   1.128   3.649   4.815
 2136SOL    HW1 7307   1.172   3.625   4.728
 2136SOL    HW2 7308   1.143   3.746   4.834
 2137SOL     OW 7309   0.836   6.815   4.956
 2137SOL    HW1 7310   0.860   6.911   4.941
 2137SOL    HW2 7311   0.737   6.807   4.968
 2138SOL     OW 7312   5.484   2.833   1.788
 2138SOL    HW1 7313   5.573   2.833   1.833
 2138SOL    HW2 7314   5.475   2.751   1.732
 2139SOL     OW 7315   4.176   0.869   3.620
 2139SOL    HW1 7316   4.082   0.833   3.618
 2139SOL    HW2 7317   4.174   0.968   3.632
 2140SOL     OW 7318   2.899   6.239   2.850
 2140SOL    HW1 7319   2.973   6.203   2.792
 2140SOL    HW2 7320   2.818   6.254   2.795
 2141SOL     OW 7321   6.525   3.197   1.685
 2141SOL    HW1 7322   6.471   3.276   1.715
 2141SOL    HW2 7323   6.590   3.227   1.614
 2142SOL     OW 7324   1.115   2.029   3.322
 2142SOL    HW1 7325   1.201   1.992   3.289
 2142SOL    HW2 7326   1.039   1.972   3.291
 2143SOL     OW 7327   3.520   5.793   0.788
 2143SOL    HW1 7328   3.473   5.872   0.828
 2143SOL    HW2 7329   3.484   5.775   0.696
 2144SOL     OW 7330   1.787   0.520   3.234
 2144SOL    HW1 7331   1.761   0.613   3.257
 2144SOL    HW2 7332   1.812   0.515   3.138
 2145SOL     OW 7333   3.719   5.594   4.074
 2145SOL    HW1 7334   3.759   5.578   3.984
 2145SOL    HW2 7335   3.622   5.573   4.071
 2146SOL     OW 7336   3.223   4.102   2.725
 2146SOL    HW1 7337   3.193   4.088   2.631
 2146SOL    HW2 7338   3.192   4.026   2.782
 2147SOL     OW 7339   0.355   1.286   6.826
 2147SOL    HW1 7340   0.313   1.363   6.874
 2147SOL    HW2 7341   0.451   1.306   6.808
 2148SOL     OW 7342   4.815   3.191   4.412
 2148SOL    HW1 7343   4.748   3.263   4.390
 2148SOL    HW2 7344   4.835   3.138   4.330
 2149SOL     OW 7345   3.939   0.570   1.986
 2149SOL    HW1 7346   3.958   0.520   1.902
 2149SOL    HW2 7347   3.998   0.536   2.059
 2150SOL     OW 7348   3.121   2.051   2.620
 2150SOL    HW1 7349   3.063   2.043   2.701
 2150SOL    HW2 7350   3.216   2.061   2.648
 2151SOL     OW 7351   2.977   1.886   5.157
 2151SOL    HW1 7352   2.896   1.831   5.138
 2151SOL    HW2 7353   2.950   1.982   5.169
 2152SOL     OW 7354   5.012   6.344   1.888
 2152SOL    HW1 7355   5.076   6.301   1.826
 2152SOL    HW2 7356   5.061   6.380   1.968
 2153SOL     OW 7357   4.264   0.911   4.149
 2153SOL    HW1 7358   4.327   0.840   4.117
 2153SOL    HW2 7359   4.300   1.001   4.123
 2154SOL     OW 7360   3.395   5.916   4.620
 2154SOL    HW1 7361   3.316   5.916   4.682
 2154SOL    HW2 7362   3.479   5.931   4.673
 2155SOL     OW 7363   1.964   4.870   6.901
 2155SOL    HW1 7364   2.036   4.900   6.838
 2155SOL    HW2 7365   1.993   4.787   6.948
 2156SOL     OW 7366   3.001   0.112   1.861
 2156SOL    HW1 7367   3.042   0.157   1.782
 2156SOL    HW2 7368   3.038   0.152   1.945
 2157SOL     OW 7369   6.373   1.048   4.478
 2157SOL    HW1 7370   6.365   0.949   4.469
 2157SOL    HW2 7371   6.349   1.075   4.571
 2158SOL     OW 7372   3.095   6.421   0.038
 2158SOL    HW1 7373   3.079   6.515   0.068
 2158SOL    HW2 7374   3.026   6.361   0.078
 2159SOL     OW 7375   1.232   6.088   5.108
 2159SOL    HW1 7376   1.248   6.014   5.173
 2159SOL    HW2 7377   1.141   6.126   5.122
 2160SOL     OW 7378   4.410   3.878   1.505
 2160SOL    HW1 7379   4.458   3.936   1.571
 2160SOL    HW2 7380   4.370   3.935   1.433
 2161SOL     OW 7381   4.929   3.573   3.741
 2161SOL    HW1 7382   5.013   3.608   3.699
 2161SOL    HW2 7383   4.913   3.479   3.710
 2162SOL     OW 7384   1.712   0.741   0.345
 2162SOL    HW1 7385   1.765   0.792   0.278
 2162SOL    HW2 7386   1.774   0.701   0.413
 2163SOL     OW 7387   0.647   6.379   6.700
 2163SOL    HW1 7388   0.611   6.286   6.710
 2163SOL    HW2 7389   0.571   6.444   6.700
 2164SOL     OW 7390   1.759   1.002   6.376
 2164SOL    HW1 7391   1.789   1.096   6.357
 2164SOL    HW2 7392   1.706   1.000   6.461
 2165SOL     OW 7393   1.979   1.146   2.264
 2165SOL    HW1 7394   1.979   1.246   2.261
 2165SOL    HW2 7395   2.035   1.114   2.340
 2166SOL     OW 7396   2.078   2.245   5.889
 2166SOL    HW1 7397   2.142   2.308   5.846
 2166SOL    HW2 7398   1.984   2.271   5.866
 2167SOL     OW 7399   2.872   0.110   2.308
 2167SOL    HW1 7400   2.885   0.070   2.399
 2167SOL    HW2 7401   2.776   0.103   2.282
 2168SOL     OW 7402   6.273   2.792   5.076
 2168SOL    HW1 7403   6.314   2.868   5.027
 2168SOL    HW2 7404   6.183   2.819   5.111
 2169SOL     OW 7405   5.338   2.475   5.745
 2169SOL    HW1 7406   5.255   2.447   5.697
 2169SOL    HW2 7407   5.416   2.469   5.684
 2170SOL     OW 7408   5.602   4.517   5.198
 2170SOL    HW1 7409   5.651   4.434   5.225
 2170SOL    HW2 7410   5.505   4.507   5.219
 2171SOL     OW 7411   6.458   2.312   0.045
 2171SOL    HW1 7412   6.421   2.403   0.066
 2171SOL    HW2 7413   6.520   2.284   0.118
 2172SOL     OW 7414   3.450   1.221   0.699
 2172SOL    HW1 7415   3.353   1.242   0.710
 2172SOL    HW2 7416   3.468   1.193   0.605
 2173SOL     OW 7417   3.957   0.300   5.647
 2173SOL    HW1 7418   3.964   0.333   5.741
 2173SOL    HW2 7419   3.866   0.261   5.632
 2174SOL     OW 7420   6.245   4.442   5.907
 2174SOL    HW1 7421   6.277   4.416   5.816
 2174SOL    HW2 7422   6.145   4.435   5.910
 2175SOL     OW 7423   3.289   1.352   3.097
 2175SOL    HW1 7424   3.245   1.440   3.082
 2175SOL    HW2 7425   3.226   1.292   3.147
 2176SOL     OW 7426   1.306   2.067   1.726
 2176SOL    HW1 7427   1.328   2.062   1.629
 2176SOL    HW2 7428   1.272   1.979   1.757
 2177SOL     OW 7429   6.549   0.686   2.212
 2177SOL    HW1 7430   6.587   0.640   2.292
 2177SOL    HW2 7431   6.487   0.624   2.163
 2178SOL     OW 7432   0.931   4.179   0.483
 2178SOL    HW1 7433   0.940   4.163   0.582
 2178SOL    HW2 7434   0.916   4.091   0.437
 2179SOL     OW 7435   2.041   5.703   3.994
 2179SOL    HW1 7436   1.944   5.689   3.974
 2179SOL    HW2 7437   2.092   5.620   3.972
 2180SOL     OW 7438   2.956   3.449   2.806
 2180SOL    HW1 7439   2.926   3.466   2.900
 2180SOL    HW2 7440   2.916   3.517   2.745
 2181SOL     OW 7441   4.503   4.281   5.842
 2181SOL    HW1 7442   4.520   4.185   5.819
 2181SOL    HW2 7443   4.579   4.316   5.896
 2182SOL     OW 7444   0.106   3.613   6.436
 2182SOL    HW1 7445   0.093   3.685   6.368
 2182SOL    HW2 7446   0.022   3.559   6.444
 2183SOL     OW 7447   3.405   2.623   0.637
 2183SOL    HW1 7448   3.456   2.704   0.665
 2183SOL    HW2 7449   3.424   2.603   0.540
 2184SOL     OW 7450   3.963   0.330   5.920
 2184SOL    HW1 7451   3.979   0.419   5.963
 2184SOL    HW2 7452   4.034   0.266   5.948
 2185SOL     OW 7453   1.697   1.907   0.964
 2185SOL    HW1 7454   1.644   1.887   1.047
 2185SOL    HW2 7455   1.789   1.937   0.991
 2186SOL     OW 7456   6.912   4.494   2.297
 2186SOL    HW1 7457   6.866   4.540   2.372
 2186SOL    HW2 7458   6.961   4.561   2.241
 2187SOL     OW 7459   0.661   1.108   1.708
 2187SOL    HW1 7460   0.608   1.088   1.790
 2187SOL    HW2 7461   0.664   1.027   1.650
 2188SOL     OW 7462   4.759   5.942   3.934
 2188SOL    HW1 7463   4.801   5.976   3.850
 2188SOL    HW2 7464   4.675   5.893   3.912
 2189SOL     OW 7465   1.186   6.886   5.762
 2189SOL    HW1 7466   1.273   6.838   5.753
 2189SOL    HW2 7467   1.164   6.896   5.859
 2190SOL     OW 7468   5.917   3.201   1.689
 2190SOL    HW1 7469   6.001   3.238   1.650
 2190SOL    HW2 7470   5.931   3.177   1.784
 2191SOL     OW 7471   3.231   1.987   6.302
 2191SOL    HW1 7472   3.132   1.982   6.314
 2191SOL    HW2 7473   3.270   1.895   6.304
 2192SOL     OW 7474   4.187   6.441   5.227
 2192SOL    HW1 7475   4.255   6.472   5.294
 2192SOL    HW2 7476   4.221   6.359   5.181
 2193SOL     OW 7477   0.137   5.170   6.033
 2193SOL    HW1 7478   0.103   5.223   6.110
 2193SOL    HW2 7479   0.228   5.205   6.007
 2194SOL     OW 7480   1.903   5.884   0.536
 2194SOL    HW1 7481   1.857   5.875   0.448
 2194SOL    HW2 7482   1.843   5.851   0.609
 2195SOL     OW 7483   0.142   6.622   1.933
 2195SOL    HW1 7484   0.140   6.615   1.833
 2195SOL    HW2 7485   0.237   6.615   1.964
 2196SOL     OW 7486   2.729   0.413   5.442
 2196SOL    HW1 7487   2.645   0.416   5.387
 2196SOL    HW2 7488   2.705   0.391   5.537
 2197SOL     OW 7489   4.802   3.989   1.760
 2197SOL    HW1 7490   4.795   3.890   1.775
 2197SOL    HW2 7491   4.851   4.005   1.674
 2198SOL     OW 7492   7.016   3.497   6.864
 2198SOL    HW1 7493   6.972   3.504   6.774
 2198SOL    HW2 7494   6.960   3.438   6.922
 2199SOL     OW 7495   5.343   0.128   0.832
 2199SOL    HW1 7496   5.267   0.072   0.864
 2199SOL    HW2 7497   5.307   0.212   0.790
 2200SOL     OW 7498   4.484   0.400   4.766
 2200SOL    HW1 7499   4.448   0.307   4.771
 2200SOL    HW2 7500   4.583   0.397   4.752
 2201SOL     OW 7501   5.800   3.679   2.257
 2201SOL    HW1 7502   5.874   3.615   2.238
 2201SOL    HW2 7503   5.741   3.687   2.176
 2202SOL     OW 7504   3.465   4.983   4.277
 2202SOL    HW1 7505   3.402   5.002   4.352
 2202SOL    HW2 7506   3.415   4.939   4.202
 2203SOL     OW 7507   3.419   2.076   3.068
 2203SOL    HW1 7508   3.339   2.135   3.055
 2203SOL    HW2 7509   3.478   2.082   2.987
 2204SOL     OW 7510   3.736   1.082   6.804
 2204SOL    HW1 7511   3.682   1.006   6.767
 2204SOL    HW2 7512   3.724   1.085   6.903
 2205SOL     OW 7513   1.858   0.937   6.802
 2205SOL    HW1 7514   1.795   0.885   6.859
 2205SOL    HW2 7515   1.951   0.905   6.818
 2206SOL     OW 7516   3.287   3.649   5.670
 2206SOL    HW1 7517   3.208   3.634   5.611
 2206SOL    HW2 7518   3.361   3.691   5.617
 2207SOL     OW 7519   0.865   4.146   6.513
 2207SOL    HW1 7520   0.785   4.190   6.472
 2207SOL    HW2 7521   0.854   4.046   6.509
 2208SOL     OW 7522   1.613   4.202   2.304
 2208SOL    HW1 7523   1.708   4.217   2.279
 2208SOL    HW2 7524   1.553   4.243   2.234
 2209SOL     OW 7525   1.769   5.865   6.318
 2209SOL    HW1 7526   1.811   5.777   6.339
 2209SOL    HW2 7527   1.839   5.929   6.289
 2210SOL     OW 7528   0.795   5.284   2.932
 2210SOL    HW1 7529   0.780   5.381   2.953
 2210SOL    HW2 7530   0.873   5.276   2.870
 2211SOL     OW 7531   6.034   1.774   5.404
 2211SOL    HW1 7532   5.953   1.829   5.425
 2211SOL    HW2 7533   6.090   1.821   5.337
 2212SOL     OW 7534   0.350   6.232   6.146
 2212SOL    HW1 7535   0.438   6.270   6.117
 2212SOL    HW2 7536   0.289   6.306   6.173
 2213SOL     OW 7537   4.378   2.434   4.312
 2213SOL    HW1 7538   4.384   2.346   4.264
 2213SOL    HW2 7539   4.284   2.451   4.339
 2214SOL     OW 7540   4.595   0.368   5.586
 2214SOL    HW1 7541   4.506   0.410   5.604
 2214SOL    HW2 7542   4.634   0.407   5.503
 2215SOL     OW 7543   6.870   1.531   5.679
 2215SOL    HW1 7544   6.948   1.574   5.633
 2215SOL    HW2 7545   6.789   1.536   5.621
 2216SOL     OW 7546   1.439   0.479   0.868
 2216SOL    HW1 7547   1.496   0.531   0.931
 2216SOL    HW2 7548   1.375   0.541   0.822
 2217SOL     OW 7549   3.977   0.297   0.791
 2217SOL    HW1 7550   4.040   0.264   0.860
 2217SOL    HW2 7551   4.014   0.278   0.700
 2218SOL     OW 7552   0.916   6.065   6.790
 2218SOL    HW1 7553   0.905   5.975   6.831
 2218SOL    HW2 7554   1.010   6.096   6.803
 2219SOL     OW 7555   1.518   3.739   2.705
 2219SOL    HW1 7556   1.513   3.738   2.805
 2219SOL    HW2 7557   1.606   3.774   2.676
 2220SOL     OW 7558   0.292   1.426   4.822
 2220SOL    HW1 7559   0.204   1.471   4.837
 2220SOL    HW2 7560   0.277   1.329   4.804
 2221SOL     OW 7561   6.633   2.013   1.015
 2221SOL    HW1 7562   6.663   2.101   1.053
 2221SOL    HW2 7563   6.586   1.960   1.085
 2222SOL     OW 7564   4.097   0.381   1.265
 2222SOL    HW1 7565   4.010   0.381   1.313
 2222SOL    HW2 7566   4.171   0.395   1.330
 2223SOL     OW 7567   6.192   5.320   3.511
 2223SOL    HW1 7568   6.164   5.230   3.477
 2223SOL    HW2 7569   6.115   5.364   3.557
 2224SOL     OW 7570   2.003   4.479   1.590
 2224SOL    HW1 7571   1.953   4.562   1.566
 2224SOL    HW2 7572   1.953   4.399   1.557
 2225SOL     OW 7573   5.987   4.973   2.192
 2225SOL    HW1 7574   6.044   4.932   2.121
 2225SOL    HW2 7575   5.909   4.913   2.212
 2226SOL     OW 7576   3.746   3.625   1.077
 2226SOL    HW1 7577   3.752   3.600   1.173
 2226SOL    HW2 7578   3.708   3.717   1.069
 2227SOL     OW 7579   6.249   4.132   5.873
 2227SOL    HW1 7580   6.290   4.208   5.924
 2227SOL    HW2 7581   6.234   4.160   5.778
 2228SOL     OW 7582   3.011   5.290   0.305
 2228SOL    HW1 7583   3.108   5.285   0.325
 2228SOL    HW2 7584   2.989   5.382   0.270
 2229SOL     OW 7585   4.549   1.551   3.968
 2229SOL    HW1 7586   4.604   1.562   4.051
 2229SOL    HW2 7587   4.610   1.545   3.889
 2230SOL     OW 7588   1.435   5.240   3.727
 2230SOL    HW1 7589   1.501   5.165   3.741
 2230SOL    HW2 7590   1.485   5.324   3.705
 2231SOL     OW 7591   1.955   1.854   2.551
 2231SOL    HW1 7592   1.873   1.893   2.592
 2231SOL    HW2 7593   2.015   1.819   2.624
 2232SOL     OW 7594   0.573   3.295   3.415
 2232SOL    HW1 7595   0.654   3.236   3.412
 2232SOL    HW2 7596   0.567   3.348   3.331
 2233SOL     OW 7597   4.084   5.264   6.712
 2233SOL    HW1 7598   4.000   5.268   6.766
 2233SOL    HW2 7599   4.130   5.176   6.727
 2234SOL     OW 7600   3.907   2.384   0.739
 2234SOL    HW1 7601   3.884   2.473   0.697
 2234SOL    HW2 7602   3.844   2.315   0.705
 2235SOL     OW 7603   1.219   0.143   6.785
 2235SOL    HW1 7604   1.173   0.187   6.708
 2235SOL    HW2 7605   1.318   0.143   6.769
 2236SOL     OW 7606   0.651   4.107   0.999
 2236SOL    HW1 7607   0.606   4.087   1.086
 2236SOL    HW2 7608   0.675   4.204   0.996
 2237SOL     OW 7609   6.696   3.566   4.456
 2237SOL    HW1 7610   6.631   3.642   4.462
 2237SOL    HW2 7611   6.651   3.487   4.415
 2238SOL     OW 7612   6.993   5.603   1.859
 2238SOL    HW1 7613   0.009   5.534   1.920
 2238SOL    HW2 7614   6.979   5.688   1.909
 2239SOL     OW 7615   4.231   4.668   3.611
 2239SOL    HW1 7616   4.200   4.724   3.687
 2239SOL    HW2 7617   4.288   4.593   3.646
 2240SOL     OW 7618   6.516   5.321   3.292
 2240SOL    HW1 7619   6.436   5.357   3.244
 2240SOL    HW2 7620   6.527   5.224   3.270
 2241SOL     OW 7621   0.403   6.745   2.538
 2241SOL    HW1 7622   0.432   6.840   2.551
 2241SOL    HW2 7623   0.435   6.713   2.449
 2242SOL     OW 7624   5.363   1.431   2.724
 2242SOL    HW1 7625   5.407   1.484   2.796
 2242SOL    HW2 7626   5.352   1.336   2.754
 2243SOL     OW 7627   2.858   6.061   5.265
 2243SOL    HW1 7628   2.775   6.008   5.249
 2243SOL    HW2 7629   2.835   6.151   5.301
 2244SOL     OW 7630   4.143   1.078   3.877
 2244SOL    HW1 7631   4.210   1.004   3.882
 2244SOL    HW2 7632   4.188   1.164   3.901
 2245SOL     OW 7633   6.726   1.888   2.010
 2245SOL    HW1 7634   6.783   1.953   1.960
 2245SOL    HW2 7635   6.737   1.797   1.970
 2246SOL     OW 7636   1.764   2.933   5.457
 2246SOL    HW1 7637   1.785   2.938   5.360
 2246SOL    HW2 7638   1.730   2.842   5.480
 2247SOL     OW 7639   2.900   2.133   5.319
 2247SOL    HW1 7640   2.926   2.177   5.233
 2247SOL    HW2 7641   2.966   2.159   5.390
 2248SOL     OW 7642   5.162   4.064   5.369
 2248SOL    HW1 7643   5.245   4.016   5.341
 2248SOL    HW2 7644   5.128   4.121   5.294
 2249SOL     OW 7645   5.216   6.143   2.808
 2249SOL    HW1 7646   5.283   6.112   2.740
 2249SOL    HW2 7647   5.128   6.101   2.789
 2250SOL     OW 7648   5.345   3.930   1.412
 2250SOL    HW1 7649   5.385   3.838   1.414
 2250SOL    HW2 7650   5.297   3.947   1.498
 2251SOL     OW 7651   6.261   1.645   0.368
 2251SOL    HW1 7652   6.284   1.556   0.408
 2251SOL    HW2 7653   6.338   1.676   0.312
 2252SOL     OW 7654   6.147   3.184   5.124
 2252SOL    HW1 7655   6.236   3.230   5.121
 2252SOL    HW2 7656   6.090   3.228   5.193
 2253SOL     OW 7657   1.943   3.216   6.492
 2253SOL    HW1 7658   1.995   3.186   6.411
 2253SOL    HW2 7659   1.922   3.137   6.549
 2254SOL     OW 7660   2.223   3.255   5.930
 2254SOL    HW1 7661   2.242   3.160   5.908
 2254SOL    HW2 7662   2.268   3.314   5.863
 2255SOL     OW 7663   6.091   2.598   2.023
 2255SOL    HW1 7664   5.994   2.572   2.028
 2255SOL    HW2 7665   6.123   2.586   1.929
 2256SOL     OW 7666   3.099   4.862   1.778
 2256SOL    HW1 7667   3.125   4.768   1.754
 2256SOL    HW2 7668   3.004   4.878   1.750
 2257SOL     OW 7669   1.751   3.214   4.537
 2257SOL    HW1 7670   1.795   3.222   4.448
 2257SOL    HW2 7671   1.815   3.176   4.603
 2258SOL     OW 7672   1.872   4.549   4.895
 2258SOL    HW1 7673   1.878   4.581   4.990
 2258SOL    HW2 7674   1.916   4.459   4.888
 2259SOL     OW 7675   5.750   4.543   6.448
 2259SOL    HW1 7676   5.782   4.474   6.512
 2259SOL    HW2 7677   5.827   4.579   6.394
 2260SOL     OW 7678   4.085   4.717   2.590
 2260SOL    HW1 7679   4.124   4.745   2.678
 2260SOL    HW2 7680   4.158   4.707   2.523
 2261SOL     OW 7681   5.353   6.706   0.967
 2261SOL    HW1 7682   5.426   6.642   0.991
 2261SOL    HW2 7683   5.272   6.687   1.022
 2262SOL     OW 7684   5.697   1.647   4.091
 2262SOL    HW1 7685   5.622   1.659   4.156
 2262SOL    HW2 7686   5.726   1.737   4.057
 2263SOL     OW 7687   2.290   5.655   6.131
 2263SOL    HW1 7688   2.303   5.557   6.121
 2263SOL    HW2 7689   2.375   5.703   6.108
 2264SOL     OW 7690   2.979   3.550   2.353
 2264SOL    HW1 7691   2.932   3.467   2.325
 2264SOL    HW2 7692   3.071   3.528   2.386
 2265SOL     OW 7693   0.122   1.454   2.641
 2265SOL    HW1 7694   0.177   1.534   2.617
 2265SOL    HW2 7695   0.097   1.458   2.738
 2266SOL     OW 7696   6.451   1.212   0.625
 2266SOL    HW1 7697   6.372   1.180   0.677
 2266SOL    HW2 7698   6.535   1.182   0.670
 2267SOL     OW 7699   5.816   2.677   4.465
 2267SOL    HW1 7700   5.836   2.762   4.515
 2267SOL    HW2 7701   5.874   2.604   4.501
 2268SOL     OW 7702   6.738   6.190   0.553
 2268SOL    HW1 7703   6.748   6.235   0.464
 2268SOL    HW2 7704   6.799   6.234   0.619
 2269SOL     OW 7705   5.958   5.676   5.739
 2269SOL    HW1 7706   5.950   5.732   5.656
 2269SOL    HW2 7707   5.871   5.630   5.757
 2270SOL     OW 7708   3.474   3.845   1.517
 2270SOL    HW1 7709   3.487   3.944   1.522
 2270SOL    HW2 7710   3.557   3.798   1.544
 2271SOL     OW 7711   5.929   4.230   1.678
 2271SOL    HW1 7712   6.023   4.236   1.646
 2271SOL    HW2 7713   5.876   4.306   1.640
 2272SOL     OW 7714   5.692   2.570   4.780
 2272SOL    HW1 7715   5.755   2.492   4.786
 2272SOL    HW2 7716   5.612   2.544   4.727
 2273SOL     OW 7717   1.144   0.968   3.384
 2273SOL    HW1 7718   1.127   1.032   3.459
 2273SOL    HW2 7719   1.104   1.002   3.300
 2274SOL     OW 7720   1.885   3.776   5.050
 2274SOL    HW1 7721   1.814   3.712   5.018
 2274SOL    HW2 7722   1.848   3.832   5.124
 2275SOL     OW 7723   4.818   6.376   4.715
 2275SOL    HW1 7724   4.855   6.292   4.755
 2275SOL    HW2 7725   4.763   6.354   4.634
 2276SOL     OW 7726   3.583   4.714   1.011
 2276SOL    HW1 7727   3.580   4.699   1.110
 2276SOL    HW2 7728   3.640   4.644   0.968
 2277SOL     OW 7729   3.349   3.223   4.953
 2277SOL    HW1 7730   3.317   3.140   4.908
 2277SOL    HW2 7731   3.429   3.258   4.904
 2278SOL     OW 7732   4.359   5.979   2.515
 2278SOL    HW1 7733   4.291   5.907   2.528
 2278SOL    HW2 7734   4.425   5.976   2.589
 2279SOL     OW 7735   5.205   3.798   4.471
 2279SOL    HW1 7736   5.196   3.897   4.483
 2279SOL    HW2 7737   5.117   3.754   4.488
 2280SOL     OW 7738   6.394   6.308   5.075
 2280SOL    HW1 7739   6.324   6.288   5.144
 2280SOL    HW2 7740   6.415   6.225   5.023
 2281SOL     OW 7741   3.516   2.042   1.788
 2281SOL    HW1 7742   3.562   2.126   1.817
 2281SOL    HW2 7743   3.464   2.005   1.865
 2282SOL     OW 7744   4.716   5.844   4.546
 2282SOL    HW1 7745   4.794   5.786   4.526
 2282SOL    HW2 7746   4.733   5.896   4.630
 2283SOL     OW 7747   6.684   3.705   2.994
 2283SOL    HW1 7748   6.762   3.693   3.055
 2283SOL    HW2 7749   6.656   3.801   2.995
 2284SOL     OW 7750   2.361   2.306   2.098
 2284SOL    HW1 7751   2.315   2.388   2.130
 2284SOL    HW2 7752   2.457   2.326   2.082
 2285SOL     OW 7753   1.469   3.696   0.789
 2285SOL    HW1 7754   1.502   3.620   0.844
 2285SOL    HW2 7755   1.546   3.755   0.763
 2286SOL     OW 7756   6.706   5.644   5.139
 2286SOL    HW1 7757   6.671   5.673   5.050
 2286SOL    HW2 7758   6.636   5.590   5.186
 2287SOL     OW 7759   2.082   3.142   1.441
 2287SOL    HW1 7760   2.024   3.102   1.369
 2287SOL    HW2 7761   2.174   3.156   1.405
 2288SOL     OW 7762   0.735   5.920   3.645
 2288SOL    HW1 7763   0.684   5.834   3.634
 2288SOL    HW2 7764   0.688   5.993   3.596
 2289SOL     OW 7765   5.581   2.092   1.871
 2289SOL    HW1 7766   5.634   2.155   1.928
 2289SOL    HW2 7767   5.495   2.069   1.919
 2290SOL     OW 7768   3.226   3.461   3.032
 2290SOL    HW1 7769   3.207   3.433   2.938
 2290SOL    HW2 7770   3.309   3.415   3.064
 2291SOL     OW 7771   2.052   2.040   1.643
 2291SOL    HW1 7772   2.067   2.054   1.545
 2291SOL    HW2 7773   2.140   2.030   1.689
 2292SOL     OW 7774   5.197   2.763   3.648
 2292SOL    HW1 7775   5.194   2.836   3.580
 2292SOL    HW2 7776   5.142   2.789   3.728
 2293SOL     OW 7777   5.450   1.480   0.805
 2293SOL    HW1 7778   5.416   1.386   0.798
 2293SOL    HW2 7779   5.505   1.502   0.724
 2294SOL     OW 7780   2.791   1.908   5.421
 2294SOL    HW1 7781   2.703   1.898   5.374
 2294SOL    HW2 7782   2.834   1.994   5.393
 2295SOL     OW 7783   7.017   0.669   1.461
 2295SOL    HW1 7784   6.947   0.606   1.428
 2295SOL    HW2 7785   0.019   0.645   1.555
 2296SOL     OW 7786   2.799   5.078   3.371
 2296SOL    HW1 7787   2.768   5.014   3.301
 2296SOL    HW2 7788   2.895   5.102   3.354
 2297SOL     OW 7789   5.356   4.584   5.970
 2297SOL    HW1 7790   5.372   4.677   6.003
 2297SOL    HW2 7791   5.351   4.522   6.048
 2298SOL     OW 7792   3.763   3.768   3.620
 2298SOL    HW1 7793   3.732   3.861   3.639
 2298SOL    HW2 7794   3.799   3.763   3.526
 2299SOL     OW 7795   4.953   3.619   4.874
 2299SOL    HW1 7796   5.012   3.543   4.845
 2299SOL    HW2 7797   4.888   3.587   4.943
 2300SOL     OW 7798   3.338   6.885   3.521
 2300SOL    HW1 7799   3.327   6.933   3.435
 2300SOL    HW2 7800   3.266   6.816   3.530
 2301SOL     OW 7801   3.401   2.879   4.418
 2301SOL    HW1 7802   3.420   2.844   4.510
 2301SOL    HW2 7803   3.487   2.891   4.369
 2302SOL     OW 7804   4.071   0.886   0.046
 2302SOL    HW1 7805   4.032   0.794   0.049
 2302SOL    HW2 7806   3.999   0.953   0.028
 2303SOL     OW 7807   2.183   2.528   1.216
 2303SOL    HW1 7808   2.142   2.595   1.154
 2303SOL    HW2 7809   2.183   2.564   1.309
 2304SOL     OW 7810   6.869   5.660   3.977
 2304SOL    HW1 7811   6.950   5.713   3.954
 2304SOL    HW2 7812   6.844   5.601   3.900
 2305SOL     OW 7813   1.500   0.750   4.087
 2305SOL    HW1 7814   1.536   0.837   4.054
 2305SOL    HW2 7815   1.464   0.697   4.010
 2306SOL     OW 7816   1.741   5.243   2.658
 2306SOL    HW1 7817   1.802   5.166   2.675
 2306SOL    HW2 7818   1.723   5.252   2.560
 2307SOL     OW 7819   1.199   2.649   5.426
 2307SOL    HW1 7820   1.125   2.634   5.360
 2307SOL    HW2 7821   1.284   2.611   5.390
 2308SOL     OW 7822   2.142   5.016   1.249
 2308SOL    HW1 7823   2.201   4.943   1.214
 2308SOL    HW2 7824   2.123   4.999   1.346
 2309SOL     OW 7825   1.564   0.294   4.378
 2309SOL    HW1 7826   1.628   0.236   4.429
 2309SOL    HW2 7827   1.571   0.273   4.280
 2310SOL     OW 7828   5.113   6.762   2.270
 2310SOL    HW1 7829   5.038   6.807   2.223
 2310SOL    HW2 7830   5.091   6.755   2.368
 2311SOL     OW 7831   2.015   6.141   0.578
 2311SOL    HW1 7832   1.964   6.055   0.565
 2311SOL    HW2 7833   2.105   6.120   0.615
 2312SOL     OW 7834   3.767   5.432   3.083
 2312SOL    HW1 7835   3.793   5.342   3.120
 2312SOL    HW2 7836   3.719   5.484   3.153
 2313SOL     OW 7837   5.111   5.184   2.608
 2313SOL    HW1 7838   5.172   5.194   2.529
 2313SOL    HW2 7839   5.019   5.214   2.584
 2314SOL     OW 7840   3.364   5.659   3.177
 2314SOL    HW1 7841   3.443   5.660   3.116
 2314SOL    HW2 7842   3.311   5.576   3.161
 2315SOL     OW 7843   4.648   2.854   6.318
 2315SOL    HW1 7844   4.613   2.788   6.251
 2315SOL    HW2 7845   4.725   2.903   6.278
 2316SOL     OW 7846   4.781   2.718   3.556
 2316SOL    HW1 7847   4.786   2.684   3.650
 2316SOL    HW2 7848   4.873   2.722   3.517
 2317SOL     OW 7849   0.902   4.714   2.514
 2317SOL    HW1 7850   0.953   4.783   2.564
 2317SOL    HW2 7851   0.813   4.751   2.488
 2318SOL     OW 7852   0.542   2.263   3.329
 2318SOL    HW1 7853   0.557   2.241   3.426
 2318SOL    HW2 7854   0.445   2.278   3.313
 2319SOL     OW 7855   2.261   4.167   4.728
 2319SOL    HW1 7856   2.299   4.104   4.796
 2319SOL    HW2 7857   2.231   4.115   4.648
 2320SOL     OW 7858   6.872   2.669   4.279
 2320SOL    HW1 7859   6.865   2.753   4.225
 2320SOL    HW2 7860   6.801   2.605   4.250
 2321SOL     OW 7861   2.864   0.270   4.755
 2321SOL    HW1 7862   2.945   0.263   4.696
 2321SOL    HW2 7863   2.871   0.353   4.811
 2322SOL     OW 7864   1.210   1.869   5.581
 2322SOL    HW1 7865   1.296   1.916   5.560
 2322SOL    HW2 7866   1.204   1.785   5.527
 2323SOL     OW 7867   4.470   5.683   3.355
 2323SOL    HW1 7868   4.514   5.614   3.297
 2323SOL    HW2 7869   4.499   5.774   3.325
 2324SOL     OW 7870   1.069   6.379   2.391
 2324SOL    HW1 7871   1.103   6.431   2.469
 2324SOL    HW2 7872   0.969   6.380   2.392
 2325SOL     OW 7873   0.856   3.852   1.589
 2325SOL    HW1 7874   0.880   3.940   1.630
 2325SOL    HW2 7875   0.824   3.789   1.660
 2326SOL     OW 7876   1.607   4.467   6.306
 2326SOL    HW1 7877   1.639   4.385   6.259
 2326SOL    HW2 7878   1.507   4.472   6.300
 2327SOL     OW 7879   4.792   2.990   4.591
 2327SOL    HW1 7880   4.786   3.074   4.537
 2327SOL    HW2 7881   4.775   2.911   4.532
 2328SOL     OW 7882   5.095   1.361   3.026
 2328SOL    HW1 7883   5.165   1.290   3.019
 2328SOL    HW2 7884   5.011   1.321   3.061
 2329SOL     OW 7885   1.408   5.341   4.039
 2329SOL    HW1 7886   1.388   5.283   3.960
 2329SOL    HW2 7887   1.405   5.287   4.122
 2330SOL     OW 7888   0.356   4.914   1.546
 2330SOL    HW1 7889   0.436   4.957   1.587
 2330SOL    HW2 7890   0.299   4.874   1.618
 2331SOL     OW 7891   0.324   3.976   5.365
 2331SOL    HW1 7892   0.288   4.069   5.369
 2331SOL    HW2 7893   0.417   3.977   5.328
 2332SOL     OW 7894   5.096   2.791   6.104
 2332SOL    HW1 7895   5.065   2.704   6.064
 2332SOL    HW2 7896   5.045   2.866   6.062
 2333SOL     OW 7897   0.826   5.063   3.090
 2333SOL    HW1 7898   0.848   5.050   3.187
 2333SOL    HW2 7899   0.842   5.158   3.065
 2334SOL     OW 7900   3.312   6.630   6.809
 2334SOL    HW1 7901   3.405   6.596   6.792
 2334SOL    HW2 7902   3.306   6.664   6.903
 2335SOL     OW 7903   5.851   0.561   3.294
 2335SOL    HW1 7904   5.792   0.540   3.216
 2335SOL    HW2 7905   5.876   0.658   3.292
 2336SOL     OW 7906   4.839   0.910   5.686
 2336SOL    HW1 7907   4.824   0.972   5.609
 2336SOL    HW2 7908   4.811   0.954   5.771
 2337SOL     OW 7909   5.659   0.450   3.104
 2337SOL    HW1 7910   5.586   0.382   3.104
 2337SOL    HW2 7911   5.636   0.524   3.040
 2338SOL     OW 7912   6.860   6.486   0.079
 2338SOL    HW1 7913   6.885   6.582   0.092
 2338SOL    HW2 7914   6.928   6.427   0.123
 2339SOL     OW 7915   3.576   4.648   6.099
 2339SOL    HW1 7916   3.581   4.748   6.095
 2339SOL    HW2 7917   3.608   4.616   6.188
 2340SOL     OW 7918   3.354   6.091   5.486
 2340SOL    HW1 7919   3.443   6.119   5.521
 2340SOL    HW2 7920   3.313   6.025   5.550
 2341SOL     OW 7921   5.947   4.848   0.849
 2341SOL    HW1 7922   5.995   4.863   0.762
 2341SOL    HW2 7923   5.975   4.760   0.888
 2342SOL     OW 7924   0.029   6.638   5.251
 2342SOL    HW1 7925   6.988   6.563   5.264
 2342SOL    HW2 7926   0.116   6.602   5.217
 2343SOL     OW 7927   1.085   6.362   0.966
 2343SOL    HW1 7928   1.120   6.381   0.874
 2343SOL    HW2 7929   1.160   6.371   1.032
 2344SOL     OW 7930   2.771   1.584   2.721
 2344SOL    HW1 7931   2.683   1.625   2.746
 2344SOL    HW2 7932   2.782   1.588   2.621
 2345SOL     OW 7933   1.289   0.699   4.885
 2345SOL    HW1 7934   1.255   0.606   4.903
 2345SOL    HW2 7935   1.374   0.713   4.935
 2346SOL     OW 7936   4.920   3.343   5.518
 2346SOL    HW1 7937   4.901   3.435   5.484
 2346SOL    HW2 7938   4.887   3.276   5.452
 2347SOL     OW 7939   1.549   3.669   2.066
 2347SOL    HW1 7940   1.631   3.722   2.047
 2347SOL    HW2 7941   1.479   3.689   1.997
 2348SOL     OW 7942   2.531   6.336   3.777
 2348SOL    HW1 7943   2.558   6.318   3.682
 2348SOL    HW2 7944   2.443   6.382   3.779
 2349SOL     OW 7945   6.787   6.891   6.269
 2349SOL    HW1 7946   6.834   6.803   6.263
 2349SOL    HW2 7947   6.844   6.962   6.228
 2350SOL     OW 7948   3.162   1.045   5.361
 2350SOL    HW1 7949   3.219   1.127   5.355
 2350SOL    HW2 7950   3.220   0.965   5.378
 2351SOL     OW 7951   2.666   5.032   3.639
 2351SOL    HW1 7952   2.733   5.083   3.694
 2351SOL    HW2 7953   2.705   5.014   3.549
 2352SOL     OW 7954   6.334   4.148   2.963
 2352SOL    HW1 7955   6.278   4.120   2.885
 2352SOL    HW2 7956   6.387   4.229   2.939
 2353SOL     OW 7957   2.523   4.014   5.794
 2353SOL    HW1 7958   2.433   3.981   5.765
 2353SOL    HW2 7959   2.530   4.112   5.778
 2354SOL     OW 7960   3.759   2.514   0.236
 2354SOL    HW1 7961   3.667   2.509   0.195
 2354SOL    HW2 7962   3.823   2.459   0.182
 2355SOL     OW 7963   0.545   6.715   1.078
 2355SOL    HW1 7964   0.532   6.807   1.041
 2355SOL    HW2 7965   0.553   6.650   1.003
 2356SOL     OW 7966   2.397   4.979   2.523
 2356SOL    HW1 7967   2.329   5.025   2.579
 2356SOL    HW2 7968   2.483   5.030   2.527
 2357SOL     OW 7969   5.207   4.740   3.096
 2357SOL    HW1 7970   5.303   4.713   3.093
 2357SOL    HW2 7971   5.150   4.660   3.111
 2358SOL     OW 7972   3.475   0.194   4.281
 2358SOL    HW1 7973   3.533   0.275   4.292
 2358SOL    HW2 7974   3.437   0.193   4.188
 2359SOL     OW 7975   2.656   1.495   5.719
 2359SOL    HW1 7976   2.703   1.471   5.804
 2359SOL    HW2 7977   2.687   1.585   5.687
 2360SOL     OW 7978   3.899   4.457   0.542
 2360SOL    HW1 7979   3.807   4.462   0.581
 2360SOL    HW2 7980   3.942   4.371   0.568
 2361SOL     OW 7981   3.227   6.724   3.033
 2361SOL    HW1 7982   3.138   6.769   3.045
 2361SOL    HW2 7983   3.298   6.780   3.076
 2362SOL     OW 7984   4.344   5.906   4.711
 2362SOL    HW1 7985   4.349   5.980   4.778
 2362SOL    HW2 7986   4.353   5.945   4.619
 2363SOL     OW 7987   3.893   2.431   6.520
 2363SOL    HW1 7988   3.960   2.491   6.566
 2363SOL    HW2 7989   3.857   2.365   6.587
 2364SOL     OW 7990   5.160   1.748   1.962
 2364SOL    HW1 7991   5.117   1.690   1.892
 2364SOL    HW2 7992   5.248   1.709   1.986
 2365SOL     OW 7993   5.151   3.449   4.448
 2365SOL    HW1 7994   5.138   3.351   4.429
 2365SOL    HW2 7995   5.184   3.495   4.366
 2366SOL     OW 7996   1.701   4.179   5.438
 2366SOL    HW1 7997   1.653   4.097   5.469
 2366SOL    HW2 7998   1.741   4.225   5.517
 2367SOL     OW 7999   1.183   3.505   5.796
 2367SOL    HW1 8000   1.133   3.554   5.867
 2367SOL    HW2 8001   1.277   3.490   5.827
 2368SOL     OW 8002   4.532   0.876   4.332
 2368SOL    HW1 8003   4.520   0.833   4.242
 2368SOL    HW2 8004   4.457   0.848   4.392
 2369SOL     OW 8005   3.694   1.513   3.206
 2369SOL    HW1 8006   3.789   1.483   3.198
 2369SOL    HW2 8007   3.676   1.584   3.138
 2370SOL     OW 8008   4.789   2.892   0.769
 2370SOL    HW1 8009   4.741   2.870   0.854
 2370SOL    HW2 8010   4.738   2.856   0.691
 2371SOL     OW 8011   0.869   6.853   2.685
 2371SOL    HW1 8012   0.853   6.755   2.693
 2371SOL    HW2 8013   0.803   6.893   2.622
 2372SOL     OW 8014   6.259   1.541   5.840
 2372SOL    HW1 8015   6.338   1.585   5.881
 2372SOL    HW2 8016   6.226   1.596   5.763
 2373SOL     OW 8017   6.107   1.027   6.287
 2373SOL    HW1 8018   6.030   1.044   6.349
 2373SOL    HW2 8019   6.118   1.106   6.226
 2374SOL     OW 8020   5.858   5.837   3.205
 2374SOL    HW1 8021   5.881   5.926   3.243
 2374SOL    HW2 8022   5.922   5.813   3.133
 2375SOL     OW 8023   0.684   0.506   3.906
 2375SOL    HW1 8024   0.648   0.459   3.986
 2375SOL    HW2 8025   0.647   0.463   3.823
 2376SOL     OW 8026   6.909   2.146   3.242
 2376SOL    HW1 8027   6.980   2.111   3.304
 2376SOL    HW2 8028   6.953   2.188   3.162
 2377SOL     OW 8029   3.317   4.683   6.332
 2377SOL    HW1 8030   3.391   4.733   6.287
 2377SOL    HW2 8031   3.237   4.681   6.271
 2378SOL     OW 8032   5.910   1.943   0.616
 2378SOL    HW1 8033   5.905   1.904   0.524
 2378SOL    HW2 8034   5.943   2.037   0.611
 2379SOL     OW 8035   6.878   4.752   0.649
 2379SOL    HW1 8036   6.820   4.823   0.691
 2379SOL    HW2 8037   6.974   4.772   0.669
 2380SOL     OW 8038   5.953   2.831   5.349
 2380SOL    HW1 8039   5.866   2.837   5.301
 2380SOL    HW2 8040   5.948   2.885   5.434
 2381SOL     OW 8041   1.942   4.660   5.272
 2381SOL    HW1 8042   1.919   4.564   5.287
 2381SOL    HW2 8043   2.005   4.668   5.195
 2382SOL     OW 8044   1.939   5.954   2.741
 2382SOL    HW1 8045   1.975   5.994   2.657
 2382SOL    HW2 8046   1.934   5.854   2.731
 2383SOL     OW 8047   5.528   5.773   5.718
 2383SOL    HW1 8048   5.495   5.771   5.813
 2383SOL    HW2 8049   5.555   5.866   5.694
 2384SOL     OW 8050   0.606   1.977   1.502
 2384SOL    HW1 8051   0.659   2.060   1.514
 2384SOL    HW2 8052   0.576   1.942   1.591
 2385SOL     OW 8053   1.082   1.797   0.152
 2385SOL    HW1 8054   1.050   1.732   0.082
 2385SOL    HW2 8055   1.024   1.791   0.232
 2386SOL     OW 8056   3.200   5.055   4.378
 2386SOL    HW1 8057   3.247   5.011   4.454
 2386SOL    HW2 8058   3.103   5.066   4.401
 2387SOL     OW 8059   0.258   2.878   4.094
 2387SOL    HW1 8060   0.324   2.886   4.169
 2387SOL    HW2 8061   0.298   2.821   4.022
 2388SOL     OW 8062   0.584   2.100   5.758
 2388SOL    HW1 8063   0.679   2.078   5.735
 2388SOL    HW2 8064   0.569   2.198   5.744
 2389SOL     OW 8065   5.120   4.738   4.394
 2389SOL    HW1 8066   5.129   4.771   4.488
 2389SOL    HW2 8067   5.100   4.640   4.395
 2390SOL     OW 8068   3.987   3.569   5.979
 2390SOL    HW1 8069   3.934   3.630   6.038
 2390SOL    HW2 8070   3.965   3.474   6.000
 2391SOL     OW 8071   3.363   3.029   6.672
 2391SOL    HW1 8072   3.425   2.968   6.721
 2391SOL    HW2 8073   3.412   3.113   6.646
 2392SOL     OW 8074   3.318   4.192   5.670
 2392SOL    HW1 8075   3.416   4.185   5.655
 2392SOL    HW2 8076   3.287   4.285   5.650
 2393SOL     OW 8077   4.152   5.347   1.615
 2393SOL    HW1 8078   4.088   5.421   1.598
 2393SOL    HW2 8079   4.231   5.357   1.554
 2394SOL     OW 8080   0.117   4.413   3.840
 2394SOL    HW1 8081   0.106   4.393   3.742
 2394SOL    HW2 8082   0.028   4.414   3.885
 2395SOL     OW 8083   0.810   2.941   6.400
 2395SOL    HW1 8084   0.776   3.014   6.460
 2395SOL    HW2 8085   0.742   2.868   6.396
 2396SOL     OW 8086   5.609   0.678   6.178
 2396SOL    HW1 8087   5.539   0.609   6.163
 2396SOL    HW2 8088   5.621   0.732   6.095
 2397SOL     OW 8089   0.450   4.516   6.088
 2397SOL    HW1 8090   0.423   4.426   6.122
 2397SOL    HW2 8091   0.523   4.553   6.146
 2398SOL     OW 8092   2.604   5.564   4.078
 2398SOL    HW1 8093   2.589   5.539   4.174
 2398SOL    HW2 8094   2.568   5.655   4.061
 2399SOL     OW 8095   3.338   2.119   3.913
 2399SOL    HW1 8096   3.385   2.163   3.990
 2399SOL    HW2 8097   3.246   2.091   3.942
 2400SOL     OW 8098   2.257   3.707   0.247
 2400SOL    HW1 8099   2.187   3.637   0.237
 2400SOL    HW2 8100   2.213   3.797   0.250
 2401SOL     OW 8101   3.786   6.949   4.155
 2401SOL    HW1 8102   3.744   6.991   4.236
 2401SOL    HW2 8103   3.876   6.913   4.179
 2402SOL     OW 8104   0.619   2.240   3.039
 2402SOL    HW1 8105   0.552   2.298   2.992
 2402SOL    HW2 8106   0.706   2.288   3.044
 2403SOL     OW 8107   3.905   3.438   1.332
 2403SOL    HW1 8108   3.956   3.464   1.250
 2403SOL    HW2 8109   3.926   3.344   1.357
 2404SOL     OW 8110   5.952   1.466   1.437
 2404SOL    HW1 8111   5.983   1.411   1.515
 2404SOL    HW2 8112   5.985   1.560   1.447
 2405SOL     OW 8113   2.835   4.869   5.782
 2405SOL    HW1 8114   2.831   4.899   5.687
 2405SOL    HW2 8115   2.820   4.770   5.786
 2406SOL     OW 8116   1.812   6.813   3.389
 2406SOL    HW1 8117   1.897   6.786   3.434
 2406SOL    HW2 8118   1.827   6.898   3.338
 2407SOL     OW 8119   4.603   2.167   3.085
 2407SOL    HW1 8120   4.518   2.140   3.130
 2407SOL    HW2 8121   4.604   2.132   2.992
 2408SOL     OW 8122   2.762   5.514   3.060
 2408SOL    HW1 8123   2.767   5.536   2.963
 2408SOL    HW2 8124   2.787   5.595   3.114
 2409SOL     OW 8125   2.903   2.873   0.689
 2409SOL    HW1 8126   2.964   2.858   0.611
 2409SOL    HW2 8127   2.894   2.972   0.705
 2410SOL     OW 8128   6.382   3.481   5.947
 2410SOL    HW1 8129   6.454   3.412   5.934
 2410SOL    HW2 8130   6.298   3.450   5.903
 2411SOL     OW 8131   2.766   4.016   6.029
 2411SOL    HW1 8132   2.704   3.990   6.103
 2411SOL    HW2 8133   2.717   4.009   5.941
 2412SOL     OW 8134   2.655   3.068   6.898
 2412SOL    HW1 8135   2.692   2.999   6.960
 2412SOL    HW2 8136   2.686   3.159   6.926
 2413SOL     OW 8137   6.266   3.380   6.544
 2413SOL    HW1 8138   6.183   3.325   6.548
 2413SOL    HW2 8139   6.346   3.319   6.540
 2414SOL     OW 8140   5.483   2.006   3.997
 2414SOL    HW1 8141   5.571   1.995   3.949
 2414SOL    HW2 8142   5.442   2.093   3.970
 2415SOL     OW 8143   2.336   6.902   7.020
 2415SOL    HW1 8144   2.262   6.882   6.956
 2415SOL    HW2 8145   2.339   6.831   0.068
 2416SOL     OW 8146   1.078   3.215   3.381
 2416SOL    HW1 8147   1.044   3.302   3.344
 2416SOL    HW2 8148   1.137   3.233   3.459
 2417SOL     OW 8149   4.689   2.481   6.766
 2417SOL    HW1 8150   4.668   2.385   6.785
 2417SOL    HW2 8151   4.634   2.540   6.826
 2418SOL     OW 8152   3.855   3.998   5.460
 2418SOL    HW1 8153   3.928   3.933   5.437
 2418SOL    HW2 8154   3.850   4.068   5.390
 2419SOL     OW 8155   2.208   6.970   4.521
 2419SOL    HW1 8156   2.251   0.009   4.586
 2419SOL    HW2 8157   2.155   6.901   4.571
 2420SOL     OW 8158   3.302   5.615   1.939
 2420SOL    HW1 8159   3.292   5.623   1.840
 2420SOL    HW2 8160   3.364   5.685   1.973
 2421SOL     OW 8161   3.849   6.549   3.930
 2421SOL    HW1 8162   3.876   6.572   3.837
 2421SOL    HW2 8163   3.776   6.481   3.928
 2422SOL     OW 8164   3.762   0.004   1.149
 2422SOL    HW1 8165   3.851   6.993   1.179
 2422SOL    HW2 8166   3.711   0.040   1.227
 2423SOL     OW 8167   1.771   5.823   1.418
 2423SOL    HW1 8168   1.828   5.824   1.336
 2423SOL    HW2 8169   1.823   5.862   1.495
 2424SOL     OW 8170   5.868   6.333   6.747
 2424SOL    HW1 8171   5.926   6.352   6.668
 2424SOL    HW2 8172   5.831   6.419   6.782
 2425SOL     OW 8173   4.699   5.697   6.022
 2425SOL    HW1 8174   4.745   5.611   6.044
 2425SOL    HW2 8175   4.758   5.752   5.963
 2426SOL     OW 8176   1.001   5.806   5.052
 2426SOL    HW1 8177   0.963   5.896   5.030
 2426SOL    HW2 8178   0.987   5.744   4.975
 2427SOL     OW 8179   4.973   6.297   6.605
 2427SOL    HW1 8180   4.901   6.249   6.655
 2427SOL    HW2 8181   4.932   6.353   6.533
 2428SOL     OW 8182   0.313   1.181   3.146
 2428SOL    HW1 8183   0.328   1.172   3.047
 2428SOL    HW2 8184   0.311   1.278   3.171
 2429SOL     OW 8185   5.041   4.893   2.412
 2429SOL    HW1 8186   4.944   4.870   2.423
 2429SOL    HW2 8187   5.095   4.809   2.407
 2430SOL     OW 8188   5.881   2.558   0.638
 2430SOL    HW1 8189   5.790   2.524   0.616
 2430SOL    HW2 8190   5.946   2.528   0.568
 2431SOL     OW 8191   5.797   1.632   2.052
 2431SOL    HW1 8192   5.781   1.595   2.143
 2431SOL    HW2 8193   5.723   1.693   2.026
 2432SOL     OW 8194   3.297   5.661   1.673
 2432SOL    HW1 8195   3.394   5.688   1.670
 2432SOL    HW2 8196   3.279   5.594   1.601
 2433SOL     OW 8197   0.477   5.963   0.140
 2433SOL    HW1 8198   0.523   5.893   0.085
 2433SOL    HW2 8199   0.536   6.043   0.148
 2434SOL     OW 8200   4.603   1.734   2.375
 2434SOL    HW1 8201   4.689   1.757   2.420
 2434SOL    HW2 8202   4.551   1.817   2.358
 2435SOL     OW 8203   5.827   5.792   0.321
 2435SOL    HW1 8204   5.831   5.747   0.232
 2435SOL    HW2 8205   5.828   5.891   0.307
 2436SOL     OW 8206   1.877   1.436   1.635
 2436SOL    HW1 8207   1.779   1.417   1.635
 2436SOL    HW2 8208   1.894   1.524   1.590
 2437SOL     OW 8209   5.882   5.904   2.014
 2437SOL    HW1 8210   5.873   6.004   2.015
 2437SOL    HW2 8211   5.974   5.880   1.985
 2438SOL     OW 8212   4.103   1.924   4.335
 2438SOL    HW1 8213   4.064   1.993   4.396
 2438SOL    HW2 8214   4.139   1.848   4.390
 2439SOL     OW 8215   0.355   5.167   6.606
 2439SOL    HW1 8216   0.445   5.138   6.575
 2439SOL    HW2 8217   0.362   5.255   6.653
 2440SOL     OW 8218   3.934   6.995   5.405
 2440SOL    HW1 8219   3.922   0.071   5.398
 2440SOL    HW2 8220   4.023   6.975   5.447
 2441SOL     OW 8221   5.607   1.236   7.015
 2441SOL    HW1 8222   5.695   1.197   0.021
 2441SOL    HW2 8223   5.533   1.177   0.023
 2442SOL     OW 8224   5.779   4.421   2.836
 2442SOL    HW1 8225   5.767   4.324   2.856
 2442SOL    HW2 8226   5.829   4.431   2.750
 2443SOL     OW 8227   2.354   0.925   6.202
 2443SOL    HW1 8228   2.383   0.882   6.117
 2443SOL    HW2 8229   2.260   0.959   6.193
 2444SOL     OW 8230   4.289   4.769   0.223
 2444SOL    HW1 8231   4.200   4.779   0.179
 2444SOL    HW2 8232   4.277   4.749   0.320
 2445SOL     OW 8233   6.543   1.257   2.124
 2445SOL    HW1 8234   6.468   1.215   2.073
 2445SOL    HW2 8235   6.540   1.227   2.220
 2446SOL     OW 8236   1.105   2.526   3.261
 2446SOL    HW1 8237   1.177   2.589   3.292
 2446SOL    HW2 8238   1.031   2.578   3.220
 2447SOL     OW 8239   2.148   0.826   1.260
 2447SOL    HW1 8240   2.120   0.918   1.286
 2447SOL    HW2 8241   2.112   0.760   1.326
 2448SOL     OW 8242   6.060   1.614   4.173
 2448SOL    HW1 8243   6.040   1.576   4.263
 2448SOL    HW2 8244   6.136   1.564   4.132
 2449SOL     OW 8245   1.213   3.323   1.986
 2449SOL    HW1 8246   1.246   3.232   1.961
 2449SOL    HW2 8247   1.260   3.354   2.069
 2450SOL     OW 8248   2.871   5.120   6.651
 2450SOL    HW1 8249   2.826   5.032   6.634
 2450SOL    HW2 8250   2.926   5.114   6.734
 2451SOL     OW 8251   0.858   0.013   3.652
 2451SOL    HW1 8252   0.936   0.021   3.590
 2451SOL    HW2 8253   0.875   6.962   3.718
 2452SOL     OW 8254   2.610   1.797   3.912
 2452SOL    HW1 8255   2.650   1.763   3.997
 2452SOL    HW2 8256   2.617   1.897   3.910
 2453SOL     OW 8257   6.910   2.774   0.654
 2453SOL    HW1 8258   6.946   2.716   0.727
 2453SOL    HW2 8259   6.960   2.860   0.652
 2454SOL     OW 8260   2.324   6.041   6.288
 2454SOL    HW1 8261   2.414   5.996   6.286
 2454SOL    HW2 8262   2.257   5.979   6.329
 2455SOL     OW 8263   4.263   1.039   0.636
 2455SOL    HW1 8264   4.233   1.073   0.547
 2455SOL    HW2 8265   4.318   0.957   0.625
 2456SOL     OW 8266   0.668   2.530   6.196
 2456SOL    HW1 8267   0.752   2.584   6.207
 2456SOL    HW2 8268   0.593   2.574   6.247
 2457SOL     OW 8269   6.562   1.367   5.137
 2457SOL    HW1 8270   6.515   1.377   5.225
 2457SOL    HW2 8271   6.599   1.455   5.109
 2458SOL     OW 8272   1.044   0.157   3.914
 2458SOL    HW1 8273   0.949   0.125   3.916
 2458SOL    HW2 8274   1.080   0.160   4.007
 2459SOL     OW 8275   2.882   6.015   6.069
 2459SOL    HW1 8276   2.827   6.097   6.085
 2459SOL    HW2 8277   2.845   5.940   6.125
 2460SOL     OW 8278   1.564   1.392   0.674
 2460SOL    HW1 8279   1.472   1.376   0.639
 2460SOL    HW2 8280   1.618   1.441   0.605
 2461SOL     OW 8281   5.097   0.819   4.050
 2461SOL    HW1 8282   5.154   0.813   4.131
 2461SOL    HW2 8283   5.086   0.728   4.010
 2462SOL     OW 8284   2.374   5.020   0.098
 2462SOL    HW1 8285   2.275   5.007   0.096
 2462SOL    HW2 8286   2.420   4.937   0.067
 2463SOL     OW 8287   6.612   1.962   0.175
 2463SOL    HW1 8288   6.521   1.943   0.135
 2463SOL    HW2 8289   6.616   1.922   0.266
 2464SOL     OW 8290   1.478   3.193   3.319
 2464SOL    HW1 8291   1.549   3.218   3.384
 2464SOL    HW2 8292   1.389   3.226   3.351
 2465SOL     OW 8293   0.021   6.389   6.104
 2465SOL    HW1 8294   7.017   6.294   6.118
 2465SOL    HW2 8295   6.975   6.435   6.048
 2466SOL     OW 8296   1.635   1.452   2.692
 2466SOL    HW1 8297   1.536   1.451   2.703
 2466SOL    HW2 8298   1.662   1.379   2.629
 2467SOL     OW 8299   4.539   1.960   5.681
 2467SOL    HW1 8300   4.493   1.872   5.677
 2467SOL    HW2 8301   4.637   1.948   5.665
 2468SOL     OW 8302   4.159   0.012   0.776
 2468SOL    HW1 8303   4.135   0.044   0.684
 2468SOL    HW2 8304   4.081   0.025   0.837
 2469SOL     OW 8305   3.772   3.225   4.996
 2469SOL    HW1 8306   3.736   3.275   5.075
 2469SOL    HW2 8307   3.812   3.290   4.931
 2470SOL     OW 8308   3.846   4.619   5.651
 2470SOL    HW1 8309   3.767   4.624   5.590
 2470SOL    HW2 8310   3.916   4.561   5.610
 2471SOL     OW 8311   2.896   6.592   0.424
 2471SOL    HW1 8312   2.937   6.510   0.385
 2471SOL    HW2 8313   2.942   6.673   0.388
 2472SOL     OW 8314   4.797   2.099   3.377
 2472SOL    HW1 8315   4.820   2.172   3.443
 2472SOL    HW2 8316   4.708   2.118   3.336
 2473SOL     OW 8317   1.256   4.008   5.576
 2473SOL    HW1 8318   1.199   4.033   5.498
 2473SOL    HW2 8319   1.280   4.090   5.627
 2474SOL     OW 8320   0.933   6.115   0.913
 2474SOL    HW1 8321   0.996   6.188   0.887
 2474SOL    HW2 8322   0.842   6.134   0.875
 2475SOL     OW 8323   4.480   1.091   2.421
 2475SOL    HW1 8324   4.512   1.153   2.493
 2475SOL    HW2 8325   4.536   1.008   2.422
 2476SOL     OW 8326   5.694   0.193   2.175
 2476SOL    HW1 8327   5.610   0.139   2.166
 2476SOL    HW2 8328   5.756   0.149   2.240
 2477SOL     OW 8329   4.456   1.155   3.398
 2477SOL    HW1 8330   4.465   1.175   3.301
 2477SOL    HW2 8331   4.374   1.199   3.434
 2478SOL     OW 8332   6.374   1.328   1.851
 2478SOL    HW1 8333   6.404   1.250   1.796
 2478SOL    HW2 8334   6.308   1.298   1.919
 2479SOL     OW 8335   0.934   3.296   2.333
 2479SOL    HW1 8336   0.921   3.237   2.413
 2479SOL    HW2 8337   0.977   3.243   2.260
 2480SOL     OW 8338   4.631   3.375   0.745
 2480SOL    HW1 8339   4.533   3.389   0.754
 2480SOL    HW2 8340   4.659   3.296   0.800
 2481SOL     OW 8341   3.693   6.611   0.871
 2481SOL    HW1 8342   3.706   6.670   0.792
 2481SOL    HW2 8343   3.610   6.556   0.859
 2482SOL     OW 8344   5.115   3.522   6.332
 2482SOL    HW1 8345   5.173   3.535   6.412
 2482SOL    HW2 8346   5.021   3.507   6.361
 2483SOL     OW 8347   1.948   1.917   7.011
 2483SOL    HW1 8348   1.966   2.015   7.011
 2483SOL    HW2 8349   1.855   1.900   0.023
 2484SOL     OW 8350   3.600   0.677   6.939
 2484SOL    HW1 8351   3.674   0.727   6.983
 2484SOL    HW2 8352   3.610   0.579   6.957
 2485SOL     OW 8353   5.918   3.307   0.975
 2485SOL    HW1 8354   5.941   3.402   0.995
 2485SOL    HW2 8355   5.819   3.299   0.963
 2486SOL     OW 8356   1.632   4.954   5.072
 2486SOL    HW1 8357   1.618   4.868   5.121
 2486SOL    HW2 8358   1.596   5.030   5.127
 2487SOL     OW 8359   4.310   6.649   0.551
 2487SOL    HW1 8360   4.345   6.582   0.616
 2487SOL    HW2 8361   4.246   6.711   0.598
 2488SOL     OW 8362   0.971   4.197   2.214
 2488SOL    HW1 8363   0.907   4.184   2.289
 2488SOL    HW2 8364   1.064   4.175   2.245
 2489SOL     OW 8365   0.928   6.331   4.187
 2489SOL    HW1 8366   0.897   6.259   4.125
 2489SOL    HW2 8367   0.987   6.395   4.138
 2490SOL     OW 8368   0.073   4.977   1.238
 2490SOL    HW1 8369   0.158   4.926   1.222
 2490SOL    HW2 8370   0.087   5.073   1.217
 2491SOL     OW 8371   3.059   4.385   0.314
 2491SOL    HW1 8372   3.083   4.380   0.411
 2491SOL    HW2 8373   3.002   4.466   0.299
 2492SOL     OW 8374   4.651   3.665   0.718
 2492SOL    HW1 8375   4.576   3.690   0.656
 2492SOL    HW2 8376   4.655   3.565   0.726
 2493SOL     OW 8377   6.261   7.013   2.088
 2493SOL    HW1 8378   6.327   0.018   2.157
 2493SOL    HW2 8379   6.216   6.928   2.117
 2494SOL     OW 8380   5.380   4.503   3.287
 2494SOL    HW1 8381   5.384   4.585   3.344
 2494SOL    HW2 8382   5.285   4.477   3.273
 2495SOL     OW 8383   4.965   6.300   3.759
 2495SOL    HW1 8384   4.990   6.253   3.844
 2495SOL    HW2 8385   4.866   6.294   3.745
 2496SOL     OW 8386   0.205   2.695   6.421
 2496SOL    HW1 8387   0.156   2.610   6.403
 2496SOL    HW2 8388   0.250   2.726   6.337
 2497SOL     OW 8389   0.035   0.212   0.434
 2497SOL    HW1 8390   6.959   0.199   0.440
 2497SOL    HW2 8391   0.074   0.216   0.526
 2498SOL     OW 8392   3.238   1.847   5.358
 2498SOL    HW1 8393   3.156   1.829   5.413
 2498SOL    HW2 8394   3.228   1.934   5.310
 2499SOL     OW 8395   6.107   3.025   2.872
 2499SOL    HW1 8396   6.128   3.037   2.775
 2499SOL    HW2 8397   6.022   2.973   2.882
 2500SOL     OW 8398   4.081   4.252   0.062
 2500SOL    HW1 8399   4.173   4.217   0.079
 2500SOL    HW2 8400   4.082   4.312   7.005
 2501SOL     OW 8401   5.448   5.481   0.827
 2501SOL    HW1 8402   5.400   5.522   0.904
 2501SOL    HW2 8403   5.381   5.443   0.762
 2502SOL     OW 8404   0.929   0.596   3.899
 2502SOL    HW1 8405   0.841   0.550   3.907
 2502SOL    HW2 8406   0.994   0.555   3.963
 2503SOL     OW 8407   2.492   6.519   4.704
 2503SOL    HW1 8408   2.450   6.610   4.704
 2503SOL    HW2 8409   2.520   6.496   4.797
 2504SOL     OW 8410   3.998   5.268   4.073
 2504SOL    HW1 8411   4.096   5.272   4.091
 2504SOL    HW2 8412   3.979   5.188   4.016
 2505SOL     OW 8413   0.192   0.076   3.158
 2505SOL    HW1 8414   0.171   7.008   3.194
 2505SOL    HW2 8415   0.240   0.129   3.227
 2506SOL     OW 8416   6.464   3.955   5.966
 2506SOL    HW1 8417   6.371   3.991   5.954
 2506SOL    HW2 8418   6.503   3.992   6.051
 2507SOL     OW 8419   6.596   2.977   0.181
 2507SOL    HW1 8420   6.670   2.980   0.247
 2507SOL    HW2 8421   6.508   2.973   0.229
 2508SOL     OW 8422   3.088   1.509   3.359
 2508SOL    HW1 8423   3.120   1.435   3.418
 2508SOL    HW2 8424   3.018   1.474   3.297
 2509SOL     OW 8425   6.900   3.967   1.085
 2509SOL    HW1 8426   6.900   4.063   1.057
 2509SOL    HW2 8427   6.966   3.954   1.160
 2510SOL     OW 8428   3.215   5.151   1.379
 2510SOL    HW1 8429   3.158   5.217   1.330
 2510SOL    HW2 8430   3.157   5.094   1.438
 2511SOL     OW 8431   3.887   1.884   4.173
 2511SOL    HW1 8432   3.878   1.957   4.105
 2511SOL    HW2 8433   3.972   1.896   4.224
 2512SOL     OW 8434   4.519   3.545   5.542
 2512SOL    HW1 8435   4.421   3.567   5.543
 2512SOL    HW2 8436   4.546   3.508   5.632
 2513SOL     OW 8437   2.125   3.971   5.265
 2513SOL    HW1 8438   2.216   3.973   5.224
 2513SOL    HW2 8439   2.081   3.884   5.242
 2514SOL     OW 8440   0.546   4.010   5.025
 2514SOL    HW1 8441   0.592   3.926   4.997
 2514SOL    HW2 8442   0.540   4.014   5.124
 2515SOL     OW 8443   1.176   6.835   0.891
 2515SOL    HW1 8444   1.203   6.741   0.910
 2515SOL    HW2 8445   1.166   6.885   0.977
 2516SOL     OW 8446   5.691   2.156   2.811
 2516SOL    HW1 8447   5.598   2.143   2.845
 2516SOL    HW2 8448   5.694   2.238   2.753
 2517SOL     OW 8449   0.368   6.991   6.378
 2517SOL    HW1 8450   0.435   6.991   6.304
 2517SOL    HW2 8451   0.354   0.061   6.412
 2518SOL     OW 8452   1.523   4.620   6.922
 2518SOL    HW1 8453   1.612   4.585   6.950
 2518SOL    HW2 8454   1.498   4.581   6.833
 2519SOL     OW 8455   3.908   5.958   2.002
 2519SOL    HW1 8456   3.941   5.902   1.925
 2519SOL    HW2 8457   3.930   5.911   2.088
 2520SOL     OW 8458   3.368   1.655   0.610
 2520SOL    HW1 8459   3.360   1.752   0.632
 2520SOL    HW2 8460   3.302   1.632   0.538
 2521SOL     OW 8461   2.860   0.644   5.384
 2521SOL    HW1 8462   2.895   0.630   5.291
 2521SOL    HW2 8463   2.815   0.560   5.415
 2522SOL     OW 8464   0.983   2.734   5.172
 2522SOL    HW1 8465   1.024   2.824   5.158
 2522SOL    HW2 8466   1.043   2.664   5.133
 2523SOL     OW 8467   0.141   3.365   1.253
 2523SOL    HW1 8468   0.209   3.306   1.297
 2523SOL    HW2 8469   0.188   3.436   1.200
 2524SOL     OW 8470   0.635   6.397   4.809
 2524SOL    HW1 8471   0.577   6.338   4.865
 2524SOL    HW2 8472   0.620   6.376   4.712
 2525SOL     OW 8473   1.249   2.297   5.715
 2525SOL    HW1 8474   1.198   2.261   5.637
 2525SOL    HW2 8475   1.342   2.319   5.687
 2526SOL     OW 8476   1.025   4.351   6.306
 2526SOL    HW1 8477   1.112   4.315   6.339
 2526SOL    HW2 8478   0.950   4.304   6.352
 2527SOL     OW 8479   5.301   6.194   5.560
 2527SOL    HW1 8480   5.292   6.289   5.530
 2527SOL    HW2 8481   5.345   6.140   5.487
 2528SOL     OW 8482   6.381   4.934   0.049
 2528SOL    HW1 8483   6.418   4.845   0.076
 2528SOL    HW2 8484   6.321   4.968   0.121
 2529SOL     OW 8485   6.778   5.807   6.472
 2529SOL    HW1 8486   6.841   5.739   6.435
 2529SOL    HW2 8487   6.699   5.761   6.513
 2530SOL     OW 8488   2.877   6.483   4.889
 2530SOL    HW1 8489   2.807   6.427   4.935
 2530SOL    HW2 8490   2.837   6.529   4.810
 2531SOL     OW 8491   5.507   5.727   4.959
 2531SOL    HW1 8492   5.595   5.718   4.911
 2531SOL    HW2 8493   5.447   5.788   4.907
 2532SOL     OW 8494   0.581   5.363   1.066
 2532SOL    HW1 8495   0.622   5.272   1.069
 2532SOL    HW2 8496   0.594   5.402   0.975
 2533SOL     OW 8497   3.281   6.513   4.154
 2533SOL    HW1 8498   3.276   6.561   4.067
 2533SOL    HW2 8499   3.313   6.575   4.225
 2534SOL     OW 8500   4.102   0.585   2.682
 2534SOL    HW1 8501   4.033   0.644   2.725
 2534SOL    HW2 8502   4.106   0.605   2.584
 2535SOL     OW 8503   3.353   2.543   5.547
 2535SOL    HW1 8504   3.404   2.611   5.494
 2535SOL    HW2 8505   3.274   2.587   5.590
 2536SOL     OW 8506   1.246   1.541   4.792
 2536SOL    HW1 8507   1.282   1.502   4.707
 2536SOL    HW2 8508   1.147   1.531   4.795
 2537SOL     OW 8509   3.744   0.213   6.079
 2537SOL    HW1 8510   3.751   0.287   6.012
 2537SOL    HW2 8511   3.833   0.170   6.092
 2538SOL     OW 8512   0.781   4.684   2.858
 2538SOL    HW1 8513   0.763   4.775   2.896
 2538SOL    HW2 8514   0.871   4.683   2.815
 2539SOL     OW 8515   6.103   0.996   4.939
 2539SOL    HW1 8516   6.098   0.929   4.865
 2539SOL    HW2 8517   6.017   1.047   4.944
 2540SOL     OW 8518   4.014   1.865   2.829
 2540SOL    HW1 8519   4.064   1.826   2.907
 2540SOL    HW2 8520   3.967   1.793   2.779
 2541SOL     OW 8521   2.809   0.204   5.042
 2541SOL    HW1 8522   2.801   0.259   4.960
 2541SOL    HW2 8523   2.903   0.207   5.076
 2542SOL     OW 8524   3.361   1.771   5.839
 2542SOL    HW1 8525   3.279   1.750   5.892
 2542SOL    HW2 8526   3.376   1.699   5.771
 2543SOL     OW 8527   1.389   0.848   3.356
 2543SOL    HW1 8528   1.416   0.809   3.444
 2543SOL    HW2 8529   1.304   0.898   3.367
 2544SOL     OW 8530   0.171   6.858   0.984
 2544SOL    HW1 8531   0.258   6.903   0.968
 2544SOL    HW2 8532   0.179   6.798   1.064
 2545SOL     OW 8533   1.264   0.277   2.305
 2545SOL    HW1 8534   1.228   0.218   2.234
 2545SOL    HW2 8535   1.202   0.277   2.383
 2546SOL     OW 8536   0.259   0.883   1.984
 2546SOL    HW1 8537   0.170   0.848   1.954
 2546SOL    HW2 8538   0.251   0.980   2.006
 2547SOL     OW 8539   6.673   5.060   0.402
 2547SOL    HW1 8540   6.746   5.128   0.394
 2547SOL    HW2 8541   6.585   5.103   0.380
 2548SOL     OW 8542   1.325   6.318   5.856
 2548SOL    HW1 8543   1.349   6.411   5.883
 2548SOL    HW2 8544   1.270   6.275   5.928
 2549SOL     OW 8545   2.036   0.377   1.013
 2549SOL    HW1 8546   1.954   0.389   0.957
 2549SOL    HW2 8547   2.115   0.413   0.963
 2550SOL     OW 8548   6.665   0.255   6.793
 2550SOL    HW1 8549   6.627   0.247   6.701
 2550SOL    HW2 8550   6.666   0.351   6.821
 2551SOL     OW 8551   3.166   5.402   0.573
 2551SOL    HW1 8552   3.087   5.446   0.616
 2551SOL    HW2 8553   3.206   5.336   0.637
 2552SOL     OW 8554   1.588   6.031   4.894
 2552SOL    HW1 8555   1.492   6.017   4.870
 2552SOL    HW2 8556   1.613   5.969   4.969
 2553SOL     OW 8557   4.980   3.421   5.906
 2553SOL    HW1 8558   4.893   3.434   5.953
 2553SOL    HW2 8559   4.972   3.448   5.810
 2554SOL     OW 8560   1.987   7.003   0.188
 2554SOL    HW1 8561   1.902   6.964   0.225
 2554SOL    HW2 8562   1.970   0.015   0.096
 2555SOL     OW 8563   5.750   0.109   5.290
 2555SOL    HW1 8564   5.812   0.164   5.346
 2555SOL    HW2 8565   5.656   0.127   5.316
 2556SOL     OW 8566   4.155   5.733   0.258
 2556SOL    HW1 8567   4.235   5.725   0.317
 2556SOL    HW2 8568   4.128   5.829   0.253
 2557SOL     OW 8569   2.442   4.512   7.010
 2557SOL    HW1 8570   2.453   4.430   0.042
 2557SOL    HW2 8571   2.402   4.488   6.922
 2558SOL     OW 8572   5.408   1.583   4.808
 2558SOL    HW1 8573   5.403   1.607   4.905
 2558SOL    HW2 8574   5.503   1.566   4.782
 2559SOL     OW 8575   0.311   3.528   4.257
 2559SOL    HW1 8576   0.258   3.592   4.314
 2559SOL    HW2 8577   0.362   3.465   4.315
 2560SOL     OW 8578   5.915   3.535   4.135
 2560SOL    HW1 8579   5.887   3.614   4.188
 2560SOL    HW2 8580   5.908   3.453   4.192
 2561SOL     OW 8581   3.236   6.202   5.272
 2561SOL    HW1 8582   3.181   6.132   5.225
 2561SOL    HW2 8583   3.263   6.167   5.362
 2562SOL     OW 8584   2.210   5.525   1.564
 2562SOL    HW1 8585   2.115   5.555   1.554
 2562SOL    HW2 8586   2.212   5.433   1.604
 2563SOL     OW 8587   3.543   2.303   0.487
 2563SOL    HW1 8588   3.522   2.401   0.488
 2563SOL    HW2 8589   3.465   2.252   0.524
 2564SOL     OW 8590   1.957   5.676   5.972
 2564SOL    HW1 8591   2.010   5.681   5.888
 2564SOL    HW2 8592   2.018   5.678   6.051
 2565SOL     OW 8593   1.478   0.709   0.213
 2565SOL    HW1 8594   1.405   0.713   0.281
 2565SOL    HW2 8595   1.565   0.734   0.255
 2566SOL     OW 8596   2.608   6.941   1.008
 2566SOL    HW1 8597   2.666   6.879   0.956
 2566SOL    HW2 8598   2.545   6.988   0.946
 2567SOL     OW 8599   0.520   1.070   0.803
 2567SOL    HW1 8600   0.457   1.001   0.766
 2567SOL    HW2 8601   0.556   1.125   0.728
 2568SOL     OW 8602   4.218   0.193   6.552
 2568SOL    HW1 8603   4.140   0.133   6.571
 2568SOL    HW2 8604   4.211   0.227   6.458
 2569SOL     OW 8605   2.859   1.482   2.017
 2569SOL    HW1 8606   2.886   1.577   2.030
 2569SOL    HW2 8607   2.782   1.477   1.954
 2570SOL     OW 8608   5.456   0.294   6.527
 2570SOL    HW1 8609   5.425   0.385   6.499
 2570SOL    HW2 8610   5.454   0.287   6.627
 2571SOL     OW 8611   2.375   4.657   5.820
 2571SOL    HW1 8612   2.447   4.726   5.814
 2571SOL    HW2 8613   2.365   4.627   5.915
 2572SOL     OW 8614   2.617   5.490   0.979
 2572SOL    HW1 8615   2.659   5.415   0.928
 2572SOL    HW2 8616   2.683   5.527   1.044
 2573SOL     OW 8617   6.797   2.149   1.896
 2573SOL    HW1 8618   6.853   2.189   1.968
 2573SOL    HW2 8619   6.848   2.150   1.810
 2574SOL     OW 8620   5.939   3.899   0.476
 2574SOL    HW1 8621   5.902   3.898   0.569
 2574SOL    HW2 8622   6.037   3.880   0.478
 2575SOL     OW 8623   5.162   5.281   1.164
 2575SOL    HW1 8624   5.199   5.373   1.150
 2575SOL    HW2 8625   5.066   5.289   1.191
 2576SOL     OW 8626   4.187   6.484   4.526
 2576SOL    HW1 8627   4.142   6.397   4.505
 2576SOL    HW2 8628   4.282   6.481   4.494
 2577SOL     OW 8629   4.458   6.592   1.935
 2577SOL    HW1 8630   4.409   6.653   1.873
 2577SOL    HW2 8631   4.556   6.609   1.927
 2578SOL     OW 8632   4.759   1.918   5.280
 2578SOL    HW1 8633   4.800   1.866   5.205
 2578SOL    HW2 8634   4.710   1.857   5.341
 2579SOL     OW 8635   1.437   6.421   2.989
 2579SOL    HW1 8636   1.422   6.379   3.079
 2579SOL    HW2 8637   1.530   6.401   2.959
 2580SOL     OW 8638   2.908   3.793   6.119
 2580SOL    HW1 8639   2.852   3.794   6.202
 2580SOL    HW2 8640   2.898   3.880   6.071
 2581SOL     OW 8641   1.602   4.919   1.518
 2581SOL    HW1 8642   1.523   4.868   1.482
 2581SOL    HW2 8643   1.646   4.969   1.444
 2582SOL     OW 8644   0.621   4.112   1.733
 2582SOL    HW1 8645   0.579   4.026   1.763
 2582SOL    HW2 8646   0.579   4.142   1.648
 2583SOL     OW 8647   1.442   1.607   6.821
 2583SOL    HW1 8648   1.536   1.575   6.832
 2583SOL    HW2 8649   1.407   1.575   6.733
 2584SOL     OW 8650   4.182   4.923   6.074
 2584SOL    HW1 8651   4.114   4.870   6.024
 2584SOL    HW2 8652   4.184   5.017   6.039
 2585SOL     OW 8653   4.459   3.308   0.319
 2585SOL    HW1 8654   4.543   3.288   0.368
 2585SOL    HW2 8655   4.411   3.223   0.298
 2586SOL     OW 8656   4.191   1.224   3.521
 2586SOL    HW1 8657   4.144   1.175   3.447
 2586SOL    HW2 8658   4.125   1.279   3.571
 2587SOL     OW 8659   0.026   0.676   3.238
 2587SOL    HW1 8660   7.019   0.715   3.151
 2587SOL    HW2 8661   0.074   0.745   3.291
 2588SOL     OW 8662   4.958   1.327   6.456
 2588SOL    HW1 8663   4.932   1.389   6.381
 2588SOL    HW2 8664   4.919   1.236   6.438
 2589SOL     OW 8665   0.826   6.433   5.477
 2589SOL    HW1 8666   0.921   6.405   5.493
 2589SOL    HW2 8667   0.793   6.392   5.393
 2590SOL     OW 8668   3.121   5.193   0.048
 2590SOL    HW1 8669   3.208   5.198   0.096
 2590SOL    HW2 8670   3.048   5.230   0.106
 2591SOL     OW 8671   0.122   4.719   3.100
 2591SOL    HW1 8672   0.117   4.743   3.003
 2591SOL    HW2 8673   0.136   4.802   3.154
 2592SOL     OW 8674   3.102   5.544   0.173
 2592SOL    HW1 8675   3.143   5.506   0.089
 2592SOL    HW2 8676   3.004   5.557   0.158
 2593SOL     OW 8677   4.347   5.472   0.170
 2593SOL    HW1 8678   4.317   5.556   0.217
 2593SOL    HW2 8679   4.446   5.471   0.164
 2594SOL     OW 8680   1.748   4.441   5.908
 2594SOL    HW1 8681   1.664   4.465   5.859
 2594SOL    HW2 8682   1.827   4.458   5.849
 2595SOL     OW 8683   0.019   0.536   4.063
 2595SOL    HW1 8684   6.952   0.493   4.065
 2595SOL    HW2 8685   0.083   0.479   4.011
 2596SOL     OW 8686   3.096   2.186   1.808
 2596SOL    HW1 8687   3.177   2.225   1.764
 2596SOL    HW2 8688   3.038   2.260   1.843
 2597SOL     OW 8689   0.405   4.849   5.766
 2597SOL    HW1 8690   0.312   4.815   5.749
 2597SOL    HW2 8691   0.467   4.771   5.778
 2598SOL     OW 8692   6.201   1.762   3.151
 2598SOL    HW1 8693   6.122   1.769   3.090
 2598SOL    HW2 8694   6.195   1.832   3.222
 2599SOL     OW 8695   1.195   5.893   1.029
 2599SOL    HW1 8696   1.216   5.924   0.936
 2599SOL    HW2 8697   1.145   5.965   1.078
 2600SOL     OW 8698   5.873   3.184   4.681
 2600SOL    HW1 8699   5.904   3.116   4.614
 2600SOL    HW2 8700   5.868   3.274   4.638
 2601SOL     OW 8701   1.914   1.718   2.322
 2601SOL    HW1 8702   1.944   1.759   2.408
 2601SOL    HW2 8703   1.913   1.787   2.250
 2602SOL     OW 8704   1.143   4.816   4.811
 2602SOL    HW1 8705   1.045   4.807   4.824
 2602SOL    HW2 8706   1.184   4.725   4.803
 2603SOL     OW 8707   3.361   0.384   3.763
 2603SOL    HW1 8708   3.449   0.410   3.724
 2603SOL    HW2 8709   3.306   0.466   3.779
 2604SOL     OW 8710   4.743   2.336   2.652
 2604SOL    HW1 8711   4.655   2.383   2.648
 2604SOL    HW2 8712   4.786   2.338   2.562
 2605SOL     OW 8713   1.667   2.747   3.255
 2605SOL    HW1 8714   1.767   2.737   3.252
 2605SOL    HW2 8715   1.637   2.747   3.351
 2606SOL     OW 8716   5.504   4.518   1.382
 2606SOL    HW1 8717   5.539   4.560   1.298
 2606SOL    HW2 8718   5.519   4.419   1.378
 2607SOL     OW 8719   1.355   1.539   2.188
 2607SOL    HW1 8720   1.428   1.570   2.127
 2607SOL    HW2 8721   1.266   1.566   2.151
 2608SOL     OW 8722   4.003   5.284   0.490
 2608SOL    HW1 8723   4.067   5.262   0.416
 2608SOL    HW2 8724   4.047   5.345   0.555
 2609SOL     OW 8725   6.519   1.128   2.421
 2609SOL    HW1 8726   6.469   1.183   2.487
 2609SOL    HW2 8727   6.548   1.042   2.463
 2610SOL     OW 8728   0.744   3.773   4.242
 2610SOL    HW1 8729   0.758   3.803   4.336
 2610SOL    HW2 8730   0.646   3.767   4.223
 2611SOL     OW 8731   4.162   6.082   0.764
 2611SOL    HW1 8732   4.255   6.047   0.748
 2611SOL    HW2 8733   4.167   6.158   0.828
 2612SOL     OW 8734   6.198   6.494   4.520
 2612SOL    HW1 8735   6.273   6.440   4.560
 2612SOL    HW2 8736   6.203   6.587   4.554
 2613SOL     OW 8737   1.921   5.417   6.135
 2613SOL    HW1 8738   1.954   5.416   6.041
 2613SOL    HW2 8739   1.823   5.436   6.136
 2614SOL     OW 8740   6.669   2.218   0.222
 2614SOL    HW1 8741   6.646   2.123   0.202
 2614SOL    HW2 8742   6.744   2.221   0.289
 2615SOL     OW 8743   0.668   3.224   2.617
 2615SOL    HW1 8744   0.648   3.182   2.528
 2615SOL    HW2 8745   0.614   3.179   2.688
 2616SOL     OW 8746   2.499   2.706   6.041
 2616SOL    HW1 8747   2.459   2.695   6.132
 2616SOL    HW2 8748   2.567   2.780   6.044
 2617SOL     OW 8749   4.309   0.629   0.454
 2617SOL    HW1 8750   4.217   0.670   0.453
 2617SOL    HW2 8751   4.361   0.664   0.376
 2618SOL     OW 8752   6.747   0.354   4.203
 2618SOL    HW1 8753   6.742   0.370   4.302
 2618SOL    HW2 8754   6.718   0.261   4.183
 2619SOL     OW 8755   5.268   2.105   1.743
 2619SOL    HW1 8756   5.171   2.091   1.725
 2619SOL    HW2 8757   5.322   2.071   1.666
 2620SOL     OW 8758   7.001   6.755   3.740
 2620SOL    HW1 8759   7.011   6.787   3.646
 2620SOL    HW2 8760   0.065   6.767   3.788
 2621SOL     OW 8761   0.844   5.204   2.246
 2621SOL    HW1 8762   0.850   5.189   2.345
 2621SOL    HW2 8763   0.748   5.203   2.219
 2622SOL     OW 8764   1.977   3.996   6.239
 2622SOL    HW1 8765   2.049   3.962   6.300
 2622SOL    HW2 8766   1.958   3.928   6.169
 2623SOL     OW 8767   0.702   0.272   5.765
 2623SOL    HW1 8768   0.658   0.354   5.729
 2623SOL    HW2 8769   0.690   0.267   5.864
 2624SOL     OW 8770   0.606   1.655   4.963
 2624SOL    HW1 8771   0.546   1.615   5.032
 2624SOL    HW2 8772   0.565   1.645   4.872
 2625SOL     OW 8773   2.620   3.766   5.873
 2625SOL    HW1 8774   2.569   3.844   5.838
 2625SOL    HW2 8775   2.695   3.744   5.810
 2626SOL     OW 8776   6.740   0.500   6.442
 2626SOL    HW1 8777   6.669   0.537   6.503
 2626SOL    HW2 8778   6.758   0.405   6.466
 2627SOL     OW 8779   1.565   0.878   6.110
 2627SOL    HW1 8780   1.658   0.912   6.093
 2627SOL    HW2 8781   1.567   0.814   6.187
 2628SOL     OW 8782   2.128   4.025   5.772
 2628SOL    HW1 8783   2.154   4.044   5.677
 2628SOL    HW2 8784   2.105   3.928   5.781
 2629SOL     OW 8785   3.732   3.471   1.979
 2629SOL    HW1 8786   3.655   3.509   1.928
 2629SOL    HW2 8787   3.811   3.463   1.919
 2630SOL     OW 8788   3.524   1.209   2.485
 2630SOL    HW1 8789   3.597   1.193   2.552
 2630SOL    HW2 8790   3.523   1.135   2.418
 2631SOL     OW 8791   5.100   0.656   6.490
 2631SOL    HW1 8792   5.048   0.614   6.415
 2631SOL    HW2 8793   5.131   0.747   6.463
 2632SOL     OW 8794   5.563   3.033   0.790
 2632SOL    HW1 8795   5.621   2.957   0.761
 2632SOL    HW2 8796   5.616   3.096   0.846
 2633SOL     OW 8797   0.130   1.732   4.820
 2633SOL    HW1 8798   0.213   1.716   4.766
 2633SOL    HW2 8799   0.074   1.649   4.819
 2634SOL     OW 8800   0.853   5.400   3.509
 2634SOL    HW1 8801   0.916   5.334   3.467
 2634SOL    HW2 8802   0.887   5.426   3.599
 2635SOL     OW 8803   6.988   5.976   4.459
 2635SOL    HW1 8804   6.893   5.951   4.479
 2635SOL    HW2 8805   0.005   5.907   4.398
 2636SOL     OW 8806   3.888   0.411   6.598
 2636SOL    HW1 8807   3.957   0.483   6.597
 2636SOL    HW2 8808   3.898   0.356   6.681
 2637SOL     OW 8809   5.962   1.855   4.050
 2637SOL    HW1 8810   6.028   1.914   4.003
 2637SOL    HW2 8811   6.006   1.770   4.076
 2638SOL     OW 8812   6.963   6.855   4.604
 2638SOL    HW1 8813   6.945   6.792   4.680
 2638SOL    HW2 8814   6.992   6.943   4.640
 2639SOL     OW 8815   6.759   6.244   0.284
 2639SOL    HW1 8816   6.841   6.280   0.240
 2639SOL    HW2 8817   6.678   6.282   0.239
 2640SOL     OW 8818   6.695   6.571   5.415
 2640SOL    HW1 8819   6.716   6.515   5.335
 2640SOL    HW2 8820   6.601   6.605   5.408
 2641SOL     OW 8821   5.366   2.532   1.974
 2641SOL    HW1 8822   5.330   2.501   1.886
 2641SOL    HW2 8823   5.370   2.454   2.037
 2642SOL     OW 8824   6.262   0.297   3.625
 2642SOL    HW1 8825   6.205   0.379   3.628
 2642SOL    HW2 8826   6.258   0.250   3.713
 2643SOL     OW 8827   1.240   3.614   3.767
 2643SOL    HW1 8828   1.266   3.624   3.863
 2643SOL    HW2 8829   1.150   3.570   3.761
 2644SOL     OW 8830   4.837   5.051   4.827
 2644SOL    HW1 8831   4.793   5.141   4.832
 2644SOL    HW2 8832   4.820   5.001   4.912
 2645SOL     OW 8833   4.613   5.558   3.711
 2645SOL    HW1 8834   4.670   5.486   3.671
 2645SOL    HW2 8835   4.518   5.545   3.681
 2646SOL     OW 8836   6.840   2.106   0.432
 2646SOL    HW1 8837   6.799   2.075   0.518
 2646SOL    HW2 8838   6.939   2.115   0.443
 2647SOL     OW 8839   6.241   6.693   1.780
 2647SOL    HW1 8840   6.194   6.759   1.720
 2647SOL    HW2 8841   6.334   6.726   1.798
 2648SOL     OW 8842   6.876   5.979   4.029
 2648SOL    HW1 8843   6.894   6.077   4.043
 2648SOL    HW2 8844   6.803   5.950   4.090
 2649SOL     OW 8845   6.160   3.349   1.197
 2649SOL    HW1 8846   6.173   3.437   1.151
 2649SOL    HW2 8847   6.187   3.357   1.292
 2650SOL     OW 8848   1.885   4.848   4.173
 2650SOL    HW1 8849   1.824   4.772   4.197
 2650SOL    HW2 8850   1.834   4.934   4.179
 2651SOL     OW 8851   2.958   1.504   1.274
 2651SOL    HW1 8852   3.022   1.487   1.199
 2651SOL    HW2 8853   2.995   1.576   1.333
 2652SOL     OW 8854   4.522   3.410   5.772
 2652SOL    HW1 8855   4.590   3.453   5.832
 2652SOL    HW2 8856   4.459   3.355   5.827
 2653SOL     OW 8857   4.718   5.938   5.866
 2653SOL    HW1 8858   4.694   6.008   5.933
 2653SOL    HW2 8859   4.657   5.945   5.787
 2654SOL     OW 8860   4.715   6.787   1.194
 2654SOL    HW1 8861   4.788   6.723   1.172
 2654SOL    HW2 8862   4.739   6.878   1.161
 2655SOL     OW 8863   4.949   5.620   3.726
 2655SOL    HW1 8864   4.912   5.598   3.817
 2655SOL    HW2 8865   5.024   5.557   3.705
 2656SOL     OW 8866   3.801   5.724   4.559
 2656SOL    HW1 8867   3.822   5.707   4.463
 2656SOL    HW2 8868   3.702   5.719   4.573
 2657SOL     OW 8869   1.728   3.682   0.423
 2657SOL    HW1 8870   1.648   3.742   0.417
 2657SOL    HW2 8871   1.705   3.592   0.387
 2658SOL     OW 8872   4.742   4.631   0.109
 2658SOL    HW1 8873   4.811   4.570   0.071
 2658SOL    HW2 8874   4.660   4.630   0.051
 2659SOL     OW 8875   4.795   3.180   5.348
 2659SOL    HW1 8876   4.777   3.083   5.364
 2659SOL    HW2 8877   4.709   3.230   5.347
 2660SOL     OW 8878   0.740   0.485   1.881
 2660SOL    HW1 8879   0.650   0.518   1.853
 2660SOL    HW2 8880   0.777   0.425   1.810
 2661SOL     OW 8881   1.987   6.688   1.570
 2661SOL    HW1 8882   1.993   6.598   1.526
 2661SOL    HW2 8883   2.075   6.734   1.566
 2662SOL     OW 8884   2.977   0.241   4.193
 2662SOL    HW1 8885   3.049   0.186   4.151
 2662SOL    HW2 8886   2.947   0.312   4.129
 2663SOL     OW 8887   4.415   4.623   6.388
 2663SOL    HW1 8888   4.507   4.584   6.381
 2663SOL    HW2 8889   4.393   4.672   6.304
 2664SOL     OW 8890   4.356   3.226   5.341
 2664SOL    HW1 8891   4.324   3.241   5.434
 2664SOL    HW2 8892   4.437   3.282   5.325
 2665SOL     OW 8893   2.424   3.444   5.298
 2665SOL    HW1 8894   2.385   3.536   5.302
 2665SOL    HW2 8895   2.363   3.383   5.246
 2666SOL     OW 8896   1.474   4.466   1.397
 2666SOL    HW1 8897   1.532   4.429   1.470
 2666SOL    HW2 8898   1.390   4.412   1.390
 2667SOL     OW 8899   1.379   5.795   3.898
 2667SOL    HW1 8900   1.303   5.857   3.880
 2667SOL    HW2 8901   1.449   5.806   3.827
 2668SOL     OW 8902   6.258   2.828   4.705
 2668SOL    HW1 8903   6.251   2.890   4.783
 2668SOL    HW2 8904   6.319   2.752   4.728
 2669SOL     OW 8905   3.024   5.356   6.380
 2669SOL    HW1 8906   3.041   5.452   6.399
 2669SOL    HW2 8907   3.016   5.342   6.282
 2670SOL     OW 8908   5.768   3.203   4.931
 2670SOL    HW1 8909   5.800   3.191   4.837
 2670SOL    HW2 8910   5.804   3.129   4.988
 2671SOL     OW 8911   4.910   5.014   6.425
 2671SOL    HW1 8912   4.823   5.053   6.452
 2671SOL    HW2 8913   4.978   5.029   6.497
 2672SOL     OW 8914   3.093   6.307   1.366
 2672SOL    HW1 8915   3.162   6.252   1.319
 2672SOL    HW2 8916   3.098   6.290   1.464
 2673SOL     OW 8917   6.315   2.298   1.897
 2673SOL    HW1 8918   6.377   2.225   1.928
 2673SOL    HW2 8919   6.222   2.261   1.890
 2674SOL     OW 8920   0.787   4.644   3.942
 2674SOL    HW1 8921   0.804   4.742   3.957
 2674SOL    HW2 8922   0.688   4.629   3.933
 2675SOL     OW 8923   6.780   6.438   3.983
 2675SOL    HW1 8924   6.681   6.435   3.998
 2675SOL    HW2 8925   6.800   6.487   3.898
 2676SOL     OW 8926   3.172   3.186   1.664
 2676SOL    HW1 8927   3.156   3.088   1.677
 2676SOL    HW2 8928   3.110   3.222   1.595
 2677SOL     OW 8929   2.401   4.484   1.325
 2677SOL    HW1 8930   2.473   4.517   1.386
 2677SOL    HW2 8931   2.331   4.437   1.378
 2678SOL     OW 8932   0.016   2.481   2.270
 2678SOL    HW1 8933   0.098   2.485   2.327
 2678SOL    HW2 8934   6.962   2.449   2.325
 2679SOL     OW 8935   1.919   4.642   2.482
 2679SOL    HW1 8936   1.967   4.573   2.537
 2679SOL    HW2 8937   1.944   4.631   2.386
 2680SOL     OW 8938   0.808   2.426   0.472
 2680SOL    HW1 8939   0.806   2.334   0.509
 2680SOL    HW2 8940   0.729   2.440   0.412
 2681SOL     OW 8941   1.101   2.455   4.754
 2681SOL    HW1 8942   1.186   2.476   4.707
 2681SOL    HW2 8943   1.072   2.534   4.808
 2682SOL     OW 8944   4.891   4.216   3.520
 2682SOL    HW1 8945   4.847   4.193   3.607
 2682SOL    HW2 8946   4.822   4.222   3.448
 2683SOL     OW 8947   2.309   4.708   2.147
 2683SOL    HW1 8948   2.294   4.785   2.085
 2683SOL    HW2 8949   2.394   4.722   2.198
 2684SOL     OW 8950   4.638   6.986   1.931
 2684SOL    HW1 8951   4.654   6.987   1.833
 2684SOL    HW2 8952   4.577   0.038   1.956
 2685SOL     OW 8953   5.730   5.358   5.871
 2685SOL    HW1 8954   5.718   5.440   5.816
 2685SOL    HW2 8955   5.786   5.292   5.821
 2686SOL     OW 8956   1.172   1.609   5.465
 2686SOL    HW1 8957   1.103   1.579   5.531
 2686SOL    HW2 8958   1.257   1.559   5.481
 2687SOL     OW 8959   3.843   5.705   0.406
 2687SOL    HW1 8960   3.824   5.614   0.369
 2687SOL    HW2 8961   3.764   5.737   0.457
 2688SOL     OW 8962   2.388   2.428   0.539
 2688SOL    HW1 8963   2.385   2.328   0.541
 2688SOL    HW2 8964   2.463   2.461   0.597
 2689SOL     OW 8965   6.780   4.044   2.518
 2689SOL    HW1 8966   6.878   4.047   2.497
 2689SOL    HW2 8967   6.729   4.029   2.433
 2690SOL     OW 8968   3.206   3.429   6.543
 2690SOL    HW1 8969   3.120   3.466   6.580
 2690SOL    HW2 8970   3.210   3.447   6.444
 2691SOL     OW 8971   6.955   4.791   3.815
 2691SOL    HW1 8972   7.016   4.783   3.893
 2691SOL    HW2 8973   7.003   4.762   3.732
 2692SOL     OW 8974   2.459   6.878   3.150
 2692SOL    HW1 8975   2.362   6.876   3.176
 2692SOL    HW2 8976   2.498   6.966   3.175
 2693SOL     OW 8977   2.480   4.953   4.048
 2693SOL    HW1 8978   2.480   4.923   4.144
 2693SOL    HW2 8979   2.395   4.922   4.005
 2694SOL     OW 8980   3.798   6.547   3.625
 2694SOL    HW1 8981   3.740   6.622   3.657
 2694SOL    HW2 8982   3.760   6.510   3.540
 2695SOL     OW 8983   5.605   0.223   2.872
 2695SOL    HW1 8984   5.683   0.264   2.824
 2695SOL    HW2 8985   5.528   0.287   2.870
 2696SOL     OW 8986   4.587   3.843   5.600
 2696SOL    HW1 8987   4.601   3.846   5.501
 2696SOL    HW2 8988   4.642   3.768   5.639
 2697SOL     OW 8989   3.905   1.720   2.635
 2697SOL    HW1 8990   3.838   1.741   2.564
 2697SOL    HW2 8991   3.995   1.709   2.594
 2698SOL     OW 8992   1.794   4.938   6.711
 2698SOL    HW1 8993   1.835   4.986   6.634
 2698SOL    HW2 8994   1.858   4.938   6.788
 2699SOL     OW 8995   3.129   6.161   0.682
 2699SOL    HW1 8996   3.150   6.139   0.777
 2699SOL    HW2 8997   3.059   6.098   0.648
 2700SOL     OW 8998   2.622   1.716   1.006
 2700SOL    HW1 8999   2.678   1.772   0.945
 2700SOL    HW2 9000   2.550   1.671   0.953
 2701SOL     OW 9001   5.390   2.104   5.502
 2701SOL    HW1 9002   5.321   2.054   5.449
 2701SOL    HW2 9003   5.355   2.195   5.526
 2702SOL     OW 9004   0.901   2.301   2.983
 2702SOL    HW1 9005   0.913   2.393   2.944
 2702SOL    HW2 9006   0.926   2.302   3.080
 2703SOL     OW 9007   1.142   5.992   1.723
 2703SOL    HW1 9008   1.222   6.002   1.783
 2703SOL    HW2 9009   1.074   6.061   1.747
 2704SOL     OW 9010   6.541   6.081   1.788
 2704SOL    HW1 9011   6.479   6.110   1.861
 2704SOL    HW2 9012   6.502   6.105   1.699
 2705SOL     OW 9013   6.724   0.586   5.100
 2705SOL    HW1 9014   6.722   0.535   5.186
 2705SOL    HW2 9015   6.654   0.657   5.102
 2706SOL     OW 9016   6.672   4.625   3.357
 2706SOL    HW1 9017   6.683   4.530   3.329
 2706SOL    HW2 9018   6.575   4.646   3.366
 2707SOL     OW 9019   4.100   0.328   4.415
 2707SOL    HW1 9020   4.185   0.312   4.464
 2707SOL    HW2 9021   4.081   0.251   4.353
 2708SOL     OW 9022   6.210   2.716   1.339
 2708SOL    HW1 9023   6.151   2.790   1.370
 2708SOL    HW2 9024   6.291   2.711   1.398
 2709SOL     OW 9025   5.010   0.019   6.760
 2709SOL    HW1 9026   4.985   0.094   6.699
 2709SOL    HW2 9027   4.929   7.011   6.811
 2710SOL     OW 9028   1.747   2.540   4.200
 2710SOL    HW1 9029   1.792   2.490   4.127
 2710SOL    HW2 9030   1.773   2.501   4.288
 2711SOL     OW 9031   3.259   0.351   3.394
 2711SOL    HW1 9032   3.218   0.384   3.479
 2711SOL    HW2 9033   3.342   0.299   3.415
 2712SOL     OW 9034   2.105   5.877   2.101
 2712SOL    HW1 9035   2.146   5.791   2.131
 2712SOL    HW2 9036   2.128   5.950   2.166
 2713SOL     OW 9037   3.376   4.062   6.533
 2713SOL    HW1 9038   3.352   4.142   6.588
 2713SOL    HW2 9039   3.294   4.010   6.512
 2714SOL     OW 9040   3.564   3.603   6.712
 2714SOL    HW1 9041   3.544   3.696   6.683
 2714SOL    HW2 9042   3.510   3.581   6.793
 2715SOL     OW 9043   5.640   2.320   0.702
 2715SOL    HW1 9044   5.584   2.303   0.621
 2715SOL    HW2 9045   5.584   2.363   0.773
 2716SOL     OW 9046   5.139   3.394   3.916
 2716SOL    HW1 9047   5.125   3.410   3.818
 2716SOL    HW2 9048   5.229   3.352   3.931
 2717SOL     OW 9049   0.698   6.973   1.768
 2717SOL    HW1 9050   0.647   6.993   1.851
 2717SOL    HW2 9051   0.655   6.896   1.720
 2718SOL     OW 9052   0.437   0.617   5.238
 2718SOL    HW1 9053   0.534   0.597   5.254
 2718SOL    HW2 9054   0.428   0.672   5.155
 2719SOL     OW 9055   1.084   4.541   1.469
 2719SOL    HW1 9056   1.082   4.460   1.528
 2719SOL    HW2 9057   1.097   4.622   1.526
 2720SOL     OW 9058   1.154   0.274   3.067
 2720SOL    HW1 9059   1.178   0.352   3.125
 2720SOL    HW2 9060   1.055   0.273   3.052
 2721SOL     OW 9061   3.420   6.528   3.238
 2721SOL    HW1 9062   3.442   6.579   3.155
 2721SOL    HW2 9063   3.358   6.453   3.215
 2722SOL     OW 9064   5.096   4.998   6.658
 2722SOL    HW1 9065   5.145   5.057   6.723
 2722SOL    HW2 9066   5.013   4.962   6.701
 2723SOL     OW 9067   1.954   5.950   6.598
 2723SOL    HW1 9068   1.923   6.042   6.623
 2723SOL    HW2 9069   2.041   5.931   6.642
 2724SOL     OW 9070   1.424   6.303   6.516
 2724SOL    HW1 9071   1.404   6.366   6.591
 2724SOL    HW2 9072   1.484   6.347   6.450
 2725SOL     OW 9073   5.435   4.202   4.959
 2725SOL    HW1 9074   5.381   4.263   5.017
 2725SOL    HW2 9075   5.478   4.254   4.886
 2726SOL     OW 9076   0.304   2.451   1.906
 2726SOL    HW1 9077   0.211   2.488   1.907
 2726SOL    HW2 9078   0.303   2.358   1.943
 2727SOL     OW 9079   1.340   3.513   4.317
 2727SOL    HW1 9080   1.273   3.571   4.270
 2727SOL    HW2 9081   1.432   3.536   4.285
 2728SOL     OW 9082   5.312   6.014   6.054
 2728SOL    HW1 9083   5.394   6.065   6.081
 2728SOL    HW2 9084   5.235   6.077   6.044
 2729SOL     OW 9085   6.577   6.402   0.159
 2729SOL    HW1 9086   6.534   6.335   0.099
 2729SOL    HW2 9087   6.662   6.434   0.117
 2730SOL     OW 9088   1.162   6.414   2.089
 2730SOL    HW1 9089   1.258   6.408   2.063
 2730SOL    HW2 9090   1.154   6.398   2.188
 2731SOL     OW 9091   2.974   3.734   2.928
 2731SOL    HW1 9092   2.926   3.717   2.841
 2731SOL    HW2 9093   2.931   3.680   3.000
 2732SOL     OW 9094   5.747   1.844   0.957
 2732SOL    HW1 9095   5.778   1.931   0.996
 2732SOL    HW2 9096   5.651   1.851   0.933
 2733SOL     OW 9097   6.811   1.725   4.906
 2733SOL    HW1 9098   6.874   1.720   4.829
 2733SOL    HW2 9099   6.752   1.805   4.896
 2734SOL     OW 9100   3.375   5.751   1.315
 2734SOL    HW1 9101   3.467   5.746   1.353
 2734SOL    HW2 9102   3.341   5.659   1.298
 2735SOL     OW 9103   1.243   2.203   1.976
 2735SOL    HW1 9104   1.264   2.151   1.893
 2735SOL    HW2 9105   1.308   2.277   1.986
 2736SOL     OW 9106   5.953   6.280   4.711
 2736SOL    HW1 9107   6.048   6.303   4.732
 2736SOL    HW2 9108   5.892   6.348   4.750
 2737SOL     OW 9109   3.117   3.574   5.434
 2737SOL    HW1 9110   3.063   3.535   5.360
 2737SOL    HW2 9111   3.214   3.558   5.417
 2738SOL     OW 9112   6.030   6.082   2.246
 2738SOL    HW1 9113   6.094   6.153   2.275
 2738SOL    HW2 9114   6.036   6.004   2.309
 2739SOL     OW 9115   1.241   4.575   0.706
 2739SOL    HW1 9116   1.212   4.541   0.796
 2739SOL    HW2 9117   1.277   4.498   0.653
 2740SOL     OW 9118   6.900   5.389   2.040
 2740SOL    HW1 9119   6.964   5.329   2.088
 2740SOL    HW2 9120   6.896   5.363   1.943
 2741SOL     OW 9121   6.813   1.452   5.043
 2741SOL    HW1 9122   6.817   1.551   5.030
 2741SOL    HW2 9123   6.752   1.411   4.975
 2742SOL     OW 9124   1.767   5.352   0.575
 2742SOL    HW1 9125   1.860   5.370   0.606
 2742SOL    HW2 9126   1.721   5.438   0.553
 2743SOL     OW 9127   0.004   4.871   2.388
 2743SOL    HW1 9128   6.948   4.915   2.432
 2743SOL    HW2 9129   6.997   4.826   2.304
 2744SOL     OW 9130   4.371   3.072   0.938
 2744SOL    HW1 9131   4.313   3.020   1.002
 2744SOL    HW2 9132   4.324   3.080   0.850
 2745SOL     OW 9133   6.463   1.260   4.876
 2745SOL    HW1 9134   6.502   1.333   4.821
 2745SOL    HW2 9135   6.471   1.283   4.973
 2746SOL     OW 9136   0.978   2.421   4.296
 2746SOL    HW1 9137   0.985   2.377   4.385
 2746SOL    HW2 9138   0.915   2.499   4.303
 2747SOL     OW 9139   4.872   5.597   6.987
 2747SOL    HW1 9140   4.930   5.525   6.949
 2747SOL    HW2 9141   4.891   5.683   6.939
 2748SOL     OW 9142   4.530   0.991   2.080
 2748SOL    HW1 9143   4.488   1.069   2.125
 2748SOL    HW2 9144   4.552   1.014   1.986
 2749SOL     OW 9145   6.658   4.573   1.183
 2749SOL    HW1 9146   6.742   4.626   1.190
 2749SOL    HW2 9147   6.599   4.613   1.114
 2750SOL     OW 9148   2.155   4.173   2.154
 2750SOL    HW1 9149   2.065   4.140   2.182
 2750SOL    HW2 9150   2.200   4.105   2.097
 2751SOL     OW 9151   0.912   2.431   1.692
 2751SOL    HW1 9152   0.860   2.362   1.642
 2751SOL    HW2 9153   0.863   2.454   1.776
 2752SOL     OW 9154   3.272   4.288   6.026
 2752SOL    HW1 9155   3.230   4.286   6.117
 2752SOL    HW2 9156   3.209   4.246   5.960
 2753SOL     OW 9157   6.799   6.431   4.773
 2753SOL    HW1 9158   6.817   6.336   4.798
 2753SOL    HW2 9159   6.734   6.470   4.838
 2754SOL     OW 9160   0.141   0.345   0.201
 2754SOL    HW1 9161   0.143   0.277   0.275
 2754SOL    HW2 9162   0.212   0.414   0.217
 2755SOL     OW 9163   3.941   6.823   2.850
 2755SOL    HW1 9164   3.973   6.762   2.777
 2755SOL    HW2 9165   3.940   6.917   2.817
 2756SOL     OW 9166   4.288   5.982   0.084
 2756SOL    HW1 9167   4.281   5.884   0.070
 2756SOL    HW2 9168   4.308   6.027   7.020
 2757SOL     OW 9169   2.163   6.509   0.264
 2757SOL    HW1 9170   2.125   6.441   0.326
 2757SOL    HW2 9171   2.092   6.575   0.239
 2758SOL     OW 9172   4.671   0.480   4.094
 2758SOL    HW1 9173   4.585   0.455   4.051
 2758SOL    HW2 9174   4.747   0.438   4.045
 2759SOL     OW 9175   5.797   6.559   5.552
 2759SOL    HW1 9176   5.817   6.603   5.464
 2759SOL    HW2 9177   5.704   6.582   5.581
 2760SOL     OW 9178   0.773   5.729   1.613
 2760SOL    HW1 9179   0.704   5.676   1.564
 2760SOL    HW2 9180   0.758   5.720   1.712
 2761SOL     OW 9181   2.067   4.547   4.005
 2761SOL    HW1 9182   2.081   4.579   4.099
 2761SOL    HW2 9183   2.150   4.502   3.973
 2762SOL     OW 9184   1.414   0.881   5.322
 2762SOL    HW1 9185   1.422   0.974   5.360
 2762SOL    HW2 9186   1.468   0.874   5.239
 2763SOL     OW 9187   5.083   1.471   3.951
 2763SOL    HW1 9188   5.103   1.375   3.933
 2763SOL    HW2 9189   5.165   1.517   3.986
 2764SOL     OW 9190   6.187   0.837   0.840
 2764SOL    HW1 9191   6.119   0.819   0.911
 2764SOL    HW2 9192   6.180   0.932   0.810
 2765SOL     OW 9193   5.444   0.251   0.438
 2765SOL    HW1 9194   5.511   0.213   0.501
 2765SOL    HW2 9195   5.491   0.295   0.362
 2766SOL     OW 9196   4.662   2.531   0.476
 2766SOL    HW1 9197   4.675   2.612   0.532
 2766SOL    HW2 9198   4.742   2.471   0.485
 2767SOL     OW 9199   6.733   5.336   7.013
 2767SOL    HW1 9200   6.728   5.410   6.945
 2767SOL    HW2 9201   6.777   5.256   6.971
 2768SOL     OW 9202   4.947   0.633   0.227
 2768SOL    HW1 9203   4.900   0.654   0.141
 2768SOL    HW2 9204   4.926   0.703   0.295
 2769SOL     OW 9205   0.381   4.101   3.795
 2769SOL    HW1 9206   0.367   4.004   3.773
 2769SOL    HW2 9207   0.456   4.110   3.861
 2770SOL     OW 9208   2.546   5.489   5.986
 2770SOL    HW1 9209   2.553   5.449   5.894
 2770SOL    HW2 9210   2.479   5.438   6.040
 2771SOL     OW 9211   6.360   0.866   2.578
 2771SOL    HW1 9212   6.306   0.950   2.580
 2771SOL    HW2 9213   6.432   0.871   2.647
 2772SOL     OW 9214   4.481   1.179   0.775
 2772SOL    HW1 9215   4.453   1.222   0.861
 2772SOL    HW2 9216   4.400   1.150   0.724
 2773SOL     OW 9217   5.695   2.555   5.232
 2773SOL    HW1 9218   5.702   2.612   5.150
 2773SOL    HW2 9219   5.647   2.605   5.303
 2774SOL     OW 9220   6.261   3.810   3.464
 2774SOL    HW1 9221   6.199   3.744   3.420
 2774SOL    HW2 9222   6.355   3.786   3.441
 2775SOL     OW 9223   6.883   5.264   6.380
 2775SOL    HW1 9224   6.865   5.170   6.410
 2775SOL    HW2 9225   6.951   5.262   6.306
 2776SOL     OW 9226   5.286   5.051   5.729
 2776SOL    HW1 9227   5.382   5.024   5.726
 2776SOL    HW2 9228   5.272   5.118   5.802
 2777SOL     OW 9229   2.838   1.151   2.333
 2777SOL    HW1 9230   2.746   1.147   2.373
 2777SOL    HW2 9231   2.883   1.063   2.344
 2778SOL     OW 9232   1.260   0.272   5.194
 2778SOL    HW1 9233   1.281   0.175   5.208
 2778SOL    HW2 9234   1.166   0.290   5.221
 2779SOL     OW 9235   4.932   6.789   0.953
 2779SOL    HW1 9236   4.840   6.825   0.935
 2779SOL    HW2 9237   4.927   6.713   1.017
 2780SOL     OW 9238   6.667   6.196   6.637
 2780SOL    HW1 9239   6.747   6.139   6.621
 2780SOL    HW2 9240   6.696   6.283   6.678
 2781SOL     OW 9241   6.054   5.780   1.643
 2781SOL    HW1 9242   5.955   5.791   1.640
 2781SOL    HW2 9243   6.088   5.758   1.551
 2782SOL     OW 9244   3.578   1.987   5.542
 2782SOL    HW1 9245   3.613   2.067   5.493
 2782SOL    HW2 9246   3.490   2.009   5.584
 2783SOL     OW 9247   5.634   3.587   4.617
 2783SOL    HW1 9248   5.670   3.678   4.638
 2783SOL    HW2 9249   5.594   3.588   4.525
 2784SOL     OW 9250   3.176   2.087   1.207
 2784SOL    HW1 9251   3.263   2.062   1.164
 2784SOL    HW2 9252   3.116   2.007   1.206
 2785SOL     OW 9253   5.485   1.835   0.878
 2785SOL    HW1 9254   5.531   1.822   0.790
 2785SOL    HW2 9255   5.404   1.892   0.865
 2786SOL     OW 9256   4.429   5.654   1.997
 2786SOL    HW1 9257   4.466   5.600   1.922
 2786SOL    HW2 9258   4.348   5.609   2.035
 2787SOL     OW 9259   2.964   2.161   6.937
 2787SOL    HW1 9260   2.967   2.097   7.014
 2787SOL    HW2 9261   2.996   2.251   6.967
 2788SOL     OW 9262   2.384   5.022   6.226
 2788SOL    HW1 9263   2.365   4.925   6.242
 2788SOL    HW2 9264   2.305   5.076   6.254
 2789SOL     OW 9265   1.703   2.461   3.635
 2789SOL    HW1 9266   1.649   2.527   3.687
 2789SOL    HW2 9267   1.672   2.461   3.540
 2790SOL     OW 9268   2.663   5.680   2.280
 2790SOL    HW1 9269   2.686   5.601   2.223
 2790SOL    HW2 9270   2.572   5.713   2.257
 2791SOL     OW 9271   1.132   4.256   4.022
 2791SOL    HW1 9272   1.124   4.355   4.010
 2791SOL    HW2 9273   1.229   4.231   4.024
 2792SOL     OW 9274   1.025   0.007   4.562
 2792SOL    HW1 9275   1.031   6.947   4.618
 2792SOL    HW2 9276   1.061   0.085   4.614
 2793SOL     OW 9277   5.021   3.340   3.355
 2793SOL    HW1 9278   5.118   3.339   3.332
 2793SOL    HW2 9279   4.983   3.430   3.335
 2794SOL     OW 9280   0.177   2.651   1.110
 2794SOL    HW1 9281   0.246   2.584   1.139
 2794SOL    HW2 9282   0.147   2.704   1.190
 2795SOL     OW 9283   1.861   2.711   0.891
 2795SOL    HW1 9284   1.777   2.677   0.934
 2795SOL    HW2 9285   1.841   2.739   0.798
 2796SOL     OW 9286   6.219   4.895   2.590
 2796SOL    HW1 9287   6.299   4.918   2.645
 2796SOL    HW2 9288   6.196   4.798   2.604
 2797SOL     OW 9289   4.966   4.877   4.189
 2797SOL    HW1 9290   5.006   4.836   4.271
 2797SOL    HW2 9291   5.037   4.888   4.120
 2798SOL     OW 9292   1.111   4.804   1.602
 2798SOL    HW1 9293   1.171   4.858   1.543
 2798SOL    HW2 9294   1.166   4.760   1.674
 2799SOL     OW 9295   6.835   6.821   0.503
 2799SOL    HW1 9296   6.831   6.748   0.571
 2799SOL    HW2 9297   6.743   6.843   0.471
 2800SOL     OW 9298   4.506   4.860   0.099
 2800SOL    HW1 9299   4.525   4.952   0.133
 2800SOL    HW2 9300   4.409   4.839   0.114
 2801SOL     OW 9301   5.200   5.300   4.999
 2801SOL    HW1 9302   5.230   5.292   5.094
 2801SOL    HW2 9303   5.159   5.389   4.984
 2802SOL     OW 9304   4.838   2.366   6.224
 2802SOL    HW1 9305   4.865   2.460   6.246
 2802SOL    HW2 9306   4.813   2.360   6.128
 2803SOL     OW 9307   3.241   5.830   6.389
 2803SOL    HW1 9308   3.329   5.853   6.432
 2803SOL    HW2 9309   3.227   5.888   6.310
 2804SOL     OW 9310   6.671   4.795   5.098
 2804SOL    HW1 9311   6.759   4.779   5.052
 2804SOL    HW2 9312   6.682   4.870   5.164
 2805SOL     OW 9313   5.024   2.806   2.262
 2805SOL    HW1 9314   4.964   2.773   2.189
 2805SOL    HW2 9315   5.013   2.905   2.272
 2806SOL     OW 9316   6.827   5.253   4.469
 2806SOL    HW1 9317   6.801   5.281   4.562
 2806SOL    HW2 9318   6.922   5.221   4.470
 2807SOL     OW 9319   5.306   5.192   3.482
 2807SOL    HW1 9320   5.245   5.260   3.441
 2807SOL    HW2 9321   5.296   5.105   3.434
 2808SOL     OW 9322   5.317   3.123   2.701
 2808SOL    HW1 9323   5.373   3.061   2.755
 2808SOL    HW2 9324   5.370   3.158   2.625
 2809SOL     OW 9325   5.852   2.725   1.780
 2809SOL    HW1 9326   5.947   2.756   1.777
 2809SOL    HW2 9327   5.792   2.802   1.803
 2810SOL     OW 9328   3.162   5.755   3.622
 2810SOL    HW1 9329   3.242   5.807   3.652
 2810SOL    HW2 9330   3.161   5.667   3.668
 2811SOL     OW 9331   1.267   1.292   3.251
 2811SOL    HW1 9332   1.294   1.384   3.279
 2811SOL    HW2 9333   1.203   1.297   3.174
 2812SOL     OW 9334   5.093   3.548   0.137
 2812SOL    HW1 9335   5.117   3.505   0.050
 2812SOL    HW2 9336   5.122   3.643   0.136
 2813SOL     OW 9337   6.438   0.374   6.041
 2813SOL    HW1 9338   6.421   0.377   6.140
 2813SOL    HW2 9339   6.502   0.446   6.016
 2814SOL     OW 9340   4.900   3.039   6.640
 2814SOL    HW1 9341   4.808   3.011   6.612
 2814SOL    HW2 9342   4.965   3.021   6.565
 2815SOL     OW 9343   6.401   1.400   5.344
 2815SOL    HW1 9344   6.307   1.374   5.325
 2815SOL    HW2 9345   6.425   1.376   5.437
 2816SOL     OW 9346   6.497   5.660   3.438
 2816SOL    HW1 9347   6.426   5.610   3.488
 2816SOL    HW2 9348   6.455   5.735   3.388
 2817SOL     OW 9349   2.723   0.321   1.259
 2817SOL    HW1 9350   2.714   0.222   1.273
 2817SOL    HW2 9351   2.632   0.362   1.251
 2818SOL     OW 9352   0.136   0.791   0.244
 2818SOL    HW1 9353   0.068   0.751   0.183
 2818SOL    HW2 9354   0.129   0.748   0.334
 2819SOL     OW 9355   0.724   0.913   1.475
 2819SOL    HW1 9356   0.784   0.949   1.405
 2819SOL    HW2 9357   0.682   0.828   1.442
 2820SOL     OW 9358   1.344   1.901   3.204
 2820SOL    HW1 9359   1.394   1.961   3.141
 2820SOL    HW2 9360   1.323   1.815   3.157
 2821SOL     OW 9361   4.175   3.203   0.164
 2821SOL    HW1 9362   4.225   3.253   0.094
 2821SOL    HW2 9363   4.121   3.130   0.122
 2822SOL     OW 9364   4.621   2.203   6.788
 2822SOL    HW1 9365   4.589   2.158   6.871
 2822SOL    HW2 9366   4.716   2.176   6.769
 2823SOL     OW 9367   3.454   6.014   0.484
 2823SOL    HW1 9368   3.489   5.924   0.512
 2823SOL    HW2 9369   3.530   6.073   0.458
 2824SOL     OW 9370   3.055   0.870   3.815
 2824SOL    HW1 9371   3.108   0.830   3.889
 2824SOL    HW2 9372   3.076   0.967   3.807
 2825SOL     OW 9373   6.526   0.632   6.570
 2825SOL    HW1 9374   6.451   0.630   6.636
 2825SOL    HW2 9375   6.489   0.652   6.479
 2826SOL     OW 9376   4.663   1.853   7.012
 2826SOL    HW1 9377   4.616   1.934   6.979
 2826SOL    HW2 9378   4.647   1.777   6.949
 2827SOL     OW 9379   6.505   0.589   5.519
 2827SOL    HW1 9380   6.582   0.584   5.583
 2827SOL    HW2 9381   6.492   0.500   5.475
 2828SOL     OW 9382   3.086   1.287   0.484
 2828SOL    HW1 9383   2.999   1.291   0.436
 2828SOL    HW2 9384   3.144   1.216   0.443
 2829SOL     OW 9385   3.562   3.633   5.792
 2829SOL    HW1 9386   3.652   3.607   5.758
 2829SOL    HW2 9387   3.499   3.643   5.715
 2830SOL     OW 9388   1.256   3.243   6.074
 2830SOL    HW1 9389   1.234   3.150   6.102
 2830SOL    HW2 9390   1.176   3.285   6.031
 2831SOL     OW 9391   0.594   5.688   3.605
 2831SOL    HW1 9392   0.607   5.623   3.531
 2831SOL    HW2 9393   0.497   5.705   3.619
 2832SOL     OW 9394   1.211   0.571   2.506
 2832SOL    HW1 9395   1.214   0.662   2.549
 2832SOL    HW2 9396   1.282   0.514   2.546
 2833SOL     OW 9397   4.485   2.398   2.137
 2833SOL    HW1 9398   4.398   2.362   2.104
 2833SOL    HW2 9399   4.521   2.338   2.209
 2834SOL     OW 9400   2.396   6.133   5.581
 2834SOL    HW1 9401   2.338   6.159   5.658
 2834SOL    HW2 9402   2.487   6.172   5.592
 2835SOL     OW 9403   6.837   0.272   2.209
 2835SOL    HW1 9404   6.859   0.367   2.186
 2835SOL    HW2 9405   6.922   0.223   2.230
 2836SOL     OW 9406   5.963   0.048   2.578
 2836SOL    HW1 9407   5.911   0.035   2.493
 2836SOL    HW2 9408   5.903   0.088   2.647
 2837SOL     OW 9409   5.299   4.112   3.159
 2837SOL    HW1 9410   5.398   4.105   3.175
 2837SOL    HW2 9411   5.253   4.132   3.246
 2838SOL     OW 9412   2.159   5.050   0.393
 2838SOL    HW1 9413   2.141   5.028   0.297
 2838SOL    HW2 9414   2.076   5.039   0.446
 2839SOL     OW 9415   6.433   1.577   1.834
 2839SOL    HW1 9416   6.462   1.590   1.739
 2839SOL    HW2 9417   6.393   1.486   1.845
 2840SOL     OW 9418   1.874   0.888   3.523
 2840SOL    HW1 9419   1.898   0.944   3.444
 2840SOL    HW2 9420   1.775   0.875   3.527
 2841SOL     OW 9421   0.699   0.792   6.290
 2841SOL    HW1 9422   0.680   0.890   6.290
 2841SOL    HW2 9423   0.752   0.768   6.371
 2842SOL     OW 9424   0.135   3.693   4.400
 2842SOL    HW1 9425   0.150   3.784   4.362
 2842SOL    HW2 9426   0.152   3.695   4.499
 2843SOL     OW 9427   2.790   1.154   2.830
 2843SOL    HW1 9428   2.710   1.123   2.882
 2843SOL    HW2 9429   2.865   1.089   2.843
 2844SOL     OW 9430   0.278   5.706   0.666
 2844SOL    HW1 9431   0.235   5.754   0.742
 2844SOL    HW2 9432   0.273   5.608   0.681
 2845SOL     OW 9433   6.984   3.001   1.704
 2845SOL    HW1 9434   0.047   3.041   1.672
 2845SOL    HW2 9435   6.995   2.903   1.716
 2846SOL     OW 9436   4.371   1.268   6.751
 2846SOL    HW1 9437   4.402   1.356   6.715
 2846SOL    HW2 9438   4.431   1.195   6.715
 2847SOL     OW 9439   5.158   3.896   3.917
 2847SOL    HW1 9440   5.090   3.829   3.947
 2847SOL    HW2 9441   5.249   3.864   3.943
 2848SOL     OW 9442   1.672   3.327   5.810
 2848SOL    HW1 9443   1.770   3.333   5.789
 2848SOL    HW2 9444   1.658   3.276   5.894
 2849SOL     OW 9445   3.279   6.905   0.688
 2849SOL    HW1 9446   3.220   6.947   0.619
 2849SOL    HW2 9447   3.267   6.952   0.775
 2850SOL     OW 9448   3.040   0.325   2.198
 2850SOL    HW1 9449   3.113   0.291   2.140
 2850SOL    HW2 9450   2.981   0.250   2.226
 2851SOL     OW 9451   0.172   2.065   5.642
 2851SOL    HW1 9452   0.238   2.006   5.688
 2851SOL    HW2 9453   0.136   2.131   5.707
 2852SOL     OW 9454   6.032   4.826   0.207
 2852SOL    HW1 9455   5.944   4.839   0.252
 2852SOL    HW2 9456   6.064   4.912   0.169
 2853SOL     OW 9457   1.846   2.802   6.893
 2853SOL    HW1 9458   1.906   2.763   6.963
 2853SOL    HW2 9459   1.883   2.890   6.864
 2854SOL     OW 9460   3.906   1.056   5.086
 2854SOL    HW1 9461   3.945   1.054   5.178
 2854SOL    HW2 9462   3.953   0.989   5.028
 2855SOL     OW 9463   2.800   1.235   6.708
 2855SOL    HW1 9464   2.842   1.165   6.650
 2855SOL    HW2 9465   2.857   1.317   6.710
 2856SOL     OW 9466   1.895   2.664   5.947
 2856SOL    HW1 9467   1.969   2.699   6.004
 2856SOL    HW2 9468   1.876   2.730   5.874
 2857SOL     OW 9469   3.148   1.519   2.243
 2857SOL    HW1 9470   3.059   1.473   2.253
 2857SOL    HW2 9471   3.188   1.534   2.333
 2858SOL     OW 9472   5.219   4.482   2.898
 2858SOL    HW1 9473   5.260   4.410   2.841
 2858SOL    HW2 9474   5.233   4.459   2.995
 2859SOL     OW 9475   5.137   2.048   0.293
 2859SOL    HW1 9476   5.176   1.960   0.266
 2859SOL    HW2 9477   5.046   2.034   0.334
 2860SOL     OW 9478   3.576   1.916   0.873
 2860SOL    HW1 9479   3.491   1.967   0.873
 2860SOL    HW2 9480   3.586   1.866   0.959
 2861SOL     OW 9481   4.033   3.957   6.161
 2861SOL    HW1 9482   4.061   4.002   6.076
 2861SOL    HW2 9483   4.092   3.987   6.236
 2862SOL     OW 9484   5.593   1.920   3.300
 2862SOL    HW1 9485   5.640   1.985   3.360
 2862SOL    HW2 9486   5.515   1.965   3.257
 2863SOL     OW 9487   4.849   1.354   6.847
 2863SOL    HW1 9488   4.763   1.356   6.796
 2863SOL    HW2 9489   4.833   1.381   6.942
 2864SOL     OW 9490   4.295   1.237   1.290
 2864SOL    HW1 9491   4.311   1.202   1.383
 2864SOL    HW2 9492   4.277   1.335   1.294
 2865SOL     OW 9493   5.132   4.340   6.329
 2865SOL    HW1 9494   5.185   4.256   6.316
 2865SOL    HW2 9495   5.071   4.329   6.407
 2866SOL     OW 9496   6.255   6.180   6.619
 2866SOL    HW1 9497   6.307   6.123   6.556
 2866SOL    HW2 9498   6.317   6.236   6.673
 2867SOL     OW 9499   5.596   3.796   2.737
 2867SOL    HW1 9500   5.526   3.867   2.742
 2867SOL    HW2 9501   5.564   3.714   2.784
 2868SOL     OW 9502   0.023   2.338   5.426
 2868SOL    HW1 9503   7.012   2.428   5.397
 2868SOL    HW2 9504   0.090   2.351   5.500
 2869SOL     OW 9505   6.629   0.775   3.725
 2869SOL    HW1 9506   6.660   0.708   3.792
 2869SOL    HW2 9507   6.706   0.801   3.666
 2870SOL     OW 9508   0.223   1.138   4.284
 2870SOL    HW1 9509   0.174   1.120   4.200
 2870SOL    HW2 9510   0.190   1.077   4.356
 2871SOL     OW 9511   0.797   2.013   0.022
 2871SOL    HW1 9512   0.807   1.947   0.097
 2871SOL    HW2 9513   0.887   2.037   7.009
 2872SOL     OW 9514   3.329   1.171   2.899
 2872SOL    HW1 9515   3.259   1.179   2.828
 2872SOL    HW2 9516   3.324   1.250   2.959
 2873SOL     OW 9517   6.521   4.770   2.832
 2873SOL    HW1 9518   6.526   4.708   2.910
 2873SOL    HW2 9519   6.464   4.849   2.856
 2874SOL     OW 9520   3.419   6.311   3.589
 2874SOL    HW1 9521   3.429   6.407   3.613
 2874SOL    HW2 9522   3.343   6.271   3.640
 2875SOL     OW 9523   5.093   0.004   0.880
 2875SOL    HW1 9524   5.092   0.041   0.972
 2875SOL    HW2 9525   5.060   6.932   0.882
 2876SOL     OW 9526   1.103   6.986   1.687
 2876SOL    HW1 9527   1.173   7.018   1.623
 2876SOL    HW2 9528   1.109   0.015   1.772
 2877SOL     OW 9529   3.625   2.751   5.341
 2877SOL    HW1 9530   3.579   2.734   5.254
 2877SOL    HW2 9531   3.724   2.752   5.327
 2878SOL     OW 9532   4.281   5.402   4.453
 2878SOL    HW1 9533   4.355   5.344   4.487
 2878SOL    HW2 9534   4.193   5.362   4.480
 2879SOL     OW 9535   5.078   4.683   0.612
 2879SOL    HW1 9536   5.121   4.593   0.609
 2879SOL    HW2 9537   5.100   4.728   0.699
 2880SOL     OW 9538   5.954   6.822   1.651
 2880SOL    HW1 9539   5.876   6.795   1.707
 2880SOL    HW2 9540   6.010   6.887   1.702
 2881SOL     OW 9541   5.369   6.286   6.773
 2881SOL    HW1 9542   5.310   6.307   6.695
 2881SOL    HW2 9543   5.444   6.352   6.777
 2882SOL     OW 9544   0.495   4.450   2.226
 2882SOL    HW1 9545   0.475   4.352   2.226
 2882SOL    HW2 9546   0.594   4.463   2.217
 2883SOL     OW 9547   6.042   6.500   3.524
 2883SOL    HW1 9548   6.063   6.577   3.463
 2883SOL    HW2 9549   6.070   6.415   3.481
 2884SOL     OW 9550   0.692   5.562   2.898
 2884SOL    HW1 9551   0.760   5.636   2.891
 2884SOL    HW2 9552   0.600   5.602   2.903
 2885SOL     OW 9553   0.539   3.444   2.311
 2885SOL    HW1 9554   0.513   3.474   2.403
 2885SOL    HW2 9555   0.539   3.344   2.307
 2886SOL     OW 9556   2.881   4.051   5.508
 2886SOL    HW1 9557   2.911   4.094   5.594
 2886SOL    HW2 9558   2.925   3.962   5.498
 2887SOL     OW 9559   1.230   0.116   4.377
 2887SOL    HW1 9560   1.261   0.128   4.471
 2887SOL    HW2 9561   1.143   0.066   4.377
 2888SOL     OW 9562   0.697   4.400   0.231
 2888SOL    HW1 9563   0.685   4.303   0.253
 2888SOL    HW2 9564   0.794   4.420   0.218
 2889SOL     OW 9565   2.399   6.853   1.872
 2889SOL    HW1 9566   2.453   6.779   1.913
 2889SOL    HW2 9567   2.453   6.937   1.872
 2890SOL     OW 9568   2.394   6.516   0.888
 2890SOL    HW1 9569   2.347   6.575   0.822
 2890SOL    HW2 9570   2.474   6.474   0.844
 2891SOL     OW 9571   1.652   3.965   2.989
 2891SOL    HW1 9572   1.677   4.031   3.061
 2891SOL    HW2 9573   1.567   3.993   2.946
 2892SOL     OW 9574   5.222   3.446   6.928
 2892SOL    HW1 9575   5.306   3.501   6.925
 2892SOL    HW2 9576   5.184   3.437   6.836
 2893SOL     OW 9577   0.164   6.695   4.757
 2893SOL    HW1 9578   0.202   6.715   4.667
 2893SOL    HW2 9579   0.156   6.781   4.809
 2894SOL     OW 9580   2.804   3.228   0.458
 2894SOL    HW1 9581   2.767   3.321   0.465
 2894SOL    HW2 9582   2.892   3.230   0.411
 2895SOL     OW 9583   4.287   2.898   6.008
 2895SOL    HW1 9584   4.229   2.844   5.947
 2895SOL    HW2 9585   4.369   2.846   6.032
 2896SOL     OW 9586   4.224   5.382   6.517
 2896SOL    HW1 9587   4.178   5.369   6.429
 2896SOL    HW2 9588   4.166   5.349   6.591
 2897SOL     OW 9589   3.641   4.879   3.431
 2897SOL    HW1 9590   3.621   4.977   3.429
 2897SOL    HW2 9591   3.679   4.850   3.344
 2898SOL     OW 9592   3.960   6.031   4.170
 2898SOL    HW1 9593   3.957   6.113   4.112
 2898SOL    HW2 9594   3.936   5.951   4.116
 2899SOL     OW 9595   0.838   1.852   0.695
 2899SOL    HW1 9596   0.739   1.837   0.697
 2899SOL    HW2 9597   0.875   1.838   0.787
 2900SOL     OW 9598   2.168   4.874   5.520
 2900SOL    HW1 9599   2.190   4.824   5.437
 2900SOL    HW2 9600   2.118   4.814   5.583
 2901SOL     OW 9601   1.883   6.587   3.795
 2901SOL    HW1 9602   1.884   6.497   3.839
 2901SOL    HW2 9603   1.969   6.635   3.815
 2902SOL     OW 9604   4.669   6.614   1.413
 2902SOL    HW1 9605   4.589   6.641   1.465
 2902SOL    HW2 9606   4.666   6.656   1.322
 2903SOL     OW 9607   3.005   0.631   0.508
 2903SOL    HW1 9608   2.938   0.648   0.435
 2903SOL    HW2 9609   2.960   0.639   0.597
 2904SOL     OW 9610   2.338   3.694   5.268
 2904SOL    HW1 9611   2.244   3.707   5.240
 2904SOL    HW2 9612   2.392   3.775   5.246
 2905SOL     OW 9613   1.291   2.243   3.481
 2905SOL    HW1 9614   1.371   2.215   3.533
 2905SOL    HW2 9615   1.234   2.163   3.461
 2906SOL     OW 9616   4.763   5.664   2.532
 2906SOL    HW1 9617   4.772   5.714   2.618
 2906SOL    HW2 9618   4.711   5.718   2.466
 2907SOL     OW 9619   0.317   1.635   4.351
 2907SOL    HW1 9620   0.339   1.564   4.284
 2907SOL    HW2 9621   0.217   1.641   4.360
 2908SOL     OW 9622   4.678   6.606   4.338
 2908SOL    HW1 9623   4.658   6.701   4.314
 2908SOL    HW2 9624   4.773   6.599   4.370
 2909SOL     OW 9625   0.410   6.599   3.812
 2909SOL    HW1 9626   0.361   6.684   3.792
 2909SOL    HW2 9627   0.505   6.619   3.836
 2910SOL     OW 9628   5.029   6.563   4.717
 2910SOL    HW1 9629   4.945   6.526   4.677
 2910SOL    HW2 9630   5.007   6.646   4.768
 2911SOL     OW 9631   1.949   5.406   3.272
 2911SOL    HW1 9632   1.992   5.472   3.211
 2911SOL    HW2 9633   2.017   5.338   3.301
 2912SOL     OW 9634   4.558   6.758   6.711
 2912SOL    HW1 9635   4.604   6.846   6.725
 2912SOL    HW2 9636   4.481   6.750   6.774
 2913SOL     OW 9637   2.206   4.629   3.007
 2913SOL    HW1 9638   2.292   4.580   2.994
 2913SOL    HW2 9639   2.215   4.723   2.972
 2914SOL     OW 9640   5.779   6.540   5.945
 2914SOL    HW1 9641   5.699   6.576   5.897
 2914SOL    HW2 9642   5.836   6.488   5.882
 2915SOL     OW 9643   5.435   1.614   5.091
 2915SOL    HW1 9644   5.500   1.544   5.062
 2915SOL    HW2 9645   5.484   1.690   5.134
 2916SOL     OW 9646   6.697   6.200   6.172
 2916SOL    HW1 9647   6.725   6.106   6.188
 2916SOL    HW2 9648   6.679   6.213   6.074
 2917SOL     OW 9649   3.910   6.294   2.291
 2917SOL    HW1 9650   3.972   6.223   2.324
 2917SOL    HW2 9651   3.961   6.378   2.273
 2918SOL     OW 9652   6.881   3.995   4.044
 2918SOL    HW1 9653   6.860   4.023   3.950
 2918SOL    HW2 9654   6.796   3.966   4.090
 2919SOL     OW 9655   6.898   0.883   1.164
 2919SOL    HW1 9656   6.809   0.921   1.187
 2919SOL    HW2 9657   6.959   0.956   1.133
 2920SOL     OW 9658   2.713   2.080   2.195
 2920SOL    HW1 9659   2.758   2.129   2.269
 2920SOL    HW2 9660   2.768   2.088   2.111
 2921SOL     OW 9661   1.234   0.734   3.125
 2921SOL    HW1 9662   1.291   0.707   3.047
 2921SOL    HW2 9663   1.219   0.655   3.184
 2922SOL     OW 9664   5.030   6.849   0.493
 2922SOL    HW1 9665   5.122   6.887   0.498
 2922SOL    HW2 9666   5.033   6.759   0.449
 2923SOL     OW 9667   6.723   4.853   1.895
 2923SOL    HW1 9668   6.748   4.759   1.919
 2923SOL    HW2 9669   6.673   4.853   1.809
 2924SOL     OW 9670   0.754   1.815   6.769
 2924SOL    HW1 9671   0.852   1.799   6.776
 2924SOL    HW2 9672   0.737   1.900   6.719
 2925SOL     OW 9673   4.659   1.004   3.167
 2925SOL    HW1 9674   4.562   1.021   3.147
 2925SOL    HW2 9675   4.680   1.036   3.259
 2926SOL     OW 9676   0.090   1.249   4.558
 2926SOL    HW1 9677   0.190   1.255   4.558
 2926SOL    HW2 9678   0.062   1.162   4.598
 2927SOL     OW 9679   1.300   1.657   3.109
 2927SOL    HW1 9680   1.225   1.617   3.056
 2927SOL    HW2 9681   1.303   1.614   3.199
 2928SOL     OW 9682   0.146   2.319   5.802
 2928SOL    HW1 9683   0.049   2.338   5.790
 2928SOL    HW2 9684   0.196   2.347   5.720
 2929SOL     OW 9685   0.686   1.083   6.261
 2929SOL    HW1 9686   0.595   1.104   6.297
 2929SOL    HW2 9687   0.725   1.166   6.220
 2930SOL     OW 9688   4.270   6.203   5.085
 2930SOL    HW1 9689   4.256   6.110   5.119
 2930SOL    HW2 9690   4.217   6.217   5.002
 2931SOL     OW 9691   5.621   5.234   0.896
 2931SOL    HW1 9692   5.597   5.313   0.839
 2931SOL    HW2 9693   5.625   5.152   0.839
 2932SOL     OW 9694   1.110   5.585   1.398
 2932SOL    HW1 9695   1.186   5.604   1.336
 2932SOL    HW2 9696   1.099   5.661   1.462
 2933SOL     OW 9697   5.929   4.170   2.917
 2933SOL    HW1 9698   5.978   4.224   2.849
 2933SOL    HW2 9699   5.918   4.076   2.884
 2934SOL     OW 9700   4.729   1.698   0.489
 2934SOL    HW1 9701   4.683   1.709   0.577
 2934SOL    HW2 9702   4.672   1.645   0.427
 2935SOL     OW 9703   6.304   3.391   1.424
 2935SOL    HW1 9704   6.353   3.390   1.511
 2935SOL    HW2 9705   6.351   3.453   1.361
 2936SOL     OW 9706   4.094   5.139   2.100
 2936SOL    HW1 9707   4.083   5.040   2.110
 2936SOL    HW2 9708   4.077   5.164   2.004
 2937SOL     OW 9709   4.051   4.919   0.292
 2937SOL    HW1 9710   4.019   4.847   0.355
 2937SOL    HW2 9711   4.124   4.971   0.336
 2938SOL     OW 9712   5.129   4.900   5.889
 2938SOL    HW1 9713   5.071   4.967   5.935
 2938SOL    HW2 9714   5.190   4.947   5.825
 2939SOL     OW 9715   0.332   0.477   3.980
 2939SOL    HW1 9716   0.322   0.529   4.064
 2939SOL    HW2 9717   0.303   0.382   3.995
 2940SOL     OW 9718   6.050   6.395   6.549
 2940SOL    HW1 9719   6.063   6.325   6.479
 2940SOL    HW2 9720   6.114   6.469   6.534
 2941SOL     OW 9721   2.478   2.498   4.267
 2941SOL    HW1 9722   2.404   2.545   4.219
 2941SOL    HW2 9723   2.520   2.562   4.332
 2942SOL     OW 9724   3.041   2.254   1.420
 2942SOL    HW1 9725   3.093   2.286   1.499
 2942SOL    HW2 9726   3.099   2.196   1.363
 2943SOL     OW 9727   5.590   4.541   2.665
 2943SOL    HW1 9728   5.499   4.581   2.659
 2943SOL    HW2 9729   5.597   4.486   2.748
 2944SOL     OW 9730   2.404   5.619   5.257
 2944SOL    HW1 9731   2.477   5.587   5.197
 2944SOL    HW2 9732   2.442   5.683   5.325
 2945SOL     OW 9733   3.596   4.057   3.559
 2945SOL    HW1 9734   3.643   4.075   3.645
 2945SOL    HW2 9735   3.498   4.075   3.569
 2946SOL     OW 9736   0.936   5.568   6.845
 2946SOL    HW1 9737   0.947   5.664   6.819
 2946SOL    HW2 9738   1.025   5.525   6.854
 2947SOL     OW 9739   0.730   3.258   6.734
 2947SOL    HW1 9740   0.828   3.277   6.733
 2947SOL    HW2 9741   0.689   3.296   6.817
 2948SOL     OW 9742   6.580   4.470   5.824
 2948SOL    HW1 9743   6.619   4.561   5.827
 2948SOL    HW2 9744   6.495   4.472   5.770
 2949SOL     OW 9745   3.002   5.699   1.249
 2949SOL    HW1 9746   2.942   5.779   1.251
 2949SOL    HW2 9747   3.027   5.674   1.342
 2950SOL     OW 9748   4.836   3.900   4.527
 2950SOL    HW1 9749   4.866   3.982   4.478
 2950SOL    HW2 9750   4.743   3.913   4.560
 2951SOL     OW 9751   5.997   2.411   1.173
 2951SOL    HW1 9752   6.030   2.494   1.127
 2951SOL    HW2 9753   5.897   2.409   1.172
 2952SOL     OW 9754   0.699   5.810   5.580
 2952SOL    HW1 9755   0.742   5.795   5.491
 2952SOL    HW2 9756   0.678   5.907   5.591
 2953SOL     OW 9757   4.969   3.309   3.680
 2953SOL    HW1 9758   4.933   3.285   3.590
 2953SOL    HW2 9759   4.917   3.262   3.751
 2954SOL     OW 9760   0.535   5.519   1.794
 2954SOL    HW1 9761   0.601   5.547   1.724
 2954SOL    HW2 9762   0.460   5.585   1.796
 2955SOL     OW 9763   0.962   4.235   1.492
 2955SOL    HW1 9764   0.937   4.180   1.572
 2955SOL    HW2 9765   0.903   4.211   1.415
 2956SOL     OW 9766   5.878   6.363   2.961
 2956SOL    HW1 9767   5.888   6.390   3.056
 2956SOL    HW2 9768   5.905   6.267   2.950
 2957SOL     OW 9769   6.186   3.100   1.784
 2957SOL    HW1 9770   6.146   3.014   1.814
 2957SOL    HW2 9771   6.233   3.087   1.697
 2958SOL     OW 9772   2.431   4.544   4.565
 2958SOL    HW1 9773   2.411   4.501   4.653
 2958SOL    HW2 9774   2.509   4.606   4.575
 2959SOL     OW 9775   4.827   4.755   0.622
 2959SOL    HW1 9776   4.826   4.689   0.546
 2959SOL    HW2 9777   4.922   4.771   0.650
 2960SOL     OW 9778   3.992   0.013   6.177
 2960SOL    HW1 9779   4.045   6.990   6.248
 2960SOL    HW2 9780   4.031   7.016   6.087
 2961SOL     OW 9781   4.973   2.236   4.508
 2961SOL    HW1 9782   5.063   2.195   4.494
 2961SOL    HW2 9783   4.957   2.305   4.437
 2962SOL     OW 9784   4.342   0.702   3.732
 2962SOL    HW1 9785   4.265   0.757   3.700
 2962SOL    HW2 9786   4.424   0.761   3.737
 2963SOL     OW 9787   2.121   1.385   5.988
 2963SOL    HW1 9788   2.198   1.339   5.943
 2963SOL    HW2 9789   2.141   1.396   6.086
 2964SOL     OW 9790   6.721   0.552   2.692
 2964SOL    HW1 9791   6.681   0.462   2.711
 2964SOL    HW2 9792   6.783   0.577   2.767
 2965SOL     OW 9793   0.161   0.853   4.757
 2965SOL    HW1 9794   0.131   0.773   4.706
 2965SOL    HW2 9795   0.130   0.846   4.852
 2966SOL     OW 9796   5.730   5.453   4.370
 2966SOL    HW1 9797   5.777   5.537   4.398
 2966SOL    HW2 9798   5.681   5.470   4.284
 2967SOL     OW 9799   6.085   2.048   4.612
 2967SOL    HW1 9800   6.085   2.092   4.522
 2967SOL    HW2 9801   6.125   2.110   4.680
 2968SOL     OW 9802   1.009   3.399   6.611
 2968SOL    HW1 9803   0.988   3.452   6.693
 2968SOL    HW2 9804   1.082   3.334   6.632
 2969SOL     OW 9805   5.871   1.137   4.881
 2969SOL    HW1 9806   5.788   1.133   4.826
 2969SOL    HW2 9807   5.848   1.122   4.978
 2970SOL     OW 9808   1.047   4.008   6.172
 2970SOL    HW1 9809   1.099   3.925   6.192
 2970SOL    HW2 9810   1.110   4.084   6.161
 2971SOL     OW 9811   5.810   3.771   6.043
 2971SOL    HW1 9812   5.898   3.725   6.057
 2971SOL    HW2 9813   5.819   3.868   6.062
 2972SOL     OW 9814   6.705   4.754   6.423
 2972SOL    HW1 9815   6.605   4.760   6.422
 2972SOL    HW2 9816   6.733   4.673   6.474
 2973SOL     OW 9817   5.327   1.126   4.096
 2973SOL    HW1 9818   5.367   1.092   4.182
 2973SOL    HW2 9819   5.387   1.196   4.058
 2974SOL     OW 9820   0.802   4.064   2.611
 2974SOL    HW1 9821   0.811   4.155   2.570
 2974SOL    HW2 9822   0.776   4.074   2.707
 2975SOL     OW 9823   0.175   2.131   4.828
 2975SOL    HW1 9824   0.160   2.076   4.746
 2975SOL    HW2 9825   0.186   2.072   4.908
 2976SOL     OW 9826   4.288   2.264   3.081
 2976SOL    HW1 9827   4.333   2.176   3.097
 2976SOL    HW2 9828   4.269   2.309   3.168
 2977SOL     OW 9829   1.820   6.446   4.313
 2977SOL    HW1 9830   1.792   6.352   4.296
 2977SOL    HW2 9831   1.781   6.506   4.244
 2978SOL     OW 9832   4.408   4.921   6.559
 2978SOL    HW1 9833   4.424   4.864   6.640
 2978SOL    HW2 9834   4.482   4.907   6.493
 2979SOL     OW 9835   4.845   6.970   4.513
 2979SOL    HW1 9836   4.914   6.985   4.583
 2979SOL    HW2 9837   4.755   6.964   4.555
 2980SOL     OW 9838   1.218   6.342   3.810
 2980SOL    HW1 9839   1.289   6.340   3.740
 2980SOL    HW2 9840   1.146   6.276   3.788
 2981SOL     OW 9841   1.704   1.368   5.840
 2981SOL    HW1 9842   1.622   1.402   5.886
 2981SOL    HW2 9843   1.679   1.294   5.778
 2982SOL     OW 9844   4.129   5.675   2.933
 2982SOL    HW1 9845   4.224   5.643   2.941
 2982SOL    HW2 9846   4.125   5.772   2.958
 2983SOL     OW 9847   0.768   1.403   3.832
 2983SOL    HW1 9848   0.671   1.383   3.843
 2983SOL    HW2 9849   0.784   1.501   3.847
 2984SOL     OW 9850   5.187   5.314   1.779
 2984SOL    HW1 9851   5.169   5.229   1.729
 2984SOL    HW2 9852   5.177   5.296   1.877
 2985SOL     OW 9853   1.503   2.325   5.590
 2985SOL    HW1 9854   1.533   2.252   5.651
 2985SOL    HW2 9855   1.575   2.344   5.523
 2986SOL     OW 9856   2.268   4.246   6.447
 2986SOL    HW1 9857   2.280   4.152   6.480
 2986SOL    HW2 9858   2.342   4.268   6.383
 2987SOL     OW 9859   5.520   0.763   3.704
 2987SOL    HW1 9860   5.420   0.759   3.700
 2987SOL    HW2 9861   5.557   0.673   3.681
 2988SOL     OW 9862   0.840   6.597   2.755
 2988SOL    HW1 9863   0.795   6.617   2.842
 2988SOL    HW2 9864   0.795   6.519   2.711
 2989SOL     OW 9865   6.689   6.585   0.363
 2989SOL    HW1 9866   6.785   6.612   0.357
 2989SOL    HW2 9867   6.671   6.507   0.303
 2990SOL     OW 9868   4.528   1.718   4.302
 2990SOL    HW1 9869   4.491   1.630   4.333
 2990SOL    HW2 9870   4.460   1.763   4.243
 2991SOL     OW 9871   6.782   3.759   6.285
 2991SOL    HW1 9872   6.772   3.855   6.258
 2991SOL    HW2 9873   6.876   3.729   6.270
 2992SOL     OW 9874   1.794   5.120   5.777
 2992SOL    HW1 9875   1.729   5.154   5.845
 2992SOL    HW2 9876   1.876   5.177   5.779
 2993SOL     OW 9877   0.806   5.264   1.553
 2993SOL    HW1 9878   0.853   5.184   1.591
 2993SOL    HW2 9879   0.803   5.337   1.622
 2994SOL     OW 9880   3.361   6.709   0.307
 2994SOL    HW1 9881   3.416   6.733   0.387
 2994SOL    HW2 9882   3.269   6.747   0.316
 2995SOL     OW 9883   2.050   3.789   6.769
 2995SOL    HW1 9884   2.091   3.702   6.739
 2995SOL    HW2 9885   1.955   3.793   6.739
 2996SOL     OW 9886   2.111   6.621   4.145
 2996SOL    HW1 9887   2.138   6.651   4.237
 2996SOL    HW2 9888   2.189   6.580   4.099
 2997SOL     OW 9889   5.392   0.468   2.277
 2997SOL    HW1 9890   5.472   0.409   2.274
 2997SOL    HW2 9891   5.384   0.509   2.368
 2998SOL     OW 9892   5.159   0.083   4.672
 2998SOL    HW1 9893   5.143   0.090   4.573
 2998SOL    HW2 9894   5.186   7.012   4.694
 2999SOL     OW 9895   3.702   4.916   4.144
 2999SOL    HW1 9896   3.619   4.933   4.198
 2999SOL    HW2 9897   3.742   4.829   4.170
 3000SOL     OW 9898   2.352   4.369   6.767
 3000SOL    HW1 9899   2.414   4.351   6.691
 3000SOL    HW2 9900   2.301   4.286   6.790
 3001SOL     OW 9901   5.708   5.949   6.817
 3001SOL    HW1 9902   5.747   6.028   6.866
 3001SOL    HW2 9903   5.611   5.965   6.799
 3002SOL     OW 9904   4.024   6.941   5.887
 3002SOL    HW1 9905   4.093   7.012   5.899
 3002SOL    HW2 9906   3.963   6.966   5.811
 3003SOL     OW 9907   2.076   0.069   6.670
 3003SOL    HW1 9908   2.006   0.131   6.705
 3003SOL    HW2 9909   2.039   0.016   6.593
 3004SOL     OW 9910   1.247   5.009   3.721
 3004SOL    HW1 9911   1.236   4.945   3.645
 3004SOL    HW2 9912   1.290   5.093   3.688
 3005SOL     OW 9913   2.881   2.408   0.283
 3005SOL    HW1 9914   2.804   2.467   0.259
 3005SOL    HW2 9915   2.877   2.325   0.228
 3006SOL     OW 9916   5.203   2.263   6.688
 3006SOL    HW1 9917   5.265   2.225   6.756
 3006SOL    HW2 9918   5.131   2.315   6.733
 3007SOL     OW 9919   5.586   5.118   1.547
 3007SOL    HW1 9920   5.508   5.116   1.609
 3007SOL    HW2 9921   5.591   5.032   1.496
 3008SOL     OW 9922   3.513   0.584   6.369
 3008SOL    HW1 9923   3.471   0.520   6.304
 3008SOL    HW2 9924   3.476   0.675   6.355
 3009SOL     OW 9925   0.717   6.953   3.095
 3009SOL    HW1 9926   0.778   7.002   3.158
 3009SOL    HW2 9927   0.622   6.973   3.119
 3010SOL     OW 9928   3.258   6.675   3.900
 3010SOL    HW1 9929   3.271   6.769   3.866
 3010SOL    HW2 9930   3.183   6.632   3.849
 3011SOL     OW 9931   5.274   1.539   1.244
 3011SOL    HW1 9932   5.182   1.519   1.210
 3011SOL    HW2 9933   5.331   1.574   1.170
 3012SOL     OW 9934   0.957   3.451   4.906
 3012SOL    HW1 9935   0.934   3.481   4.999
 3012SOL    HW2 9936   0.980   3.531   4.850
 3013SOL     OW 9937   5.450   5.411   4.763
 3013SOL    HW1 9938   5.534   5.430   4.713
 3013SOL    HW2 9939   5.412   5.496   4.798
 3014SOL     OW 9940   5.062   3.412   4.723
 3014SOL    HW1 9941   5.108   3.426   4.636
 3014SOL    HW2 9942   5.004   3.331   4.718
 3015SOL     OW 9943   2.601   2.270   0.332
 3015SOL    HW1 9944   2.637   2.334   0.400
 3015SOL    HW2 9945   2.644   2.181   0.343
 3016SOL     OW 9946   2.828   5.481   3.975
 3016SOL    HW1 9947   2.744   5.513   4.020
 3016SOL    HW2 9948   2.904   5.487   4.040
 3017SOL     OW 9949   1.101   5.372   1.869
 3017SOL    HW1 9950   1.102   5.280   1.829
 3017SOL    HW2 9951   1.160   5.432   1.815
 3018SOL     OW 9952   2.209   6.677   5.591
 3018SOL    HW1 9953   2.110   6.685   5.577
 3018SOL    HW2 9954   2.251   6.637   5.510
 3019SOL     OW 9955   1.940   0.032   6.944
 3019SOL    HW1 9956   1.943   0.130   6.924
 3019SOL    HW2 9957   1.990   7.005   6.873
 3020SOL     OW 9958   3.989   3.719   1.817
 3020SOL    HW1 9959   4.025   3.653   1.751
 3020SOL    HW2 9960   4.028   3.810   1.798
 3021SOL     OW 9961   3.475   7.012   6.860
 3021SOL    HW1 9962   3.552   7.020   6.922
 3021SOL    HW2 9963   3.494   6.941   6.791
 3022SOL     OW 9964   3.915   5.360   4.341
 3022SOL    HW1 9965   3.966   5.311   4.412
 3022SOL    HW2 9966   3.955   5.338   4.251
 3023SOL     OW 9967   4.975   0.315   2.548
 3023SOL    HW1 9968   5.047   0.324   2.479
 3023SOL    HW2 9969   4.929   0.227   2.536
 3024SOL     OW 9970   4.126   6.244   5.994
 3024SOL    HW1 9971   4.061   6.178   5.956
 3024SOL    HW2 9972   4.173   6.290   5.919
 3025SOL     OW 9973   3.740   1.252   0.544
 3025SOL    HW1 9974   3.691   1.340   0.541
 3025SOL    HW2 9975   3.740   1.217   0.638
 3026SOL     OW 9976   2.015   2.076   0.857
 3026SOL    HW1 9977   2.005   2.113   0.765
 3026SOL    HW2 9978   2.025   1.977   0.852
 3027SOL     OW 9979   4.302   0.596   2.366
 3027SOL    HW1 9980   4.325   0.601   2.463
 3027SOL    HW2 9981   4.352   0.667   2.316
 3028SOL     OW 9982   1.824   3.928   5.743
 3028SOL    HW1 9983   1.835   4.027   5.753
 3028SOL    HW2 9984   1.891   3.894   5.676
 3029SOL     OW 9985   0.387   3.887   4.744
 3029SOL    HW1 9986   0.424   3.860   4.833
 3029SOL    HW2 9987   0.381   3.806   4.685
 3030SOL     OW 9988   0.982   2.432   5.777
 3030SOL    HW1 9989   0.914   2.364   5.807
 3030SOL    HW2 9990   1.071   2.410   5.816
 3031SOL     OW 9991   0.528   3.006   0.712
 3031SOL    HW1 9992   0.527   3.065   0.793
 3031SOL    HW2 9993   0.512   3.060   0.630
 3032SOL     OW 9994   4.434   6.636   1.541
 3032SOL    HW1 9995   4.397   6.692   1.616
 3032SOL    HW2 9996   4.384   6.550   1.537
 3033SOL     OW 9997   0.183   2.106   1.645
 3033SOL    HW1 9998   0.229   2.078   1.729
 3033SOL    HW2 9999   0.227   2.187   1.608
 3034SOL     OW10000   1.892   5.759   3.641
 3034SOL    HW110001   1.983   5.721   3.655
 3034SOL    HW210002   1.828   5.717   3.706
 3035SOL     OW10003   6.835   2.911   6.942
 3035SOL    HW110004   6.892   2.837   6.977
 3035SOL    HW210005   6.876   2.999   6.969
 3036SOL     OW10006   1.693   2.791   6.385
 3036SOL    HW110007   1.771   2.821   6.331
 3036SOL    HW210008   1.633   2.869   6.404
 3037SOL     OW10009   0.966   6.055   4.083
 3037SOL    HW110010   1.056   6.063   4.128
 3037SOL    HW210011   0.918   5.976   4.119
 3038SOL     OW10012   5.735   5.904   6.500
 3038SOL    HW110013   5.748   5.905   6.599
 3038SOL    HW210014   5.745   5.997   6.464
 3039SOL     OW10015   0.126   4.194   1.453
 3039SOL    HW110016   0.150   4.231   1.363
 3039SOL    HW210017   0.044   4.138   1.445
 3040SOL     OW10018   4.529   3.649   6.130
 3040SOL    HW110019   4.456   3.693   6.077
 3040SOL    HW210020   4.554   3.707   6.207
 3041SOL     OW10021   2.254   2.884   4.746
 3041SOL    HW110022   2.312   2.915   4.822
 3041SOL    HW210023   2.239   2.960   4.683
 3042SOL     OW10024   5.383   6.509   1.856
 3042SOL    HW110025   5.335   6.591   1.824
 3042SOL    HW210026   5.338   6.473   1.937
 3043SOL     OW10027   0.927   5.759   1.264
 3043SOL    HW110028   0.960   5.839   1.313
 3043SOL    HW210029   1.002   5.693   1.253
 3044SOL     OW10030   3.367   4.533   5.963
 3044SOL    HW110031   3.441   4.567   6.020
 3044SOL    HW210032   3.335   4.445   5.998
 3045SOL     OW10033   4.889   1.209   3.063
 3045SOL    HW110034   4.853   1.117   3.050
 3045SOL    HW210035   4.839   1.254   3.137
 3046SOL     OW10036   2.469   1.999   6.490
 3046SOL    HW110037   2.427   2.045   6.568
 3046SOL    HW210038   2.398   1.961   6.432
 3047SOL     OW10039   5.257   0.062   2.489
 3047SOL    HW110040   5.326   7.016   2.469
 3047SOL    HW210041   5.196   0.029   2.561
 3048SOL     OW10042   3.872   2.375   1.737
 3048SOL    HW110043   3.835   2.466   1.716
 3048SOL    HW210044   3.801   2.321   1.784
 3049SOL     OW10045   1.205   6.532   1.797
 3049SOL    HW110046   1.113   6.499   1.773
 3049SOL    HW210047   1.251   6.562   1.714
 3050SOL     OW10048   3.565   0.735   2.686
 3050SOL    HW110049   3.475   0.769   2.663
 3050SOL    HW210050   3.631   0.764   2.616
 3051SOL     OW10051   2.134   4.019   6.668
 3051SOL    HW110052   2.231   4.014   6.647
 3051SOL    HW210053   2.100   3.928   6.692
 3052SOL     OW10054   5.025   0.015   2.293
 3052SOL    HW110055   5.016   0.026   2.194
 3052SOL    HW210056   5.120   7.013   2.316
 3053SOL     OW10057   0.224   1.666   6.808
 3053SOL    HW110058   0.307   1.646   6.860
 3053SOL    HW210059   0.180   1.581   6.781
 3054SOL     OW10060   6.805   2.362   1.377
 3054SOL    HW110061   6.897   2.374   1.339
 3054SOL    HW210062   6.773   2.448   1.417
 3055SOL     OW10063   5.072   6.894   3.960
 3055SOL    HW110064   5.119   6.971   4.005
 3055SOL    HW210065   5.140   6.831   3.924
 3056SOL     OW10066   6.180   1.920   5.210
 3056SOL    HW110067   6.174   1.912   5.111
 3056SOL    HW210068   6.271   1.953   5.235
 3057SOL     OW10069   3.943   5.875   3.407
 3057SOL    HW110070   3.844   5.887   3.403
 3057SOL    HW210071   3.988   5.954   3.364
 3058SOL     OW10072   6.995   5.567   0.906
 3058SOL    HW110073   6.931   5.495   0.931
 3058SOL    HW210074   6.993   5.580   0.806
 3059SOL     OW10075   2.453   2.257   4.493
 3059SOL    HW110076   2.529   2.192   4.501
 3059SOL    HW210077   2.476   2.342   4.540
 3060SOL     OW10078   0.733   5.883   0.428
 3060SOL    HW110079   0.639   5.867   0.458
 3060SOL    HW210080   0.797   5.845   0.495
 3061SOL     OW10081   5.572   0.669   5.838
 3061SOL    HW110082   5.483   0.663   5.793
 3061SOL    HW210083   5.577   0.755   5.889
 3062SOL     OW10084   1.261   6.582   6.948
 3062SOL    HW110085   1.306   6.660   6.991
 3062SOL    HW210086   1.173   6.611   6.911
 3063SOL     OW10087   2.779   5.199   1.702
 3063SOL    HW110088   2.813   5.112   1.666
 3063SOL    HW210089   2.843   5.234   1.771
 3064SOL     OW10090   5.405   3.794   3.999
 3064SOL    HW110091   5.412   3.760   4.093
 3064SOL    HW210092   5.493   3.784   3.953
 3065SOL     OW10093   2.287   0.627   6.990
 3065SOL    HW110094   2.342   0.628   6.906
 3065SOL    HW210095   2.346   0.647   0.045
 3066SOL     OW10096   5.206   5.337   0.739
 3066SOL    HW110097   5.112   5.351   0.770
 3066SOL    HW210098   5.250   5.268   0.797
 3067SOL     OW10099   3.779   2.108   4.817
 3067SOL    HW110100   3.735   2.043   4.879
 3067SOL    HW210101   3.854   2.154   4.864
 3068SOL     OW10102   5.577   6.707   1.187
 3068SOL    HW110103   5.572   6.650   1.268
 3068SOL    HW210104   5.621   6.655   1.113
 3069SOL     OW10105   7.003   6.389   1.942
 3069SOL    HW110106   0.052   6.458   1.933
 3069SOL    HW210107   6.929   6.409   1.877
 3070SOL     OW10108   1.113   0.995   2.159
 3070SOL    HW110109   1.152   1.083   2.184
 3070SOL    HW210110   1.058   1.005   2.076
 3071SOL     OW10111   5.928   6.118   3.216
 3071SOL    HW110112   5.858   6.175   3.259
 3071SOL    HW210113   5.903   6.098   3.122
 3072SOL     OW10114   1.327   6.820   0.036
 3072SOL    HW110115   1.293   6.899   0.087
 3072SOL    HW210116   1.419   6.841   0.000
 3073SOL     OW10117   0.018   3.480   5.180
 3073SOL    HW110118   6.983   3.436   5.249
 3073SOL    HW210119   7.009   3.573   5.164
 3074SOL     OW10120   5.260   3.339   1.045
 3074SOL    HW110121   5.322   3.401   0.998
 3074SOL    HW210122   5.183   3.317   0.985
 3075SOL     OW10123   2.166   5.909   1.822
 3075SOL    HW110124   2.233   5.835   1.817
 3075SOL    HW210125   2.138   5.921   1.918
 3076SOL     OW10126   0.280   0.789   4.322
 3076SOL    HW110127   0.283   0.855   4.397
 3076SOL    HW210128   0.334   0.824   4.245
 3077SOL     OW10129   4.841   5.290   2.587
 3077SOL    HW110130   4.797   5.352   2.522
 3077SOL    HW210131   4.774   5.224   2.621
 3078SOL     OW10132   1.069   3.418   1.613
 3078SOL    HW110133   1.001   3.358   1.655
 3078SOL    HW210134   1.022   3.485   1.554
 3079SOL     OW10135   2.523   1.810   4.865
 3079SOL    HW110136   2.473   1.772   4.787
 3079SOL    HW210137   2.577   1.889   4.834
 3080SOL     OW10138   4.763   4.041   3.709
 3080SOL    HW110139   4.794   3.952   3.677
 3080SOL    HW210140   4.740   4.035   3.807
 3081SOL     OW10141   0.322   2.672   5.913
 3081SOL    HW110142   0.394   2.694   5.847
 3081SOL    HW210143   0.270   2.594   5.880
 3082SOL     OW10144   3.170   0.083   4.073
 3082SOL    HW110145   3.256   0.087   4.021
 3082SOL    HW210146   3.177   0.014   4.144
 3083SOL     OW10147   4.370   6.236   3.260
 3083SOL    HW110148   4.293   6.208   3.202
 3083SOL    HW210149   4.344   6.317   3.313
 3084SOL     OW10150   5.147   4.250   4.711
 3084SOL    HW110151   5.215   4.278   4.643
 3084SOL    HW210152   5.060   4.296   4.692
 3085SOL     OW10153   0.241   4.726   1.692
 3085SOL    HW110154   0.331   4.691   1.666
 3085SOL    HW210155   0.171   4.657   1.670
 3086SOL     OW10156   4.025   1.933   2.134
 3086SOL    HW110157   3.986   1.976   2.215
 3086SOL    HW210158   3.973   1.960   2.053
 3087SOL     OW10159   1.408   4.932   3.990
 3087SOL    HW110160   1.449   4.845   3.962
 3087SOL    HW210161   1.371   4.979   3.910
 3088SOL     OW10162   2.337   5.007   5.910
 3088SOL    HW110163   2.392   4.949   5.851
 3088SOL    HW210164   2.361   4.991   6.006
 3089SOL     OW10165   1.340   3.124   0.018
 3089SOL    HW110166   1.440   3.125   0.015
 3089SOL    HW210167   1.309   3.072   0.097
 3090SOL     OW10168   1.981   2.175   1.989
 3090SOL    HW110169   1.919   2.251   2.007
 3090SOL    HW210170   1.964   2.139   1.897
 3091SOL     OW10171   1.372   6.969   0.690
 3091SOL    HW110172   1.454   6.913   0.676
 3091SOL    HW210173   1.301   6.914   0.735
 3092SOL     OW10174   5.017   6.598   0.394
 3092SOL    HW110175   4.953   6.526   0.364
 3092SOL    HW210176   5.084   6.614   0.322
 3093SOL     OW10177   5.513   6.158   6.166
 3093SOL    HW110178   5.590   6.093   6.168
 3093SOL    HW210179   5.477   6.170   6.258
 3094SOL     OW10180   2.308   6.441   4.335
 3094SOL    HW110181   2.212   6.456   4.360
 3094SOL    HW210182   2.312   6.387   4.251
 3095SOL     OW10183   1.983   5.690   4.387
 3095SOL    HW110184   1.951   5.637   4.309
 3095SOL    HW210185   2.039   5.632   4.447
 3096SOL     OW10186   1.141   6.955   4.876
 3096SOL    HW110187   1.121   6.886   4.807
 3096SOL    HW210188   1.055   7.000   4.902
 3097SOL     OW10189   0.449   2.288   0.954
 3097SOL    HW110190   0.439   2.190   0.937
 3097SOL    HW210191   0.489   2.332   0.874
 3098SOL     OW10192   2.743   3.475   0.565
 3098SOL    HW110193   2.819   3.528   0.602
 3098SOL    HW210194   2.681   3.536   0.516
 3099SOL     OW10195   0.523   6.268   3.826
 3099SOL    HW110196   0.544   6.327   3.747
 3099SOL    HW210197   0.459   6.316   3.886
 3100SOL     OW10198   6.413   0.015   4.889
 3100SOL    HW110199   6.443   0.020   4.984
 3100SOL    HW210200   6.366   6.951   4.874
 3101SOL     OW10201   5.049   6.109   5.938
 3101SOL    HW110202   5.085   6.182   5.880
 3101SOL    HW210203   5.006   6.039   5.881
 3102SOL     OW10204   0.240   5.149   3.236
 3102SOL    HW110205   0.178   5.070   3.229
 3102SOL    HW210206   0.284   5.164   3.147
 3103SOL     OW10207   3.435   0.702   1.923
 3103SOL    HW110208   3.524   0.699   1.967
 3103SOL    HW210209   3.412   0.797   1.900
 3104SOL     OW10210   5.206   6.705   5.303
 3104SOL    HW110211   5.229   6.772   5.374
 3104SOL    HW210212   5.110   6.715   5.277
 3105SOL     OW10213   6.156   4.352   1.851
 3105SOL    HW110214   6.185   4.309   1.766
 3105SOL    HW210215   6.092   4.292   1.899
 3106SOL     OW10216   5.807   1.703   2.584
 3106SOL    HW110217   5.780   1.730   2.676
 3106SOL    HW210218   5.785   1.777   2.519
 3107SOL     OW10219   4.062   0.773   4.000
 3107SOL    HW110220   3.971   0.780   4.040
 3107SOL    HW210221   4.124   0.838   4.045
 3108SOL     OW10222   1.364   0.302   4.558
 3108SOL    HW110223   1.435   0.312   4.489
 3108SOL    HW210224   1.289   0.365   4.538
 3109SOL     OW10225   5.675   6.234   1.881
 3109SOL    HW110226   5.749   6.220   1.816
 3109SOL    HW210227   5.710   6.228   1.974
 3110SOL     OW10228   1.639   1.919   3.685
 3110SOL    HW110229   1.707   1.952   3.619
 3110SOL    HW210230   1.685   1.893   3.770
 3111SOL     OW10231   5.921   6.064   3.937
 3111SOL    HW110232   5.844   6.096   3.992
 3111SOL    HW210233   5.973   6.142   3.903
 3112SOL     OW10234   5.120   2.631   5.893
 3112SOL    HW110235   5.176   2.555   5.860
 3112SOL    HW210236   5.165   2.718   5.871
 3113SOL     OW10237   1.510   6.169   3.904
 3113SOL    HW110238   1.573   6.098   3.876
 3113SOL    HW210239   1.499   6.166   4.004
 3114SOL     OW10240   4.031   1.918   6.942
 3114SOL    HW110241   4.026   1.929   6.843
 3114SOL    HW210242   3.947   1.954   6.984
 3115SOL     OW10243   4.341   3.371   6.690
 3115SOL    HW110244   4.257   3.327   6.720
 3115SOL    HW210245   4.326   3.417   6.602
 3116SOL     OW10246   0.303   3.528   6.622
 3116SOL    HW110247   0.231   3.563   6.563
 3116SOL    HW210248   0.305   3.428   6.617
 3117SOL     OW10249   4.418   3.700   5.316
 3117SOL    HW110250   4.448   3.715   5.410
 3117SOL    HW210251   4.490   3.654   5.264
 3118SOL     OW10252   0.333   4.497   0.611
 3118SOL    HW110253   0.311   4.468   0.518
 3118SOL    HW210254   0.380   4.424   0.659
 3119SOL     OW10255   2.107   3.373   5.612
 3119SOL    HW110256   2.039   3.433   5.655
 3119SOL    HW210257   2.097   3.379   5.513
 3120SOL     OW10258   2.938   6.716   3.961
 3120SOL    HW110259   2.997   6.794   3.937
 3120SOL    HW210260   2.982   6.631   3.934
 3121SOL     OW10261   0.277   1.690   2.600
 3121SOL    HW110262   0.240   1.752   2.669
 3121SOL    HW210263   0.365   1.654   2.630
 3122SOL     OW10264   2.862   5.855   5.636
 3122SOL    HW110265   2.924   5.896   5.703
 3122SOL    HW210266   2.845   5.759   5.660
 3123SOL     OW10267   3.487   0.980   4.063
 3123SOL    HW110268   3.557   0.917   4.098
 3123SOL    HW210269   3.529   1.069   4.044
 3124SOL     OW10270   4.172   6.299   4.825
 3124SOL    HW110271   4.134   6.390   4.840
 3124SOL    HW210272   4.157   6.272   4.730
 3125SOL     OW10273   6.428   2.015   5.222
 3125SOL    HW110274   6.448   1.949   5.151
 3125SOL    HW210275   6.501   2.083   5.227
 3126SOL     OW10276   4.602   4.933   6.357
 3126SOL    HW110277   4.662   4.877   6.415
 3126SOL    HW210278   4.587   4.887   6.270
 3127SOL     OW10279   0.793   2.536   3.504
 3127SOL    HW110280   0.874   2.588   3.477
 3127SOL    HW210281   0.777   2.548   3.602
 3128SOL     OW10282   1.934   0.263   6.774
 3128SOL    HW110283   2.000   0.321   6.821
 3128SOL    HW210284   1.846   0.268   6.820
 3129SOL     OW10285   0.518   4.325   6.612
 3129SOL    HW110286   0.457   4.345   6.536
 3129SOL    HW210287   0.553   4.231   6.604
 3130SOL     OW10288   1.548   4.444   1.928
 3130SOL    HW110289   1.507   4.396   2.005
 3130SOL    HW210290   1.523   4.398   1.843
 3131SOL     OW10291   0.013   2.472   1.894
 3131SOL    HW110292   6.955   2.523   1.924
 3131SOL    HW210293   0.026   2.392   1.953
 3132SOL     OW10294   4.257   4.688   5.783
 3132SOL    HW110295   4.217   4.765   5.733
 3132SOL    HW210296   4.219   4.684   5.875
 3133SOL     OW10297   2.812   2.059   3.437
 3133SOL    HW110298   2.904   2.081   3.467
 3133SOL    HW210299   2.802   1.960   3.427
 3134SOL     OW10300   4.825   4.683   1.139
 3134SOL    HW110301   4.767   4.607   1.169
 3134SOL    HW210302   4.770   4.767   1.136
 3135SOL     OW10303   4.839   0.723   5.241
 3135SOL    HW110304   4.810   0.818   5.241
 3135SOL    HW210305   4.926   0.714   5.192
 3136SOL     OW10306   5.308   0.918   6.789
 3136SOL    HW110307   5.304   0.823   6.758
 3136SOL    HW210308   5.301   0.920   6.889
 3137SOL     OW10309   6.481   0.649   3.544
 3137SOL    HW110310   6.500   0.681   3.451
 3137SOL    HW210311   6.514   0.717   3.610
 3138SOL     OW10312   6.667   2.351   3.897
 3138SOL    HW110313   6.715   2.354   3.809
 3138SOL    HW210314   6.709   2.417   3.960
 3139SOL     OW10315   4.539   7.011   0.630
 3139SOL    HW110316   4.549   6.920   0.669
 3139SOL    HW210317   4.498   7.004   0.539
 3140SOL     OW10318   5.428   0.013   6.932
 3140SOL    HW110319   5.515   0.051   6.903
 3140SOL    HW210320   5.418   6.943   6.895
 3141SOL     OW10321   0.205   5.820   6.249
 3141SOL    HW110322   0.193   5.882   6.171
 3141SOL    HW210323   0.293   5.774   6.242
 3142SOL     OW10324   4.681   6.284   1.655
 3142SOL    HW110325   4.740   6.363   1.670
 3142SOL    HW210326   4.600   6.292   1.714
 3143SOL     OW10327   6.977   2.685   7.015
 3143SOL    HW110328   6.906   2.653   0.055
 3143SOL    HW210329   6.985   2.621   6.939
 3144SOL     OW10330   3.376   3.587   0.949
 3144SOL    HW110331   3.336   3.571   1.040
 3144SOL    HW210332   3.450   3.522   0.933
 3145SOL     OW10333   1.923   5.011   2.285
 3145SOL    HW110334   2.021   5.029   2.291
 3145SOL    HW210335   1.892   4.970   2.371
 3146SOL     OW10336   1.672   0.270   3.078
 3146SOL    HW110337   1.697   0.292   2.984
 3146SOL    HW210338   1.574   0.248   3.081
 3147SOL     OW10339   3.217   5.257   6.576
 3147SOL    HW110340   3.138   5.273   6.517
 3147SOL    HW210341   3.186   5.237   6.669
 3148SOL     OW10342   4.950   6.200   4.879
 3148SOL    HW110343   4.903   6.153   4.954
 3148SOL    HW210344   5.046   6.170   4.876
 3149SOL     OW10345   3.264   0.536   5.301
 3149SOL    HW110346   3.198   0.510   5.230
 3149SOL    HW210347   3.224   0.518   5.391
 3150SOL     OW10348   6.364   5.764   4.187
 3150SOL    HW110349   6.382   5.688   4.249
 3150SOL    HW210350   6.313   5.731   4.108
 3151SOL     OW10351   3.843   0.812   6.395
 3151SOL    HW110352   3.820   0.720   6.364
 3151SOL    HW210353   3.940   0.815   6.420
 3152SOL     OW10354   1.314   5.487   0.713
 3152SOL    HW110355   1.236   5.439   0.674
 3152SOL    HW210356   1.362   5.426   0.776
 3153SOL     OW10357   6.347   4.540   1.874
 3153SOL    HW110358   6.394   4.544   1.962
 3153SOL    HW210359   6.282   4.464   1.874
 3154SOL     OW10360   6.179   1.535   0.788
 3154SOL    HW110361   6.210   1.617   0.740
 3154SOL    HW210362   6.079   1.535   0.792
 3155SOL     OW10363   6.805   5.240   1.312
 3155SOL    HW110364   6.734   5.191   1.363
 3155SOL    HW210365   6.802   5.337   1.336
 3156SOL     OW10366   2.888   3.460   3.350
 3156SOL    HW110367   2.864   3.508   3.435
 3156SOL    HW210368   2.950   3.384   3.372
 3157SOL     OW10369   2.129   2.652   4.790
 3157SOL    HW110370   2.179   2.731   4.754
 3157SOL    HW210371   2.151   2.640   4.886
 3158SOL     OW10372   4.466   0.186   2.061
 3158SOL    HW110373   4.475   0.242   2.143
 3158SOL    HW210374   4.409   0.234   1.994
 3159SOL     OW10375   5.596   1.439   0.516
 3159SOL    HW110376   5.664   1.511   0.503
 3159SOL    HW210377   5.626   1.355   0.471
 3160SOL     OW10378   6.809   6.444   5.177
 3160SOL    HW110379   6.730   6.432   5.117
 3160SOL    HW210380   6.888   6.397   5.137
 3161SOL     OW10381   1.441   1.065   3.197
 3161SOL    HW110382   1.367   1.124   3.229
 3161SOL    HW210383   1.419   0.970   3.220
 3162SOL     OW10384   1.046   6.214   0.603
 3162SOL    HW110385   1.070   6.127   0.648
 3162SOL    HW210386   1.044   6.200   0.504
 3163SOL     OW10387   3.880   2.298   0.067
 3163SOL    HW110388   3.978   2.284   0.080
 3163SOL    HW210389   3.837   2.211   0.043
 3164SOL     OW10390   4.108   4.607   1.478
 3164SOL    HW110391   4.178   4.536   1.488
 3164SOL    HW210392   4.060   4.620   1.565
 3165SOL     OW10393   1.486   6.089   1.735
 3165SOL    HW110394   1.417   6.150   1.774
 3165SOL    HW210395   1.576   6.132   1.743
 3166SOL     OW10396   4.874   1.062   6.415
 3166SOL    HW110397   4.782   1.087   6.384
 3166SOL    HW210398   4.902   0.976   6.371
 3167SOL     OW10399   0.012   4.244   1.699
 3167SOL    HW110400   6.937   4.246   1.680
 3167SOL    HW210401   0.063   4.254   1.614
 3168SOL     OW10402   5.471   2.783   0.300
 3168SOL    HW110403   5.404   2.727   0.251
 3168SOL    HW210404   5.562   2.743   0.288
 3169SOL     OW10405   1.209   2.950   5.419
 3169SOL    HW110406   1.164   2.872   5.463
 3169SOL    HW210407   1.297   2.921   5.383
 3170SOL     OW10408   4.448   0.679   0.986
 3170SOL    HW110409   4.462   0.766   1.033
 3170SOL    HW210410   4.353   0.649   0.996
 3171SOL     OW10411   0.260   6.367   1.141
 3171SOL    HW110412   0.214   6.294   1.191
 3171SOL    HW210413   0.346   6.391   1.187
 3172SOL     OW10414   0.568   5.168   5.729
 3172SOL    HW110415   0.643   5.187   5.666
 3172SOL    HW210416   0.563   5.069   5.745
 3173SOL     OW10417   3.040   1.703   1.457
 3173SOL    HW110418   3.134   1.736   1.458
 3173SOL    HW210419   2.986   1.751   1.526
 3174SOL     OW10420   2.659   2.703   6.747
 3174SOL    HW110421   2.745   2.741   6.712
 3174SOL    HW210422   2.679   2.627   6.809
 3175SOL     OW10423   0.204   6.476   0.615
 3175SOL    HW110424   0.266   6.397   0.614
 3175SOL    HW210425   0.253   6.557   0.647
 3176SOL     OW10426   2.159   4.730   4.763
 3176SOL    HW110427   2.190   4.690   4.677
 3176SOL    HW210428   2.077   4.786   4.747
 3177SOL     OW10429   4.824   4.977   5.449
 3177SOL    HW110430   4.747   4.970   5.386
 3177SOL    HW210431   4.909   4.980   5.397
 3178SOL     OW10432   6.838   2.796   1.179
 3178SOL    HW110433   6.767   2.815   1.246
 3178SOL    HW210434   6.922   2.844   1.205
 3179SOL     OW10435   2.102   2.721   2.146
 3179SOL    HW110436   2.175   2.684   2.204
 3179SOL    HW210437   2.044   2.646   2.114
 3180SOL     OW10438   4.626   0.445   6.709
 3180SOL    HW110439   4.711   0.448   6.656
 3180SOL    HW210440   4.576   0.361   6.686
 3181SOL     OW10441   1.008   1.079   3.169
 3181SOL    HW110442   0.922   1.127   3.153
 3181SOL    HW210443   1.082   1.128   3.125
 3182SOL     OW10444   1.679   1.145   5.369
 3182SOL    HW110445   1.612   1.212   5.336
 3182SOL    HW210446   1.756   1.194   5.410
 3183SOL     OW10447   5.031   3.669   1.563
 3183SOL    HW110448   5.020   3.592   1.625
 3183SOL    HW210449   4.970   3.658   1.485
 3184SOL     OW10450   2.157   2.506   2.958
 3184SOL    HW110451   2.228   2.450   2.913
 3184SOL    HW210452   2.124   2.575   2.893
 3185SOL     OW10453   6.075   1.072   6.620
 3185SOL    HW110454   6.025   1.039   6.540
 3185SOL    HW210455   6.130   0.998   6.659
 3186SOL     OW10456   3.597   1.188   2.966
 3186SOL    HW110457   3.515   1.164   2.915
 3186SOL    HW210458   3.572   1.245   3.045
 3187SOL     OW10459   4.825   4.083   7.000
 3187SOL    HW110460   4.747   4.141   6.973
 3187SOL    HW210461   4.901   4.100   6.938
 3188SOL     OW10462   3.263   5.964   3.941
 3188SOL    HW110463   3.238   5.878   3.986
 3188SOL    HW210464   3.327   5.945   3.866
 3189SOL     OW10465   2.354   0.668   2.749
 3189SOL    HW110466   2.345   0.765   2.773
 3189SOL    HW210467   2.332   0.655   2.652
 3190SOL     OW10468   0.962   6.498   1.672
 3190SOL    HW110469   0.951   6.526   1.577
 3190SOL    HW210470   0.886   6.535   1.726
 3191SOL     OW10471   3.773   6.819   0.703
 3191SOL    HW110472   3.778   6.872   0.788
 3191SOL    HW210473   3.862   6.779   0.683
 3192SOL     OW10474   0.599   2.226   1.203
 3192SOL    HW110475   0.510   2.183   1.210
 3192SOL    HW210476   0.610   2.264   1.111
 3193SOL     OW10477   4.343   1.753   6.042
 3193SOL    HW110478   4.427   1.801   6.015
 3193SOL    HW210479   4.264   1.811   6.023
 3194SOL     OW10480   0.932   2.664   5.911
 3194SOL    HW110481   1.013   2.712   5.945
 3194SOL    HW210482   0.956   2.569   5.891
 3195SOL     OW10483   1.871   2.605   2.444
 3195SOL    HW110484   1.961   2.562   2.451
 3195SOL    HW210485   1.801   2.541   2.474
 3196SOL     OW10486   6.900   0.561   4.740
 3196SOL    HW110487   6.847   0.636   4.699
 3196SOL    HW210488   6.937   0.591   4.828
 3197SOL     OW10489   1.725   5.666   3.908
 3197SOL    HW110490   1.682   5.624   3.988
 3197SOL    HW210491   1.746   5.762   3.928
 3198SOL     OW10492   6.470   2.263   6.580
 3198SOL    HW110493   6.422   2.327   6.640
 3198SOL    HW210494   6.428   2.173   6.588
 3199SOL     OW10495   4.498   2.680   1.656
 3199SOL    HW110496   4.491   2.657   1.559
 3199SOL    HW210497   4.469   2.602   1.711
 3200SOL     OW10498   0.221   1.716   1.737
 3200SOL    HW110499   0.286   1.652   1.696
 3200SOL    HW210500   0.212   1.797   1.680
 3201SOL     OW10501   5.336   4.540   4.427
 3201SOL    HW110502   5.415   4.495   4.469
 3201SOL    HW210503   5.362   4.631   4.396
 3202SOL     OW10504   1.167   4.459   2.143
 3202SOL    HW110505   1.134   4.534   2.087
 3202SOL    HW210506   1.104   4.443   2.219
 3203SOL     OW10507   5.728   1.196   0.847
 3203SOL    HW110508   5.640   1.150   0.863
 3203SOL    HW210509   5.748   1.258   0.923
 3204SOL     OW10510   4.875   5.966   1.366
 3204SOL    HW110511   4.841   6.059   1.378
 3204SOL    HW210512   4.916   5.934   1.452
 3205SOL     OW10513   0.352   3.908   6.589
 3205SOL    HW110514   0.280   3.856   6.634
 3205SOL    HW210515   0.424   3.846   6.559
 3206SOL     OW10516   6.575   6.904   6.099
 3206SOL    HW110517   6.593   6.990   6.050
 3206SOL    HW210518   6.648   6.887   6.164
 3207SOL     OW10519   0.624   1.411   6.794
 3207SOL    HW110520   0.586   1.436   6.705
 3207SOL    HW210521   0.679   1.327   6.784
 3208SOL     OW10522   4.855   6.217   6.086
 3208SOL    HW110523   4.863   6.166   6.172
 3208SOL    HW210524   4.926   6.188   6.023
 3209SOL     OW10525   2.878   5.726   3.688
 3209SOL    HW110526   2.973   5.734   3.655
 3209SOL    HW210527   2.830   5.812   3.670
 3210SOL     OW10528   0.410   3.406   1.853
 3210SOL    HW110529   0.432   3.315   1.887
 3210SOL    HW210530   0.425   3.409   1.754
 3211SOL     OW10531   2.443   4.084   0.462
 3211SOL    HW110532   2.373   4.145   0.425
 3211SOL    HW210533   2.399   4.008   0.510
 3212SOL     OW10534   3.566   1.319   6.717
 3212SOL    HW110535   3.498   1.347   6.786
 3212SOL    HW210536   3.636   1.263   6.760
 3213SOL     OW10537   5.951   4.853   3.074
 3213SOL    HW110538   5.878   4.836   3.007
 3213SOL    HW210539   5.949   4.783   3.145
 3214SOL     OW10540   4.769   6.388   0.548
 3214SOL    HW110541   4.753   6.407   0.644
 3214SOL    HW210542   4.743   6.467   0.492
 3215SOL     OW10543   6.730   3.516   0.827
 3215SOL    HW110544   6.810   3.555   0.781
 3215SOL    HW210545   6.757   3.478   0.915
 3216SOL     OW10546   5.051   5.540   1.936
 3216SOL    HW110547   5.117   5.611   1.913
 3216SOL    HW210548   5.012   5.503   1.852
 3217SOL     OW10549   1.191   4.824   2.419
 3217SOL    HW110550   1.231   4.907   2.381
 3217SOL    HW210551   1.232   4.804   2.508
 3218SOL     OW10552   4.135   6.167   3.086
 3218SOL    HW110553   4.127   6.250   3.030
 3218SOL    HW210554   4.071   6.172   3.163
 3219SOL     OW10555   0.444   0.484   3.319
 3219SOL    HW110556   0.424   0.478   3.417
 3219SOL    HW210557   0.411   0.571   3.283
 3220SOL     OW10558   6.421   5.085   6.006
 3220SOL    HW110559   6.482   5.126   6.074
 3220SOL    HW210560   6.326   5.108   6.028
 3221SOL     OW10561   3.307   6.281   2.074
 3221SOL    HW110562   3.288   6.184   2.093
 3221SOL    HW210563   3.324   6.293   1.977
 3222SOL     OW10564   4.914   1.917   3.549
 3222SOL    HW110565   4.873   1.993   3.498
 3222SOL    HW210566   4.858   1.896   3.629
 3223SOL     OW10567   1.976   5.308   6.739
 3223SOL    HW110568   2.014   5.324   6.830
 3223SOL    HW210569   1.917   5.384   6.714
 3224SOL     OW10570   4.399   4.761   6.155
 3224SOL    HW110571   4.483   4.806   6.124
 3224SOL    HW210572   4.320   4.810   6.121
 3225SOL     OW10573   4.166   2.191   5.789
 3225SOL    HW110574   4.094   2.124   5.811
 3225SOL    HW210575   4.217   2.213   5.872
 3226SOL     OW10576   2.308   1.396   4.940
 3226SOL    HW110577   2.229   1.370   4.995
 3226SOL    HW210578   2.339   1.487   4.967
 3227SOL     OW10579   3.006   2.024   6.677
 3227SOL    HW110580   2.926   1.967   6.695
 3227SOL    HW210581   3.026   2.080   6.758
 3228SOL     OW10582   5.409   3.237   4.254
 3228SOL    HW110583   5.392   3.176   4.177
 3228SOL    HW210584   5.380   3.192   4.339
 3229SOL     OW10585   3.119   1.347   5.857
 3229SOL    HW110586   3.103   1.361   5.759
 3229SOL    HW210587   3.198   1.286   5.869
 3230SOL     OW10588   0.559   2.603   3.881
 3230SOL    HW110589   0.503   2.684   3.898
 3230SOL    HW210590   0.546   2.573   3.787
 3231SOL     OW10591   3.813   5.579   2.060
 3231SOL    HW110592   3.723   5.603   2.024
 3231SOL    HW210593   3.875   5.559   1.984
 3232SOL     OW10594   4.404   5.470   4.243
 3232SOL    HW110595   4.494   5.428   4.255
 3232SOL    HW210596   4.346   5.449   4.322
 3233SOL     OW10597   1.632   3.893   1.288
 3233SOL    HW110598   1.541   3.858   1.313
 3233SOL    HW210599   1.632   3.921   1.192
 3234SOL     OW10600   7.023   2.389   1.184
 3234SOL    HW110601   0.045   2.477   1.197
 3234SOL    HW210602   6.951   2.399   1.115
 3235SOL     OW10603   5.542   5.950   1.960
 3235SOL    HW110604   5.521   6.043   1.931
 3235SOL    HW210605   5.633   5.948   2.000
 3236SOL     OW10606   1.610   3.369   1.920
 3236SOL    HW110607   1.681   3.427   1.959
 3236SOL    HW210608   1.536   3.357   1.987
 3237SOL     OW10609   5.139   0.571   3.531
 3237SOL    HW110610   5.176   0.536   3.445
 3237SOL    HW210611   5.127   0.670   3.524
 3238SOL     OW10612   0.269   5.414   6.466
 3238SOL    HW110613   0.226   5.336   6.512
 3238SOL    HW210614   0.239   5.498   6.509
 3239SOL     OW10615   5.905   1.532   0.804
 3239SOL    HW110616   5.923   1.630   0.795
 3239SOL    HW210617   5.835   1.517   0.873
 3240SOL     OW10618   1.075   6.677   5.067
 3240SOL    HW110619   1.051   6.703   5.160
 3240SOL    HW210620   1.037   6.743   5.002
 3241SOL     OW10621   5.468   1.639   4.230
 3241SOL    HW110622   5.443   1.733   4.251
 3241SOL    HW210623   5.480   1.587   4.315
 3242SOL     OW10624   3.518   4.510   0.501
 3242SOL    HW110625   3.431   4.491   0.546
 3242SOL    HW210626   3.591   4.457   0.545
 3243SOL     OW10627   5.503   5.154   0.531
 3243SOL    HW110628   5.589   5.197   0.560
 3243SOL    HW210629   5.426   5.208   0.567
 3244SOL     OW10630   5.146   5.535   6.531
 3244SOL    HW110631   5.213   5.516   6.602
 3244SOL    HW210632   5.070   5.470   6.538
 3245SOL     OW10633   4.455   2.426   5.775
 3245SOL    HW110634   4.538   2.472   5.742
 3245SOL    HW210635   4.477   2.333   5.802
 3246SOL     OW10636   6.305   0.602   3.119
 3246SOL    HW110637   6.226   0.662   3.105
 3246SOL    HW210638   6.278   0.526   3.179
 3247SOL     OW10639   6.931   5.123   2.681
 3247SOL    HW110640   6.887   5.084   2.601
 3247SOL    HW210641   6.993   5.056   2.721
 3248SOL     OW10642   5.785   3.499   1.936
 3248SOL    HW110643   5.863   3.442   1.909
 3248SOL    HW210644   5.726   3.447   1.998
 3249SOL     OW10645   4.255   4.216   5.681
 3249SOL    HW110646   4.183   4.207   5.750
 3249SOL    HW210647   4.342   4.237   5.725
 3250SOL     OW10648   5.608   0.044   3.295
 3250SOL    HW110649   5.575   6.994   3.234
 3250SOL    HW210650   5.657   0.003   3.372
 3251SOL     OW10651   4.250   0.969   2.481
 3251SOL    HW110652   4.342   1.006   2.470
 3251SOL    HW210653   4.204   0.966   2.392
 3252SOL     OW10654   3.438   1.214   2.010
 3252SOL    HW110655   3.424   1.230   1.912
 3252SOL    HW210656   3.450   1.302   2.057
 3253SOL     OW10657   4.867   3.025   2.704
 3253SOL    HW110658   4.806   2.947   2.691
 3253SOL    HW210659   4.854   3.062   2.796
 3254SOL     OW10660   3.616   5.007   4.681
 3254SOL    HW110661   3.638   5.009   4.583
 3254SOL    HW210662   3.598   5.100   4.712
 3255SOL     OW10663   4.583   5.197   0.782
 3255SOL    HW110664   4.606   5.262   0.855
 3255SOL    HW210665   4.537   5.117   0.822
 3256SOL     OW10666   5.639   0.370   6.084
 3256SOL    HW110667   5.700   0.431   6.034
 3256SOL    HW210668   5.667   0.367   6.180
 3257SOL     OW10669   1.138   2.339   1.110
 3257SOL    HW110670   1.107   2.302   1.198
 3257SOL    HW210671   1.130   2.269   1.040
 3258SOL     OW10672   4.428   5.944   1.829
 3258SOL    HW110673   4.380   5.970   1.913
 3258SOL    HW210674   4.524   5.973   1.836
 3259SOL     OW10675   4.372   6.071   4.479
 3259SOL    HW110676   4.338   6.050   4.388
 3259SOL    HW210677   4.472   6.071   4.479
 3260SOL     OW10678   1.913   2.375   1.197
 3260SOL    HW110679   1.978   2.363   1.272
 3260SOL    HW210680   1.898   2.472   1.181
 3261SOL     OW10681   4.102   6.186   0.499
 3261SOL    HW110682   4.133   6.227   0.413
 3261SOL    HW210683   4.141   6.094   0.508
 3262SOL     OW10684   3.790   1.536   2.799
 3262SOL    HW110685   3.695   1.567   2.804
 3262SOL    HW210686   3.847   1.611   2.765
 3263SOL     OW10687   4.854   0.250   3.458
 3263SOL    HW110688   4.940   0.228   3.506
 3263SOL    HW210689   4.833   0.177   3.394
 3264SOL     OW10690   0.493   4.959   6.802
 3264SOL    HW110691   0.400   4.984   6.777
 3264SOL    HW210692   0.497   4.943   6.901
 3265SOL     OW10693   4.044   2.113   6.174
 3265SOL    HW110694   3.947   2.130   6.158
 3265SOL    HW210695   4.057   2.082   6.268
 3266SOL     OW10696   0.120   2.484   0.552
 3266SOL    HW110697   0.163   2.460   0.639
 3266SOL    HW210698   0.021   2.489   0.564
 3267SOL     OW10699   3.682   2.276   1.397
 3267SOL    HW110700   3.750   2.248   1.465
 3267SOL    HW210701   3.671   2.204   1.329
 3268SOL     OW10702   1.310   3.955   6.423
 3268SOL    HW110703   1.351   3.904   6.498
 3268SOL    HW210704   1.355   3.931   6.337
 3269SOL     OW10705   4.504   5.067   1.775
 3269SOL    HW110706   4.442   5.078   1.852
 3269SOL    HW210707   4.487   4.979   1.731
 3270SOL     OW10708   1.168   5.814   4.589
 3270SOL    HW110709   1.245   5.869   4.559
 3270SOL    HW210710   1.083   5.864   4.574
 3271SOL     OW10711   5.347   2.442   3.022
 3271SOL    HW110712   5.287   2.480   2.953
 3271SOL    HW210713   5.431   2.497   3.028
 3272SOL     OW10714   3.650   5.521   0.569
 3272SOL    HW110715   3.681   5.492   0.479
 3272SOL    HW210716   3.675   5.451   0.637
 3273SOL     OW10717   0.718   6.550   1.816
 3273SOL    HW110718   0.671   6.491   1.750
 3273SOL    HW210719   0.655   6.620   1.848
 3274SOL     OW10720   4.138   2.270   0.102
 3274SOL    HW110721   4.203   2.343   0.079
 3274SOL    HW210722   4.187   2.182   0.106
 3275SOL     OW10723   1.473   0.315   6.780
 3275SOL    HW110724   1.521   0.320   6.693
 3275SOL    HW210725   1.490   0.227   6.823
 3276SOL     OW10726   3.537   4.874   6.544
 3276SOL    HW110727   3.478   4.802   6.580
 3276SOL    HW210728   3.481   4.948   6.507
 3277SOL     OW10729   5.813   0.380   6.669
 3277SOL    HW110730   5.739   0.359   6.605
 3277SOL    HW210731   5.788   0.348   6.760
 3278SOL     OW10732   7.010   1.143   5.273
 3278SOL    HW110733   6.956   1.082   5.332
 3278SOL    HW210734   6.965   1.232   5.268
 3279SOL     OW10735   0.542   0.309   1.393
 3279SOL    HW110736   0.565   0.377   1.323
 3279SOL    HW210737   0.455   0.335   1.436
 3280SOL     OW10738   2.347   5.333   6.122
 3280SOL    HW110739   2.415   5.263   6.143
 3280SOL    HW210740   2.269   5.292   6.074
 3281SOL     OW10741   2.105   5.450   0.906
 3281SOL    HW110742   2.126   5.544   0.883
 3281SOL    HW210743   2.112   5.437   1.005
 3282SOL     OW10744   2.664   5.281   4.283
 3282SOL    HW110745   2.628   5.373   4.295
 3282SOL    HW210746   2.610   5.217   4.337
 3283SOL     OW10747   2.986   1.929   2.219
 3283SOL    HW110748   2.993   1.893   2.312
 3283SOL    HW210749   2.895   1.968   2.205
 3284SOL     OW10750   6.477   7.018   6.669
 3284SOL    HW110751   6.414   0.047   6.726
 3284SOL    HW210752   6.530   6.955   6.725
 3285SOL     OW10753   6.940   2.830   3.214
 3285SOL    HW110754   6.875   2.756   3.229
 3285SOL    HW210755   0.005   2.792   3.185
 3286SOL     OW10756   3.859   2.978   3.607
 3286SOL    HW110757   3.896   3.015   3.692
 3286SOL    HW210758   3.759   2.986   3.608
 3287SOL     OW10759   0.916   5.783   0.589
 3287SOL    HW110760   0.944   5.698   0.544
 3287SOL    HW210761   0.884   5.762   0.681
 3288SOL     OW10762   0.605   5.506   0.050
 3288SOL    HW110763   0.550   5.573   7.023
 3288SOL    HW210764   0.545   5.433   0.084
 3289SOL     OW10765   1.370   6.459   5.613
 3289SOL    HW110766   1.448   6.503   5.657
 3289SOL    HW210767   1.337   6.384   5.670
 3290SOL     OW10768   0.575   6.760   1.921
 3290SOL    HW110769   0.530   6.839   1.879
 3290SOL    HW210770   0.653   6.791   1.975
 3291SOL     OW10771   1.110   6.494   6.656
 3291SOL    HW110772   1.050   6.520   6.732
 3291SOL    HW210773   1.197   6.542   6.665
 3292SOL     OW10774   0.843   1.476   6.965
 3292SOL    HW110775   0.902   1.549   6.928
 3292SOL    HW210776   0.754   1.481   6.921
 3293SOL     OW10777   6.773   2.334   3.009
 3293SOL    HW110778   6.764   2.371   2.917
 3293SOL    HW210779   6.783   2.234   3.004
 3294SOL     OW10780   7.005   0.566   6.389
 3294SOL    HW110781   7.001   0.643   6.453
 3294SOL    HW210782   6.917   0.520   6.385
 3295SOL     OW10783   2.209   1.921   1.033
 3295SOL    HW110784   2.288   1.903   1.092
 3295SOL    HW210785   2.208   2.017   1.007
 3296SOL     OW10786   2.235   6.624   1.066
 3296SOL    HW110787   2.289   6.568   1.005
 3296SOL    HW210788   2.197   6.702   1.016
 3297SOL     OW10789   3.126   1.641   4.381
 3297SOL    HW110790   3.149   1.553   4.421
 3297SOL    HW210791   3.168   1.648   4.291
 3298SOL     OW10792   6.359   3.334   2.853
 3298SOL    HW110793   6.405   3.296   2.772
 3298SOL    HW210794   6.329   3.427   2.833
 3299SOL     OW10795   2.102   6.715   3.847
 3299SOL    HW110796   2.080   6.812   3.857
 3299SOL    HW210797   2.132   6.678   3.935
 3300SOL     OW10798   6.858   0.333   6.154
 3300SOL    HW110799   6.950   0.302   6.179
 3300SOL    HW210800   6.864   0.391   6.073
 3301SOL     OW10801   1.520   3.857   3.401
 3301SOL    HW110802   1.442   3.794   3.409
 3301SOL    HW210803   1.591   3.815   3.346
 3302SOL     OW10804   1.115   5.144   4.450
 3302SOL    HW110805   1.054   5.213   4.489
 3302SOL    HW210806   1.204   5.186   4.430
 3303SOL     OW10807   3.228   2.823   1.961
 3303SOL    HW110808   3.324   2.837   1.988
 3303SOL    HW210809   3.169   2.873   2.024
 3304SOL     OW10810   1.271   4.849   3.484
 3304SOL    HW110811   1.312   4.763   3.515
 3304SOL    HW210812   1.174   4.835   3.467
 3305SOL     OW10813   2.412   1.707   2.526
 3305SOL    HW110814   2.413   1.611   2.499
 3305SOL    HW210815   2.467   1.760   2.461
 3306SOL     OW10816   1.973   4.302   3.269
 3306SOL    HW110817   1.967   4.287   3.367
 3306SOL    HW210818   2.017   4.390   3.251
 3307SOL     OW10819   6.844   5.999   6.641
 3307SOL    HW110820   6.816   5.917   6.591
 3307SOL    HW210821   6.931   6.032   6.604
 3308SOL     OW10822   4.593   5.815   6.988
 3308SOL    HW110823   4.493   5.810   6.988
 3308SOL    HW210824   4.631   5.729   7.021
 3309SOL     OW10825   0.539   5.225   2.819
 3309SOL    HW110826   0.512   5.295   2.754
 3309SOL    HW210827   0.636   5.237   2.842
 3310SOL     OW10828   6.877   3.994   2.804
 3310SOL    HW110829   6.839   4.085   2.823
 3310SOL    HW210830   6.883   3.980   2.705
 3311SOL     OW10831   2.821   5.076   0.848
 3311SOL    HW110832   2.854   5.051   0.757
 3311SOL    HW210833   2.805   5.175   0.851
 3312SOL     OW10834   2.581   4.080   6.322
 3312SOL    HW110835   2.573   4.124   6.232
 3312SOL    HW210836   2.639   4.136   6.381
 3313SOL     OW10837   0.808   5.417   3.205
 3313SOL    HW110838   0.893   5.417   3.151
 3313SOL    HW210839   0.825   5.463   3.292
 3314SOL     OW10840   1.927   2.463   4.764
 3314SOL    HW110841   1.995   2.519   4.717
 3314SOL    HW210842   1.946   2.463   4.863
 3315SOL     OW10843   7.011   2.905   4.227
 3315SOL    HW110844   0.080   2.900   4.187
 3315SOL    HW210845   7.015   2.960   4.311
 3316SOL     OW10846   3.624   1.486   5.806
 3316SOL    HW110847   3.629   1.548   5.884
 3316SOL    HW210848   3.698   1.506   5.742
 3317SOL     OW10849   4.703   2.768   1.814
 3317SOL    HW110850   4.649   2.841   1.855
 3317SOL    HW210851   4.652   2.727   1.738
 3318SOL     OW10852   2.550   6.895   6.642
 3318SOL    HW110853   2.549   6.960   6.718
 3318SOL    HW210854   2.643   6.861   6.629
 3319SOL     OW10855   6.803   6.576   3.720
 3319SOL    HW110856   6.750   6.576   3.635
 3319SOL    HW210857   6.872   6.648   3.716
 3320SOL     OW10858   5.509   1.218   5.946
 3320SOL    HW110859   5.558   1.256   6.025
 3320SOL    HW210860   5.556   1.245   5.862
 3321SOL     OW10861   3.131   3.020   2.170
 3321SOL    HW110862   3.051   3.050   2.119
 3321SOL    HW210863   3.212   3.067   2.137
 3322SOL     OW10864   4.513   2.027   1.532
 3322SOL    HW110865   4.524   1.996   1.627
 3322SOL    HW210866   4.537   2.123   1.526
 3323SOL     OW10867   2.124   3.943   0.218
 3323SOL    HW110868   2.140   3.926   0.121
 3323SOL    HW210869   2.027   3.929   0.239
 3324SOL     OW10870   1.205   4.188   0.086
 3324SOL    HW110871   1.251   4.259   0.033
 3324SOL    HW210872   1.175   4.226   0.173
 3325SOL     OW10873   2.422   3.040   0.010
 3325SOL    HW110874   2.400   2.947   0.038
 3325SOL    HW210875   2.505   3.040   6.977
 3326SOL     OW10876   5.429   2.002   1.530
 3326SOL    HW110877   5.477   1.922   1.496
 3326SOL    HW210878   5.452   2.082   1.474
 3327SOL     OW10879   2.082   6.354   0.902
 3327SOL    HW110880   2.114   6.422   0.968
 3327SOL    HW210881   2.132   6.365   0.816
 3328SOL     OW10882   4.792   1.575   1.904
 3328SOL    HW110883   4.771   1.638   1.979
 3328SOL    HW210884   4.707   1.544   1.862
 3329SOL     OW10885   4.881   0.291   5.302
 3329SOL    HW110886   4.813   0.221   5.326
 3329SOL    HW210887   4.908   0.280   5.206
 3330SOL     OW10888   5.857   6.893   2.136
 3330SOL    HW110889   5.829   6.807   2.178
 3330SOL    HW210890   5.935   6.877   2.076
 3331SOL     OW10891   1.327   3.335   3.082
 3331SOL    HW110892   1.299   3.366   3.173
 3331SOL    HW210893   1.427   3.337   3.076
 3332SOL     OW10894   5.874   4.192   0.412
 3332SOL    HW110895   5.915   4.212   0.322
 3332SOL    HW210896   5.885   4.095   0.433
 3333SOL     OW10897   3.117   3.804   6.614
 3333SOL    HW110898   3.170   3.838   6.691
 3333SOL    HW210899   3.019   3.813   6.634
 3334SOL     OW10900   1.751   2.914   1.989
 3334SOL    HW110901   1.773   2.998   1.941
 3334SOL    HW210902   1.819   2.844   1.968
 3335SOL     OW10903   4.166   5.314   5.323
 3335SOL    HW110904   4.173   5.414   5.328
 3335SOL    HW210905   4.116   5.280   5.402
 3336SOL     OW10906   2.128   0.054   4.292
 3336SOL    HW110907   2.150   0.009   4.379
 3336SOL    HW210908   2.212   0.073   4.242
 3337SOL     OW10909   3.675   3.188   2.075
 3337SOL    HW110910   3.686   3.280   2.040
 3337SOL    HW210911   3.761   3.138   2.067
 3338SOL     OW10912   0.549   2.343   1.767
 3338SOL    HW110913   0.598   2.396   1.836
 3338SOL    HW210914   0.451   2.349   1.783
 3339SOL     OW10915   2.033   6.947   5.892
 3339SOL    HW110916   2.014   0.021   5.876
 3339SOL    HW210917   1.948   6.899   5.912
 3340SOL     OW10918   4.796   0.699   4.188
 3340SOL    HW110919   4.728   0.638   4.148
 3340SOL    HW210920   4.813   0.672   4.283
 3341SOL     OW10921   2.498   4.639   3.147
 3341SOL    HW110922   2.488   4.716   3.084
 3341SOL    HW210923   2.521   4.557   3.096
 3342SOL     OW10924   6.773   0.762   3.006
 3342SOL    HW110925   6.846   0.736   2.944
 3342SOL    HW210926   6.686   0.724   2.973
 3343SOL     OW10927   5.222   5.308   6.333
 3343SOL    HW110928   5.155   5.371   6.372
 3343SOL    HW210929   5.287   5.360   6.277
 3344SOL     OW10930   6.412   3.243   3.127
 3344SOL    HW110931   6.406   3.143   3.117
 3344SOL    HW210932   6.419   3.285   3.037
 3345SOL     OW10933   0.820   3.754   6.494
 3345SOL    HW110934   0.840   3.661   6.466
 3345SOL    HW210935   0.886   3.782   6.564
 3346SOL     OW10936   2.093   0.819   6.839
 3346SOL    HW110937   2.164   0.890   6.842
 3346SOL    HW210938   2.127   0.736   6.883
 3347SOL     OW10939   1.242   2.390   6.013
 3347SOL    HW110940   1.283   2.419   5.926
 3347SOL    HW210941   1.263   2.458   6.083
 3348SOL     OW10942   4.059   3.836   5.732
 3348SOL    HW110943   4.029   3.927   5.702
 3348SOL    HW210944   3.979   3.782   5.758
 3349SOL     OW10945   1.999   4.287   3.546
 3349SOL    HW110946   2.070   4.273   3.616
 3349SOL    HW210947   1.943   4.204   3.540
 3350SOL     OW10948   1.049   3.848   5.864
 3350SOL    HW110949   1.004   3.933   5.891
 3350SOL    HW210950   1.146   3.866   5.847
 3351SOL     OW10951   5.733   1.070   1.531
 3351SOL    HW110952   5.761   1.027   1.445
 3351SOL    HW210953   5.747   1.169   1.525
 3352SOL     OW10954   5.118   2.902   0.484
 3352SOL    HW110955   5.169   2.835   0.431
 3352SOL    HW210956   5.176   2.939   0.556
 3353SOL     OW10957   2.001   0.200   0.599
 3353SOL    HW110958   2.037   0.267   0.534
 3353SOL    HW210959   2.024   0.108   0.567
 3354SOL     OW10960   4.041   3.209   5.108
 3354SOL    HW110961   3.968   3.168   5.054
 3354SOL    HW210962   4.095   3.136   5.151
 3355SOL     OW10963   2.424   1.558   5.841
 3355SOL    HW110964   2.350   1.501   5.804
 3355SOL    HW210965   2.508   1.541   5.790
 3356SOL     OW10966   0.684   6.691   6.318
 3356SOL    HW110967   0.646   6.704   6.226
 3356SOL    HW210968   0.774   6.647   6.311
 3357SOL     OW10969   3.278   3.706   1.386
 3357SOL    HW110970   3.354   3.709   1.452
 3357SOL    HW210971   3.214   3.780   1.406
 3358SOL     OW10972   5.632   1.306   3.324
 3358SOL    HW110973   5.636   1.405   3.340
 3358SOL    HW210974   5.548   1.270   3.365
 3359SOL     OW10975   0.225   4.993   3.744
 3359SOL    HW110976   0.285   5.071   3.760
 3359SOL    HW210977   0.235   4.962   3.649
 3360SOL     OW10978   0.982   2.257   6.496
 3360SOL    HW110979   1.027   2.199   6.563
 3360SOL    HW210980   1.044   2.276   6.420
 3361SOL     OW10981   0.810   0.202   4.590
 3361SOL    HW110982   0.902   0.168   4.570
 3361SOL    HW210983   0.811   0.254   4.675
 3362SOL     OW10984   4.247   1.627   3.449
 3362SOL    HW110985   4.159   1.603   3.490
 3362SOL    HW210986   4.271   1.721   3.473
 3363SOL     OW10987   6.983   3.298   2.029
 3363SOL    HW110988   6.913   3.227   2.032
 3363SOL    HW210989   6.942   3.384   2.001
 3364SOL     OW10990   1.266   4.452   2.501
 3364SOL    HW110991   1.336   4.471   2.432
 3364SOL    HW210992   1.302   4.472   2.592
 3365SOL     OW10993   2.041   2.827   4.528
 3365SOL    HW110994   2.074   2.747   4.478
 3365SOL    HW210995   2.112   2.896   4.531
 3366SOL     OW10996   6.356   4.101   3.702
 3366SOL    HW110997   6.399   4.179   3.746
 3366SOL    HW210998   6.369   4.019   3.757
 3367SOL     OW10999   3.252   3.385   3.863
 3367SOL    HW111000   3.275   3.381   3.765
 3367SOL    HW211001   3.336   3.377   3.917
 3368SOL     OW11002   0.634   5.879   6.781
 3368SOL    HW111003   0.708   5.879   6.848
 3368SOL    HW211004   0.653   5.812   6.709
 3369SOL     OW11005   4.594   1.799   1.396
 3369SOL    HW111006   4.554   1.882   1.434
 3369SOL    HW211007   4.661   1.823   1.326
 3370SOL     OW11008   6.055   6.759   1.986
 3370SOL    HW111009   6.101   6.726   2.069
 3370SOL    HW211010   6.104   6.725   1.905
 3371SOL     OW11011   2.213   3.734   1.835
 3371SOL    HW111012   2.154   3.738   1.755
 3371SOL    HW211013   2.247   3.641   1.846
 3372SOL     OW11014   6.529   2.345   0.429
 3372SOL    HW111015   6.555   2.439   0.453
 3372SOL    HW211016   6.578   2.317   0.347
 3373SOL     OW11017   0.597   1.969   2.256
 3373SOL    HW111018   0.498   1.964   2.242
 3373SOL    HW211019   0.615   2.014   2.344
 3374SOL     OW11020   0.725   0.257   3.699
 3374SOL    HW111021   0.772   0.298   3.621
 3374SOL    HW211022   0.750   0.160   3.706
 3375SOL     OW11023   6.795   4.430   0.536
 3375SOL    HW111024   6.833   4.338   0.544
 3375SOL    HW211025   6.696   4.426   0.544
 3376SOL     OW11026   2.944   3.589   5.201
 3376SOL    HW111027   2.914   3.508   5.150
 3376SOL    HW211028   2.872   3.616   5.266
 3377SOL     OW11029   6.689   5.461   4.318
 3377SOL    HW111030   6.738   5.519   4.383
 3377SOL    HW211031   6.714   5.365   4.332
 3378SOL     OW11032   0.283   0.154   0.054
 3378SOL    HW111033   0.243   0.231   0.103
 3378SOL    HW211034   0.211   0.090   0.027
 3379SOL     OW11035   0.826   2.769   4.751
 3379SOL    HW111036   0.773   2.690   4.721
 3379SOL    HW211037   0.763   2.841   4.781
 3380SOL     OW11038   4.187   4.880   5.595
 3380SOL    HW111039   4.221   4.801   5.545
 3380SOL    HW211040   4.201   4.963   5.540
 3381SOL     OW11041   0.340   2.861   1.738
 3381SOL    HW111042   0.439   2.850   1.751
 3381SOL    HW211043   0.305   2.784   1.685
 3382SOL     OW11044   0.338   3.218   0.934
 3382SOL    HW111045   0.400   3.140   0.949
 3382SOL    HW211046   0.253   3.185   0.893
 3383SOL     OW11047   3.457   5.078   0.114
 3383SOL    HW111048   3.501   5.007   0.169
 3383SOL    HW211049   3.518   5.157   0.106
 3384SOL     OW11050   2.807   4.663   1.080
 3384SOL    HW111051   2.887   4.604   1.087
 3384SOL    HW211052   2.760   4.669   1.168
 3385SOL     OW11053   6.515   3.071   3.870
 3385SOL    HW111054   6.479   3.078   3.963
 3385SOL    HW211055   6.572   2.990   3.863
 3386SOL     OW11056   6.488   4.694   0.213
 3386SOL    HW111057   6.467   4.606   0.170
 3386SOL    HW211058   6.406   4.729   0.259
 3387SOL     OW11059   4.890   0.776   2.981
 3387SOL    HW111060   4.856   0.866   2.953
 3387SOL    HW211061   4.827   0.735   3.047
 3388SOL     OW11062   5.090   4.511   1.360
 3388SOL    HW111063   5.058   4.447   1.291
 3388SOL    HW211064   5.102   4.464   1.447
 3389SOL     OW11065   6.546   5.573   6.862
 3389SOL    HW111066   6.512   5.662   6.894
 3389SOL    HW211067   6.477   5.503   6.881
 3390SOL     OW11068   4.212   6.345   6.247
 3390SOL    HW111069   4.169   6.296   6.322
 3390SOL    HW211070   4.215   6.286   6.166
 3391SOL     OW11071   5.370   2.042   3.204
 3391SOL    HW111072   5.343   2.136   3.222
 3391SOL    HW211073   5.291   1.982   3.214
 3392SOL     OW11074   3.222   6.965   4.310
 3392SOL    HW111075   3.218   6.994   4.406
 3392SOL    HW211076   3.180   6.875   4.301
 3393SOL     OW11077   4.967   6.848   0.107
 3393SOL    HW111078   5.033   6.912   0.147
 3393SOL    HW211079   5.015   6.783   0.049
 3394SOL     OW11080   3.784   5.136   0.640
 3394SOL    HW111081   3.756   5.203   0.709
 3394SOL    HW211082   3.854   5.176   0.580
 3395SOL     OW11083   4.845   1.597   3.260
 3395SOL    HW111084   4.867   1.692   3.239
 3395SOL    HW211085   4.831   1.546   3.176
 3396SOL     OW11086   5.144   0.845   3.524
 3396SOL    HW111087   5.158   0.886   3.614
 3396SOL    HW211088   5.070   0.892   3.477
 3397SOL     OW11089   2.368   6.050   5.966
 3397SOL    HW111090   2.389   6.128   6.026
 3397SOL    HW211091   2.422   5.971   5.995
 3398SOL     OW11092   0.568   0.712   5.548
 3398SOL    HW111093   0.606   0.752   5.632
 3398SOL    HW211094   0.548   0.785   5.483
 3399SOL     OW11095   6.605   5.061   3.227
 3399SOL    HW111096   6.594   5.004   3.308
 3399SOL    HW211097   6.681   5.026   3.172
 3400SOL     OW11098   6.276   3.501   6.243
 3400SOL    HW111099   6.310   3.567   6.176
 3400SOL    HW211100   6.265   3.546   6.331
 3401SOL     OW11101   6.387   3.728   6.080
 3401SOL    HW111102   6.434   3.798   6.027
 3401SOL    HW211103   6.372   3.647   6.024
 3402SOL     OW11104   6.655   5.648   0.945
 3402SOL    HW111105   6.732   5.589   0.970
 3402SOL    HW211106   6.571   5.594   0.942
 3403SOL     OW11107   4.850   5.428   6.084
 3403SOL    HW111108   4.859   5.336   6.045
 3403SOL    HW211109   4.788   5.425   6.162
 3404SOL     OW11110   5.051   2.984   6.410
 3404SOL    HW111111   5.116   3.051   6.374
 3404SOL    HW211112   4.983   2.963   6.340
 3405SOL     OW11113   5.798   5.282   6.117
 3405SOL    HW111114   5.761   5.320   6.032
 3405SOL    HW211115   5.751   5.323   6.195
 3406SOL     OW11116   2.166   3.755   2.541
 3406SOL    HW111117   2.229   3.758   2.464
 3406SOL    HW211118   2.154   3.846   2.579
 3407SOL     OW11119   2.499   4.528   0.520
 3407SOL    HW111120   2.540   4.581   0.594
 3407SOL    HW211121   2.422   4.475   0.554
 3408SOL     OW11122   4.709   2.774   4.457
 3408SOL    HW111123   4.673   2.746   4.368
 3408SOL    HW211124   4.716   2.694   4.516
 3409SOL     OW11125   3.293   6.359   0.515
 3409SOL    HW111126   3.268   6.377   0.420
 3409SOL    HW211127   3.233   6.288   0.553
 3410SOL     OW11128   5.622   6.407   2.790
 3410SOL    HW111129   5.582   6.337   2.730
 3410SOL    HW211130   5.719   6.388   2.802
 3411SOL     OW11131   0.258   2.697   0.448
 3411SOL    HW111132   0.204   2.632   0.502
 3411SOL    HW211133   0.236   2.687   0.351
 3412SOL     OW11134   5.177   3.954   1.199
 3412SOL    HW111135   5.220   3.958   1.289
 3412SOL    HW211136   5.085   3.917   1.207
 3413SOL     OW11137   6.333   2.010   6.636
 3413SOL    HW111138   6.354   2.032   6.731
 3413SOL    HW211139   6.235   2.023   6.619
 3414SOL     OW11140   3.393   2.160   6.120
 3414SOL    HW111141   3.450   2.120   6.192
 3414SOL    HW211142   3.306   2.110   6.115
 3415SOL     OW11143   1.815   1.983   4.154
 3415SOL    HW111144   1.907   2.021   4.163
 3415SOL    HW211145   1.788   1.940   4.241
 3416SOL     OW11146   6.295   0.108   6.866
 3416SOL    HW111147   6.321   0.014   6.889
 3416SOL    HW211148   6.201   0.125   6.896
 3417SOL     OW11149   0.517   0.004   2.556
 3417SOL    HW111150   0.607   7.001   2.518
 3417SOL    HW211151   0.530   0.071   2.629
 3418SOL     OW11152   3.613   5.483   3.320
 3418SOL    HW111153   3.560   5.566   3.337
 3418SOL    HW211154   3.699   5.487   3.371
 3419SOL     OW11155   4.150   5.488   6.053
 3419SOL    HW111156   4.075   5.475   6.117
 3419SOL    HW211157   4.234   5.510   6.104
 3420SOL     OW11158   4.831   2.956   4.215
 3420SOL    HW111159   4.827   2.891   4.139
 3420SOL    HW211160   4.748   2.948   4.271
 3421SOL     OW11161   5.435   1.456   3.168
 3421SOL    HW111162   5.471   1.502   3.249
 3421SOL    HW211163   5.473   1.499   3.086
 3422SOL     OW11164   2.492   0.334   0.269
 3422SOL    HW111165   2.451   0.258   0.220
 3422SOL    HW211166   2.521   0.404   0.203
 3423SOL     OW11167   0.737   4.084   6.060
 3423SOL    HW111168   0.785   4.018   6.117
 3423SOL    HW211169   0.745   4.175   6.099
 3424SOL     OW11170   4.120   0.159   1.504
 3424SOL    HW111171   4.034   0.210   1.511
 3424SOL    HW211172   4.142   0.143   1.408
 3425SOL     OW11173   4.425   4.854   1.634
 3425SOL    HW111174   4.458   4.816   1.548
 3425SOL    HW211175   4.419   4.781   1.702
 3426SOL     OW11176   5.095   3.264   0.806
 3426SOL    HW111177   5.013   3.314   0.835
 3426SOL    HW211178   5.116   3.288   0.711
 3427SOL     OW11179   0.585   2.233   2.174
 3427SOL    HW111180   0.649   2.266   2.105
 3427SOL    HW211181   0.606   2.137   2.195
 3428SOL     OW11182   4.992   4.624   5.911
 3428SOL    HW111183   4.910   4.618   5.855
 3428SOL    HW211184   5.040   4.709   5.890
 3429SOL     OW11185   0.781   1.095   1.231
 3429SOL    HW111186   0.874   1.087   1.267
 3429SOL    HW211187   0.781   1.063   1.136
 3430SOL     OW11188   2.012   5.042   6.172
 3430SOL    HW111189   1.918   5.073   6.158
 3430SOL    HW211190   2.074   5.092   6.112
 3431SOL     OW11191   1.885   6.785   2.114
 3431SOL    HW111192   1.856   6.748   2.026
 3431SOL    HW211193   1.984   6.779   2.123
 3432SOL     OW11194   2.331   4.757   6.269
 3432SOL    HW111195   2.394   4.701   6.323
 3432SOL    HW211196   2.238   4.723   6.280
 3433SOL     OW11197   2.143   1.073   6.461
 3433SOL    HW111198   2.231   1.113   6.486
 3433SOL    HW211199   2.137   0.980   6.497
 3434SOL     OW11200   2.849   2.103   1.945
 3434SOL    HW111201   2.929   2.082   1.889
 3434SOL    HW211202   2.868   2.183   2.002
 3435SOL     OW11203   2.214   1.290   0.465
 3435SOL    HW111204   2.180   1.213   0.519
 3435SOL    HW211205   2.275   1.345   0.522
 3436SOL     OW11206   4.328   5.280   6.988
 3436SOL    HW111207   4.280   5.196   7.013
 3436SOL    HW211208   4.340   5.337   0.046
 3437SOL     OW11209   1.435   6.806   5.740
 3437SOL    HW111210   1.508   6.794   5.673
 3437SOL    HW211211   1.416   6.719   5.786
 3438SOL     OW11212   0.393   3.959   1.501
 3438SOL    HW111213   0.331   3.978   1.424
 3438SOL    HW211214   0.486   3.949   1.466
 3439SOL     OW11215   2.587   5.599   3.422
 3439SOL    HW111216   2.592   5.551   3.510
 3439SOL    HW211217   2.535   5.684   3.434
 3440SOL     OW11218   4.048   3.801   3.950
 3440SOL    HW111219   4.026   3.703   3.946
 3440SOL    HW211220   4.133   3.814   4.000
 3441SOL     OW11221   0.234   6.463   6.295
 3441SOL    HW111222   0.147   6.442   6.249
 3441SOL    HW211223   0.288   6.524   6.238
 3442SOL     OW11224   3.256   3.364   0.520
 3442SOL    HW111225   3.204   3.292   0.566
 3442SOL    HW211226   3.314   3.324   0.450
 3443SOL     OW11227   3.237   5.320   2.391
 3443SOL    HW111228   3.184   5.279   2.317
 3443SOL    HW211229   3.204   5.412   2.408
 3444SOL     OW11230   5.171   4.778   1.241
 3444SOL    HW111231   5.161   4.680   1.257
 3444SOL    HW211232   5.198   4.823   1.326
 3445SOL     OW11233   0.136   5.294   4.053
 3445SOL    HW111234   0.230   5.265   4.035
 3445SOL    HW211235   0.074   5.217   4.038
 3446SOL     OW11236   5.737   0.229   1.487
 3446SOL    HW111237   5.766   0.273   1.572
 3446SOL    HW211238   5.804   0.249   1.415
 3447SOL     OW11239   5.432   1.104   0.134
 3447SOL    HW111240   5.409   1.012   0.167
 3447SOL    HW211241   5.351   1.162   0.139
 3448SOL     OW11242   2.107   6.458   5.765
 3448SOL    HW111243   2.075   6.435   5.673
 3448SOL    HW211244   2.155   6.546   5.761
 3449SOL     OW11245   5.348   5.230   5.250
 3449SOL    HW111246   5.331   5.273   5.338
 3449SOL    HW211247   5.365   5.133   5.262
 3450SOL     OW11248   1.586   0.658   6.656
 3450SOL    HW111249   1.641   0.591   6.705
 3450SOL    HW211250   1.606   0.750   6.690
 3451SOL     OW11251   1.714   5.725   0.664
 3451SOL    HW111252   1.662   5.808   0.688
 3451SOL    HW211253   1.650   5.652   0.642
 3452SOL     OW11254   6.048   0.807   5.920
 3452SOL    HW111255   6.030   0.717   5.878
 3452SOL    HW211256   6.108   0.795   5.999
 3453SOL     OW11257   5.297   6.606   6.377
 3453SOL    HW111258   5.216   6.579   6.324
 3453SOL    HW211259   5.379   6.591   6.323
 3454SOL     OW11260   1.461   3.096   4.095
 3454SOL    HW111261   1.499   3.183   4.065
 3454SOL    HW211262   1.372   3.112   4.138
 3455SOL     OW11263   2.344   1.791   4.660
 3455SOL    HW111264   2.277   1.719   4.640
 3455SOL    HW211265   2.333   1.866   4.596
 3456SOL     OW11266   4.481   4.535   2.046
 3456SOL    HW111267   4.490   4.446   2.001
 3456SOL    HW211268   4.571   4.567   2.075
 3457SOL     OW11269   3.886   5.158   4.991
 3457SOL    HW111270   3.971   5.207   5.006
 3457SOL    HW211271   3.809   5.213   5.024
 3458SOL     OW11272   4.684   2.147   2.389
 3458SOL    HW111273   4.595   2.191   2.378
 3458SOL    HW211274   4.756   2.213   2.369
 3459SOL     OW11275   5.311   1.732   3.683
 3459SOL    HW111276   5.349   1.730   3.590
 3459SOL    HW211277   5.385   1.718   3.749
 3460SOL     OW11278   3.498   1.822   5.317
 3460SOL    HW111279   3.399   1.834   5.322
 3460SOL    HW211280   3.543   1.886   5.378
 3461SOL     OW11281   5.836   5.075   6.931
 3461SOL    HW111282   5.830   4.999   6.867
 3461SOL    HW211283   5.834   5.162   6.880
 3462SOL     OW11284   1.512   3.672   5.986
 3462SOL    HW111285   1.479   3.740   5.921
 3462SOL    HW211286   1.464   3.586   5.972
 3463SOL     OW11287   0.516   3.879   1.119
 3463SOL    HW111288   0.567   3.829   1.189
 3463SOL    HW211289   0.528   3.835   1.030
 3464SOL     OW11290   0.487   4.335   6.885
 3464SOL    HW111291   0.498   4.317   6.787
 3464SOL    HW211292   0.560   4.394   6.917
 3465SOL     OW11293   2.124   1.726   1.763
 3465SOL    HW111294   2.116   1.627   1.779
 3465SOL    HW211295   2.056   1.753   1.695
 3466SOL     OW11296   6.552   5.411   5.716
 3466SOL    HW111297   6.641   5.416   5.760
 3466SOL    HW211298   6.552   5.469   5.634
 3467SOL     OW11299   2.070   1.843   6.697
 3467SOL    HW111300   2.166   1.823   6.677
 3467SOL    HW211301   2.054   1.837   6.796
 3468SOL     OW11302   2.984   5.198   2.915
 3468SOL    HW111303   2.893   5.164   2.890
 3468SOL    HW211304   2.981   5.297   2.926
 3469SOL     OW11305   6.259   2.419   4.260
 3469SOL    HW111306   6.307   2.416   4.172
 3469SOL    HW211307   6.164   2.447   4.246
 3470SOL     OW11308   0.722   5.132   1.095
 3470SOL    HW111309   0.678   5.042   1.094
 3470SOL    HW211310   0.754   5.152   1.188
 3471SOL     OW11311   4.592   5.344   5.110
 3471SOL    HW111312   4.511   5.385   5.151
 3471SOL    HW211313   4.674   5.391   5.144
 3472SOL     OW11314   2.287   1.296   3.968
 3472SOL    HW111315   2.326   1.243   3.893
 3472SOL    HW211316   2.247   1.234   4.036
 3473SOL     OW11317   5.341   1.877   5.935
 3473SOL    HW111318   5.396   1.945   5.888
 3473SOL    HW211319   5.273   1.923   5.992
 3474SOL     OW11320   2.984   4.730   1.438
 3474SOL    HW111321   3.001   4.829   1.446
 3474SOL    HW211322   2.925   4.701   1.513
 3475SOL     OW11323   1.063   6.868   3.833
 3475SOL    HW111324   1.130   6.887   3.905
 3475SOL    HW211325   1.047   6.769   3.828
 3476SOL     OW11326   3.845   0.408   4.948
 3476SOL    HW111327   3.850   0.310   4.970
 3476SOL    HW211328   3.938   0.443   4.938
 3477SOL     OW11329   3.305   5.272   1.004
 3477SOL    HW111330   3.331   5.363   0.970
 3477SOL    HW211331   3.379   5.208   0.985
 3478SOL     OW11332   1.967   6.365   5.522
 3478SOL    HW111333   1.901   6.387   5.451
 3478SOL    HW211334   1.980   6.266   5.526
 3479SOL     OW11335   0.487   0.031   2.917
 3479SOL    HW111336   0.506   6.973   2.862
 3479SOL    HW211337   0.483   0.112   2.858
 3480SOL     OW11338   0.014   1.382   4.271
 3480SOL    HW111339   6.965   1.360   4.205
 3480SOL    HW211340   0.014   1.313   4.344
 3481SOL     OW11341   4.317   6.934   6.075
 3481SOL    HW111342   4.275   6.852   6.036
 3481SOL    HW211343   4.321   6.926   6.175
 3482SOL     OW11344   5.573   1.799   1.443
 3482SOL    HW111345   5.633   1.752   1.508
 3482SOL    HW211346   5.628   1.856   1.381
 3483SOL     OW11347   2.551   0.582   0.891
 3483SOL    HW111348   2.492   0.519   0.941
 3483SOL    HW211349   2.495   0.640   0.832
 3484SOL     OW11350   3.088   3.143   2.803
 3484SOL    HW111351   3.131   3.103   2.722
 3484SOL    HW211352   3.019   3.210   2.775
 3485SOL     OW11353   2.023   1.170   4.888
 3485SOL    HW111354   2.078   1.099   4.931
 3485SOL    HW211355   1.940   1.187   4.943
 3486SOL     OW11356   3.685   1.426   2.328
 3486SOL    HW111357   3.733   1.500   2.376
 3486SOL    HW211358   3.691   1.342   2.382
 3487SOL     OW11359   5.669   1.968   6.751
 3487SOL    HW111360   5.623   1.895   6.801
 3487SOL    HW211361   5.605   2.005   6.683
 3488SOL     OW11362   6.360   3.099   4.088
 3488SOL    HW111363   6.363   3.023   4.153
 3488SOL    HW211364   6.299   3.171   4.124
 3489SOL     OW11365   2.959   0.021   0.600
 3489SOL    HW111366   3.029   0.091   0.611
 3489SOL    HW211367   2.942   0.004   0.503
 3490SOL     OW11368   4.845   4.208   0.277
 3490SOL    HW111369   4.893   4.132   0.319
 3490SOL    HW211370   4.747   4.188   0.275
 3491SOL     OW11371   6.885   2.908   5.439
 3491SOL    HW111372   6.859   2.987   5.384
 3491SOL    HW211373   6.808   2.844   5.445
 3492SOL     OW11374   0.850   5.614   0.065
 3492SOL    HW111375   0.880   5.588   6.997
 3492SOL    HW211376   0.761   5.571   0.084
 3493SOL     OW11377   6.141   4.874   0.614
 3493SOL    HW111378   6.094   4.943   0.559
 3493SOL    HW211379   6.228   4.911   0.646
 3494SOL     OW11380   4.098   6.847   0.437
 3494SOL    HW111381   4.101   6.937   0.481
 3494SOL    HW211382   4.191   6.809   0.434
 3495SOL     OW11383   4.247   4.653   2.102
 3495SOL    HW111384   4.196   4.568   2.106
 3495SOL    HW211385   4.343   4.634   2.082
 3496SOL     OW11386   1.254   3.241   1.536
 3496SOL    HW111387   1.324   3.248   1.607
 3496SOL    HW211388   1.180   3.305   1.556
 3497SOL     OW11389   3.984   0.510   3.104
 3497SOL    HW111390   4.029   0.592   3.068
 3497SOL    HW211391   3.985   0.438   3.035
 3498SOL     OW11392   2.987   1.893   1.248
 3498SOL    HW111393   3.020   1.808   1.289
 3498SOL    HW211394   2.888   1.897   1.252
 3499SOL     OW11395   6.819   3.532   4.764
 3499SOL    HW111396   6.785   3.543   4.671
 3499SOL    HW211397   6.918   3.542   4.765
 3500SOL     OW11398   6.878   4.339   6.215
 3500SOL    HW111399   6.788   4.383   6.207
 3500SOL    HW211400   6.949   4.405   6.191
 3501SOL     OW11401   0.236   4.553   4.966
 3501SOL    HW111402   0.281   4.488   5.028
 3501SOL    HW211403   0.246   4.645   5.003
 3502SOL     OW11404   0.274   2.015   1.879
 3502SOL    HW111405   0.292   2.087   1.945
 3502SOL    HW211406   0.308   1.928   1.915
 3503SOL     OW11407   4.804   6.073   5.146
 3503SOL    HW111408   4.718   6.025   5.164
 3503SOL    HW211409   4.858   6.078   5.231
 3504SOL     OW11410   2.619   3.440   1.060
 3504SOL    HW111411   2.623   3.347   1.025
 3504SOL    HW211412   2.671   3.447   1.145
 3505SOL     OW11413   5.119   5.854   5.028
 3505SOL    HW111414   5.119   5.911   5.110
 3505SOL    HW211415   5.155   5.907   4.951
 3506SOL     OW11416   4.142   5.773   4.851
 3506SOL    HW111417   4.203   5.836   4.803
 3506SOL    HW211418   4.091   5.719   4.785
 3507SOL     OW11419   1.325   0.672   6.589
 3507SOL    HW111420   1.287   0.712   6.673
 3507SOL    HW211421   1.425   0.669   6.595
 3508SOL     OW11422   5.014   2.435   6.849
 3508SOL    HW111423   4.916   2.447   6.837
 3508SOL    HW211424   5.033   2.393   6.937
 3509SOL     OW11425   6.111   6.137   0.118
 3509SOL    HW111426   6.164   6.117   0.035
 3509SOL    HW211427   6.082   6.232   0.116
 3510SOL     OW11428   1.703   2.354   2.046
 3510SOL    HW111429   1.652   2.435   2.075
 3510SOL    HW211430   1.648   2.301   1.981
 3511SOL     OW11431   1.379   3.531   7.022
 3511SOL    HW111432   1.325   3.517   0.083
 3511SOL    HW211433   1.356   3.620   6.982
 3512SOL     OW11434   0.892   3.935   0.400
 3512SOL    HW111435   0.888   3.839   0.428
 3512SOL    HW211436   0.851   3.945   0.309
 3513SOL     OW11437   6.552   4.468   0.695
 3513SOL    HW111438   6.466   4.417   0.688
 3513SOL    HW211439   6.610   4.427   0.766
 3514SOL     OW11440   0.329   6.582   1.395
 3514SOL    HW111441   0.334   6.677   1.364
 3514SOL    HW211442   0.386   6.524   1.337
 3515SOL     OW11443   3.406   5.621   2.593
 3515SOL    HW111444   3.461   5.678   2.654
 3515SOL    HW211445   3.463   5.550   2.553
 3516SOL     OW11446   3.250   0.550   0.576
 3516SOL    HW111447   3.162   0.588   0.547
 3516SOL    HW211448   3.235   0.482   0.647
 3517SOL     OW11449   0.621   1.629   0.376
 3517SOL    HW111450   0.650   1.546   0.328
 3517SOL    HW211451   0.672   1.707   0.342
 3518SOL     OW11452   5.028   3.970   6.193
 3518SOL    HW111453   4.948   3.946   6.139
 3518SOL    HW211454   5.086   3.890   6.205
 3519SOL     OW11455   0.881   6.391   6.787
 3519SOL    HW111456   0.787   6.386   6.753
 3519SOL    HW211457   0.929   6.305   6.765
 3520SOL     OW11458   4.209   4.362   1.237
 3520SOL    HW111459   4.178   4.322   1.151
 3520SOL    HW211460   4.145   4.338   1.310
 3521SOL     OW11461   5.487   3.010   1.567
 3521SOL    HW111462   5.468   2.955   1.648
 3521SOL    HW211463   5.488   3.107   1.592
 3522SOL     OW11464   2.884   5.230   1.966
 3522SOL    HW111465   2.970   5.194   2.003
 3522SOL    HW211466   2.860   5.314   2.015
 3523SOL     OW11467   3.143   4.697   5.234
 3523SOL    HW111468   3.064   4.647   5.197
 3523SOL    HW211469   3.168   4.771   5.172
 3524SOL     OW11470   2.837   0.597   0.728
 3524SOL    HW111471   2.771   0.525   0.705
 3524SOL    HW211472   2.881   0.575   0.815
 3525SOL     OW11473   0.134   3.300   1.820
 3525SOL    HW111474   0.072   3.303   1.898
 3525SOL    HW211475   0.210   3.362   1.835
 3526SOL     OW11476   1.333   0.560   3.474
 3526SOL    HW111477   1.388   0.582   3.555
 3526SOL    HW211478   1.256   0.623   3.469
 3527SOL     OW11479   5.202   2.545   6.395
 3527SOL    HW111480   5.102   2.532   6.393
 3527SOL    HW211481   5.229   2.603   6.318
 3528SOL     OW11482   1.169   6.054   2.927
 3528SOL    HW111483   1.188   6.147   2.958
 3528SOL    HW211484   1.128   6.001   3.001
 3529SOL     OW11485   4.286   6.374   5.798
 3529SOL    HW111486   4.281   6.317   5.716
 3529SOL    HW211487   4.352   6.449   5.782
 3530SOL     OW11488   2.713   5.783   2.665
 3530SOL    HW111489   2.745   5.810   2.756
 3530SOL    HW211490   2.678   5.864   2.617
 3531SOL     OW11491   5.290   4.116   0.245
 3531SOL    HW111492   5.355   4.181   0.205
 3531SOL    HW211493   5.203   4.122   0.196
 3532SOL     OW11494   2.415   0.644   0.208
 3532SOL    HW111495   2.417   0.665   0.306
 3532SOL    HW211496   2.508   0.642   0.173
 3533SOL     OW11497   0.882   2.167   3.479
 3533SOL    HW111498   0.915   2.196   3.390
 3533SOL    HW211499   0.853   2.247   3.532
 3534SOL     OW11500   5.916   1.816   5.084
 3534SOL    HW111501   5.983   1.870   5.033
 3534SOL    HW211502   5.891   1.864   5.168
 3535SOL     OW11503   6.808   5.510   6.756
 3535SOL    HW111504   6.799   5.507   6.656
 3535SOL    HW211505   6.726   5.550   6.795
 3536SOL     OW11506   1.607   3.108   3.710
 3536SOL    HW111507   1.652   3.168   3.644
 3536SOL    HW211508   1.671   3.087   3.785
 3537SOL     OW11509   2.981   4.878   0.943
 3537SOL    HW111510   2.932   4.962   0.918
 3537SOL    HW211511   2.917   4.813   0.985
 3538SOL     OW11512   2.832   0.114   3.620
 3538SOL    HW111513   2.898   0.149   3.686
 3538SOL    HW211514   2.782   0.037   3.661
 3539SOL     OW11515   5.778   4.024   5.400
 3539SOL    HW111516   5.853   4.082   5.367
 3539SOL    HW211517   5.749   3.962   5.327
 3540SOL     OW11518   1.911   3.126   6.896
 3540SOL    HW111519   1.923   3.212   6.848
 3540SOL    HW211520   1.996   3.100   6.941
 3541SOL     OW11521   2.484   3.082   0.479
 3541SOL    HW111522   2.443   3.172   0.493
 3541SOL    HW211523   2.579   3.092   0.450
 3542SOL     OW11524   5.819   2.884   6.917
 3542SOL    HW111525   5.900   2.860   6.863
 3542SOL    HW211526   5.737   2.848   6.872
 3543SOL     OW11527   1.404   3.439   3.598
 3543SOL    HW111528   1.375   3.524   3.642
 3543SOL    HW211529   1.357   3.362   3.639
 3544SOL     OW11530   3.184   4.292   6.619
 3544SOL    HW111531   3.171   4.390   6.599
 3544SOL    HW211532   3.152   4.272   6.711
 3545SOL     OW11533   3.507   5.366   0.220
 3545SOL    HW111534   3.479   5.439   0.158
 3545SOL    HW211535   3.428   5.330   0.269
 3546SOL     OW11536   6.638   4.382   3.238
 3546SOL    HW111537   6.697   4.384   3.158
 3546SOL    HW211538   6.563   4.317   3.223
 3547SOL     OW11539   6.749   3.189   4.842
 3547SOL    HW111540   6.804   3.130   4.782
 3547SOL    HW211541   6.774   3.284   4.827
 3548SOL     OW11542   4.888   1.486   6.245
 3548SOL    HW111543   4.814   1.444   6.193
 3548SOL    HW211544   4.863   1.579   6.271
 3549SOL     OW11545   1.920   5.663   6.410
 3549SOL    HW111546   1.923   5.564   6.422
 3549SOL    HW211547   1.877   5.705   6.490
 3550SOL     OW11548   4.913   2.330   5.193
 3550SOL    HW111549   4.859   2.372   5.120
 3550SOL    HW211550   5.009   2.327   5.165
 3551SOL     OW11551   3.607   1.621   5.485
 3551SOL    HW111552   3.547   1.656   5.413
 3551SOL    HW211553   3.639   1.530   5.460
 3552SOL     OW11554   6.523   5.484   1.389
 3552SOL    HW111555   6.559   5.392   1.405
 3552SOL    HW211556   6.594   5.552   1.409
 3553SOL     OW11557   3.212   6.000   6.146
 3553SOL    HW111558   3.240   6.076   6.205
 3553SOL    HW211559   3.114   6.007   6.126
 3554SOL     OW11560   3.883   4.015   1.006
 3554SOL    HW111561   3.792   3.974   1.003
 3554SOL    HW211562   3.921   4.006   1.098
 3555SOL     OW11563   1.572   2.173   4.572
 3555SOL    HW111564   1.515   2.203   4.496
 3555SOL    HW211565   1.519   2.114   4.633
 3556SOL     OW11566   3.684   1.227   5.134
 3556SOL    HW111567   3.769   1.175   5.136
 3556SOL    HW211568   3.614   1.180   5.188
 3557SOL     OW11569   0.481   0.511   2.753
 3557SOL    HW111570   0.395   0.529   2.801
 3557SOL    HW211571   0.548   0.473   2.817
 3558SOL     OW11572   1.972   6.340   0.390
 3558SOL    HW111573   1.878   6.357   0.361
 3558SOL    HW211574   1.973   6.267   0.458
 3559SOL     OW11575   3.201   6.920   4.602
 3559SOL    HW111576   3.210   6.842   4.663
 3559SOL    HW211577   3.107   6.953   4.603
 3560SOL     OW11578   1.687   4.690   4.742
 3560SOL    HW111579   1.729   4.698   4.652
 3560SOL    HW211580   1.731   4.615   4.792
 3561SOL     OW11581   6.019   4.198   4.761
 3561SOL    HW111582   6.018   4.189   4.860
 3561SOL    HW211583   6.084   4.270   4.734
 3562SOL     OW11584   2.885   1.084   4.614
 3562SOL    HW111585   2.848   1.052   4.701
 3562SOL    HW211586   2.820   1.149   4.573
 3563SOL     OW11587   6.421   2.340   6.066
 3563SOL    HW111588   6.409   2.251   6.022
 3563SOL    HW211589   6.343   2.358   6.126
 3564SOL     OW11590   0.439   4.806   2.838
 3564SOL    HW111591   0.474   4.745   2.768
 3564SOL    HW211592   0.514   4.839   2.895
 3565SOL     OW11593   3.702   4.945   2.935
 3565SOL    HW111594   3.720   5.043   2.922
 3565SOL    HW211595   3.738   4.894   2.857
 3566SOL     OW11596   7.001   1.050   5.021
 3566SOL    HW111597   6.920   1.072   4.966
 3566SOL    HW211598   7.006   1.111   5.100
 3567SOL     OW11599   0.617   3.534   6.252
 3567SOL    HW111600   0.660   3.487   6.329
 3567SOL    HW211601   0.519   3.512   6.251
 3568SOL     OW11602   6.726   4.121   5.700
 3568SOL    HW111603   6.721   4.169   5.788
 3568SOL    HW211604   6.714   4.023   5.714
 3569SOL     OW11605   2.422   1.833   5.855
 3569SOL    HW111606   2.414   1.733   5.853
 3569SOL    HW211607   2.383   1.871   5.771
 3570SOL     OW11608   5.373   0.573   5.593
 3570SOL    HW111609   5.352   0.634   5.517
 3570SOL    HW211610   5.446   0.510   5.566
 3571SOL     OW11611   0.223   5.896   0.154
 3571SOL    HW111612   0.196   5.840   0.075
 3571SOL    HW211613   0.303   5.951   0.130
 3572SOL     OW11614   5.380   3.664   4.286
 3572SOL    HW111615   5.328   3.725   4.345
 3572SOL    HW211616   5.320   3.592   4.251
 3573SOL     OW11617   0.920   3.617   4.087
 3573SOL    HW111618   0.940   3.686   4.018
 3573SOL    HW211619   0.864   3.657   4.160
 3574SOL     OW11620   0.528   5.017   0.233
 3574SOL    HW111621   0.557   5.084   0.165
 3574SOL    HW211622   0.491   5.064   0.313
 3575SOL     OW11623   6.121   5.085   3.316
 3575SOL    HW111624   6.025   5.060   3.327
 3575SOL    HW211625   6.144   5.085   3.218
 3576SOL     OW11626   1.579   1.292   5.593
 3576SOL    HW111627   1.616   1.264   5.505
 3576SOL    HW211628   1.530   1.215   5.634
 3577SOL     OW11629   1.377   2.535   6.226
 3577SOL    HW111630   1.372   2.627   6.188
 3577SOL    HW211631   1.433   2.536   6.309
 3578SOL     OW11632   3.864   3.724   6.705
 3578SOL    HW111633   3.882   3.664   6.627
 3578SOL    HW211634   3.784   3.780   6.686
 3579SOL     OW11635   6.616   4.110   4.644
 3579SOL    HW111636   6.629   4.012   4.661
 3579SOL    HW211637   6.699   4.160   4.668
 3580SOL     OW11638   6.052   1.738   1.401
 3580SOL    HW111639   6.015   1.831   1.404
 3580SOL    HW211640   6.077   1.715   1.307
 3581SOL     OW11641   6.925   0.219   3.546
 3581SOL    HW111642   6.894   0.165   3.625
 3581SOL    HW211643   6.848   0.271   3.509
 3582SOL     OW11644   0.581   2.184   6.222
 3582SOL    HW111645   0.563   2.262   6.162
 3582SOL    HW211646   0.498   2.129   6.232
 3583SOL     OW11647   0.642   4.080   6.879
 3583SOL    HW111648   0.620   4.104   6.974
 3583SOL    HW211649   0.732   4.117   6.856
 3584SOL     OW11650   6.315   6.168   6.232
 3584SOL    HW111651   6.344   6.248   6.284
 3584SOL    HW211652   6.395   6.123   6.191
 3585SOL     OW11653   3.198   5.184   5.320
 3585SOL    HW111654   3.149   5.260   5.277
 3585SOL    HW211655   3.161   5.167   5.411
 3586SOL     OW11656   6.354   2.799   5.433
 3586SOL    HW111657   6.426   2.867   5.419
 3586SOL    HW211658   6.291   2.831   5.504
 3587SOL     OW11659   2.844   5.767   0.720
 3587SOL    HW111660   2.849   5.860   0.683
 3587SOL    HW211661   2.860   5.770   0.819
 3588SOL     OW11662   1.436   2.677   5.927
 3588SOL    HW111663   1.406   2.751   5.989
 3588SOL    HW211664   1.395   2.690   5.837
 3589SOL     OW11665   3.441   0.839   4.597
 3589SOL    HW111666   3.358   0.877   4.638
 3589SOL    HW211667   3.516   0.903   4.608
 3590SOL     OW11668   0.205   4.158   6.538
 3590SOL    HW111669   0.282   4.097   6.560
 3590SOL    HW211670   0.240   4.245   6.505
 3591SOL     OW11671   5.246   3.171   6.573
 3591SOL    HW111672   5.247   3.234   6.651
 3591SOL    HW211673   5.261   3.078   6.605
 3592SOL     OW11674   5.259   3.689   3.402
 3592SOL    HW111675   5.270   3.614   3.337
 3592SOL    HW211676   5.218   3.768   3.356
 3593SOL     OW11677   2.244   6.371   4.858
 3593SOL    HW111678   2.221   6.398   4.764
 3593SOL    HW211679   2.160   6.365   4.912
 3594SOL     OW11680   4.192   1.020   2.717
 3594SOL    HW111681   4.219   0.990   2.626
 3594SOL    HW211682   4.149   0.944   2.766
 3595SOL     OW11683   2.084   5.931   5.790
 3595SOL    HW111684   2.164   5.872   5.784
 3595SOL    HW211685   2.073   5.963   5.884
 3596SOL     OW11686   6.464   1.608   2.750
 3596SOL    HW111687   6.443   1.584   2.655
 3596SOL    HW211688   6.380   1.612   2.803
 3597SOL     OW11689   2.977   6.132   4.865
 3597SOL    HW111690   2.988   6.230   4.882
 3597SOL    HW211691   2.880   6.111   4.850
 3598SOL     OW11692   0.797   0.608   6.138
 3598SOL    HW111693   0.877   0.634   6.085
 3598SOL    HW211694   0.754   0.690   6.176
 3599SOL     OW11695   1.099   2.146   5.572
 3599SOL    HW111696   1.001   2.147   5.555
 3599SOL    HW211697   1.118   2.102   5.659
 3600SOL     OW11698   0.130   3.269   0.227
 3600SOL    HW111699   0.123   3.201   0.300
 3600SOL    HW211700   0.050   3.329   0.229
 3601SOL     OW11701   6.796   3.950   0.635
 3601SOL    HW111702   6.834   3.875   0.689
 3601SOL    HW211703   6.758   3.913   0.550
 3602SOL     OW11704   2.087   1.102   1.254
 3602SOL    HW111705   2.174   1.110   1.302
 3602SOL    HW211706   2.026   1.176   1.283
 3603SOL     OW11707   3.559   6.108   3.705
 3603SOL    HW111708   3.507   6.030   3.669
 3603SOL    HW211709   3.527   6.192   3.662
 3604SOL     OW11710   6.513   3.958   3.936
 3604SOL    HW111711   6.543   3.934   4.029
 3604SOL    HW211712   6.423   3.919   3.919
 3605SOL     OW11713   5.868   4.614   5.948
 3605SOL    HW111714   5.842   4.623   5.852
 3605SOL    HW211715   5.933   4.538   5.958
 3606SOL     OW11716   6.405   4.840   5.882
 3606SOL    HW111717   6.357   4.866   5.799
 3606SOL    HW211718   6.424   4.922   5.936
 3607SOL     OW11719   5.190   6.661   0.736
 3607SOL    HW111720   5.253   6.709   0.798
 3607SOL    HW211721   5.142   6.728   0.679
 3608SOL     OW11722   6.575   1.823   2.432
 3608SOL    HW111723   6.591   1.854   2.526
 3608SOL    HW211724   6.521   1.739   2.433
 3609SOL     OW11725   0.149   0.969   4.491
 3609SOL    HW111726   0.177   0.958   4.586
 3609SOL    HW211727   0.050   0.953   4.484
 3610SOL     OW11728   1.033   0.594   5.444
 3610SOL    HW111729   1.087   0.551   5.517
 3610SOL    HW211730   0.943   0.618   5.479
 3611SOL     OW11731   3.755   4.472   5.326
 3611SOL    HW111732   3.670   4.434   5.290
 3611SOL    HW211733   3.735   4.529   5.406
 3612SOL     OW11734   6.568   7.010   5.504
 3612SOL    HW111735   6.497   0.043   5.546
 3612SOL    HW211736   6.658   0.021   5.532
 3613SOL     OW11737   5.278   5.267   1.414
 3613SOL    HW111738   5.337   5.347   1.418
 3613SOL    HW211739   5.234   5.262   1.324
 3614SOL     OW11740   3.624   3.229   3.574
 3614SOL    HW111741   3.574   3.166   3.514
 3614SOL    HW211742   3.609   3.204   3.669
 3615SOL     OW11743   5.937   6.615   6.379
 3615SOL    HW111744   6.033   6.615   6.407
 3615SOL    HW211745   5.893   6.531   6.409
 3616SOL     OW11746   6.763   1.713   6.031
 3616SOL    HW111747   6.816   1.772   5.970
 3616SOL    HW211748   6.777   1.741   6.126
 3617SOL     OW11749   5.322   1.227   6.469
 3617SOL    HW111750   5.287   1.291   6.538
 3617SOL    HW211751   5.282   1.249   6.380
 3618SOL     OW11752   1.528   1.921   5.603
 3618SOL    HW111753   1.522   1.957   5.696
 3618SOL    HW211754   1.619   1.880   5.589
 3619SOL     OW11755   6.434   1.965   3.772
 3619SOL    HW111756   6.354   1.905   3.770
 3619SOL    HW211757   6.413   2.049   3.721
 3620SOL     OW11758   6.168   6.438   5.902
 3620SOL    HW111759   6.204   6.532   5.900
 3620SOL    HW211760   6.087   6.432   5.845
 3621SOL     OW11761   2.427   2.195   5.958
 3621SOL    HW111762   2.515   2.242   5.970
 3621SOL    HW211763   2.383   2.229   5.874
 3622SOL     OW11764   2.042   2.356   3.201
 3622SOL    HW111765   2.096   2.397   3.127
 3622SOL    HW211766   1.959   2.409   3.216
 3623SOL     OW11767   5.946   5.707   4.009
 3623SOL    HW111768   6.016   5.747   3.949
 3623SOL    HW211769   5.956   5.746   4.101
 3624SOL     OW11770   2.477   6.581   2.266
 3624SOL    HW111771   2.449   6.641   2.341
 3624SOL    HW211772   2.577   6.580   2.260
 3625SOL     OW11773   6.282   3.095   6.871
 3625SOL    HW111774   6.219   3.172   6.862
 3625SOL    HW211775   6.363   3.125   6.922
 3626SOL     OW11776   1.556   3.953   5.456
 3626SOL    HW111777   1.484   4.012   5.419
 3626SOL    HW211778   1.554   3.865   5.409
 3627SOL     OW11779   3.973   3.009   3.184
 3627SOL    HW111780   4.063   3.039   3.214
 3627SOL    HW211781   3.975   2.988   3.086
 3628SOL     OW11782   2.487   0.000   1.505
 3628SOL    HW111783   2.389   0.003   1.481
 3628SOL    HW211784   2.514   0.088   1.545
 3629SOL     OW11785   6.399   2.539   4.458
 3629SOL    HW111786   6.337   2.494   4.393
 3629SOL    HW211787   6.459   2.472   4.499
 3630SOL     OW11788   5.665   3.119   3.777
 3630SOL    HW111789   5.684   3.175   3.857
 3630SOL    HW211790   5.615   3.173   3.709
 3631SOL     OW11791   1.804   0.185   3.839
 3631SOL    HW111792   1.800   0.260   3.772
 3631SOL    HW211793   1.714   0.143   3.847
 3632SOL     OW11794   5.037   0.413   0.410
 3632SOL    HW111795   5.103   0.377   0.345
 3632SOL    HW211796   4.990   0.492   0.371
 3633SOL     OW11797   2.927   1.894   5.889
 3633SOL    HW111798   2.962   1.955   5.818
 3633SOL    HW211799   2.833   1.921   5.913
 3634SOL     OW11800   0.808   5.599   5.394
 3634SOL    HW111801   0.773   5.630   5.482
 3634SOL    HW211802   0.812   5.500   5.393
 3635SOL     OW11803   2.491   0.134   5.546
 3635SOL    HW111804   2.569   0.172   5.596
 3635SOL    HW211805   2.488   0.174   5.455
 3636SOL     OW11806   0.863   6.183   6.168
 3636SOL    HW111807   0.827   6.200   6.260
 3636SOL    HW211808   0.830   6.094   6.135
 3637SOL     OW11809   6.659   1.664   1.312
 3637SOL    HW111810   6.719   1.734   1.352
 3637SOL    HW211811   6.630   1.693   1.221
 3638SOL     OW11812   6.966   4.817   4.736
 3638SOL    HW111813   6.940   4.795   4.642
 3638SOL    HW211814   6.968   4.732   4.790
 3639SOL     OW11815   4.408   4.038   0.987
 3639SOL    HW111816   4.435   3.945   0.959
 3639SOL    HW211817   4.416   4.100   0.909
 3640SOL     OW11818   3.654   6.762   6.766
 3640SOL    HW111819   3.673   6.773   6.864
 3640SOL    HW211820   3.622   6.669   6.749
 3641SOL     OW11821   4.851   2.428   4.325
 3641SOL    HW111822   4.814   2.469   4.409
 3641SOL    HW211823   4.888   2.499   4.266
 3642SOL     OW11824   4.471   0.669   6.711
 3642SOL    HW111825   4.504   0.576   6.703
 3642SOL    HW211826   4.548   0.731   6.729
 3643SOL     OW11827   2.377   5.602   4.921
 3643SOL    HW111828   2.446   5.671   4.945
 3643SOL    HW211829   2.368   5.598   4.821
 3644SOL     OW11830   0.045   0.943   1.516
 3644SOL    HW111831   0.039   0.958   1.615
 3644SOL    HW211832   0.040   0.845   1.496
 3645SOL     OW11833   5.714   1.190   3.704
 3645SOL    HW111834   5.803   1.169   3.663
 3645SOL    HW211835   5.686   1.115   3.765
 3646SOL     OW11836   6.844   4.987   6.490
 3646SOL    HW111837   6.809   4.963   6.580
 3646SOL    HW211838   6.839   4.906   6.430
 3647SOL     OW11839   2.460   3.270   0.168
 3647SOL    HW111840   2.450   3.196   0.102
 3647SOL    HW211841   2.385   3.266   0.235
 3648SOL     OW11842   3.058   5.475   2.942
 3648SOL    HW111843   3.140   5.445   2.992
 3648SOL    HW211844   3.048   5.574   2.952
 3649SOL     OW11845   4.749   3.078   1.618
 3649SOL    HW111846   4.698   3.052   1.700
 3649SOL    HW211847   4.777   2.996   1.569
 3650SOL     OW11848   0.197   5.505   0.198
 3650SOL    HW111849   0.121   5.560   0.164
 3650SOL    HW211850   0.248   5.467   0.121
 3651SOL     OW11851   0.465   6.003   3.340
 3651SOL    HW111852   0.392   6.058   3.299
 3651SOL    HW211853   0.430   5.913   3.365
 3652SOL     OW11854   5.635   6.223   3.105
 3652SOL    HW111855   5.627   6.255   3.200
 3652SOL    HW211856   5.545   6.198   3.070
 3653SOL     OW11857   6.681   0.572   3.211
 3653SOL    HW111858   6.728   0.646   3.164
 3653SOL    HW211859   6.589   0.601   3.235
 3654SOL     OW11860   1.767   6.941   0.319
 3654SOL    HW111861   1.716   6.865   0.359
 3654SOL    HW211862   1.775   7.015   0.386
 3655SOL     OW11863   1.163   0.013   3.645
 3655SOL    HW111864   1.155   6.947   3.690
 3655SOL    HW211865   1.128   0.084   3.706
 3656SOL     OW11866   1.398   3.445   2.154
 3656SOL    HW111867   1.392   3.446   2.254
 3656SOL    HW211868   1.427   3.536   2.122
 3657SOL     OW11869   5.269   5.592   5.841
 3657SOL    HW111870   5.338   5.655   5.873
 3657SOL    HW211871   5.196   5.585   5.908
 3658SOL     OW11872   1.189   6.161   3.579
 3658SOL    HW111873   1.090   6.169   3.564
 3658SOL    HW211874   1.238   6.189   3.497
 3659SOL     OW11875   2.999   3.232   5.451
 3659SOL    HW111876   2.971   3.136   5.444
 3659SOL    HW211877   2.937   3.280   5.512
 3660SOL     OW11878   4.832   6.841   2.658
 3660SOL    HW111879   4.776   6.923   2.659
 3660SOL    HW211880   4.776   6.761   2.679
 3661SOL     OW11881   4.752   1.720   6.325
 3661SOL    HW111882   4.653   1.713   6.336
 3661SOL    HW211883   4.774   1.796   6.265
 3662SOL     OW11884   4.717   0.785   3.476
 3662SOL    HW111885   4.719   0.703   3.533
 3662SOL    HW211886   4.681   0.861   3.530
 3663SOL     OW11887   2.029   1.804   0.777
 3663SOL    HW111888   2.057   1.745   0.853
 3663SOL    HW211889   1.930   1.794   0.762
 3664SOL     OW11890   4.779   2.253   1.382
 3664SOL    HW111891   4.721   2.240   1.463
 3664SOL    HW211892   4.729   2.306   1.313
 3665SOL     OW11893   0.507   5.758   5.759
 3665SOL    HW111894   0.579   5.753   5.690
 3665SOL    HW211895   0.458   5.844   5.751
 3666SOL     OW11896   2.143   4.003   2.632
 3666SOL    HW111897   2.104   4.087   2.593
 3666SOL    HW211898   2.196   4.027   2.714
 3667SOL     OW11899   6.416   0.714   0.501
 3667SOL    HW111900   6.480   0.758   0.438
 3667SOL    HW211901   6.435   0.616   0.504
 3668SOL     OW11902   1.606   0.570   2.314
 3668SOL    HW111903   1.692   0.618   2.331
 3668SOL    HW211904   1.535   0.636   2.292
 3669SOL     OW11905   6.008   0.991   4.420
 3669SOL    HW111906   6.018   1.045   4.504
 3669SOL    HW211907   6.004   0.894   4.443
 3670SOL     OW11908   2.678   4.146   0.868
 3670SOL    HW111909   2.771   4.181   0.874
 3670SOL    HW211910   2.678   4.059   0.819
 3671SOL     OW11911   6.261   0.222   4.233
 3671SOL    HW111912   6.302   0.227   4.324
 3671SOL    HW211913   6.194   0.148   4.230
 3672SOL     OW11914   5.297   1.741   1.407
 3672SOL    HW111915   5.272   1.666   1.345
 3672SOL    HW211916   5.396   1.754   1.405
 3673SOL     OW11917   3.665   6.801   5.795
 3673SOL    HW111918   3.581   6.854   5.807
 3673SOL    HW211919   3.734   6.858   5.750
 3674SOL     OW11920   0.362   7.015   5.007
 3674SOL    HW111921   0.364   0.080   5.054
 3674SOL    HW211922   0.268   6.993   4.981
 3675SOL     OW11923   2.153   3.128   4.915
 3675SOL    HW111924   2.229   3.082   4.961
 3675SOL    HW211925   2.174   3.225   4.906
 3676SOL     OW11926   4.530   4.818   4.666
 3676SOL    HW111927   4.501   4.843   4.574
 3676SOL    HW211928   4.538   4.718   4.672
 3677SOL     OW11929   1.306   6.561   3.296
 3677SOL    HW111930   1.353   6.482   3.333
 3677SOL    HW211931   1.370   6.614   3.239
 3678SOL     OW11932   0.961   3.825   3.920
 3678SOL    HW111933   0.911   3.910   3.901
 3678SOL    HW211934   1.032   3.813   3.851
 3679SOL     OW11935   1.604   1.003   3.687
 3679SOL    HW111936   1.626   0.985   3.783
 3679SOL    HW211937   1.602   1.101   3.671
 3680SOL     OW11938   5.415   2.330   3.602
 3680SOL    HW111939   5.456   2.240   3.615
 3680SOL    HW211940   5.315   2.322   3.608
 3681SOL     OW11941   0.724   0.589   5.068
 3681SOL    HW111942   0.684   0.672   5.029
 3681SOL    HW211943   0.818   0.607   5.095
 3682SOL     OW11944   5.963   2.519   6.578
 3682SOL    HW111945   5.909   2.440   6.609
 3682SOL    HW211946   5.919   2.560   6.498
 3683SOL     OW11947   0.025   6.572   4.103
 3683SOL    HW111948   0.068   6.562   4.013
 3683SOL    HW211949   6.960   6.524   4.103
 3684SOL     OW11950   1.753   3.608   6.959
 3684SOL    HW111951   1.744   3.514   6.994
 3684SOL    HW211952   1.691   3.668   7.009
 3685SOL     OW11953   6.581   6.575   6.385
 3685SOL    HW111954   6.660   6.533   6.340
 3685SOL    HW211955   6.613   6.633   6.461
 3686SOL     OW11956   6.146   5.754   3.545
 3686SOL    HW111957   6.061   5.710   3.516
 3686SOL    HW211958   6.139   5.780   3.641
 3687SOL     OW11959   3.833   6.232   5.633
 3687SOL    HW111960   3.898   6.181   5.688
 3687SOL    HW211961   3.882   6.283   5.561
 3688SOL     OW11962   1.106   3.615   6.458
 3688SOL    HW111963   1.129   3.606   6.361
 3688SOL    HW211964   1.079   3.526   6.494
 3689SOL     OW11965   1.557   0.403   6.532
 3689SOL    HW111966   1.636   0.378   6.476
 3689SOL    HW211967   1.560   0.500   6.553
 3690SOL     OW11968   4.183   0.254   6.236
 3690SOL    HW111969   4.274   0.224   6.207
 3690SOL    HW211970   4.114   0.220   6.172
 3691SOL     OW11971   2.520   2.426   0.115
 3691SOL    HW111972   2.542   2.353   0.180
 3691SOL    HW211973   2.433   2.467   0.140
 3692SOL     OW11974   0.781   5.899   5.268
 3692SOL    HW111975   0.700   5.954   5.247
 3692SOL    HW211976   0.772   5.809   5.225
 3693SOL     OW11977   2.237   2.772   2.437
 3693SOL    HW111978   2.308   2.773   2.508
 3693SOL    HW211979   2.263   2.707   2.365
 3694SOL     OW11980   1.275   5.660   3.354
 3694SOL    HW111981   1.221   5.596   3.300
 3694SOL    HW211982   1.372   5.646   3.337
 3695SOL     OW11983   6.209   2.983   2.619
 3695SOL    HW111984   6.280   3.047   2.590
 3695SOL    HW211985   6.248   2.891   2.623
 3696SOL     OW11986   3.224   5.740   5.234
 3696SOL    HW111987   3.156   5.810   5.258
 3696SOL    HW211988   3.263   5.702   5.318
 3697SOL     OW11989   0.140   6.009   3.409
 3697SOL    HW111990   0.190   5.928   3.441
 3697SOL    HW211991   0.175   6.037   3.320
 3698SOL     OW11992   3.012   6.673   5.050
 3698SOL    HW111993   2.963   6.760   5.041
 3698SOL    HW211994   2.971   6.605   4.990
 3699SOL     OW11995   6.754   3.582   3.239
 3699SOL    HW111996   6.785   3.597   3.332
 3699SOL    HW211997   6.738   3.484   3.224
 3700SOL     OW11998   0.008   0.344   4.684
 3700SOL    HW111999   6.983   0.427   4.711
 3700SOL    HW212000   0.051   0.358   4.594
 3701SOL     OW12001   0.474   0.570   3.673
 3701SOL    HW112002   0.421   0.496   3.630
 3701SOL    HW212003   0.415   0.651   3.684
 3702SOL     OW12004   4.935   6.972   2.003
 3702SOL    HW112005   4.840   6.979   1.973
 3702SOL    HW212006   4.993   0.004   1.943
 3703SOL     OW12007   4.539   2.632   6.489
 3703SOL    HW112008   4.514   2.663   6.581
 3703SOL    HW212009   4.567   2.711   6.434
 3704SOL     OW12010   2.724   0.542   1.495
 3704SOL    HW112011   2.740   0.616   1.429
 3704SOL    HW212012   2.765   0.458   1.461
 3705SOL     OW12013   5.272   6.264   3.761
 3705SOL    HW112014   5.304   6.178   3.801
 3705SOL    HW212015   5.175   6.275   3.779
 3706SOL     OW12016   1.076   3.177   4.663
 3706SOL    HW112017   1.164   3.181   4.709
 3706SOL    HW212018   1.004   3.158   4.730
 3707SOL     OW12019   6.358   3.620   5.140
 3707SOL    HW112020   6.371   3.712   5.179
 3707SOL    HW212021   6.273   3.618   5.087
 3708SOL     OW12022   6.536   1.200   6.251
 3708SOL    HW112023   6.599   1.222   6.176
 3708SOL    HW212024   6.581   1.138   6.315
 3709SOL     OW12025   3.982   0.598   0.029
 3709SOL    HW112026   4.020   0.564   0.114
 3709SOL    HW212027   3.907   0.538   7.023
 3710SOL     OW12028   6.969   6.655   0.330
 3710SOL    HW112029   0.039   6.618   0.339
 3710SOL    HW212030   6.964   6.744   0.374
 3711SOL     OW12031   0.084   6.830   2.172
 3711SOL    HW112032   0.093   6.781   2.085
 3711SOL    HW212033   0.114   6.771   2.247
 3712SOL     OW12034   6.577   6.172   7.008
 3712SOL    HW112035   6.540   6.105   0.050
 3712SOL    HW212036   6.660   6.136   6.967
 3713SOL     OW12037   1.511   6.285   4.424
 3713SOL    HW112038   1.590   6.329   4.381
 3713SOL    HW212039   1.428   6.336   4.404
 3714SOL     OW12040   4.736   5.313   4.869
 3714SOL    HW112041   4.784   5.398   4.889
 3714SOL    HW212042   4.675   5.290   4.945
 3715SOL     OW12043   5.999   4.102   3.653
 3715SOL    HW112044   5.916   4.091   3.598
 3715SOL    HW212045   6.066   4.033   3.625
 3716SOL     OW12046   5.910   6.647   5.329
 3716SOL    HW112047   5.991   6.699   5.354
 3716SOL    HW212048   5.865   6.692   5.252
 3717SOL     OW12049   5.677   5.623   6.097
 3717SOL    HW112050   5.771   5.600   6.075
 3717SOL    HW212051   5.672   5.656   6.192
 3718SOL     OW12052   2.186   0.303   6.009
 3718SOL    HW112053   2.120   0.264   5.945
 3718SOL    HW212054   2.250   0.233   6.038
 3719SOL     OW12055   5.593   4.790   1.200
 3719SOL    HW112056   5.691   4.772   1.192
 3719SOL    HW212057   5.561   4.841   1.120
 3720SOL     OW12058   6.258   2.393   5.648
 3720SOL    HW112059   6.212   2.443   5.721
 3720SOL    HW212060   6.211   2.408   5.561
 3721SOL     OW12061   5.051   4.877   0.988
 3721SOL    HW112062   4.998   4.804   0.946
 3721SOL    HW212063   5.069   4.854   1.084
 3722SOL     OW12064   6.574   6.807   2.440
 3722SOL    HW112065   6.652   6.798   2.379
 3722SOL    HW212066   6.570   6.901   2.475
 3723SOL     OW12067   6.211   6.365   1.461
 3723SOL    HW112068   6.208   6.462   1.484
 3723SOL    HW212069   6.166   6.350   1.373
 3724SOL     OW12070   1.977   5.387   6.408
 3724SOL    HW112071   1.936   5.304   6.446
 3724SOL    HW212072   1.959   5.391   6.310
 3725SOL     OW12073   5.600   5.692   0.431
 3725SOL    HW112074   5.606   5.686   0.530
 3725SOL    HW212075   5.682   5.736   0.395
 3726SOL     OW12076   6.405   5.115   0.457
 3726SOL    HW112077   6.430   5.206   0.491
 3726SOL    HW212078   6.410   5.049   0.531
 3727SOL     OW12079   0.040   2.968   6.237
 3727SOL    HW112080   0.122   2.915   6.216
 3727SOL    HW212081   7.018   2.930   6.317
 3728SOL     OW12082   1.356   3.970   0.215
 3728SOL    HW112083   1.385   3.974   0.311
 3728SOL    HW212084   1.296   4.047   0.195
 3729SOL     OW12085   1.529   2.161   3.292
 3729SOL    HW112086   1.617   2.115   3.280
 3729SOL    HW212087   1.494   2.142   3.384
 3730SOL     OW12088   2.716   5.166   6.224
 3730SOL    HW112089   2.689   5.198   6.133
 3730SOL    HW212090   2.814   5.144   6.224
 3731SOL     OW12091   4.398   0.193   0.932
 3731SOL    HW112092   4.368   0.098   0.927
 3731SOL    HW212093   4.393   0.234   0.841
 3732SOL     OW12094   1.562   2.362   6.772
 3732SOL    HW112095   1.604   2.336   6.685
 3732SOL    HW212096   1.542   2.459   6.772
 3733SOL     OW12097   1.355   3.736   1.852
 3733SOL    HW112098   1.398   3.759   1.765
 3733SOL    HW212099   1.284   3.667   1.837
 3734SOL     OW12100   4.242   1.378   1.859
 3734SOL    HW112101   4.166   1.399   1.921
 3734SOL    HW212102   4.218   1.406   1.766
 3735SOL     OW12103   1.663   1.257   3.762
 3735SOL    HW112104   1.579   1.287   3.716
 3735SOL    HW212105   1.740   1.314   3.733
 3736SOL     OW12106   6.626   2.925   1.360
 3736SOL    HW112107   6.550   2.926   1.295
 3736SOL    HW212108   6.663   3.018   1.369
 3737SOL     OW12109   5.295   0.202   3.020
 3737SOL    HW112110   5.248   0.241   3.099
 3737SOL    HW212111   5.334   0.275   2.964
 3738SOL     OW12112   0.050   6.206   2.363
 3738SOL    HW112113   0.136   6.252   2.343
 3738SOL    HW212114   0.066   6.107   2.372
 3739SOL     OW12115   2.244   4.704   1.430
 3739SOL    HW112116   2.263   4.620   1.480
 3739SOL    HW212117   2.168   4.689   1.367
 3740SOL     OW12118   4.489   0.239   0.676
 3740SOL    HW112119   4.501   0.141   0.659
 3740SOL    HW212120   4.559   0.290   0.626
 3741SOL     OW12121   4.602   3.243   1.431
 3741SOL    HW112122   4.673   3.217   1.496
 3741SOL    HW212123   4.525   3.283   1.481
 3742SOL     OW12124   2.389   1.964   6.121
 3742SOL    HW112125   2.404   1.912   6.037
 3742SOL    HW212126   2.388   2.062   6.100
 3743SOL     OW12127   5.596   4.259   0.733
 3743SOL    HW112128   5.505   4.245   0.773
 3743SOL    HW212129   5.627   4.352   0.752
 3744SOL     OW12130   0.617   5.875   2.782
 3744SOL    HW112131   0.610   5.964   2.736
 3744SOL    HW212132   0.713   5.847   2.787
 3745SOL     OW12133   3.583   5.199   1.935
 3745SOL    HW112134   3.560   5.111   1.977
 3745SOL    HW212135   3.678   5.221   1.955
 3746SOL     OW12136   4.986   1.940   2.638
 3746SOL    HW112137   4.902   1.947   2.585
 3746SOL    HW212138   4.969   1.887   2.721
 3747SOL     OW12139   3.368   6.683   5.740
 3747SOL    HW112140   3.449   6.639   5.779
 3747SOL    HW212141   3.385   6.781   5.732
 3748SOL     OW12142   5.129   0.776   1.552
 3748SOL    HW112143   5.119   0.848   1.483
 3748SOL    HW212144   5.217   0.786   1.598
 3749SOL     OW12145   1.684   6.566   4.126
 3749SOL    HW112146   1.748   6.628   4.080
 3749SOL    HW212147   1.604   6.551   4.069
 3750SOL     OW12148   1.737   4.333   0.444
 3750SOL    HW112149   1.806   4.406   0.439
 3750SOL    HW212150   1.719   4.298   0.352
 3751SOL     OW12151   6.357   3.374   2.211
 3751SOL    HW112152   6.446   3.419   2.211
 3751SOL    HW212153   6.337   3.340   2.119
 3752SOL     OW12154   4.733   0.433   5.784
 3752SOL    HW112155   4.771   0.525   5.788
 3752SOL    HW212156   4.687   0.420   5.696
 3753SOL     OW12157   6.224   0.797   5.095
 3753SOL    HW112158   6.260   0.867   5.033
 3753SOL    HW212159   6.128   0.816   5.116
 3754SOL     OW12160   2.674   0.633   2.340
 3754SOL    HW112161   2.687   0.608   2.436
 3754SOL    HW212162   2.763   0.652   2.299
 3755SOL     OW12163   3.977   5.508   5.037
 3755SOL    HW112164   4.005   5.582   5.099
 3755SOL    HW212165   4.035   5.428   5.052
 3756SOL     OW12166   3.021   5.636   6.401
 3756SOL    HW112167   2.948   5.665   6.462
 3756SOL    HW212168   3.105   5.686   6.422
 3757SOL     OW12169   6.552   5.392   1.755
 3757SOL    HW112170   6.609   5.463   1.796
 3757SOL    HW212171   6.471   5.434   1.715
 3758SOL     OW12172   1.848   1.457   4.569
 3758SOL    HW112173   1.806   1.497   4.651
 3758SOL    HW212174   1.785   1.392   4.527
 3759SOL     OW12175   4.464   0.523   5.236
 3759SOL    HW112176   4.550   0.545   5.283
 3759SOL    HW212177   4.398   0.597   5.251
 3760SOL     OW12178   0.761   1.404   3.411
 3760SOL    HW112179   0.748   1.337   3.337
 3760SOL    HW212180   0.858   1.419   3.425
 3761SOL     OW12181   6.706   0.802   4.667
 3761SOL    HW112182   6.658   0.869   4.723
 3761SOL    HW212183   6.649   0.720   4.656
 3762SOL     OW12184   1.575   4.285   1.614
 3762SOL    HW112185   1.582   4.232   1.529
 3762SOL    HW212186   1.488   4.264   1.659
 3763SOL     OW12187   6.345   4.033   0.701
 3763SOL    HW112188   6.441   4.058   0.715
 3763SOL    HW212189   6.296   4.038   0.788
 3764SOL     OW12190   1.934   6.696   2.835
 3764SOL    HW112191   2.000   6.767   2.859
 3764SOL    HW212192   1.869   6.684   2.910
 3765SOL     OW12193   6.111   1.450   1.202
 3765SOL    HW112194   6.091   1.352   1.192
 3765SOL    HW212195   6.088   1.479   1.295
 3766SOL     OW12196   2.062   1.817   4.447
 3766SOL    HW112197   1.982   1.802   4.388
 3766SOL    HW212198   2.058   1.909   4.486
 3767SOL     OW12199   3.214   4.014   6.205
 3767SOL    HW112200   3.161   3.937   6.241
 3767SOL    HW212201   3.308   3.985   6.187
 3768SOL     OW12202   1.029   0.644   4.786
 3768SOL    HW112203   0.946   0.695   4.761
 3768SOL    HW212204   1.104   0.708   4.802
 3769SOL     OW12205   6.097   5.434   5.244
 3769SOL    HW112206   6.093   5.339   5.213
 3769SOL    HW212207   6.046   5.492   5.180
 3770SOL     OW12208   1.151   1.007   7.008
 3770SOL    HW112209   1.098   0.975   0.064
 3770SOL    HW212210   1.090   1.054   6.944
 3771SOL     OW12211   5.849   4.281   6.608
 3771SOL    HW112212   5.775   4.248   6.666
 3771SOL    HW212213   5.908   4.343   6.660
 3772SOL     OW12214   0.831   0.211   0.431
 3772SOL    HW112215   0.828   0.235   0.334
 3772SOL    HW212216   0.847   0.112   0.440
 3773SOL     OW12217   5.813   2.952   5.562
 3773SOL    HW112218   5.800   2.976   5.658
 3773SOL    HW212219   5.798   3.032   5.505
 3774SOL     OW12220   5.543   5.436   1.707
 3774SOL    HW112221   5.591   5.419   1.793
 3774SOL    HW212222   5.468   5.501   1.722
 3775SOL     OW12223   4.177   4.828   3.805
 3775SOL    HW112224   4.077   4.828   3.799
 3775SOL    HW212225   4.205   4.861   3.895
 3776SOL     OW12226   3.575   2.586   6.549
 3776SOL    HW112227   3.645   2.620   6.612
 3776SOL    HW212228   3.489   2.575   6.598
 3777SOL     OW12229   2.723   6.028   4.053
 3777SOL    HW112230   2.764   6.047   4.142
 3777SOL    HW212231   2.762   5.945   4.015
 3778SOL     OW12232   2.496   5.870   3.761
 3778SOL    HW112233   2.430   5.928   3.809
 3778SOL    HW212234   2.527   5.797   3.821
 3779SOL     OW12235   0.579   4.888   1.107
 3779SOL    HW112236   0.555   4.791   1.112
 3779SOL    HW212237   0.586   4.926   1.199
 3780SOL     OW12238   0.335   3.572   3.972
 3780SOL    HW112239   0.239   3.590   3.953
 3780SOL    HW212240   0.348   3.560   4.071
 3781SOL     OW12241   0.615   6.744   4.344
 3781SOL    HW112242   0.633   6.701   4.432
 3781SOL    HW212243   0.700   6.778   4.305
 3782SOL     OW12244   3.512   6.374   2.514
 3782SOL    HW112245   3.474   6.460   2.549
 3782SOL    HW212246   3.514   6.377   2.414
 3783SOL     OW12247   6.402   5.249   4.108
 3783SOL    HW112248   6.469   5.318   4.082
 3783SOL    HW212249   6.448   5.161   4.119
 3784SOL     OW12250   5.152   2.455   2.462
 3784SOL    HW112251   5.164   2.426   2.557
 3784SOL    HW212252   5.146   2.555   2.459
 3785SOL     OW12253   1.378   3.069   5.091
 3785SOL    HW112254   1.425   3.011   5.158
 3785SOL    HW212255   1.384   3.164   5.119
 3786SOL     OW12256   2.127   3.650   3.211
 3786SOL    HW112257   2.039   3.664   3.166
 3786SOL    HW212258   2.113   3.599   3.296
 3787SOL     OW12259   5.610   0.685   2.884
 3787SOL    HW112260   5.619   0.678   2.785
 3787SOL    HW212261   5.525   0.732   2.907
 3788SOL     OW12262   6.223   4.986   5.013
 3788SOL    HW112263   6.241   4.898   5.055
 3788SOL    HW212264   6.216   4.975   4.914
 3789SOL     OW12265   6.980   3.734   3.086
 3789SOL    HW112266   0.022   3.788   3.032
 3789SOL    HW212267   0.007   3.665   3.137
 3790SOL     OW12268   1.039   4.840   6.405
 3790SOL    HW112269   1.098   4.903   6.354
 3790SOL    HW212270   0.985   4.786   6.340
 3791SOL     OW12271   5.262   1.714   6.735
 3791SOL    HW112272   5.162   1.712   6.725
 3791SOL    HW212273   5.289   1.660   6.814
 3792SOL     OW12274   0.935   1.620   4.421
 3792SOL    HW112275   0.901   1.599   4.329
 3792SOL    HW212276   1.027   1.660   4.414
 3793SOL     OW12277   5.393   6.525   1.567
 3793SOL    HW112278   5.407   6.467   1.648
 3793SOL    HW212279   5.398   6.621   1.593
 3794SOL     OW12280   2.268   2.951   1.720
 3794SOL    HW112281   2.263   3.045   1.756
 3794SOL    HW212282   2.248   2.952   1.622
 3795SOL     OW12283   3.574   5.163   0.934
 3795SOL    HW112284   3.526   5.075   0.929
 3795SOL    HW212285   3.653   5.154   0.995
 3796SOL     OW12286   3.884   1.798   0.927
 3796SOL    HW112287   3.979   1.829   0.937
 3796SOL    HW212288   3.822   1.869   0.961
 3797SOL     OW12289   0.771   3.927   3.153
 3797SOL    HW112290   0.721   3.874   3.085
 3797SOL    HW212291   0.867   3.934   3.125
 3798SOL     OW12292   3.193   6.288   2.435
 3798SOL    HW112293   3.213   6.191   2.440
 3798SOL    HW212294   3.259   6.333   2.376
 3799SOL     OW12295   6.977   2.874   3.532
 3799SOL    HW112296   6.905   2.942   3.547
 3799SOL    HW212297   7.007   2.880   3.437
 3800SOL     OW12298   5.390   2.233   3.885
 3800SOL    HW112299   5.292   2.215   3.889
 3800SOL    HW212300   5.409   2.295   3.808
 3801SOL     OW12301   5.691   6.606   1.788
 3801SOL    HW112302   5.623   6.556   1.843
 3801SOL    HW212303   5.660   6.699   1.773
 3802SOL     OW12304   6.850   1.451   2.643
 3802SOL    HW112305   6.808   1.409   2.563
 3802SOL    HW212306   6.949   1.455   2.630
 3803SOL     OW12307   3.980   3.496   3.637
 3803SOL    HW112308   3.911   3.562   3.668
 3803SOL    HW212309   3.980   3.493   3.537
 3804SOL     OW12310   4.086   1.407   4.101
 3804SOL    HW112311   4.018   1.341   4.133
 3804SOL    HW212312   4.097   1.479   4.170
 3805SOL     OW12313   1.590   2.610   2.082
 3805SOL    HW112314   1.648   2.670   2.137
 3805SOL    HW212315   1.599   2.634   1.985
 3806SOL     OW12316   3.188   3.418   5.811
 3806SOL    HW112317   3.248   3.395   5.734
 3806SOL    HW212318   3.213   3.509   5.845
 3807SOL     OW12319   2.388   4.905   3.452
 3807SOL    HW112320   2.427   4.996   3.440
 3807SOL    HW212321   2.338   4.901   3.539
 3808SOL     OW12322   4.349   0.442   6.525
 3808SOL    HW112323   4.306   0.531   6.541
 3808SOL    HW212324   4.325   0.379   6.599
 3809SOL     OW12325   5.467   2.541   1.680
 3809SOL    HW112326   5.489   2.534   1.583
 3809SOL    HW212327   5.389   2.483   1.702
 3810SOL     OW12328   6.247   2.456   3.370
 3810SOL    HW112329   6.214   2.545   3.339
 3810SOL    HW212330   6.342   2.444   3.344
 3811SOL     OW12331   0.448   6.297   4.110
 3811SOL    HW112332   0.416   6.321   4.201
 3811SOL    HW212333   0.435   6.199   4.095
 3812SOL     OW12334   3.462   4.680   5.749
 3812SOL    HW112335   3.446   4.609   5.818
 3812SOL    HW212336   3.377   4.730   5.732
 3813SOL     OW12337   5.832   3.622   0.686
 3813SOL    HW112338   5.887   3.586   0.761
 3813SOL    HW212339   5.851   3.570   0.602
 3814SOL     OW12340   6.677   0.304   4.456
 3814SOL    HW112341   6.735   0.225   4.439
 3814SOL    HW212342   6.681   0.328   4.553
 3815SOL     OW12343   4.141   2.730   1.176
 3815SOL    HW112344   4.114   2.698   1.085
 3815SOL    HW212345   4.151   2.651   1.237
 3816SOL     OW12346   0.893   5.727   6.012
 3816SOL    HW112347   0.976   5.776   5.982
 3816SOL    HW212348   0.916   5.631   6.031
 3817SOL     OW12349   4.947   3.726   2.229
 3817SOL    HW112350   4.970   3.638   2.188
 3817SOL    HW212351   4.858   3.757   2.196
 3818SOL     OW12352   6.945   0.646   1.076
 3818SOL    HW112353   6.912   0.737   1.102
 3818SOL    HW212354   0.021   0.647   1.068
 3819SOL     OW12355   5.781   4.676   2.539
 3819SOL    HW112356   5.695   4.647   2.581
 3819SOL    HW212357   5.852   4.685   2.610
 3820SOL     OW12358   6.555   6.236   3.422
 3820SOL    HW112359   6.644   6.237   3.468
 3820SOL    HW212360   6.540   6.146   3.380
 3821SOL     OW12361   1.257   1.196   1.917
 3821SOL    HW112362   1.230   1.260   1.988
 3821SOL    HW212363   1.323   1.131   1.953
 3822SOL     OW12364   2.283   6.969   6.491
 3822SOL    HW112365   2.365   6.976   6.548
 3822SOL    HW212366   2.306   6.920   6.407
 3823SOL     OW12367   4.218   3.994   6.477
 3823SOL    HW112368   4.213   4.062   6.404
 3823SOL    HW212369   4.126   3.957   6.493
 3824SOL     OW12370   0.964   2.572   0.693
 3824SOL    HW112371   0.982   2.528   0.781
 3824SOL    HW212372   0.929   2.504   0.629
 3825SOL     OW12373   1.131   4.272   0.330
 3825SOL    HW112374   1.054   4.233   0.381
 3825SOL    HW212375   1.096   4.340   0.265
 3826SOL     OW12376   6.849   3.476   1.514
 3826SOL    HW112377   6.798   3.389   1.517
 3826SOL    HW212378   6.790   3.550   1.545
 3827SOL     OW12379   1.000   0.987   1.318
 3827SOL    HW112380   1.077   0.982   1.382
 3827SOL    HW212381   1.002   0.908   1.257
 3828SOL     OW12382   3.626   3.846   4.062
 3828SOL    HW112383   3.662   3.928   4.017
 3828SOL    HW212384   3.655   3.846   4.158
 3829SOL     OW12385   0.520   5.002   2.025
 3829SOL    HW112386   0.566   4.923   2.064
 3829SOL    HW212387   0.440   4.972   1.972
 3830SOL     OW12388   0.623   1.355   5.789
 3830SOL    HW112389   0.552   1.425   5.777
 3830SOL    HW212390   0.581   1.264   5.786
 3831SOL     OW12391   4.521   2.466   2.537
 3831SOL    HW112392   4.500   2.501   2.628
 3831SOL    HW212393   4.507   2.539   2.470
 3832SOL     OW12394   0.124   0.713   2.260
 3832SOL    HW112395   0.105   0.786   2.325
 3832SOL    HW212396   0.109   0.746   2.167
 3833SOL     OW12397   0.516   5.828   6.445
 3833SOL    HW112398   0.604   5.821   6.490
 3833SOL    HW212399   0.488   5.924   6.440
 3834SOL     OW12400   3.900   4.338   1.022
 3834SOL    HW112401   3.934   4.245   1.036
 3834SOL    HW212402   3.963   4.388   0.963
 3835SOL     OW12403   4.127   6.143   5.413
 3835SOL    HW112404   4.082   6.231   5.404
 3835SOL    HW212405   4.124   6.094   5.326
 3836SOL     OW12406   6.900   5.078   5.780
 3836SOL    HW112407   6.969   5.022   5.825
 3836SOL    HW212408   6.910   5.070   5.681
 3837SOL     OW12409   4.378   4.910   5.327
 3837SOL    HW112410   4.293   4.862   5.310
 3837SOL    HW212411   4.358   5.005   5.352
 3838SOL     OW12412   1.331   2.817   3.678
 3838SOL    HW112413   1.365   2.900   3.722
 3838SOL    HW212414   1.260   2.775   3.734
 3839SOL     OW12415   5.139   1.589   2.626
 3839SOL    HW112416   5.186   1.653   2.686
 3839SOL    HW212417   5.114   1.507   2.678
 3840SOL     OW12418   2.973   1.481   6.679
 3840SOL    HW112419   2.957   1.420   6.601
 3840SOL    HW212420   3.072   1.485   6.698
 3841SOL     OW12421   0.992   3.363   4.493
 3841SOL    HW112422   0.968   3.446   4.542
 3841SOL    HW212423   1.029   3.296   4.558
 3842SOL     OW12424   2.308   2.911   3.476
 3842SOL    HW112425   2.235   2.890   3.541
 3842SOL    HW212426   2.295   3.003   3.439
 3843SOL     OW12427   5.332   3.391   2.380
 3843SOL    HW112428   5.388   3.466   2.414
 3843SOL    HW212429   5.236   3.410   2.399
 3844SOL     OW12430   1.560   3.176   6.014
 3844SOL    HW112431   1.600   3.173   6.106
 3844SOL    HW212432   1.461   3.188   6.020
 3845SOL     OW12433   2.673   5.187   5.942
 3845SOL    HW112434   2.610   5.110   5.933
 3845SOL    HW212435   2.669   5.244   5.859
 3846SOL     OW12436   1.029   4.199   3.682
 3846SOL    HW112437   1.119   4.164   3.654
 3846SOL    HW212438   1.003   4.159   3.770
 3847SOL     OW12439   5.457   3.052   4.524
 3847SOL    HW112440   5.407   3.117   4.581
 3847SOL    HW212441   5.505   2.986   4.582
 3848SOL     OW12442   4.954   4.148   3.029
 3848SOL    HW112443   4.939   4.057   2.989
 3848SOL    HW212444   5.045   4.180   3.005
 3849SOL     OW12445   1.532   1.290   6.351
 3849SOL    HW112446   1.503   1.210   6.298
 3849SOL    HW212447   1.488   1.288   6.441
 3850SOL     OW12448   2.885   2.837   1.577
 3850SOL    HW112449   2.796   2.855   1.534
 3850SOL    HW212450   2.901   2.738   1.580
 3851SOL     OW12451   0.292   4.309   3.611
 3851SOL    HW112452   0.211   4.280   3.561
 3851SOL    HW212453   0.312   4.244   3.683
 3852SOL     OW12454   3.867   6.091   3.639
 3852SOL    HW112455   3.772   6.104   3.612
 3852SOL    HW212456   3.903   6.175   3.678
 3853SOL     OW12457   1.115   3.660   3.361
 3853SOL    HW112458   1.101   3.721   3.283
 3853SOL    HW212459   1.032   3.655   3.416
 3854SOL     OW12460   1.408   2.439   2.713
 3854SOL    HW112461   1.448   2.360   2.759
 3854SOL    HW212462   1.433   2.437   2.616
 3855SOL     OW12463   4.418   6.257   6.514
 3855SOL    HW112464   4.320   6.261   6.499
 3855SOL    HW212465   4.447   6.330   6.575
 3856SOL     OW12466   0.174   0.390   5.985
 3856SOL    HW112467   0.227   0.424   6.062
 3856SOL    HW212468   0.236   0.350   5.917
 3857SOL     OW12469   0.790   6.294   6.421
 3857SOL    HW112470   0.754   6.300   6.515
 3857SOL    HW212471   0.884   6.261   6.424
 3858SOL     OW12472   3.012   0.984   6.090
 3858SOL    HW112473   2.994   0.927   6.010
 3858SOL    HW212474   2.933   1.042   6.108
 3859SOL     OW12475   6.683   1.035   1.651
 3859SOL    HW112476   6.590   0.998   1.646
 3859SOL    HW212477   6.726   1.007   1.736
 3860SOL     OW12478   1.439   1.571   4.111
 3860SOL    HW112479   1.457   1.574   4.210
 3860SOL    HW212480   1.354   1.522   4.094
 3861SOL     OW12481   4.250   5.253   4.117
 3861SOL    HW112482   4.311   5.333   4.116
 3861SOL    HW212483   4.276   5.192   4.192
 3862SOL     OW12484   0.561   0.920   4.531
 3862SOL    HW112485   0.588   0.849   4.466
 3862SOL    HW212486   0.516   0.994   4.482
 3863SOL     OW12487   5.952   2.336   0.035
 3863SOL    HW112488   6.004   2.254   0.060
 3863SOL    HW212489   5.857   2.311   0.015
 3864SOL     OW12490   1.815   0.628   5.948
 3864SOL    HW112491   1.881   0.638   6.022
 3864SOL    HW212492   1.742   0.566   5.976
 3865SOL     OW12493   3.697   0.910   1.392
 3865SOL    HW112494   3.788   0.951   1.382
 3865SOL    HW212495   3.651   0.951   1.471
 3866SOL     OW12496   3.820   0.082   0.423
 3866SOL    HW112497   3.810   0.182   0.419
 3866SOL    HW212498   3.730   0.040   0.425
 3867SOL     OW12499   0.342   5.729   3.666
 3867SOL    HW112500   0.318   5.819   3.700
 3867SOL    HW212501   0.263   5.668   3.675
 3868SOL     OW12502   3.272   0.570   0.124
 3868SOL    HW112503   3.302   0.554   0.030
 3868SOL    HW212504   3.316   0.505   0.185
 3869SOL     OW12505   6.308   3.297   4.658
 3869SOL    HW112506   6.321   3.389   4.620
 3869SOL    HW212507   6.294   3.232   4.584
 3870SOL     OW12508   6.326   6.885   0.686
 3870SOL    HW112509   6.320   6.977   0.725
 3870SOL    HW212510   6.234   6.850   0.668
 3871SOL     OW12511   4.097   0.829   3.151
 3871SOL    HW112512   4.009   0.869   3.176
 3871SOL    HW212513   4.144   0.798   3.234
 3872SOL     OW12514   3.133   3.116   3.699
 3872SOL    HW112515   3.057   3.138   3.760
 3872SOL    HW212516   3.120   3.162   3.611
 3873SOL     OW12517   6.223   4.022   1.162
 3873SOL    HW112518   6.140   4.076   1.149
 3873SOL    HW212519   6.211   3.932   1.121
 3874SOL     OW12520   4.814   5.959   0.537
 3874SOL    HW112521   4.863   6.042   0.512
 3874SOL    HW212522   4.752   5.978   0.614
 3875SOL     OW12523   2.048   3.442   2.471
 3875SOL    HW112524   2.083   3.479   2.385
 3875SOL    HW212525   2.008   3.516   2.525
 3876SOL     OW12526   3.592   5.536   0.964
 3876SOL    HW112527   3.688   5.556   0.943
 3876SOL    HW212528   3.551   5.486   0.889
 3877SOL     OW12529   6.093   2.653   1.103
 3877SOL    HW112530   6.121   2.671   1.197
 3877SOL    HW212531   6.038   2.729   1.069
 3878SOL     OW12532   3.791   6.563   4.618
 3878SOL    HW112533   3.798   6.518   4.707
 3878SOL    HW212534   3.793   6.494   4.545
 3879SOL     OW12535   5.955   5.023   1.049
 3879SOL    HW112536   5.940   4.963   0.970
 3879SOL    HW212537   6.008   5.103   1.020
 3880SOL     OW12538   5.345   4.824   4.248
 3880SOL    HW112539   5.370   4.906   4.299
 3880SOL    HW212540   5.267   4.780   4.292
 3881SOL     OW12541   1.315   3.068   1.946
 3881SOL    HW112542   1.342   3.042   2.039
 3881SOL    HW212543   1.352   3.003   1.881
 3882SOL     OW12544   1.057   1.366   6.078
 3882SOL    HW112545   1.050   1.466   6.075
 3882SOL    HW212546   1.153   1.340   6.094
 3883SOL     OW12547   4.784   0.895   2.165
 3883SOL    HW112548   4.694   0.937   2.156
 3883SOL    HW212549   4.789   0.845   2.252
 3884SOL     OW12550   1.328   5.669   2.455
 3884SOL    HW112551   1.386   5.597   2.419
 3884SOL    HW212552   1.383   5.752   2.468
 3885SOL     OW12553   5.617   5.957   2.432
 3885SOL    HW112554   5.573   5.912   2.353
 3885SOL    HW212555   5.641   5.888   2.500
 3886SOL     OW12556   5.725   5.026   5.177
 3886SOL    HW112557   5.659   5.000   5.106
 3886SOL    HW212558   5.729   4.954   5.247
 3887SOL     OW12559   1.061   0.443   7.009
 3887SOL    HW112560   1.151   0.447   6.966
 3887SOL    HW212561   0.991   0.469   6.943
 3888SOL     OW12562   6.714   0.364   4.706
 3888SOL    HW112563   6.791   0.427   4.702
 3888SOL    HW212564   6.709   0.323   4.797
 3889SOL     OW12565   0.176   3.765   0.379
 3889SOL    HW112566   0.261   3.775   0.327
 3889SOL    HW212567   0.113   3.838   0.352
 3890SOL     OW12568   5.959   5.344   3.647
 3890SOL    HW112569   5.895   5.362   3.572
 3890SOL    HW212570   5.928   5.392   3.730
 3891SOL     OW12571   5.521   4.389   4.533
 3891SOL    HW112572   5.569   4.323   4.591
 3891SOL    HW212573   5.556   4.382   4.439
 3892SOL     OW12574   6.917   2.053   1.645
 3892SOL    HW112575   7.013   2.036   1.665
 3892SOL    HW212576   6.909   2.125   1.576
 3893SOL     OW12577   4.598   4.154   0.303
 3893SOL    HW112578   4.514   4.174   0.252
 3893SOL    HW212579   4.577   4.147   0.400
 3894SOL     OW12580   4.385   1.024   1.070
 3894SOL    HW112581   4.344   1.064   1.152
 3894SOL    HW212582   4.336   1.055   0.989
 3895SOL     OW12583   1.968   0.809   4.958
 3895SOL    HW112584   2.052   0.863   4.965
 3895SOL    HW212585   1.966   0.740   5.030
 3896SOL     OW12586   0.164   0.953   5.668
 3896SOL    HW112587   0.121   1.038   5.696
 3896SOL    HW212588   0.102   0.877   5.684
 3897SOL     OW12589   3.403   5.354   2.743
 3897SOL    HW112590   3.370   5.423   2.680
 3897SOL    HW212591   3.334   5.336   2.813
 3898SOL     OW12592   2.749   3.638   5.368
 3898SOL    HW112593   2.697   3.595   5.442
 3898SOL    HW212594   2.713   3.729   5.350
 3899SOL     OW12595   5.512   6.927   4.901
 3899SOL    HW112596   5.422   6.883   4.907
 3899SOL    HW212597   5.502   7.016   4.856
 3900SOL     OW12598   5.382   3.085   4.023
 3900SOL    HW112599   5.346   2.993   4.011
 3900SOL    HW212600   5.382   3.132   3.935
 3901SOL     OW12601   2.734   0.203   5.700
 3901SOL    HW112602   2.807   0.186   5.634
 3901SOL    HW212603   2.755   0.157   5.786
 3902SOL     OW12604   5.345   3.544   1.904
 3902SOL    HW112605   5.305   3.486   1.834
 3902SOL    HW212606   5.428   3.587   1.869
 3903SOL     OW12607   3.675   6.041   6.244
 3903SOL    HW112608   3.653   6.026   6.148
 3903SOL    HW212609   3.732   6.124   6.252
 3904SOL     OW12610   2.760   1.472   5.377
 3904SOL    HW112611   2.677   1.428   5.413
 3904SOL    HW212612   2.755   1.475   5.277
 3905SOL     OW12613   0.057   0.436   6.765
 3905SOL    HW112614   0.156   0.423   6.771
 3905SOL    HW212615   0.036   0.528   6.734
 3906SOL     OW12616   4.863   4.931   6.152
 3906SOL    HW112617   4.941   4.871   6.142
 3906SOL    HW212618   4.860   4.968   6.245
 3907SOL     OW12619   5.802   0.201   4.770
 3907SOL    HW112620   5.770   0.269   4.836
 3907SOL    HW212621   5.896   0.177   4.790
 3908SOL     OW12622   1.386   2.481   0.836
 3908SOL    HW112623   1.310   2.453   0.894
 3908SOL    HW212624   1.443   2.402   0.814
 3909SOL     OW12625   0.280   5.276   5.514
 3909SOL    HW112626   0.194   5.283   5.464
 3909SOL    HW212627   0.314   5.182   5.509
 3910SOL     OW12628   3.416   3.196   1.576
 3910SOL    HW112629   3.325   3.166   1.604
 3910SOL    HW212630   3.459   3.246   1.651
 3911SOL     OW12631   4.628   0.959   0.018
 3911SOL    HW112632   4.620   1.032   0.087
 3911SOL    HW212633   4.545   0.904   0.017
 3912SOL     OW12634   4.718   6.953   5.794
 3912SOL    HW112635   4.649   7.015   5.757
 3912SOL    HW212636   4.675   6.867   5.820
 3913SOL     OW12637   1.754   6.847   5.941
 3913SOL    HW112638   1.670   6.884   5.980
 3913SOL    HW212639   1.801   6.791   6.010
 3914SOL     OW12640   4.076   1.166   1.158
 3914SOL    HW112641   4.157   1.194   1.210
 3914SOL    HW212642   4.100   1.154   1.062
 3915SOL     OW12643   3.809   5.200   2.175
 3915SOL    HW112644   3.799   5.289   2.219
 3915SOL    HW212645   3.901   5.192   2.137
 3916SOL     OW12646   1.750   6.315   3.634
 3916SOL    HW112647   1.762   6.406   3.673
 3916SOL    HW212648   1.797   6.248   3.692
 3917SOL     OW12649   0.318   5.398   0.642
 3917SOL    HW112650   0.270   5.409   0.555
 3917SOL    HW212651   0.251   5.390   0.716
 3918SOL     OW12652   4.785   6.723   2.058
 3918SOL    HW112653   4.711   6.777   2.018
 3918SOL    HW212654   4.873   6.768   2.038
 3919SOL     OW12655   2.170   5.798   6.333
 3919SOL    HW112656   2.103   5.749   6.389
 3919SOL    HW212657   2.185   5.750   6.247
 3920SOL     OW12658   2.814   2.953   0.369
 3920SOL    HW112659   2.804   3.049   0.393
 3920SOL    HW212660   2.910   2.927   0.373
 3921SOL     OW12661   6.926   3.179   1.287
 3921SOL    HW112662   7.007   3.237   1.289
 3921SOL    HW212663   6.884   3.183   1.196
 3922SOL     OW12664   5.705   4.306   2.168
 3922SOL    HW112665   5.745   4.372   2.232
 3922SOL    HW212666   5.719   4.213   2.202
 3923SOL     OW12667   0.098   2.284   6.466
 3923SOL    HW112668   0.076   2.227   6.545
 3923SOL    HW212669   0.195   2.274   6.443
 3924SOL     OW12670   0.574   5.443   3.465
 3924SOL    HW112671   0.546   5.424   3.371
 3924SOL    HW212672   0.668   5.412   3.478
 3925SOL     OW12673   3.317   5.007   0.432
 3925SOL    HW112674   3.317   4.922   0.379
 3925SOL    HW212675   3.392   5.004   0.499
 3926SOL     OW12676   6.623   5.596   3.207
 3926SOL    HW112677   6.614   5.497   3.196
 3926SOL    HW212678   6.582   5.624   3.293
 3927SOL     OW12679   6.552   3.480   3.595
 3927SOL    HW112680   6.589   3.432   3.515
 3927SOL    HW212681   6.488   3.551   3.566
 3928SOL     OW12682   2.891   6.400   5.799
 3928SOL    HW112683   2.873   6.496   5.780
 3928SOL    HW212684   2.914   6.353   5.713
 3929SOL     OW12685   0.154   1.419   5.801
 3929SOL    HW112686   0.149   1.514   5.770
 3929SOL    HW212687   0.071   1.371   5.772
 3930SOL     OW12688   2.054   1.897   3.970
 3930SOL    HW112689   2.006   1.825   3.922
 3930SOL    HW212690   2.032   1.986   3.930
 3931SOL     OW12691   1.634   1.714   2.395
 3931SOL    HW112692   1.730   1.720   2.364
 3931SOL    HW212693   1.616   1.621   2.427
 3932SOL     OW12694   1.444   4.280   2.823
 3932SOL    HW112695   1.530   4.290   2.873
 3932SOL    HW212696   1.462   4.258   2.728
 3933SOL     OW12697   1.701   6.640   0.197
 3933SOL    HW112698   1.635   6.638   0.122
 3933SOL    HW212699   1.655   6.669   0.281
 3934SOL     OW12700   0.192   0.586   1.087
 3934SOL    HW112701   0.237   0.497   1.093
 3934SOL    HW212702   0.257   0.654   1.056
 3935SOL     OW12703   2.387   0.175   0.080
 3935SOL    HW112704   2.399   0.236   0.001
 3935SOL    HW212705   2.426   0.086   0.060
 3936SOL     OW12706   6.619   5.079   5.561
 3936SOL    HW112707   6.538   5.112   5.608
 3936SOL    HW212708   6.694   5.067   5.626
 3937SOL     OW12709   6.714   0.897   2.560
 3937SOL    HW112710   6.672   0.892   2.650
 3937SOL    HW212711   6.731   0.804   2.526
 3938SOL     OW12712   6.820   1.478   3.936
 3938SOL    HW112713   6.894   1.454   3.872
 3938SOL    HW212714   6.853   1.548   3.999
 3939SOL     OW12715   2.471   2.014   2.289
 3939SOL    HW112716   2.395   2.023   2.224
 3939SOL    HW212717   2.554   2.051   2.248
 3940SOL     OW12718   4.375   5.132   2.014
 3940SOL    HW112719   4.276   5.147   2.016
 3940SOL    HW212720   4.420   5.201   2.071
 3941SOL     OW12721   4.989   1.735   6.700
 3941SOL    HW112722   4.973   1.795   6.622
 3941SOL    HW212723   4.954   1.643   6.680
 3942SOL     OW12724   0.351   0.500   6.564
 3942SOL    HW112725   0.294   0.464   6.490
 3942SOL    HW212726   0.335   0.448   6.648
 3943SOL     OW12727   0.963   4.227   3.013
 3943SOL    HW112728   0.907   4.298   2.971
 3943SOL    HW212729   1.052   4.224   2.968
 3944SOL     OW12730   5.513   3.365   5.290
 3944SOL    HW112731   5.416   3.362   5.314
 3944SOL    HW212732   5.538   3.457   5.259
 3945SOL     OW12733   0.947   2.208   1.994
 3945SOL    HW112734   0.928   2.134   1.929
 3945SOL    HW212735   1.041   2.240   1.981
 3946SOL     OW12736   5.702   5.977   6.178
 3946SOL    HW112737   5.775   5.964   6.111
 3946SOL    HW212738   5.740   5.983   6.270
 3947SOL     OW12739   6.117   5.238   0.932
 3947SOL    HW112740   6.113   5.276   1.024
 3947SOL    HW212741   6.031   5.258   0.884
 3948SOL     OW12742   0.783   5.720   1.891
 3948SOL    HW112743   0.761   5.626   1.918
 3948SOL    HW212744   0.862   5.752   1.943
 3949SOL     OW12745   5.973   0.408   3.063
 3949SOL    HW112746   5.895   0.347   3.078
 3949SOL    HW212747   5.941   0.502   3.051
 3950SOL     OW12748   2.273   4.009   1.562
 3950SOL    HW112749   2.177   4.036   1.560
 3950SOL    HW212750   2.287   3.930   1.503
 3951SOL     OW12751   6.068   6.980   1.137
 3951SOL    HW112752   6.047   6.981   1.235
 3951SOL    HW212753   6.076   6.885   1.106
 3952SOL     OW12754   6.272   3.811   2.471
 3952SOL    HW112755   6.361   3.769   2.492
 3952SOL    HW212756   6.287   3.902   2.431
 3953SOL     OW12757   4.149   4.120   1.048
 3953SOL    HW112758   4.108   4.081   1.130
 3953SOL    HW212759   4.226   4.062   1.019
 3954SOL     OW12760   5.634   5.562   5.159
 3954SOL    HW112761   5.580   5.603   5.085
 3954SOL    HW212762   5.632   5.462   5.149
 3955SOL     OW12763   2.948   5.320   6.065
 3955SOL    HW112764   2.878   5.272   6.013
 3955SOL    HW212765   3.024   5.343   6.004
 3956SOL     OW12766   0.304   0.914   2.986
 3956SOL    HW112767   0.340   0.821   2.990
 3956SOL    HW212768   0.222   0.921   3.043
 3957SOL     OW12769   4.668   6.597   3.837
 3957SOL    HW112770   4.751   6.617   3.890
 3957SOL    HW212771   4.592   6.651   3.872
 3958SOL     OW12772   5.819   0.528   5.971
 3958SOL    HW112773   5.765   0.610   5.953
 3958SOL    HW212774   5.905   0.532   5.919
 3959SOL     OW12775   3.619   6.017   1.085
 3959SOL    HW112776   3.528   5.997   1.123
 3959SOL    HW212777   3.652   5.937   1.035
 3960SOL     OW12778   4.575   1.449   6.642
 3960SOL    HW112779   4.635   1.465   6.564
 3960SOL    HW212780   4.496   1.510   6.636
 3961SOL     OW12781   5.585   2.404   2.431
 3961SOL    HW112782   5.492   2.384   2.399
 3961SOL    HW212783   5.630   2.464   2.365
 3962SOL     OW12784   2.719   4.844   6.884
 3962SOL    HW112785   2.773   4.802   6.812
 3962SOL    HW212786   2.779   4.900   6.942
 3963SOL     OW12787   4.631   4.437   4.094
 3963SOL    HW112788   4.681   4.518   4.124
 3963SOL    HW212789   4.688   4.356   4.106
 3964SOL     OW12790   3.896   4.890   3.759
 3964SOL    HW112791   3.923   4.876   3.663
 3964SOL    HW212792   3.798   4.911   3.763
 3965SOL     OW12793   4.552   3.141   6.185
 3965SOL    HW112794   4.555   3.218   6.249
 3965SOL    HW212795   4.463   3.141   6.139
 3966SOL     OW12796   5.388   5.990   0.848
 3966SOL    HW112797   5.375   6.089   0.846
 3966SOL    HW212798   5.301   5.944   0.830
 3967SOL     OW12799   1.373   4.004   1.938
 3967SOL    HW112800   1.338   3.914   1.912
 3967SOL    HW212801   1.473   4.001   1.940
 3968SOL     OW12802   4.850   0.329   1.171
 3968SOL    HW112803   4.756   0.357   1.153
 3968SOL    HW212804   4.867   0.329   1.269
 3969SOL     OW12805   1.664   3.912   2.348
 3969SOL    HW112806   1.633   3.821   2.376
 3969SOL    HW212807   1.591   3.959   2.298
 3970SOL     OW12808   5.453   6.034   3.953
 3970SOL    HW112809   5.401   5.949   3.960
 3970SOL    HW212810   5.550   6.015   3.969
 3971SOL     OW12811   2.441   4.899   1.675
 3971SOL    HW112812   2.400   4.990   1.665
 3971SOL    HW212813   2.539   4.908   1.687
 3972SOL     OW12814   1.092   5.299   0.680
 3972SOL    HW112815   1.089   5.269   0.585
 3972SOL    HW212816   1.105   5.219   0.739
 3973SOL     OW12817   1.044   4.780   5.653
 3973SOL    HW112818   1.139   4.808   5.635
 3973SOL    HW212819   1.003   4.745   5.568
 3974SOL     OW12820   1.403   0.769   4.503
 3974SOL    HW112821   1.380   0.720   4.419
 3974SOL    HW212822   1.497   0.805   4.496
 3975SOL     OW12823   6.084   0.851   5.610
 3975SOL    HW112824   6.097   0.826   5.706
 3975SOL    HW212825   5.988   0.875   5.595
 3976SOL     OW12826   1.563   6.512   1.768
 3976SOL    HW112827   1.587   6.426   1.721
 3976SOL    HW212828   1.486   6.555   1.722
 3977SOL     OW12829   3.013   4.193   5.700
 3977SOL    HW112830   3.029   4.177   5.797
 3977SOL    HW212831   3.099   4.187   5.650
 3978SOL     OW12832   5.245   6.265   5.140
 3978SOL    HW112833   5.318   6.319   5.099
 3978SOL    HW212834   5.159   6.314   5.134
 3979SOL     OW12835   2.950   5.871   0.061
 3979SOL    HW112836   3.041   5.905   0.084
 3979SOL    HW212837   2.958   5.786   0.009
 3980SOL     OW12838   0.468   5.661   0.368
 3980SOL    HW112839   0.456   5.743   0.424
 3980SOL    HW212840   0.379   5.633   0.331
 3981SOL     OW12841   1.863   1.308   0.577
 3981SOL    HW112842   1.869   1.407   0.571
 3981SOL    HW212843   1.922   1.267   0.507
 3982SOL     OW12844   1.821   0.168   4.353
 3982SOL    HW112845   1.812   0.180   4.254
 3982SOL    HW212846   1.795   0.075   4.378
 3983SOL     OW12847   5.180   5.387   4.636
 3983SOL    HW112848   5.113   5.315   4.658
 3983SOL    HW212849   5.265   5.369   4.686
 3984SOL     OW12850   7.011   1.092   2.718
 3984SOL    HW112851   0.086   1.088   2.698
 3984SOL    HW212852   6.962   1.125   2.637
 3985SOL     OW12853   3.812   4.543   6.471
 3985SOL    HW112854   3.882   4.541   6.543
 3985SOL    HW212855   3.802   4.636   6.436
 3986SOL     OW12856   6.532   1.789   3.316
 3986SOL    HW112857   6.489   1.877   3.334
 3986SOL    HW212858   6.619   1.804   3.269
 3987SOL     OW12859   2.926   5.185   3.615
 3987SOL    HW112860   2.898   5.261   3.556
 3987SOL    HW212861   2.905   5.207   3.710
 3988SOL     OW12862   4.215   4.032   6.745
 3988SOL    HW112863   4.208   4.000   6.650
 3988SOL    HW212864   4.134   4.003   6.796
 3989SOL     OW12865   6.765   2.501   6.686
 3989SOL    HW112866   6.705   2.469   6.759
 3989SOL    HW212867   6.712   2.557   6.622
 3990SOL     OW12868   5.322   2.287   3.223
 3990SOL    HW112869   5.317   2.352   3.148
 3990SOL    HW212870   5.318   2.336   3.310
 3991SOL     OW12871   5.950   0.852   2.514
 3991SOL    HW112872   6.003   0.933   2.539
 3991SOL    HW212873   5.885   0.876   2.441
 3992SOL     OW12874   3.774   2.071   6.984
 3992SOL    HW112875   3.697   2.059   0.024
 3992SOL    HW212876   3.739   2.099   6.895
 3993SOL     OW12877   1.096   1.567   2.970
 3993SOL    HW112878   1.112   1.569   2.872
 3993SOL    HW212879   1.031   1.639   2.995
 3994SOL     OW12880   0.916   1.008   6.467
 3994SOL    HW112881   0.879   1.029   6.377
 3994SOL    HW212882   1.010   0.975   6.458
 3995SOL     OW12883   2.016   3.793   5.586
 3995SOL    HW112884   2.012   3.715   5.647
 3995SOL    HW212885   1.990   3.765   5.493
 3996SOL     OW12886   0.968   1.301   4.185
 3996SOL    HW112887   0.998   1.260   4.099
 3996SOL    HW212888   0.958   1.229   4.254
 3997SOL     OW12889   5.117   1.262   3.620
 3997SOL    HW112890   5.032   1.229   3.661
 3997SOL    HW212891   5.104   1.356   3.588
 3998SOL     OW12892   4.598   1.002   3.573
 3998SOL    HW112893   4.527   1.051   3.522
 3998SOL    HW212894   4.641   1.064   3.639
 3999SOL     OW12895   5.989   3.461   3.642
 3999SOL    HW112896   6.019   3.377   3.597
 3999SOL    HW212897   6.068   3.522   3.656
 4000SOL     OW12898   2.996   5.742   3.009
 4000SOL    HW112899   2.937   5.739   3.089
 4000SOL    HW212900   2.966   5.814   2.947
 4001SOL     OW12901   2.707   2.053   4.162
 4001SOL    HW112902   2.772   2.065   4.087
 4001SOL    HW212903   2.694   2.139   4.210
 4002SOL     OW12904   2.938   3.243   0.894
 4002SOL    HW112905   2.921   3.338   0.870
 4002SOL    HW212906   2.879   3.184   0.839
 4003SOL     OW12907   3.054   6.116   4.001
 4003SOL    HW112908   3.010   6.104   3.912
 4003SOL    HW212909   3.144   6.071   4.000
 4004SOL     OW12910   5.458   2.194   4.515
 4004SOL    HW112911   5.417   2.284   4.527
 4004SOL    HW212912   5.500   2.188   4.425
 4005SOL     OW12913   4.372   5.725   0.440
 4005SOL    HW112914   4.361   5.716   0.539
 4005SOL    HW212915   4.467   5.746   0.419
 4006SOL     OW12916   3.371   5.382   3.251
 4006SOL    HW112917   3.338   5.321   3.323
 4006SOL    HW212918   3.464   5.412   3.272
 4007SOL     OW12919   0.816   2.864   1.484
 4007SOL    HW112920   0.886   2.924   1.444
 4007SOL    HW212921   0.768   2.815   1.412
 4008SOL     OW12922   3.097   1.895   3.689
 4008SOL    HW112923   3.184   1.912   3.644
 4008SOL    HW212924   3.052   1.983   3.708
 4009SOL     OW12925   5.170   3.521   1.235
 4009SOL    HW112926   5.089   3.501   1.290
 4009SOL    HW212927   5.198   3.439   1.185
 4010SOL     OW12928   2.386   2.693   1.928
 4010SOL    HW112929   2.325   2.613   1.933
 4010SOL    HW212930   2.331   2.776   1.921
 4011SOL     OW12931   0.489   0.839   2.413
 4011SOL    HW112932   0.444   0.763   2.368
 4011SOL    HW212933   0.542   0.891   2.346
 4012SOL     OW12934   4.271   5.661   1.452
 4012SOL    HW112935   4.343   5.620   1.507
 4012SOL    HW212936   4.312   5.726   1.387
 4013SOL     OW12937   2.680   6.965   6.275
 4013SOL    HW112938   2.613   6.940   6.206
 4013SOL    HW212939   2.634   7.006   6.354
 4014SOL     OW12940   4.497   6.006   3.004
 4014SOL    HW112941   4.402   5.989   3.031
 4014SOL    HW212942   4.516   5.960   2.917
 4015SOL     OW12943   4.956   5.171   6.038
 4015SOL    HW112944   5.014   5.172   6.120
 4015SOL    HW212945   4.876   5.114   6.055
 4016SOL     OW12946   2.577   5.546   6.285
 4016SOL    HW112947   2.550   5.451   6.300
 4016SOL    HW212948   2.513   5.607   6.333
 4017SOL     OW12949   0.423   5.974   1.211
 4017SOL    HW112950   0.340   5.922   1.186
 4017SOL    HW212951   0.495   5.910   1.238
 4018SOL     OW12952   4.898   6.106   3.421
 4018SOL    HW112953   4.893   6.029   3.357
 4018SOL    HW212954   4.826   6.172   3.399
 4019SOL     OW12955   5.859   3.922   2.832
 4019SOL    HW112956   5.870   3.857   2.907
 4019SOL    HW212957   5.837   3.872   2.748
 4020SOL     OW12958   4.813   1.971   5.674
 4020SOL    HW112959   4.829   2.055   5.623
 4020SOL    HW212960   4.884   1.961   5.745
 4021SOL     OW12961   3.584   4.050   6.346
 4021SOL    HW112962   3.546   4.014   6.261
 4021SOL    HW212963   3.515   4.046   6.418
 4022SOL     OW12964   4.107   0.254   6.972
 4022SOL    HW112965   4.100   0.238   0.048
 4022SOL    HW212966   4.170   0.187   6.932
 4023SOL     OW12967   6.341   1.931   4.732
 4023SOL    HW112968   6.311   1.836   4.732
 4023SOL    HW212969   6.302   1.978   4.652
 4024SOL     OW12970   3.618   5.882   3.133
 4024SOL    HW112971   3.586   5.802   3.082
 4024SOL    HW212972   3.632   5.958   3.071
 4025SOL     OW12973   1.263   5.950   4.124
 4025SOL    HW112974   1.224   5.912   4.040
 4025SOL    HW212975   1.275   5.877   4.191
 4026SOL     OW12976   6.018   6.230   4.268
 4026SOL    HW112977   5.995   6.323   4.239
 4026SOL    HW212978   6.110   6.207   4.238
 4027SOL     OW12979   3.707   4.064   1.930
 4027SOL    HW112980   3.699   4.083   2.028
 4027SOL    HW212981   3.674   4.143   1.878
 4028SOL     OW12982   1.377   2.062   3.944
 4028SOL    HW112983   1.290   2.097   3.909
 4028SOL    HW212984   1.383   1.964   3.927
 4029SOL     OW12985   1.602   4.221   6.591
 4029SOL    HW112986   1.700   4.200   6.595
 4029SOL    HW212987   1.554   4.149   6.541
 4030SOL     OW12988   1.398   2.010   5.849
 4030SOL    HW112989   1.315   2.043   5.895
 4030SOL    HW212990   1.478   2.049   5.895
 4031SOL     OW12991   4.876   5.909   3.253
 4031SOL    HW112992   4.904   5.853   3.175
 4031SOL    HW212993   4.843   5.850   3.326
 4032SOL     OW12994   6.013   6.950   2.784
 4032SOL    HW112995   6.017   6.992   2.693
 4032SOL    HW212996   6.029   7.020   2.853
 4033SOL     OW12997   3.438   2.971   3.348
 4033SOL    HW112998   3.529   2.948   3.314
 4033SOL    HW212999   3.371   2.961   3.274
 4034SOL     OW13000   5.342   1.259   5.339
 4034SOL    HW113001   5.395   1.317   5.401
 4034SOL    HW213002   5.255   1.235   5.383
 4035SOL     OW13003   6.734   4.315   1.136
 4035SOL    HW113004   6.642   4.277   1.141
 4035SOL    HW213005   6.731   4.413   1.156
 4036SOL     OW13006   5.445   6.590   2.163
 4036SOL    HW113007   5.352   6.627   2.158
 4036SOL    HW213008   5.502   6.648   2.221
 4037SOL     OW13009   2.044   2.891   0.509
 4037SOL    HW113010   2.111   2.817   0.515
 4037SOL    HW213011   2.070   2.965   0.572
 4038SOL     OW13012   4.619   4.817   1.985
 4038SOL    HW113013   4.572   4.853   1.904
 4038SOL    HW213014   4.565   4.840   2.067
 4039SOL     OW13015   4.473   5.080   1.352
 4039SOL    HW113016   4.479   4.988   1.390
 4039SOL    HW213017   4.562   5.108   1.317
 4040SOL     OW13018   2.713   6.537   0.150
 4040SOL    HW113019   2.639   6.488   0.103
 4040SOL    HW213020   2.711   6.515   0.247
 4041SOL     OW13021   1.670   6.078   2.243
 4041SOL    HW113022   1.583   6.114   2.276
 4041SOL    HW213023   1.652   6.013   2.169
 4042SOL     OW13024   6.073   4.665   2.337
 4042SOL    HW113025   6.062   4.720   2.420
 4042SOL    HW213026   6.170   4.665   2.309
 4043SOL     OW13027   5.742   1.964   3.904
 4043SOL    HW113028   5.767   2.051   3.861
 4043SOL    HW213029   5.825   1.914   3.929
 4044SOL     OW13030   6.021   0.723   4.507
 4044SOL    HW113031   5.949   0.676   4.559
 4044SOL    HW213032   6.073   0.656   4.454
 4045SOL     OW13033   2.489   4.246   6.114
 4045SOL    HW113034   2.503   4.336   6.074
 4045SOL    HW213035   2.401   4.209   6.084
 4046SOL     OW13036   0.593   1.995   3.201
 4046SOL    HW113037   0.674   1.964   3.250
 4046SOL    HW213038   0.594   2.094   3.194
 4047SOL     OW13039   2.284   3.617   0.553
 4047SOL    HW113040   2.242   3.542   0.503
 4047SOL    HW213041   2.223   3.696   0.552
 4048SOL     OW13042   5.714   0.819   1.645
 4048SOL    HW113043   5.731   0.915   1.623
 4048SOL    HW213044   5.759   0.761   1.578
 4049SOL     OW13045   6.427   6.286   6.781
 4049SOL    HW113046   6.463   6.267   6.873
 4049SOL    HW213047   6.499   6.273   6.713
 4050SOL     OW13048   1.772   6.805   6.768
 4050SOL    HW113049   1.803   6.899   6.786
 4050SOL    HW213050   1.843   6.741   6.796
 4051SOL     OW13051   2.964   4.073   7.005
 4051SOL    HW113052   3.001   3.982   7.019
 4051SOL    HW213053   2.894   4.070   6.933
 4052SOL     OW13054   1.179   6.956   1.130
 4052SOL    HW113055   1.250   7.017   1.165
 4052SOL    HW213056   1.089   6.986   1.163
 4053SOL     OW13057   3.379   4.900   4.017
 4053SOL    HW113058   3.478   4.908   4.007
 4053SOL    HW213059   3.334   4.958   3.949
 4054SOL     OW13060   2.472   3.356   0.533
 4054SOL    HW113061   2.569   3.343   0.553
 4054SOL    HW213062   2.458   3.447   0.494
 4055SOL     OW13063   3.001   3.234   5.891
 4055SOL    HW113064   2.908   3.258   5.922
 4055SOL    HW213065   3.047   3.317   5.858
 4056SOL     OW13066   4.497   3.232   6.510
 4056SOL    HW113067   4.465   3.270   6.597
 4056SOL    HW213068   4.533   3.306   6.453
 4057SOL     OW13069   5.088   3.714   0.804
 4057SOL    HW113070   5.155   3.747   0.871
 4057SOL    HW213071   5.136   3.682   0.722
 4058SOL     OW13072   2.111   1.027   4.660
 4058SOL    HW113073   2.210   1.032   4.653
 4058SOL    HW213074   2.079   1.091   4.730
 4059SOL     OW13075   2.400   2.215   3.552
 4059SOL    HW113076   2.357   2.238   3.465
 4059SOL    HW213077   2.376   2.122   3.578
 4060SOL     OW13078   3.583   4.976   4.959
 4060SOL    HW113079   3.581   5.068   5.000
 4060SOL    HW213080   3.588   4.985   4.860
 4061SOL     OW13081   3.608   4.314   1.750
 4061SOL    HW113082   3.529   4.263   1.717
 4061SOL    HW213083   3.581   4.408   1.771
 4062SOL     OW13084   4.387   1.445   3.297
 4062SOL    HW113085   4.332   1.498   3.361
 4062SOL    HW213086   4.480   1.436   3.332
 4063SOL     OW13087   4.325   6.063   6.045
 4063SOL    HW113088   4.258   6.138   6.049
 4063SOL    HW213089   4.394   6.085   5.976
 4064SOL     OW13090   2.367   6.652   2.672
 4064SOL    HW113091   2.352   6.715   2.747
 4064SOL    HW213092   2.316   6.682   2.592
 4065SOL     OW13093   0.495   0.053   0.775
 4065SOL    HW113094   0.525   0.001   0.696
 4065SOL    HW213095   0.522   0.149   0.764
 4066SOL     OW13096   5.324   4.819   2.044
 4066SOL    HW113097   5.377   4.786   1.966
 4066SOL    HW213098   5.264   4.894   2.015
 4067SOL     OW13099   5.606   1.842   3.005
 4067SOL    HW113100   5.641   1.849   3.098
 4067SOL    HW213101   5.534   1.910   2.991
 4068SOL     OW13102   4.833   0.336   5.007
 4068SOL    HW113103   4.828   0.267   4.935
 4068SOL    HW213104   4.741   0.363   5.033
 4069SOL     OW13105   4.589   3.864   0.256
 4069SOL    HW113106   4.556   3.844   0.348
 4069SOL    HW213107   4.584   3.963   0.240
 4070SOL     OW13108   1.771   3.451   2.644
 4070SOL    HW113109   1.797   3.546   2.624
 4070SOL    HW213110   1.697   3.424   2.582
 4071SOL     OW13111   1.488   0.858   5.054
 4071SOL    HW113112   1.451   0.945   5.022
 4071SOL    HW213113   1.555   0.824   4.988
 4072SOL     OW13114   1.749   6.487   4.566
 4072SOL    HW113115   1.778   6.462   4.473
 4072SOL    HW213116   1.666   6.543   4.562
 4073SOL     OW13117   1.602   5.512   5.938
 4073SOL    HW113118   1.635   5.481   5.849
 4073SOL    HW213119   1.648   5.597   5.963
 4074SOL     OW13120   0.409   2.930   2.277
 4074SOL    HW113121   0.437   2.858   2.340
 4074SOL    HW213122   0.437   2.905   2.184
 4075SOL     OW13123   4.490   1.927   2.640
 4075SOL    HW113124   4.472   1.944   2.544
 4075SOL    HW213125   4.542   1.842   2.649
 4076SOL     OW13126   2.435   4.183   5.375
 4076SOL    HW113127   2.533   4.201   5.380
 4076SOL    HW213128   2.418   4.104   5.315
 4077SOL     OW13129   2.445   6.294   0.584
 4077SOL    HW113130   2.475   6.280   0.489
 4077SOL    HW213131   2.524   6.289   0.645
 4078SOL     OW13132   6.192   5.219   2.053
 4078SOL    HW113133   6.205   5.125   2.083
 4078SOL    HW213134   6.095   5.243   2.062
 4079SOL     OW13135   1.560   0.384   3.429
 4079SOL    HW113136   1.609   0.414   3.347
 4079SOL    HW213137   1.462   0.395   3.416
 4080SOL     OW13138   3.280   3.898   0.297
 4080SOL    HW113139   3.319   3.806   0.307
 4080SOL    HW213140   3.221   3.901   0.216
 4081SOL     OW13141   2.205   0.978   4.992
 4081SOL    HW113142   2.247   0.916   4.927
 4081SOL    HW213143   2.265   0.990   5.071
 4082SOL     OW13144   1.458   1.550   6.327
 4082SOL    HW113145   1.499   1.589   6.245
 4082SOL    HW213146   1.493   1.457   6.341
 4083SOL     OW13147   5.955   4.701   3.306
 4083SOL    HW113148   5.858   4.683   3.294
 4083SOL    HW213149   5.993   4.635   3.371
 4084SOL     OW13150   4.760   2.841   3.215
 4084SOL    HW113151   4.709   2.818   3.297
 4084SOL    HW213152   4.844   2.889   3.240
 4085SOL     OW13153   2.786   5.140   1.341
 4085SOL    HW113154   2.777   5.240   1.351
 4085SOL    HW213155   2.742   5.111   1.257
 4086SOL     OW13156   0.149   5.403   0.453
 4086SOL    HW113157   0.162   5.466   0.376
 4086SOL    HW213158   0.083   5.332   0.427
 4087SOL     OW13159   3.079   0.547   2.962
 4087SOL    HW113160   3.098   0.598   3.046
 4087SOL    HW213161   2.989   0.504   2.969
 4088SOL     OW13162   6.561   1.146   5.718
 4088SOL    HW113163   6.473   1.107   5.743
 4088SOL    HW213164   6.634   1.095   5.763
 4089SOL     OW13165   0.395   5.529   4.072
 4089SOL    HW113166   0.489   5.538   4.107
 4089SOL    HW213167   0.375   5.433   4.057
 4090SOL     OW13168   2.183   6.530   5.163
 4090SOL    HW113169   2.265   6.570   5.121
 4090SOL    HW213170   2.209   6.478   5.244
 4091SOL     OW13171   1.140   5.169   0.448
 4091SOL    HW113172   1.165   5.219   0.366
 4091SOL    HW213173   1.210   5.099   0.467
 4092SOL     OW13174   4.918   3.290   5.013
 4092SOL    HW113175   4.911   3.248   4.923
 4092SOL    HW213176   4.860   3.372   5.017
 4093SOL     OW13177   6.342   5.882   1.662
 4093SOL    HW113178   6.361   5.902   1.758
 4093SOL    HW213179   6.262   5.934   1.632
 4094SOL     OW13180   0.705   4.493   6.940
 4094SOL    HW113181   0.774   4.500   6.867
 4094SOL    HW213182   0.726   4.559   7.012
 4095SOL     OW13183   0.468   3.534   0.069
 4095SOL    HW113184   0.403   3.540   7.016
 4095SOL    HW213185   0.428   3.481   0.143
 4096SOL     OW13186   2.358   1.164   6.571
 4096SOL    HW113187   2.363   1.120   6.660
 4096SOL    HW213188   2.421   1.242   6.568
 4097SOL     OW13189   6.216   4.337   5.255
 4097SOL    HW113190   6.312   4.362   5.269
 4097SOL    HW213191   6.159   4.418   5.263
 4098SOL     OW13192   1.913   3.241   1.668
 4098SOL    HW113193   1.974   3.210   1.595
 4098SOL    HW213194   1.857   3.317   1.635
 4099SOL     OW13195   4.231   4.774   6.874
 4099SOL    HW113196   4.246   4.872   6.859
 4099SOL    HW213197   4.157   4.762   6.941
 4100SOL     OW13198   1.020   0.839   3.929
 4100SOL    HW113199   0.985   0.748   3.948
 4100SOL    HW213200   0.943   0.903   3.919
 4101SOL     OW13201   6.651   1.035   6.539
 4101SOL    HW113202   6.656   1.134   6.530
 4101SOL    HW213203   6.592   1.011   6.617
 4102SOL     OW13204   1.881   0.649   0.537
 4102SOL    HW113205   1.857   0.608   0.625
 4102SOL    HW213206   1.936   0.731   0.551
 4103SOL     OW13207   0.076   0.031   2.293
 4103SOL    HW113208   0.068   6.979   2.228
 4103SOL    HW213209   0.133   0.103   2.255
 4104SOL     OW13210   0.029   5.754   2.951
 4104SOL    HW113211   0.010   5.834   2.894
 4104SOL    HW213212   0.037   5.673   2.892
 4105SOL     OW13213   4.818   1.158   1.662
 4105SOL    HW113214   4.813   1.071   1.613
 4105SOL    HW213215   4.914   1.188   1.666
 4106SOL     OW13216   6.665   2.521   4.215
 4106SOL    HW113217   6.650   2.431   4.255
 4106SOL    HW213218   6.579   2.573   4.217
 4107SOL     OW13219   0.358   6.308   6.566
 4107SOL    HW113220   0.337   6.336   6.473
 4107SOL    HW213221   0.373   6.390   6.622
 4108SOL     OW13222   1.244   5.519   3.940
 4108SOL    HW113223   1.319   5.463   3.975
 4108SOL    HW213224   1.276   5.612   3.924
 4109SOL     OW13225   5.891   5.460   3.891
 4109SOL    HW113226   5.899   5.552   3.930
 4109SOL    HW213227   5.956   5.399   3.937
 4110SOL     OW13228   4.579   2.939   6.807
 4110SOL    HW113229   4.507   2.873   6.787
 4110SOL    HW213230   4.614   2.976   6.721
 4111SOL     OW13231   6.234   5.455   6.348
 4111SOL    HW113232   6.269   5.361   6.352
 4111SOL    HW213233   6.152   5.462   6.405
 4112SOL     OW13234   4.886   6.816   4.778
 4112SOL    HW113235   4.819   6.743   4.771
 4112SOL    HW213236   4.872   6.866   4.864
 4113SOL     OW13237   4.369   5.188   4.732
 4113SOL    HW113238   4.288   5.131   4.745
 4113SOL    HW213239   4.364   5.267   4.793
 4114SOL     OW13240   6.054   1.465   3.269
 4114SOL    HW113241   6.011   1.475   3.179
 4114SOL    HW213242   6.061   1.555   3.313
 4115SOL     OW13243   3.091   4.931   3.394
 4115SOL    HW113244   2.998   4.907   3.364
 4115SOL    HW213245   3.093   4.942   3.493
 4116SOL     OW13246   5.343   2.494   3.396
 4116SOL    HW113247   5.384   2.448   3.474
 4116SOL    HW213248   5.401   2.571   3.368
 4117SOL     OW13249   1.251   2.087   2.429
 4117SOL    HW113250   1.189   2.040   2.365
 4117SOL    HW213251   1.331   2.120   2.379
 4118SOL     OW13252   6.416   6.727   6.664
 4118SOL    HW113253   6.516   6.723   6.658
 4118SOL    HW213254   6.388   6.709   6.758
 4119SOL     OW13255   3.082   0.647   3.652
 4119SOL    HW113256   3.086   0.708   3.731
 4119SOL    HW213257   3.069   0.553   3.683
 4120SOL     OW13258   4.191   1.515   6.452
 4120SOL    HW113259   4.140   1.438   6.413
 4120SOL    HW213260   4.170   1.598   6.402
 4121SOL     OW13261   6.799   6.275   2.339
 4121SOL    HW113262   6.890   6.281   2.379
 4121SOL    HW213263   6.805   6.230   2.250
 4122SOL     OW13264   0.257   5.936   4.856
 4122SOL    HW113265   0.248   5.976   4.765
 4122SOL    HW213266   0.284   5.840   4.847
 4123SOL     OW13267   4.061   5.655   4.620
 4123SOL    HW113268   4.114   5.592   4.564
 4123SOL    HW213269   3.999   5.708   4.562
 4124SOL     OW13270   6.621   6.696   1.181
 4124SOL    HW113271   6.527   6.721   1.160
 4124SOL    HW213272   6.669   6.673   1.096
 4125SOL     OW13273   4.918   2.815   2.952
 4125SOL    HW113274   4.848   2.826   3.023
 4125SOL    HW213275   4.873   2.811   2.862
 4126SOL     OW13276   1.657   3.056   2.187
 4126SOL    HW113277   1.687   2.984   2.124
 4126SOL    HW213278   1.557   3.056   2.193
 4127SOL     OW13279   4.305   2.351   4.650
 4127SOL    HW113280   4.240   2.308   4.586
 4127SOL    HW213281   4.389   2.373   4.601
 4128SOL     OW13282   0.458   3.147   2.026
 4128SOL    HW113283   0.550   3.124   2.057
 4128SOL    HW213284   0.392   3.082   2.066
 4129SOL     OW13285   3.150   2.261   0.594
 4129SOL    HW113286   3.100   2.345   0.612
 4129SOL    HW213287   3.086   2.186   0.578
 4130SOL     OW13288   6.271   2.726   0.635
 4130SOL    HW113289   6.192   2.760   0.583
 4130SOL    HW213290   6.240   2.657   0.700
 4131SOL     OW13291   6.290   0.604   2.663
 4131SOL    HW113292   6.310   0.685   2.608
 4131SOL    HW213293   6.353   0.598   2.739
 4132SOL     OW13294   6.157   4.353   3.820
 4132SOL    HW113295   6.187   4.338   3.914
 4132SOL    HW213296   6.134   4.265   3.778
 4133SOL     OW13297   5.173   6.250   0.950
 4133SOL    HW113298   5.221   6.250   1.038
 4133SOL    HW213299   5.240   6.255   0.876
 4134SOL     OW13300   2.175   3.350   0.823
 4134SOL    HW113301   2.256   3.368   0.880
 4134SOL    HW213302   2.115   3.429   0.827
 4135SOL     OW13303   0.390   1.985   2.511
 4135SOL    HW113304   0.294   1.978   2.540
 4135SOL    HW213305   0.419   1.900   2.468
 4136SOL     OW13306   0.962   3.599   1.399
 4136SOL    HW113307   1.050   3.608   1.354
 4136SOL    HW213308   0.927   3.690   1.422
 4137SOL     OW13309   1.283   2.595   6.909
 4137SOL    HW113310   1.254   2.519   6.968
 4137SOL    HW213311   1.253   2.579   6.816
 4138SOL     OW13312   4.201   4.986   0.909
 4138SOL    HW113313   4.171   4.911   0.968
 4138SOL    HW213314   4.255   5.051   0.962
 4139SOL     OW13315   1.526   2.325   3.929
 4139SOL    HW113316   1.512   2.226   3.936
 4139SOL    HW213317   1.530   2.365   4.021
 4140SOL     OW13318   2.975   2.139   3.742
 4140SOL    HW113319   2.888   2.127   3.790
 4140SOL    HW213320   3.045   2.170   3.807
 4141SOL     OW13321   4.657   7.007   6.730
 4141SOL    HW113322   4.588   0.050   6.698
 4141SOL    HW213323   4.688   0.010   6.821
 4142SOL     OW13324   6.726   3.786   1.899
 4142SOL    HW113325   6.807   3.804   1.843
 4142SOL    HW213326   6.654   3.852   1.875
 4143SOL     OW13327   5.618   3.292   0.966
 4143SOL    HW113328   5.538   3.347   0.940
 4143SOL    HW213329   5.616   3.275   1.064
 4144SOL     OW13330   5.169   1.673   0.691
 4144SOL    HW113331   5.145   1.712   0.780
 4144SOL    HW213332   5.242   1.728   0.650
 4145SOL     OW13333   1.034   6.219   0.304
 4145SOL    HW113334   1.029   6.319   0.299
 4145SOL    HW213335   0.941   6.181   0.299
 4146SOL     OW13336   6.247   0.107   3.832
 4146SOL    HW113337   6.199   0.024   3.802
 4146SOL    HW213338   6.317   0.082   3.899
 4147SOL     OW13339   5.569   4.750   6.206
 4147SOL    HW113340   5.472   4.768   6.184
 4147SOL    HW213341   5.583   4.756   6.304
 4148SOL     OW13342   2.893   0.180   5.471
 4148SOL    HW113343   2.848   0.119   5.405
 4148SOL    HW213344   2.863   0.274   5.456
 4149SOL     OW13345   0.849   3.196   1.430
 4149SOL    HW113346   0.810   3.182   1.339
 4149SOL    HW213347   0.819   3.284   1.467
 4150SOL     OW13348   6.407   2.541   5.459
 4150SOL    HW113349   6.418   2.622   5.517
 4150SOL    HW213350   6.428   2.459   5.513
 4151SOL     OW13351   2.041   0.081   5.126
 4151SOL    HW113352   2.006   0.154   5.185
 4151SOL    HW213353   2.016   7.015   5.165
 4152SOL     OW13354   3.990   5.524   1.869
 4152SOL    HW113355   4.053   5.597   1.840
 4152SOL    HW213356   3.967   5.467   1.791
 4153SOL     OW13357   6.517   5.224   1.507
 4153SOL    HW113358   6.470   5.165   1.441
 4153SOL    HW213359   6.528   5.174   1.593
 4154SOL     OW13360   0.279   5.837   3.040
 4154SOL    HW113361   0.293   5.754   3.094
 4154SOL    HW213362   0.184   5.842   3.010
 4155SOL     OW13363   6.659   2.151   1.474
 4155SOL    HW113364   6.699   2.241   1.462
 4155SOL    HW213365   6.607   2.148   1.560
 4156SOL     OW13366   6.376   5.334   4.870
 4156SOL    HW113367   6.283   5.320   4.836
 4156SOL    HW213368   6.376   5.405   4.940
 4157SOL     OW13369   6.326   6.134   2.355
 4157SOL    HW113370   6.328   6.106   2.451
 4157SOL    HW213371   6.392   6.207   2.340
 4158SOL     OW13372   1.840   2.743   1.722
 4158SOL    HW113373   1.905   2.780   1.788
 4158SOL    HW213374   1.811   2.815   1.659
 4159SOL     OW13375   2.716   2.342   3.054
 4159SOL    HW113376   2.693   2.259   3.105
 4159SOL    HW213377   2.679   2.421   3.101
 4160SOL     OW13378   5.492   0.281   6.839
 4160SOL    HW113379   5.510   0.379   6.833
 4160SOL    HW213380   5.416   0.265   6.902
 4161SOL     OW13381   1.778   2.178   1.684
 4161SOL    HW113382   1.859   2.120   1.673
 4161SOL    HW213383   1.766   2.235   1.602
 4162SOL     OW13384   6.344   5.928   1.010
 4162SOL    HW113385   6.271   5.919   1.078
 4162SOL    HW213386   6.422   5.974   1.051
 4163SOL     OW13387   5.665   1.287   2.549
 4163SOL    HW113388   5.638   1.195   2.578
 4163SOL    HW213389   5.603   1.319   2.478
 4164SOL     OW13390   0.454   0.072   5.647
 4164SOL    HW113391   0.398   0.023   5.580
 4164SOL    HW213392   0.545   0.086   5.609
 4165SOL     OW13393   4.579   6.749   5.861
 4165SOL    HW113394   4.634   6.727   5.941
 4165SOL    HW213395   4.486   6.773   5.889
 4166SOL     OW13396   6.250   1.173   1.592
 4166SOL    HW113397   6.226   1.231   1.670
 4166SOL    HW213398   6.193   1.197   1.513
 4167SOL     OW13399   2.557   4.925   5.748
 4167SOL    HW113400   2.524   4.929   5.653
 4167SOL    HW213401   2.657   4.923   5.748
 4168SOL     OW13402   0.153   4.101   0.709
 4168SOL    HW113403   0.201   4.119   0.623
 4168SOL    HW213404   0.217   4.061   0.775
 4169SOL     OW13405   6.113   3.780   5.462
 4169SOL    HW113406   6.164   3.695   5.471
 4169SOL    HW213407   6.036   3.780   5.527
 4170SOL     OW13408   4.952   2.914   5.023
 4170SOL    HW113409   4.918   2.839   5.080
 4170SOL    HW213410   4.995   2.983   5.081
 4171SOL     OW13411   1.376   5.072   0.847
 4171SOL    HW113412   1.407   5.105   0.757
 4171SOL    HW213413   1.374   5.148   0.911
 4172SOL     OW13414   3.054   3.172   0.331
 4172SOL    HW113415   3.112   3.158   0.411
 4172SOL    HW213416   3.105   3.218   0.259
 4173SOL     OW13417   4.795   2.869   5.596
 4173SOL    HW113418   4.724   2.914   5.542
 4173SOL    HW213419   4.785   2.894   5.692
 4174SOL     OW13420   4.806   1.493   2.999
 4174SOL    HW113421   4.859   1.434   2.938
 4174SOL    HW213422   4.709   1.486   2.977
 4175SOL     OW13423   1.574   4.683   5.157
 4175SOL    HW113424   1.587   4.589   5.125
 4175SOL    HW213425   1.563   4.684   5.256
 4176SOL     OW13426   4.127   6.703   1.051
 4176SOL    HW113427   4.140   6.621   0.996
 4176SOL    HW213428   4.148   6.683   1.147
 4177SOL     OW13429   5.479   4.521   4.763
 4177SOL    HW113430   5.483   4.486   4.669
 4177SOL    HW213431   5.384   4.523   4.793
 4178SOL     OW13432   4.914   0.437   2.781
 4178SOL    HW113433   4.945   0.427   2.687
 4178SOL    HW213434   4.992   0.457   2.840
 4179SOL     OW13435   5.392   4.151   3.637
 4179SOL    HW113436   5.438   4.202   3.564
 4179SOL    HW213437   5.457   4.088   3.679
 4180SOL     OW13438   5.082   2.668   0.633
 4180SOL    HW113439   5.150   2.685   0.705
 4180SOL    HW213440   5.111   2.712   0.548
 4181SOL     OW13441   5.181   1.410   6.642
 4181SOL    HW113442   5.189   1.360   6.728
 4181SOL    HW213443   5.111   1.367   6.585
 4182SOL     OW13444   0.367   5.345   3.603
 4182SOL    HW113445   0.289   5.353   3.541
 4182SOL    HW213446   0.448   5.387   3.561
 4183SOL     OW13447   2.635   1.162   0.476
 4183SOL    HW113448   2.680   1.078   0.444
 4183SOL    HW213449   2.585   1.143   0.560
 4184SOL     OW13450   3.568   0.292   2.202
 4184SOL    HW113451   3.527   0.243   2.279
 4184SOL    HW213452   3.555   0.238   2.118
 4185SOL     OW13453   0.612   4.061   2.816
 4185SOL    HW113454   0.606   4.091   2.912
 4185SOL    HW213455   0.580   4.135   2.757
 4186SOL     OW13456   2.388   5.680   6.464
 4186SOL    HW113457   2.326   5.748   6.503
 4186SOL    HW213458   2.335   5.605   6.426
 4187SOL     OW13459   2.772   3.371   6.724
 4187SOL    HW113460   2.844   3.440   6.729
 4187SOL    HW213461   2.760   3.329   6.814
 4188SOL     OW13462   5.310   0.903   5.082
 4188SOL    HW113463   5.276   0.997   5.093
 4188SOL    HW213464   5.307   0.878   4.985
 4189SOL     OW13465   3.526   5.171   4.043
 4189SOL    HW113466   3.426   5.169   4.047
 4189SOL    HW213467   3.563   5.167   4.135
 4190SOL     OW13468   0.675   6.722   0.548
 4190SOL    HW113469   0.752   6.684   0.497
 4190SOL    HW213470   0.709   6.779   0.623
 4191SOL     OW13471   5.308   3.664   5.415
 4191SOL    HW113472   5.257   3.696   5.495
 4191SOL    HW213473   5.296   3.566   5.405
 4192SOL     OW13474   1.486   1.934   1.973
 4192SOL    HW113475   1.394   1.908   1.943
 4192SOL    HW213476   1.552   1.907   1.903
 4193SOL     OW13477   5.492   0.993   0.509
 4193SOL    HW113478   5.469   1.088   0.529
 4193SOL    HW213479   5.591   0.985   0.496
 4194SOL     OW13480   5.221   0.091   4.259
 4194SOL    HW113481   5.234   0.028   4.182
 4194SOL    HW213482   5.215   0.184   4.225
 4195SOL     OW13483   3.922   5.164   1.446
 4195SOL    HW113484   4.005   5.177   1.393
 4195SOL    HW213485   3.944   5.162   1.544
 4196SOL     OW13486   7.017   2.468   2.924
 4196SOL    HW113487   7.006   2.471   2.825
 4196SOL    HW213488   6.934   2.430   2.965
 4197SOL     OW13489   4.309   5.133   5.483
 4197SOL    HW113490   4.384   5.135   5.548
 4197SOL    HW213491   4.315   5.212   5.422
 4198SOL     OW13492   6.644   1.314   1.553
 4198SOL    HW113493   6.609   1.227   1.588
 4198SOL    HW213494   6.730   1.336   1.599
 4199SOL     OW13495   1.044   2.398   5.279
 4199SOL    HW113496   1.037   2.298   5.276
 4199SOL    HW213497   1.081   2.425   5.368
 4200SOL     OW13498   2.772   0.562   6.200
 4200SOL    HW113499   2.863   0.553   6.161
 4200SOL    HW213500   2.746   0.659   6.203
 4201SOL     OW13501   6.506   0.386   3.525
 4201SOL    HW113502   6.443   0.347   3.592
 4201SOL    HW213503   6.510   0.485   3.536
 4202SOL     OW13504   2.513   5.257   6.416
 4202SOL    HW113505   2.594   5.224   6.367
 4202SOL    HW213506   2.433   5.202   6.390
 4203SOL     OW13507   5.327   4.258   0.513
 4203SOL    HW113508   5.416   4.213   0.501
 4203SOL    HW213509   5.258   4.212   0.457
 4204SOL     OW13510   3.882   3.395   4.797
 4204SOL    HW113511   3.974   3.433   4.781
 4204SOL    HW213512   3.818   3.437   4.733
 4205SOL     OW13513   4.139   5.951   5.164
 4205SOL    HW113514   4.048   5.948   5.123
 4205SOL    HW213515   4.191   5.870   5.136
 4206SOL     OW13516   6.478   1.788   5.095
 4206SOL    HW113517   6.387   1.749   5.082
 4206SOL    HW213518   6.525   1.793   5.007
 4207SOL     OW13519   2.049   2.819   1.905
 4207SOL    HW113520   2.127   2.848   1.849
 4207SOL    HW213521   2.081   2.789   1.994
 4208SOL     OW13522   6.916   3.586   6.035
 4208SOL    HW113523   6.868   3.662   5.991
 4208SOL    HW213524   7.015   3.597   6.023
 4209SOL     OW13525   0.046   6.594   3.171
 4209SOL    HW113526   0.058   6.538   3.090
 4209SOL    HW213527   7.011   6.545   3.237
 4210SOL     OW13528   3.702   3.002   2.669
 4210SOL    HW113529   3.636   3.050   2.727
 4210SOL    HW213530   3.791   3.046   2.675
 4211SOL     OW13531   3.327   0.783   5.030
 4211SOL    HW113532   3.386   0.712   4.992
 4211SOL    HW213533   3.235   0.745   5.045
 4212SOL     OW13534   6.401   2.068   3.328
 4212SOL    HW113535   6.483   2.121   3.348
 4212SOL    HW213536   6.342   2.119   3.266
 4213SOL     OW13537   3.055   0.039   2.601
 4213SOL    HW113538   3.124   6.995   2.630
 4213SOL    HW213539   3.073   0.127   2.645
 4214SOL     OW13540   0.367   5.617   5.262
 4214SOL    HW113541   0.393   5.579   5.351
 4214SOL    HW213542   0.274   5.654   5.268
 4215SOL     OW13543   5.069   7.022   5.192
 4215SOL    HW113544   5.166   0.022   5.179
 4215SOL    HW213545   5.054   6.998   5.288
 4216SOL     OW13546   1.352   1.123   2.695
 4216SOL    HW113547   1.423   1.101   2.629
 4216SOL    HW213548   1.375   1.080   2.783
 4217SOL     OW13549   0.976   0.589   2.867
 4217SOL    HW113550   1.013   0.531   2.940
 4217SOL    HW213551   0.991   0.685   2.891
 4218SOL     OW13552   3.479   0.477   1.466
 4218SOL    HW113553   3.411   0.548   1.449
 4218SOL    HW213554   3.505   0.478   1.562
 4219SOL     OW13555   4.238   5.739   4.420
 4219SOL    HW113556   4.323   5.689   4.438
 4219SOL    HW213557   4.200   5.773   4.506
 4220SOL     OW13558   6.301   3.291   1.954
 4220SOL    HW113559   6.235   3.231   1.908
 4220SOL    HW213560   6.393   3.271   1.920
 4221SOL     OW13561   6.059   4.119   5.341
 4221SOL    HW113562   6.027   4.164   5.424
 4221SOL    HW213563   6.120   4.181   5.292
 4222SOL     OW13564   6.549   0.855   2.794
 4222SOL    HW113565   6.523   0.933   2.851
 4222SOL    HW213566   6.525   0.770   2.841
 4223SOL     OW13567   4.008   3.927   0.764
 4223SOL    HW113568   4.006   3.955   0.860
 4223SOL    HW213569   3.951   3.846   0.751
 4224SOL     OW13570   5.525   5.094   4.621
 4224SOL    HW113571   5.489   5.182   4.592
 4224SOL    HW213572   5.548   5.096   4.718
 4225SOL     OW13573   2.117   2.603   5.077
 4225SOL    HW113574   2.126   2.633   5.172
 4225SOL    HW213575   2.046   2.533   5.071
 4226SOL     OW13576   0.933   6.256   2.818
 4226SOL    HW113577   0.846   6.280   2.862
 4226SOL    HW213578   0.966   6.168   2.854
 4227SOL     OW13579   3.602   5.657   1.890
 4227SOL    HW113580   3.624   5.743   1.843
 4227SOL    HW213581   3.547   5.599   1.830
 4228SOL     OW13582   7.018   6.458   5.781
 4228SOL    HW113583   6.955   6.472   5.705
 4228SOL    HW213584   6.968   6.462   5.868
 4229SOL     OW13585   5.043   5.812   5.751
 4229SOL    HW113586   5.138   5.843   5.745
 4229SOL    HW213587   5.040   5.723   5.797
 4230SOL     OW13588   2.144   6.628   3.130
 4230SOL    HW113589   2.080   6.644   3.054
 4230SOL    HW213590   2.171   6.716   3.170
 4231SOL     OW13591   5.126   6.933   5.816
 4231SOL    HW113592   5.053   6.865   5.809
 4231SOL    HW213593   5.127   6.989   5.733
 4232SOL     OW13594   1.243   3.948   3.245
 4232SOL    HW113595   1.163   3.970   3.189
 4232SOL    HW213596   1.283   3.862   3.213
 4233SOL     OW13597   6.715   0.935   5.295
 4233SOL    HW113598   6.644   0.904   5.359
 4233SOL    HW213599   6.803   0.895   5.321
 4234SOL     OW13600   2.264   5.393   5.165
 4234SOL    HW113601   2.295   5.480   5.202
 4234SOL    HW213602   2.338   5.353   5.109
 4235SOL     OW13603   6.695   4.249   5.936
 4235SOL    HW113604   6.656   4.242   6.028
 4235SOL    HW213605   6.656   4.329   5.890
 4236SOL     OW13606   6.161   4.137   2.209
 4236SOL    HW113607   6.136   4.093   2.122
 4236SOL    HW213608   6.095   4.209   2.230
 4237SOL     OW13609   5.984   5.246   4.041
 4237SOL    HW113610   5.898   5.198   4.026
 4237SOL    HW213611   6.061   5.187   4.015
 4238SOL     OW13612   1.204   6.880   2.910
 4238SOL    HW113613   1.113   6.893   2.950
 4238SOL    HW213614   1.223   6.954   2.846
 4239SOL     OW13615   5.083   1.488   3.474
 4239SOL    HW113616   4.994   1.519   3.441
 4239SOL    HW213617   5.153   1.508   3.405
 4240SOL     OW13618   2.325   5.555   0.281
 4240SOL    HW113619   2.364   5.469   0.250
 4240SOL    HW213620   2.302   5.549   0.379
 4241SOL     OW13621   5.789   1.323   1.115
 4241SOL    HW113622   5.762   1.419   1.118
 4241SOL    HW213623   5.720   1.268   1.162
 4242SOL     OW13624   3.068   2.095   4.007
 4242SOL    HW113625   3.039   2.003   4.032
 4242SOL    HW213626   3.034   2.160   4.075
 4243SOL     OW13627   5.693   2.478   3.236
 4243SOL    HW113628   5.641   2.563   3.248
 4243SOL    HW213629   5.741   2.457   3.320
 4244SOL     OW13630   4.401   4.553   1.267
 4244SOL    HW113631   4.331   4.485   1.245
 4244SOL    HW213632   4.403   4.568   1.366
 4245SOL     OW13633   6.234   1.904   6.144
 4245SOL    HW113634   6.230   1.993   6.190
 4245SOL    HW213635   6.239   1.832   6.213
 4246SOL     OW13636   6.341   3.828   2.756
 4246SOL    HW113637   6.372   3.737   2.728
 4246SOL    HW213638   6.414   3.895   2.739
 4247SOL     OW13639   2.204   6.032   3.920
 4247SOL    HW113640   2.187   5.963   3.990
 4247SOL    HW213641   2.301   6.054   3.918
 4248SOL     OW13642   3.252   1.649   4.128
 4248SOL    HW113643   3.310   1.715   4.079
 4248SOL    HW213644   3.174   1.624   4.070
 4249SOL     OW13645   6.577   2.715   5.209
 4249SOL    HW113646   6.588   2.813   5.195
 4249SOL    HW213647   6.632   2.666   5.141
 4250SOL     OW13648   6.744   4.223   2.812
 4250SOL    HW113649   6.770   4.287   2.884
 4250SOL    HW213650   6.723   4.274   2.728
 4251SOL     OW13651   6.001   4.611   0.973
 4251SOL    HW113652   6.022   4.618   1.071
 4251SOL    HW213653   5.984   4.516   0.949
 4252SOL     OW13654   5.799   6.707   5.064
 4252SOL    HW113655   5.748   6.712   4.978
 4252SOL    HW213656   5.838   6.797   5.085
 4253SOL     OW13657   3.409   6.898   1.091
 4253SOL    HW113658   3.411   6.798   1.098
 4253SOL    HW213659   3.428   6.937   1.181
 4254SOL     OW13660   1.184   2.929   2.596
 4254SOL    HW113661   1.274   2.891   2.613
 4254SOL    HW213662   1.143   2.884   2.516
 4255SOL     OW13663   5.489   3.771   3.529
 4255SOL    HW113664   5.471   3.828   3.609
 4255SOL    HW213665   5.404   3.753   3.480
 4256SOL     OW13666   1.672   6.961   0.795
 4256SOL    HW113667   1.746   6.980   0.859
 4256SOL    HW213668   1.586   6.953   0.845
 4257SOL     OW13669   3.348   0.523   4.143
 4257SOL    HW113670   3.427   0.584   4.147
 4257SOL    HW213671   3.372   0.440   4.092
 4258SOL     OW13672   5.357   6.167   1.541
 4258SOL    HW113673   5.452   6.187   1.565
 4258SOL    HW213674   5.324   6.236   1.476
 4259SOL     OW13675   2.782   1.176   0.138
 4259SOL    HW113676   2.773   1.078   0.153
 4259SOL    HW213677   2.844   1.192   0.061
 4260SOL     OW13678   4.862   6.899   6.256
 4260SOL    HW113679   4.824   6.967   6.318
 4260SOL    HW213680   4.880   6.941   6.167
 4261SOL     OW13681   2.597   0.326   1.861
 4261SOL    HW113682   2.584   0.378   1.777
 4261SOL    HW213683   2.665   0.371   1.918
 4262SOL     OW13684   0.173   4.715   5.702
 4262SOL    HW113685   0.180   4.622   5.668
 4262SOL    HW213686   0.087   4.727   5.751
 4263SOL     OW13687   3.156   6.697   3.544
 4263SOL    HW113688   3.155   6.617   3.603
 4263SOL    HW213689   3.097   6.682   3.465
 4264SOL     OW13690   0.249   2.129   2.767
 4264SOL    HW113691   0.160   2.118   2.723
 4264SOL    HW213692   0.263   2.225   2.791
 4265SOL     OW13693   5.424   1.621   1.042
 4265SOL    HW113694   5.425   1.718   1.019
 4265SOL    HW213695   5.441   1.567   0.959
 4266SOL     OW13696   2.105   5.043   0.125
 4266SOL    HW113697   2.067   5.136   0.125
 4266SOL    HW213698   2.061   4.988   0.055
 4267SOL     OW13699   1.807   3.415   5.067
 4267SOL    HW113700   1.753   3.358   5.005
 4267SOL    HW213701   1.901   3.420   5.035
 4268SOL     OW13702   0.924   6.571   6.310
 4268SOL    HW113703   1.011   6.610   6.343
 4268SOL    HW213704   0.899   6.493   6.367
 4269SOL     OW13705   2.227   1.209   1.772
 4269SOL    HW113706   2.235   1.169   1.863
 4269SOL    HW213707   2.172   1.148   1.714
 4270SOL     OW13708   3.814   3.582   3.973
 4270SOL    HW113709   3.719   3.554   3.957
 4270SOL    HW213710   3.818   3.680   3.991
 4271SOL     OW13711   0.341   1.071   6.652
 4271SOL    HW113712   0.293   1.149   6.692
 4271SOL    HW213713   0.280   0.992   6.650
 4272SOL     OW13714   0.536   3.715   4.969
 4272SOL    HW113715   0.542   3.646   4.896
 4272SOL    HW213716   0.592   3.686   5.046
 4273SOL     OW13717   4.598   5.892   5.143
 4273SOL    HW113718   4.596   5.821   5.214
 4273SOL    HW213719   4.635   5.854   5.058
 4274SOL     OW13720   1.990   0.002   2.234
 4274SOL    HW113721   1.927   0.066   2.190
 4274SOL    HW213722   1.961   6.931   2.215
 4275SOL     OW13723   6.305   1.592   4.979
 4275SOL    HW113724   6.324   1.502   5.018
 4275SOL    HW213725   6.206   1.604   4.968
 4276SOL     OW13726   1.673   4.250   3.914
 4276SOL    HW113727   1.657   4.337   3.869
 4276SOL    HW213728   1.762   4.251   3.959
 4277SOL     OW13729   6.057   5.088   4.397
 4277SOL    HW113730   5.969   5.135   4.404
 4277SOL    HW213731   6.128   5.143   4.440
 4278SOL     OW13732   0.390   0.498   4.516
 4278SOL    HW113733   0.386   0.398   4.520
 4278SOL    HW213734   0.420   0.526   4.425
 4279SOL     OW13735   3.395   0.221   4.977
 4279SOL    HW113736   3.455   0.242   4.900
 4279SOL    HW213737   3.421   0.277   5.056
 4280SOL     OW13738   5.509   0.844   5.578
 4280SOL    HW113739   5.585   0.787   5.608
 4280SOL    HW213740   5.528   0.878   5.486
 4281SOL     OW13741   1.703   5.053   3.836
 4281SOL    HW113742   1.719   5.152   3.825
 4281SOL    HW213743   1.715   5.029   3.933
 4282SOL     OW13744   3.573   3.328   6.353
 4282SOL    HW113745   3.672   3.320   6.369
 4282SOL    HW213746   3.543   3.256   6.291
 4283SOL     OW13747   2.392   1.202   3.670
 4283SOL    HW113748   2.374   1.105   3.651
 4283SOL    HW213749   2.405   1.251   3.584
 4284SOL     OW13750   4.434   5.645   1.670
 4284SOL    HW113751   4.523   5.649   1.625
 4284SOL    HW213752   4.424   5.558   1.717
 4285SOL     OW13753   1.057   0.692   5.762
 4285SOL    HW113754   0.982   0.728   5.707
 4285SOL    HW213755   1.125   0.764   5.776
 4286SOL     OW13756   4.976   5.838   6.866
 4286SOL    HW113757   4.969   5.931   6.901
 4286SOL    HW213758   4.994   5.840   6.768
 4287SOL     OW13759   5.545   1.565   6.430
 4287SOL    HW113760   5.591   1.607   6.351
 4287SOL    HW213761   5.612   1.550   6.503
 4288SOL     OW13762   1.020   5.939   3.164
 4288SOL    HW113763   0.952   6.011   3.176
 4288SOL    HW213764   1.052   5.907   3.253
 4289SOL     OW13765   6.738   2.972   0.768
 4289SOL    HW113766   6.794   2.894   0.743
 4289SOL    HW213767   6.644   2.942   0.785
 4290SOL     OW13768   2.804   6.917   2.650
 4290SOL    HW113769   2.797   6.817   2.650
 4290SOL    HW213770   2.900   6.944   2.638
 4291SOL     OW13771   4.257   3.576   0.961
 4291SOL    HW113772   4.277   3.548   1.055
 4291SOL    HW213773   4.161   3.558   0.941
 4292SOL     OW13774   6.197   4.273   6.581
 4292SOL    HW113775   6.159   4.195   6.531
 4292SOL    HW213776   6.123   4.336   6.605
 4293SOL     OW13777   0.555   3.214   0.541
 4293SOL    HW113778   0.549   3.190   0.444
 4293SOL    HW213779   0.535   3.311   0.553
 4294SOL     OW13780   3.095   2.374   0.063
 4294SOL    HW113781   3.104   2.460   0.013
 4294SOL    HW213782   3.031   2.387   0.139
 4295SOL     OW13783   4.034   6.022   4.848
 4295SOL    HW113784   4.084   5.940   4.819
 4295SOL    HW213785   4.080   6.103   4.813
 4296SOL     OW13786   4.025   0.615   0.713
 4296SOL    HW113787   4.083   0.541   0.679
 4296SOL    HW213788   3.992   0.593   0.804
 4297SOL     OW13789   5.628   0.944   6.536
 4297SOL    HW113790   5.576   0.948   6.622
 4297SOL    HW213791   5.599   0.864   6.484
 4298SOL     OW13792   2.923   5.946   6.749
 4298SOL    HW113793   2.873   5.862   6.769
 4298SOL    HW213794   2.910   6.011   6.824
 4299SOL     OW13795   0.689   2.828   0.451
 4299SOL    HW113796   0.653   2.781   0.531
 4299SOL    HW213797   0.671   2.773   0.369
 4300SOL     OW13798   3.726   0.471   0.043
 4300SOL    HW113799   3.734   0.372   0.031
 4300SOL    HW213800   3.709   0.491   0.139
 4301SOL     OW13801   3.292   1.508   0.845
 4301SOL    HW113802   3.344   1.556   0.774
 4301SOL    HW213803   3.261   1.420   0.809
 4302SOL     OW13804   1.016   6.706   5.571
 4302SOL    HW113805   1.057   6.743   5.655
 4302SOL    HW213806   0.917   6.699   5.582
 4303SOL     OW13807   6.018   4.812   3.868
 4303SOL    HW113808   5.965   4.880   3.818
 4303SOL    HW213809   6.104   4.853   3.899
 4304SOL     OW13810   3.020   3.852   3.465
 4304SOL    HW113811   2.994   3.947   3.448
 4304SOL    HW213812   3.064   3.814   3.384
 4305SOL     OW13813   6.365   0.799   4.399
 4305SOL    HW113814   6.459   0.788   4.367
 4305SOL    HW213815   6.319   0.710   4.400
 4306SOL     OW13816   6.197   3.579   6.803
 4306SOL    HW113817   6.260   3.603   6.877
 4306SOL    HW213818   6.247   3.573   6.717
 4307SOL     OW13819   4.567   3.422   6.298
 4307SOL    HW113820   4.650   3.449   6.346
 4307SOL    HW213821   4.537   3.497   6.239
 4308SOL     OW13822   5.643   5.685   6.352
 4308SOL    HW113823   5.544   5.692   6.346
 4308SOL    HW213824   5.677   5.754   6.417
 4309SOL     OW13825   1.503   1.738   0.335
 4309SOL    HW113826   1.439   1.670   0.371
 4309SOL    HW213827   1.452   1.810   0.288
 4310SOL     OW13828   1.534   2.410   3.383
 4310SOL    HW113829   1.434   2.407   3.375
 4310SOL    HW213830   1.569   2.316   3.389
 4311SOL     OW13831   1.570   5.956   3.407
 4311SOL    HW113832   1.499   5.940   3.339
 4311SOL    HW213833   1.556   6.046   3.449
 4312SOL     OW13834   1.301   4.942   0.504
 4312SOL    HW113835   1.398   4.948   0.528
 4312SOL    HW213836   1.291   4.906   0.412
 4313SOL     OW13837   4.798   1.430   1.322
 4313SOL    HW113838   4.882   1.390   1.285
 4313SOL    HW213839   4.767   1.376   1.400
 4314SOL     OW13840   5.765   1.378   4.090
 4314SOL    HW113841   5.842   1.381   4.026
 4314SOL    HW213842   5.735   1.471   4.110
 4315SOL     OW13843   2.782   0.111   1.666
 4315SOL    HW113844   2.827   0.084   1.751
 4315SOL    HW213845   2.786   0.036   1.600
 4316SOL     OW13846   5.003   6.871   1.391
 4316SOL    HW113847   4.988   6.960   1.435
 4316SOL    HW213848   4.943   6.864   1.311
 4317SOL     OW13849   4.541   1.756   4.811
 4317SOL    HW113850   4.581   1.771   4.721
 4317SOL    HW213851   4.584   1.677   4.854
 4318SOL     OW13852   1.239   3.292   3.916
 4318SOL    HW113853   1.326   3.342   3.920
 4318SOL    HW213854   1.256   3.199   3.883
 4319SOL     OW13855   2.446   2.770   0.068
 4319SOL    HW113856   2.386   2.692   0.050
 4319SOL    HW213857   2.435   2.798   0.164
 4320SOL     OW13858   0.454   6.053   2.420
 4320SOL    HW113859   0.470   6.018   2.328
 4320SOL    HW213860   0.425   6.149   2.414
 4321SOL     OW13861   6.550   0.018   4.468
 4321SOL    HW113862   6.618   7.008   4.402
 4321SOL    HW213863   6.584   0.003   4.561
 4322SOL     OW13864   5.952   1.967   6.791
 4322SOL    HW113865   5.986   1.972   6.697
 4322SOL    HW213866   5.854   1.988   6.792
 4323SOL     OW13867   4.876   3.970   1.482
 4323SOL    HW113868   4.958   3.914   1.487
 4323SOL    HW213869   4.806   3.922   1.429
 4324SOL     OW13870   5.798   3.791   6.471
 4324SOL    HW113871   5.888   3.779   6.429
 4324SOL    HW213872   5.760   3.879   6.444
 4325SOL     OW13873   2.112   0.819   0.996
 4325SOL    HW113874   2.123   0.812   1.095
 4325SOL    HW213875   2.015   0.808   0.973
 4326SOL     OW13876   5.672   3.526   4.930
 4326SOL    HW113877   5.588   3.575   4.954
 4326SOL    HW213878   5.649   3.443   4.879
 4327SOL     OW13879   6.296   5.502   2.406
 4327SOL    HW113880   6.271   5.486   2.311
 4327SOL    HW213881   6.319   5.598   2.419
 4328SOL     OW13882   3.840   3.745   6.132
 4328SOL    HW113883   3.746   3.768   6.108
 4328SOL    HW213884   3.895   3.828   6.133
 4329SOL     OW13885   4.206   1.769   6.274
 4329SOL    HW113886   4.276   1.787   6.204
 4329SOL    HW213887   4.192   1.852   6.329
 4330SOL     OW13888   2.765   0.515   4.820
 4330SOL    HW113889   2.759   0.538   4.918
 4330SOL    HW213890   2.801   0.594   4.770
 4331SOL     OW13891   5.067   2.914   0.884
 4331SOL    HW113892   4.995   2.895   0.817
 4331SOL    HW213893   5.042   2.995   0.936
 4332SOL     OW13894   5.366   4.884   2.546
 4332SOL    HW113895   5.356   4.961   2.483
 4332SOL    HW213896   5.329   4.801   2.503
 4333SOL     OW13897   4.292   0.745   5.264
 4333SOL    HW113898   4.295   0.797   5.179
 4333SOL    HW213899   4.325   0.802   5.340
 4334SOL     OW13900   1.741   1.980   2.690
 4334SOL    HW113901   1.659   2.017   2.647
 4334SOL    HW213902   1.716   1.900   2.745
 4335SOL     OW13903   3.402   4.117   3.118
 4335SOL    HW113904   3.431   4.106   3.023
 4335SOL    HW213905   3.482   4.130   3.176
 4336SOL     OW13906   0.912   6.442   6.055
 4336SOL    HW113907   0.940   6.502   6.129
 4336SOL    HW213908   0.896   6.350   6.091
 4337SOL     OW13909   0.806   4.413   0.588
 4337SOL    HW113910   0.862   4.348   0.538
 4337SOL    HW213911   0.710   4.386   0.582
 4338SOL     OW13912   4.688   5.889   4.178
 4338SOL    HW113913   4.727   5.800   4.199
 4338SOL    HW213914   4.723   5.920   4.089
 4339SOL     OW13915   6.438   3.583   5.485
 4339SOL    HW113916   6.423   3.538   5.397
 4339SOL    HW213917   6.503   3.530   5.540
 4340SOL     OW13918   6.135   4.604   1.557
 4340SOL    HW113919   6.231   4.607   1.587
 4340SOL    HW213920   6.077   4.582   1.636
 4341SOL     OW13921   0.854   5.633   2.444
 4341SOL    HW113922   0.811   5.566   2.383
 4341SOL    HW213923   0.802   5.719   2.440
 4342SOL     OW13924   6.414   3.619   4.184
 4342SOL    HW113925   6.323   3.642   4.149
 4342SOL    HW213926   6.467   3.573   4.112
 4343SOL     OW13927   2.233   6.214   5.780
 4343SOL    HW113928   2.195   6.305   5.796
 4343SOL    HW213929   2.266   6.176   5.867
 4344SOL     OW13930   1.449   5.272   3.178
 4344SOL    HW113931   1.419   5.330   3.103
 4344SOL    HW213932   1.547   5.255   3.169
 4345SOL     OW13933   2.171   2.959   5.231
 4345SOL    HW113934   2.240   2.991   5.166
 4345SOL    HW213935   2.203   2.874   5.273
 4346SOL     OW13936   1.863   3.402   2.098
 4346SOL    HW113937   1.911   3.437   2.018
 4346SOL    HW213938   1.886   3.457   2.179
 4347SOL     OW13939   5.927   6.692   2.707
 4347SOL    HW113940   5.943   6.790   2.722
 4347SOL    HW213941   5.829   6.673   2.713
 4348SOL     OW13942   0.001   4.163   3.082
 4348SOL    HW113943   6.955   4.104   3.124
 4348SOL    HW213944   0.092   4.132   3.108
 4349SOL     OW13945   6.800   2.465   2.438
 4349SOL    HW113946   6.756   2.554   2.426
 4349SOL    HW213947   6.746   2.395   2.392
 4350SOL     OW13948   5.159   2.067   3.930
 4350SOL    HW113949   5.080   2.010   3.906
 4350SOL    HW213950   5.220   2.015   3.990
 4351SOL     OW13951   2.295   6.726   1.521
 4351SOL    HW113952   2.314   6.674   1.438
 4351SOL    HW213953   2.334   6.818   1.513
 4352SOL     OW13954   0.525   2.770   2.457
 4352SOL    HW113955   0.481   2.711   2.524
 4352SOL    HW213956   0.611   2.804   2.494
 4353SOL     OW13957   3.279   3.612   0.018
 4353SOL    HW113958   3.322   3.540   6.987
 4353SOL    HW213959   3.321   3.700   7.018
 4354SOL     OW13960   2.411   6.704   6.035
 4354SOL    HW113961   2.443   6.616   6.001
 4354SOL    HW213962   2.400   6.768   5.959
 4355SOL     OW13963   3.578   0.461   2.598
 4355SOL    HW113964   3.571   0.554   2.635
 4355SOL    HW213965   3.512   0.401   2.644
 4356SOL     OW13966   5.100   4.193   1.434
 4356SOL    HW113967   5.090   4.243   1.348
 4356SOL    HW213968   5.019   4.137   1.450
 4357SOL     OW13969   5.896   0.494   0.125
 4357SOL    HW113970   5.925   0.399   0.128
 4357SOL    HW213971   5.808   0.501   0.079
 4358SOL     OW13972   6.782   5.920   0.080
 4358SOL    HW113973   6.762   5.933   0.177
 4358SOL    HW213974   6.800   6.008   0.037
 4359SOL     OW13975   1.845   2.004   6.049
 4359SOL    HW113976   1.844   1.909   6.081
 4359SOL    HW213977   1.939   2.033   6.036
 4360SOL     OW13978   1.081   2.423   3.518
 4360SOL    HW113979   1.161   2.364   3.501
 4360SOL    HW213980   1.076   2.493   3.447
 4361SOL     OW13981   2.745   3.098   1.306
 4361SOL    HW113982   2.705   3.183   1.269
 4361SOL    HW213983   2.804   3.057   1.236
 4362SOL     OW13984   6.462   4.616   3.063
 4362SOL    HW113985   6.395   4.567   3.119
 4362SOL    HW213986   6.551   4.615   3.109
 4363SOL     OW13987   5.367   2.483   6.884
 4363SOL    HW113988   5.358   2.516   6.791
 4363SOL    HW213989   5.304   2.407   6.899
 4364SOL     OW13990   3.635   3.334   5.232
 4364SOL    HW113991   3.550   3.379   5.207
 4364SOL    HW213992   3.616   3.259   5.296
 4365SOL     OW13993   2.161   2.494   1.881
 4365SOL    HW113994   2.108   2.502   1.796
 4365SOL    HW213995   2.101   2.465   1.955
 4366SOL     OW13996   5.796   6.074   0.319
 4366SOL    HW113997   5.725   6.092   0.387
 4366SOL    HW213998   5.880   6.121   0.346
 4367SOL     OW13999   2.196   4.683   4.499
 4367SOL    HW114000   2.198   4.766   4.443
 4367SOL    HW214001   2.254   4.613   4.458
 4368SOL     OW14002   4.201   4.521   0.965
 4368SOL    HW114003   4.263   4.538   0.889
 4368SOL    HW214004   4.196   4.602   1.024
 4369SOL     OW14005   3.557   5.415   3.893
 4369SOL    HW114006   3.513   5.354   3.959
 4369SOL    HW214007   3.654   5.391   3.885
 4370SOL     OW14008   4.702   5.089   2.699
 4370SOL    HW114009   4.769   5.033   2.748
 4370SOL    HW214010   4.651   5.144   2.764
 4371SOL     OW14011   0.403   0.990   1.580
 4371SOL    HW114012   0.326   0.955   1.526
 4371SOL    HW214013   0.489   0.958   1.539
 4372SOL     OW14014   4.173   1.245   3.043
 4372SOL    HW114015   4.177   1.344   3.056
 4372SOL    HW214016   4.141   1.225   2.950
 4373SOL     OW14017   0.514   2.291   6.842
 4373SOL    HW114018   0.418   2.308   6.864
 4373SOL    HW214019   0.541   2.348   6.764
 4374SOL     OW14020   1.115   2.030   2.198
 4374SOL    HW114021   1.192   1.968   2.217
 4374SOL    HW214022   1.144   2.100   2.133
 4375SOL     OW14023   3.860   0.913   3.241
 4375SOL    HW114024   3.783   0.933   3.181
 4375SOL    HW214025   3.837   0.836   3.302
 4376SOL     OW14026   6.347   6.742   2.605
 4376SOL    HW114027   6.365   6.742   2.703
 4376SOL    HW214028   6.423   6.789   2.558
 4377SOL     OW14029   5.462   4.319   0.109
 4377SOL    HW114030   5.545   4.263   0.119
 4377SOL    HW214031   5.486   4.415   0.118
 4378SOL     OW14032   1.842   1.367   2.857
 4378SOL    HW114033   1.767   1.430   2.834
 4378SOL    HW214034   1.927   1.400   2.814
 4379SOL     OW14035   1.898   1.008   2.595
 4379SOL    HW114036   1.907   1.082   2.661
 4379SOL    HW214037   1.900   0.920   2.643
 4380SOL     OW14038   1.804   6.987   2.738
 4380SOL    HW114039   1.813   6.889   2.753
 4380SOL    HW214040   1.853   7.013   2.655
 4381SOL     OW14041   0.290   6.280   5.447
 4381SOL    HW114042   0.333   6.303   5.360
 4381SOL    HW214043   0.192   6.296   5.442
 4382SOL     OW14044   1.112   3.473   5.356
 4382SOL    HW114045   1.127   3.512   5.447
 4382SOL    HW214046   1.100   3.374   5.363
 4383SOL     OW14047   0.653   3.036   6.619
 4383SOL    HW114048   0.679   3.128   6.648
 4383SOL    HW214049   0.661   2.973   6.697
 4384SOL     OW14050   6.263   0.551   4.739
 4384SOL    HW114051   6.325   0.629   4.750
 4384SOL    HW214052   6.313   0.466   4.752
 4385SOL     OW14053   4.514   2.699   4.914
 4385SOL    HW114054   4.578   2.755   4.861
 4385SOL    HW214055   4.471   2.755   4.985
 4386SOL     OW14056   1.936   3.561   5.713
 4386SOL    HW114057   1.841   3.588   5.699
 4386SOL    HW214058   1.970   3.602   5.799
 4387SOL     OW14059   6.639   2.681   1.697
 4387SOL    HW114060   6.668   2.616   1.767
 4387SOL    HW214061   6.618   2.769   1.740
 4388SOL     OW14062   3.888   2.126   5.825
 4388SOL    HW114063   3.854   2.195   5.889
 4388SOL    HW214064   3.872   2.035   5.862
 4389SOL     OW14065   6.827   3.452   1.078
 4389SOL    HW114066   6.777   3.371   1.107
 4389SOL    HW214067   6.858   3.503   1.158
 4390SOL     OW14068   4.105   6.788   1.470
 4390SOL    HW114069   4.150   6.859   1.524
 4390SOL    HW214070   4.041   6.737   1.528
 4391SOL     OW14071   2.510   5.457   6.942
 4391SOL    HW114072   2.597   5.415   6.914
 4391SOL    HW214073   2.461   5.490   6.861
 4392SOL     OW14074   1.157   2.544   5.064
 4392SOL    HW114075   1.118   2.486   5.135
 4392SOL    HW214076   1.208   2.488   4.999
 4393SOL     OW14077   5.997   1.048   1.710
 4393SOL    HW114078   6.082   1.066   1.661
 4393SOL    HW214079   6.015   0.987   1.787
 4394SOL     OW14080   6.634   5.737   2.328
 4394SOL    HW114081   6.537   5.729   2.352
 4394SOL    HW214082   6.690   5.695   2.399
 4395SOL     OW14083   1.937   0.742   1.788
 4395SOL    HW114084   2.004   0.682   1.831
 4395SOL    HW214085   1.937   0.831   1.835
 4396SOL     OW14086   1.713   1.602   4.122
 4396SOL    HW114087   1.614   1.598   4.116
 4396SOL    HW214088   1.752   1.513   4.098
 4397SOL     OW14089   1.699   2.556   4.527
 4397SOL    HW114090   1.699   2.534   4.625
 4397SOL    HW214091   1.748   2.484   4.477
 4398SOL     OW14092   1.697   3.387   6.219
 4398SOL    HW114093   1.686   3.486   6.228
 4398SOL    HW214094   1.785   3.367   6.175
 4399SOL     OW14095   3.705   6.021   2.476
 4399SOL    HW114096   3.703   6.040   2.378
 4399SOL    HW214097   3.722   5.923   2.490
 4400SOL     OW14098   2.529   6.867   4.404
 4400SOL    HW114099   2.602   6.870   4.335
 4400SOL    HW214100   2.497   6.960   4.423
 4401SOL     OW14101   3.211   6.819   5.344
 4401SOL    HW114102   3.162   6.883   5.286
 4401SOL    HW214103   3.170   6.818   5.436
 4402SOL     OW14104   1.553   7.011   2.829
 4402SOL    HW114105   1.510   6.945   2.768
 4402SOL    HW214106   1.650   7.020   2.806
 4403SOL     OW14107   1.043   6.704   6.849
 4403SOL    HW114108   1.055   6.801   6.830
 4403SOL    HW214109   0.946   6.680   6.843
 4404SOL     OW14110   1.296   6.281   5.363
 4404SOL    HW114111   1.267   6.329   5.280
 4404SOL    HW214112   1.312   6.348   5.436
 4405SOL     OW14113   1.937   4.804   1.925
 4405SOL    HW114114   1.885   4.861   1.861
 4405SOL    HW214115   1.930   4.708   1.897
 4406SOL     OW14116   0.542   2.731   0.666
 4406SOL    HW114117   0.460   2.690   0.707
 4406SOL    HW214118   0.541   2.830   0.683
 4407SOL     OW14119   6.833   5.305   1.796
 4407SOL    HW114120   6.753   5.255   1.761
 4407SOL    HW214121   6.916   5.269   1.754
 4408SOL     OW14122   2.215   0.084   0.286
 4408SOL    HW114123   2.272   0.114   0.209
 4408SOL    HW214124   2.133   0.038   0.251
 4409SOL     OW14125   4.328   1.270   1.565
 4409SOL    HW114126   4.374   1.359   1.558
 4409SOL    HW214127   4.357   1.225   1.650
 4410SOL     OW14128   0.594   5.223   0.094
 4410SOL    HW114129   0.647   5.300   0.128
 4410SOL    HW214130   0.633   5.191   0.008
 4411SOL     OW14131   3.363   4.047   4.994
 4411SOL    HW114132   3.374   3.947   4.991
 4411SOL    HW214133   3.453   4.090   4.981
 4412SOL     OW14134   4.586   6.401   4.187
 4412SOL    HW114135   4.601   6.482   4.243
 4412SOL    HW214136   4.671   6.376   4.141
 4413SOL     OW14137   5.461   5.327   3.701
 4413SOL    HW114138   5.428   5.407   3.651
 4413SOL    HW214139   5.494   5.259   3.636
 4414SOL     OW14140   3.336   5.917   1.089
 4414SOL    HW114141   3.336   5.865   1.174
 4414SOL    HW214142   3.273   5.875   1.023
 4415SOL     OW14143   4.722   2.995   0.171
 4415SOL    HW114144   4.734   2.981   0.269
 4415SOL    HW214145   4.785   3.067   0.139
 4416SOL     OW14146   4.334   1.928   4.204
 4416SOL    HW114147   4.243   1.941   4.244
 4416SOL    HW214148   4.329   1.861   4.130
 4417SOL     OW14149   5.795   3.942   4.062
 4417SOL    HW114150   5.734   3.993   4.122
 4417SOL    HW214151   5.862   4.004   4.020
 4418SOL     OW14152   6.119   2.042   2.953
 4418SOL    HW114153   6.110   2.142   2.945
 4418SOL    HW214154   6.032   2.003   2.980
 4419SOL     OW14155   6.350   0.131   5.608
 4419SOL    HW114156   6.380   0.223   5.631
 4419SOL    HW214157   6.251   0.130   5.592
 4420SOL     OW14158   3.846   1.559   2.114
 4420SOL    HW114159   3.819   1.646   2.071
 4420SOL    HW214160   3.788   1.542   2.193
 4421SOL     OW14161   2.001   1.556   5.100
 4421SOL    HW114162   2.043   1.466   5.089
 4421SOL    HW214163   2.039   1.619   5.033
 4422SOL     OW14164   1.085   4.412   6.824
 4422SOL    HW114165   1.119   4.368   6.741
 4422SOL    HW214166   1.155   4.409   6.895
 4423SOL     OW14167   0.292   3.907   5.620
 4423SOL    HW114168   0.199   3.882   5.645
 4423SOL    HW214169   0.293   3.947   5.528
 4424SOL     OW14170   5.463   0.257   4.316
 4424SOL    HW114171   5.505   0.233   4.403
 4424SOL    HW214172   5.389   0.192   4.295
 4425SOL     OW14173   2.780   4.777   0.527
 4425SOL    HW114174   2.714   4.802   0.456
 4425SOL    HW214175   2.732   4.739   0.605
 4426SOL     OW14176   0.460   1.387   3.924
 4426SOL    HW114177   0.390   1.451   3.955
 4426SOL    HW214178   0.434   1.350   3.835
 4427SOL     OW14179   5.613   6.919   2.902
 4427SOL    HW114180   5.659   6.834   2.877
 4427SOL    HW214181   5.602   6.976   2.821
 4428SOL     OW14182   4.511   0.733   4.108
 4428SOL    HW114183   4.546   0.643   4.133
 4428SOL    HW214184   4.549   0.760   4.019
 4429SOL     OW14185   3.168   6.721   2.495
 4429SOL    HW114186   3.154   6.735   2.593
 4429SOL    HW214187   3.200   6.807   2.454
 4430SOL     OW14188   5.097   4.834   4.981
 4430SOL    HW114189   5.059   4.912   5.031
 4430SOL    HW214190   5.093   4.753   5.038
 4431SOL     OW14191   2.956   0.712   3.404
 4431SOL    HW114192   3.010   0.709   3.320
 4431SOL    HW214193   3.015   0.692   3.482
 4432SOL     OW14194   2.839   3.344   6.248
 4432SOL    HW114195   2.914   3.278   6.253
 4432SOL    HW214196   2.788   3.330   6.163
 4433SOL     OW14197   6.696   2.739   4.627
 4433SOL    HW114198   6.629   2.779   4.564
 4433SOL    HW214199   6.664   2.750   4.721
 4434SOL     OW14200   5.512   1.588   2.925
 4434SOL    HW114201   5.560   1.671   2.957
 4434SOL    HW214202   5.579   1.516   2.908
 4435SOL     OW14203   4.373   3.389   0.723
 4435SOL    HW114204   4.337   3.302   0.687
 4435SOL    HW214205   4.308   3.426   0.790
 4436SOL     OW14206   4.404   1.141   1.785
 4436SOL    HW114207   4.354   1.197   1.851
 4436SOL    HW214208   4.499   1.131   1.815
 4437SOL     OW14209   1.069   3.058   2.804
 4437SOL    HW114210   1.093   3.049   2.900
 4437SOL    HW214211   1.095   2.975   2.755
 4438SOL     OW14212   4.689   6.719   6.365
 4438SOL    HW114213   4.739   6.773   6.296
 4438SOL    HW214214   4.664   6.779   6.441
 4439SOL     OW14215   0.089   4.502   1.746
 4439SOL    HW114216   0.059   4.407   1.751
 4439SOL    HW214217   0.015   4.558   1.708
 4440SOL     OW14218   2.960   4.585   0.604
 4440SOL    HW114219   3.033   4.654   0.603
 4440SOL    HW214220   2.877   4.624   0.564
 4441SOL     OW14221   0.315   1.356   1.324
 4441SOL    HW114222   0.269   1.269   1.339
 4441SOL    HW214223   0.250   1.431   1.342
 4442SOL     OW14224   1.089   5.249   4.811
 4442SOL    HW114225   1.102   5.281   4.905
 4442SOL    HW214226   1.165   5.190   4.785
 4443SOL     OW14227   1.662   3.620   5.669
 4443SOL    HW114228   1.586   3.680   5.694
 4443SOL    HW214229   1.638   3.525   5.689
 4444SOL     OW14230   4.006   3.893   6.867
 4444SOL    HW114231   4.060   3.837   6.929
 4444SOL    HW214232   3.975   3.838   6.789
 4445SOL     OW14233   1.191   5.961   0.238
 4445SOL    HW114234   1.114   5.898   0.252
 4445SOL    HW214235   1.162   6.054   0.261
 4446SOL     OW14236   5.431   2.179   0.402
 4446SOL    HW114237   5.494   2.255   0.385
 4446SOL    HW214238   5.449   2.106   0.336
 4447SOL     OW14239   6.389   4.021   4.840
 4447SOL    HW114240   6.428   4.045   4.751
 4447SOL    HW214241   6.456   3.970   4.894
 4448SOL     OW14242   2.317   5.841   0.989
 4448SOL    HW114243   2.309   5.788   1.074
 4448SOL    HW214244   2.340   5.936   1.011
 4449SOL     OW14245   5.053   0.908   6.253
 4449SOL    HW114246   5.107   0.907   6.169
 4449SOL    HW214247   5.112   0.928   6.331
 4450SOL     OW14248   2.819   1.667   6.818
 4450SOL    HW114249   2.870   1.601   6.762
 4450SOL    HW214250   2.738   1.697   6.767
 4451SOL     OW14251   4.560   5.344   4.590
 4451SOL    HW114252   4.649   5.309   4.619
 4451SOL    HW214253   4.489   5.301   4.645
 4452SOL     OW14254   5.602   5.572   4.109
 4452SOL    HW114255   5.530   5.640   4.126
 4452SOL    HW214256   5.671   5.612   4.048
 4453SOL     OW14257   1.384   2.885   1.754
 4453SOL    HW114258   1.454   2.817   1.776
 4453SOL    HW214259   1.321   2.848   1.687
 4454SOL     OW14260   1.662   1.852   0.098
 4454SOL    HW114261   1.636   1.844   0.002
 4454SOL    HW214262   1.598   1.798   0.154
 4455SOL     OW14263   5.455   5.988   5.407
 4455SOL    HW114264   5.453   5.896   5.446
 4455SOL    HW214265   5.531   5.995   5.342
 4456SOL     OW14266   2.498   6.471   3.078
 4456SOL    HW114267   2.473   6.442   2.985
 4456SOL    HW214268   2.596   6.458   3.091
 4457SOL     OW14269   3.516   1.570   3.436
 4457SOL    HW114270   3.540   1.519   3.518
 4457SOL    HW214271   3.557   1.525   3.356
 4458SOL     OW14272   2.299   3.247   1.229
 4458SOL    HW114273   2.272   3.342   1.246
 4458SOL    HW214274   2.366   3.244   1.155
 4459SOL     OW14275   4.124   2.270   4.443
 4459SOL    HW114276   4.122   2.198   4.514
 4459SOL    HW214277   4.042   2.263   4.387
 4460SOL     OW14278   0.611   2.629   0.246
 4460SOL    HW114279   0.537   2.606   0.310
 4460SOL    HW214280   0.572   2.660   0.160
 4461SOL     OW14281   1.635   1.232   1.309
 4461SOL    HW114282   1.664   1.155   1.252
 4461SOL    HW214283   1.603   1.198   1.397
 4462SOL     OW14284   5.968   4.826   1.818
 4462SOL    HW114285   5.880   4.855   1.853
 4462SOL    HW214286   5.971   4.726   1.812
 4463SOL     OW14287   4.923   1.237   0.986
 4463SOL    HW114288   4.904   1.204   0.894
 4463SOL    HW214289   4.858   1.197   1.050
 4464SOL     OW14290   0.377   6.082   0.743
 4464SOL    HW114291   0.298   6.027   0.773
 4464SOL    HW214292   0.461   6.036   0.771
 4465SOL     OW14293   3.296   5.277   0.350
 4465SOL    HW114294   3.299   5.177   0.348
 4465SOL    HW214295   3.268   5.308   0.441
 4466SOL     OW14296   1.142   1.898   2.717
 4466SOL    HW114297   1.117   1.968   2.650
 4466SOL    HW214298   1.242   1.894   2.724
 4467SOL     OW14299   2.390   4.956   3.155
 4467SOL    HW114300   2.456   4.934   3.226
 4467SOL    HW214301   2.303   4.984   3.196
 4468SOL     OW14302   2.238   4.160   0.777
 4468SOL    HW114303   2.246   4.136   0.873
 4468SOL    HW214304   2.262   4.081   0.720
 4469SOL     OW14305   2.918   0.836   1.313
 4469SOL    HW114306   2.948   0.741   1.327
 4469SOL    HW214307   2.841   0.836   1.249
 4470SOL     OW14308   0.858   2.016   2.456
 4470SOL    HW114309   0.864   2.025   2.556
 4470SOL    HW214310   0.860   1.919   2.432
 4471SOL     OW14311   0.944   2.969   6.721
 4471SOL    HW114312   0.952   3.020   6.806
 4471SOL    HW214313   1.003   3.010   6.651
 4472SOL     OW14314   0.386   2.036   1.317
 4472SOL    HW114315   0.356   1.955   1.265
 4472SOL    HW214316   0.467   2.012   1.371
 4473SOL     OW14317   5.646   2.834   4.153
 4473SOL    HW114318   5.550   2.826   4.127
 4473SOL    HW214319   5.656   2.906   4.221
 4474SOL     OW14320   3.243   6.754   1.414
 4474SOL    HW114321   3.339   6.727   1.401
 4474SOL    HW214322   3.224   6.764   1.511
 4475SOL     OW14323   1.040   3.856   1.840
 4475SOL    HW114324   1.049   3.758   1.860
 4475SOL    HW214325   1.101   3.880   1.765
 4476SOL     OW14326   6.390   0.933   3.655
 4476SOL    HW114327   6.445   0.870   3.709
 4476SOL    HW214328   6.298   0.896   3.643
 4477SOL     OW14329   1.595   0.612   5.446
 4477SOL    HW114330   1.527   0.538   5.455
 4477SOL    HW214331   1.623   0.643   5.537
 4478SOL     OW14332   2.538   6.998   2.572
 4478SOL    HW114333   2.540   0.058   2.516
 4478SOL    HW214334   2.632   6.972   2.596
 4479SOL     OW14335   0.733   2.184   1.638
 4479SOL    HW114336   0.667   2.239   1.690
 4479SOL    HW214337   0.786   2.127   1.702
 4480SOL     OW14338   0.184   4.266   5.191
 4480SOL    HW114339   0.131   4.349   5.180
 4480SOL    HW214340   0.195   4.221   5.102
 4481SOL     OW14341   2.144   5.054   4.886
 4481SOL    HW114342   2.152   4.961   4.852
 4481SOL    HW214343   2.138   5.054   4.985
 4482SOL     OW14344   2.589   2.365   5.586
 4482SOL    HW114345   2.598   2.378   5.487
 4482SOL    HW214346   2.606   2.452   5.633
 4483SOL     OW14347   6.958   2.679   2.073
 4483SOL    HW114348   0.004   2.747   2.049
 4483SOL    HW214349   6.996   2.616   2.141
 4484SOL     OW14350   2.847   2.373   6.572
 4484SOL    HW114351   2.927   2.432   6.575
 4484SOL    HW214352   2.774   2.418   6.520
 4485SOL     OW14353   5.659   2.715   5.019
 4485SOL    HW114354   5.568   2.756   5.012
 4485SOL    HW214355   5.677   2.660   4.938
 4486SOL     OW14356   6.116   5.265   4.672
 4486SOL    HW114357   6.119   5.364   4.688
 4486SOL    HW214358   6.021   5.237   4.660
 4487SOL     OW14359   2.880   2.615   0.018
 4487SOL    HW114360   2.811   2.554   7.003
 4487SOL    HW214361   2.963   2.610   6.986
 4488SOL     OW14362   1.298   3.217   4.842
 4488SOL    HW114363   1.333   3.155   4.911
 4488SOL    HW214364   1.300   3.311   4.877
 4489SOL     OW14365   4.822   5.491   4.620
 4489SOL    HW114366   4.840   5.522   4.713
 4489SOL    HW214367   4.872   5.406   4.602
 4490SOL     OW14368   5.625   1.822   1.894
 4490SOL    HW114369   5.630   1.755   1.820
 4490SOL    HW214370   5.622   1.915   1.856
 4491SOL     OW14371   0.174   3.368   3.610
 4491SOL    HW114372   0.149   3.410   3.523
 4491SOL    HW214373   0.110   3.398   3.681
 4492SOL     OW14374   5.835   3.400   1.524
 4492SOL    HW114375   5.846   3.345   1.607
 4492SOL    HW214376   5.860   3.495   1.544
 4493SOL     OW14377   4.702   6.473   5.143
 4493SOL    HW114378   4.768   6.424   5.200
 4493SOL    HW214379   4.661   6.409   5.078
 4494SOL     OW14380   0.759   0.969   6.006
 4494SOL    HW114381   0.828   1.039   5.986
 4494SOL    HW214382   0.739   0.968   6.104
 4495SOL     OW14383   4.884   0.055   3.812
 4495SOL    HW114384   4.962   7.019   3.836
 4495SOL    HW214385   4.799   0.003   3.825
 4496SOL     OW14386   5.407   6.261   0.784
 4496SOL    HW114387   5.393   6.335   0.718
 4496SOL    HW214388   5.490   6.278   0.836
 4497SOL     OW14389   4.365   2.306   6.668
 4497SOL    HW114390   4.405   2.347   6.586
 4497SOL    HW214391   4.437   2.259   6.719
 4498SOL     OW14392   7.023   4.807   6.833
 4498SOL    HW114393   6.930   4.834   6.806
 4498SOL    HW214394   7.018   4.729   6.896
 4499SOL     OW14395   6.342   3.237   3.382
 4499SOL    HW114396   6.365   3.232   3.285
 4499SOL    HW214397   6.407   3.181   3.434
 4500SOL     OW14398   3.849   4.238   6.712
 4500SOL    HW114399   3.807   4.207   6.626
 4500SOL    HW214400   3.829   4.172   6.785
 4501SOL     OW14401   6.469   3.553   3.162
 4501SOL    HW114402   6.555   3.602   3.144
 4501SOL    HW214403   6.446   3.495   3.084
 4502SOL     OW14404   1.097   3.736   0.049
 4502SOL    HW114405   1.028   3.737   6.999
 4502SOL    HW214406   1.052   3.715   0.136
 4503SOL     OW14407   3.588   6.486   2.020
 4503SOL    HW114408   3.651   6.564   2.019
 4503SOL    HW214409   3.625   6.413   1.963
 4504SOL     OW14410   6.466   1.693   4.220
 4504SOL    HW114411   6.482   1.594   4.223
 4504SOL    HW214412   6.482   1.727   4.128
 4505SOL     OW14413   6.435   4.631   1.639
 4505SOL    HW114414   6.454   4.727   1.661
 4505SOL    HW214415   6.398   4.585   1.719
 4506SOL     OW14416   5.000   2.464   3.932
 4506SOL    HW114417   5.034   2.390   3.990
 4506SOL    HW214418   5.076   2.509   3.886
 4507SOL     OW14419   0.019   3.479   3.793
 4507SOL    HW114420   0.014   3.486   3.893
 4507SOL    HW214421   6.950   3.485   3.754
 4508SOL     OW14422   1.200   4.908   0.248
 4508SOL    HW114423   1.165   4.996   0.214
 4508SOL    HW214424   1.243   4.858   0.173
 4509SOL     OW14425   5.162   1.904   3.325
 4509SOL    HW114426   5.143   1.944   3.414
 4509SOL    HW214427   5.079   1.860   3.289
 4510SOL     OW14428   4.534   1.151   4.288
 4510SOL    HW114429   4.547   1.053   4.302
 4510SOL    HW214430   4.617   1.191   4.251
 4511SOL     OW14431   5.983   3.169   0.360
 4511SOL    HW114432   6.083   3.180   0.360
 4511SOL    HW214433   5.945   3.209   0.277
 4512SOL     OW14434   3.358   1.203   6.287
 4512SOL    HW114435   3.358   1.292   6.241
 4512SOL    HW214436   3.441   1.153   6.262
 4513SOL     OW14437   1.237   5.356   6.633
 4513SOL    HW114438   1.301   5.279   6.628
 4513SOL    HW214439   1.192   5.369   6.545
 4514SOL     OW14440   3.215   2.320   6.409
 4514SOL    HW114441   3.124   2.307   6.368
 4514SOL    HW214442   3.258   2.402   6.372
 4515SOL     OW14443   5.803   1.933   5.415
 4515SOL    HW114444   5.814   1.964   5.509
 4515SOL    HW214445   5.750   2.001   5.363
 4516SOL     OW14446   2.573   0.172   6.496
 4516SOL    HW114447   2.600   0.217   6.411
 4516SOL    HW214448   2.478   0.194   6.516
 4517SOL     OW14449   4.620   6.670   0.051
 4517SOL    HW114450   4.537   6.614   0.045
 4517SOL    HW214451   4.674   6.659   6.990
 4518SOL     OW14452   0.630   6.742   1.593
 4518SOL    HW114453   0.712   6.696   1.628
 4518SOL    HW214454   0.551   6.683   1.609
 4519SOL     OW14455   5.300   6.906   0.471
 4519SOL    HW114456   5.381   6.911   0.411
 4519SOL    HW214457   5.329   6.910   0.566
 4520SOL     OW14458   4.016   5.803   6.205
 4520SOL    HW114459   3.988   5.874   6.270
 4520SOL    HW214460   3.989   5.713   6.240
 4521SOL     OW14461   5.183   2.279   5.039
 4521SOL    HW114462   5.198   2.210   5.110
 4521SOL    HW214463   5.145   2.234   4.958
 4522SOL     OW14464   5.560   4.477   3.031
 4522SOL    HW114465   5.628   4.406   3.045
 4522SOL    HW214466   5.481   4.460   3.089
 4523SOL     OW14467   0.743   3.939   0.157
 4523SOL    HW114468   0.821   3.977   0.107
 4523SOL    HW214469   0.738   3.841   0.143
 4524SOL     OW14470   5.864   3.566   2.884
 4524SOL    HW114471   5.939   3.575   2.818
 4524SOL    HW214472   5.862   3.646   2.943
 4525SOL     OW14473   3.853   1.820   6.082
 4525SOL    HW114474   3.771   1.872   6.056
 4525SOL    HW214475   3.826   1.740   6.135
 4526SOL     OW14476   6.704   0.508   6.902
 4526SOL    HW114477   6.710   0.577   6.829
 4526SOL    HW214478   6.676   0.553   6.987
 4527SOL     OW14479   6.092   6.701   2.494
 4527SOL    HW114480   6.024   6.699   2.567
 4527SOL    HW214481   6.184   6.698   2.533
 4528SOL     OW14482   4.110   0.719   6.412
 4528SOL    HW114483   4.098   0.655   6.488
 4528SOL    HW214484   4.123   0.667   6.327
 4529SOL     OW14485   2.241   1.101   5.477
 4529SOL    HW114486   2.155   1.139   5.443
 4529SOL    HW214487   2.237   1.092   5.576
 4530SOL     OW14488   2.409   5.708   3.028
 4530SOL    HW114489   2.381   5.620   3.066
 4530SOL    HW214490   2.436   5.695   2.932
 4531SOL     OW14491   0.936   3.253   6.310
 4531SOL    HW114492   1.010   3.320   6.301
 4531SOL    HW214493   0.942   3.187   6.235
 4532SOL     OW14494   5.786   0.946   2.835
 4532SOL    HW114495   5.882   0.973   2.834
 4532SOL    HW214496   5.767   0.891   2.916
 4533SOL     OW14497   2.160   1.137   3.168
 4533SOL    HW114498   2.162   1.085   3.083
 4533SOL    HW214499   2.147   1.234   3.148
 4534SOL     OW14500   4.816   2.679   5.114
 4534SOL    HW114501   4.801   2.621   5.034
 4534SOL    HW214502   4.764   2.643   5.192
 4535SOL     OW14503   3.791   1.375   1.910
 4535SOL    HW114504   3.849   1.405   1.985
 4535SOL    HW214505   3.725   1.446   1.888
 4536SOL     OW14506   3.525   2.085   4.653
 4536SOL    HW114507   3.595   2.130   4.708
 4536SOL    HW214508   3.437   2.090   4.700
 4537SOL     OW14509   4.228   3.440   1.446
 4537SOL    HW114510   4.172   3.363   1.414
 4537SOL    HW214511   4.257   3.423   1.540
 4538SOL     OW14512   2.734   0.535   2.624
 4538SOL    HW114513   2.751   0.437   2.635
 4538SOL    HW214514   2.703   0.574   2.711
 4539SOL     OW14515   2.421   5.606   4.653
 4539SOL    HW114516   2.422   5.706   4.658
 4539SOL    HW214517   2.515   5.572   4.661
 4540SOL     OW14518   2.233   1.074   0.643
 4540SOL    HW114519   2.330   1.058   0.658
 4540SOL    HW214520   2.189   1.097   0.730
 4541SOL     OW14521   5.670   1.454   6.887
 4541SOL    HW114522   5.742   1.495   6.943
 4541SOL    HW214523   5.643   1.366   6.927
 4542SOL     OW14524   0.029   2.427   1.621
 4542SOL    HW114525   0.000   2.405   1.715
 4542SOL    HW214526   0.109   2.372   1.597
 4543SOL     OW14527   4.894   2.019   1.229
 4543SOL    HW114528   4.976   2.001   1.283
 4543SOL    HW214529   4.838   2.087   1.277
 4544SOL     OW14530   4.041   4.749   0.067
 4544SOL    HW114531   4.014   4.800   0.148
 4544SOL    HW214532   3.960   4.727   0.012
 4545SOL     OW14533   0.024   3.788   5.493
 4545SOL    HW114534   6.964   3.828   5.454
 4545SOL    HW214535   0.035   3.819   5.587
 4546SOL     OW14536   3.023   6.747   4.250
 4546SOL    HW114537   2.984   6.679   4.312
 4546SOL    HW214538   2.988   6.732   4.158
 4547SOL     OW14539   6.488   1.523   0.719
 4547SOL    HW114540   6.473   1.621   0.737
 4547SOL    HW214541   6.418   1.469   0.766
 4548SOL     OW14542   2.531   2.535   3.534
 4548SOL    HW114543   2.601   2.465   3.548
 4548SOL    HW214544   2.503   2.573   3.622
 4549SOL     OW14545   5.241   3.752   2.368
 4549SOL    HW114546   5.151   3.766   2.409
 4549SOL    HW214547   5.232   3.740   2.269
 4550SOL     OW14548   1.095   4.467   3.123
 4550SOL    HW114549   1.031   4.390   3.131
 4550SOL    HW214550   1.184   4.440   3.160
 4551SOL     OW14551   0.957   3.580   5.146
 4551SOL    HW114552   1.023   3.533   5.205
 4551SOL    HW214553   1.006   3.629   5.074
 4552SOL     OW14554   5.461   2.447   0.903
 4552SOL    HW114555   5.443   2.537   0.940
 4552SOL    HW214556   5.480   2.383   0.977
 4553SOL     OW14557   5.492   4.041   6.620
 4553SOL    HW114558   5.527   4.046   6.714
 4553SOL    HW214559   5.568   4.034   6.556
 4554SOL     OW14560   6.922   6.923   1.924
 4554SOL    HW114561   6.916   6.868   1.841
 4554SOL    HW214562   6.853   6.891   1.989
 4555SOL     OW14563   1.271   0.836   6.059
 4555SOL    HW114564   1.225   0.870   5.977
 4555SOL    HW214565   1.370   0.846   6.048
 4556SOL     OW14566   6.498   3.232   4.885
 4556SOL    HW114567   6.598   3.222   4.890
 4556SOL    HW214568   6.472   3.246   4.789
 4557SOL     OW14569   5.034   5.096   4.357
 4557SOL    HW114570   5.119   5.131   4.318
 4557SOL    HW214571   4.977   5.059   4.285
 4558SOL     OW14572   6.597   3.836   4.714
 4558SOL    HW114573   6.518   3.784   4.747
 4558SOL    HW214574   6.679   3.779   4.722
 4559SOL     OW14575   6.824   3.336   2.799
 4559SOL    HW114576   6.864   3.246   2.785
 4559SOL    HW214577   6.869   3.402   2.738
 4560SOL     OW14578   5.632   3.951   1.883
 4560SOL    HW114579   5.617   4.035   1.830
 4560SOL    HW214580   5.559   3.942   1.951
 4561SOL     OW14581   4.039   1.939   3.172
 4561SOL    HW114582   3.965   1.992   3.130
 4561SOL    HW214583   4.082   1.882   3.103
 4562SOL     OW14584   1.423   0.162   0.535
 4562SOL    HW114585   1.409   0.065   0.557
 4562SOL    HW214586   1.461   0.209   0.615
 4563SOL     OW14587   0.201   3.441   0.760
 4563SOL    HW114588   0.197   3.497   0.843
 4563SOL    HW214589   0.277   3.376   0.767
 4564SOL     OW14590   6.403   6.234   1.993
 4564SOL    HW114591   6.377   6.291   1.916
 4564SOL    HW214592   6.327   6.174   2.017
 4565SOL     OW14593   1.343   1.388   4.606
 4565SOL    HW114594   1.250   1.364   4.578
 4565SOL    HW214595   1.404   1.382   4.526
 4566SOL     OW14596   6.983   3.539   1.296
 4566SOL    HW114597   6.928   3.532   1.379
 4566SOL    HW214598   0.033   3.471   1.298
 4567SOL     OW14599   0.060   1.494   6.613
 4567SOL    HW114600   7.006   1.549   6.579
 4567SOL    HW214601   0.035   1.457   6.703
 4568SOL     OW14602   1.645   3.712   5.307
 4568SOL    HW114603   1.665   3.690   5.212
 4568SOL    HW214604   1.558   3.670   5.333
 4569SOL     OW14605   2.999   0.354   3.306
 4569SOL    HW114606   2.941   0.380   3.383
 4569SOL    HW214607   3.095   0.370   3.329
 4570SOL     OW14608   6.119   6.345   2.309
 4570SOL    HW114609   6.030   6.378   2.278
 4570SOL    HW214610   6.132   6.369   2.405
 4571SOL     OW14611   4.409   2.734   6.732
 4571SOL    HW114612   4.424   2.666   6.804
 4571SOL    HW214613   4.314   2.765   6.734
 4572SOL     OW14614   2.248   0.770   6.606
 4572SOL    HW114615   2.171   0.787   6.666
 4572SOL    HW214616   2.330   0.812   6.644
 4573SOL     OW14617   6.970   6.987   0.117
 4573SOL    HW114618   7.008   7.016   0.029
 4573SOL    HW214619   0.016   6.999   0.188
 4574SOL     OW14620   5.583   4.552   0.182
 4574SOL    HW114621   5.642   4.508   0.250
 4574SOL    HW214622   5.523   4.617   0.228
 4575SOL     OW14623   5.640   0.572   5.375
 4575SOL    HW114624   5.579   0.645   5.343
 4575SOL    HW214625   5.714   0.612   5.428
 4576SOL     OW14626   2.845   5.139   5.229
 4576SOL    HW114627   2.788   5.150   5.310
 4576SOL    HW214628   2.819   5.056   5.180
 4577SOL     OW14629   1.654   2.809   3.890
 4577SOL    HW114630   1.612   2.761   3.813
 4577SOL    HW214631   1.609   2.781   3.975
 4578SOL     OW14632   0.834   1.560   4.186
 4578SOL    HW114633   0.860   1.622   4.111
 4578SOL    HW214634   0.886   1.475   4.180
 4579SOL     OW14635   4.810   0.832   1.878
 4579SOL    HW114636   4.841   0.844   1.972
 4579SOL    HW214637   4.729   0.773   1.876
 4580SOL     OW14638   5.479   3.890   0.755
 4580SOL    HW114639   5.530   3.889   0.841
 4580SOL    HW214640   5.543   3.901   0.679
 4581SOL     OW14641   2.604   6.008   2.588
 4581SOL    HW114642   2.625   6.021   2.491
 4581SOL    HW214643   2.615   6.096   2.636
 4582SOL     OW14644   4.888   0.487   3.653
 4582SOL    HW114645   4.969   0.524   3.609
 4582SOL    HW214646   4.833   0.437   3.585
 4583SOL     OW14647   2.943   1.347   6.455
 4583SOL    HW114648   2.979   1.256   6.471
 4583SOL    HW214649   2.982   1.384   6.370
 4584SOL     OW14650   1.701   5.855   5.085
 4584SOL    HW114651   1.635   5.844   5.159
 4584SOL    HW214652   1.719   5.766   5.043
 4585SOL     OW14653   2.109   4.580   3.272
 4585SOL    HW114654   2.197   4.594   3.318
 4585SOL    HW214655   2.122   4.590   3.173
 4586SOL     OW14656   4.166   3.711   0.002
 4586SOL    HW114657   4.131   3.700   0.095
 4586SOL    HW214658   4.265   3.699   0.003
 4587SOL     OW14659   3.390   3.775   3.770
 4587SOL    HW114660   3.308   3.832   3.780
 4587SOL    HW214661   3.404   3.754   3.673
 4588SOL     OW14662   3.298   3.005   5.573
 4588SOL    HW114663   3.380   2.949   5.576
 4588SOL    HW214664   3.234   2.975   5.644
 4589SOL     OW14665   5.181   0.123   2.074
 4589SOL    HW114666   5.268   0.114   2.027
 4589SOL    HW214667   5.184   0.200   2.138
 4590SOL     OW14668   3.860   5.138   1.009
 4590SOL    HW114669   3.865   5.038   1.010
 4590SOL    HW214670   3.937   5.175   0.955
 4591SOL     OW14671   2.010   0.376   5.245
 4591SOL    HW114672   2.089   0.398   5.302
 4591SOL    HW214673   1.997   0.449   5.177
 4592SOL     OW14674   3.560   0.954   3.145
 4592SOL    HW114675   3.544   0.880   3.079
 4592SOL    HW214676   3.577   1.039   3.096
 4593SOL     OW14677   6.173   6.078   1.998
 4593SOL    HW114678   6.162   5.982   1.973
 4593SOL    HW214679   6.114   6.099   2.076
 4594SOL     OW14680   3.637   0.556   3.177
 4594SOL    HW114681   3.705   0.532   3.108
 4594SOL    HW214682   3.684   0.593   3.257
 4595SOL     OW14683   4.725   3.247   5.709
 4595SOL    HW114684   4.788   3.292   5.645
 4595SOL    HW214685   4.657   3.312   5.740
 4596SOL     OW14686   6.597   0.560   2.448
 4596SOL    HW114687   6.526   0.492   2.467
 4596SOL    HW214688   6.639   0.589   2.534
 4597SOL     OW14689   2.816   5.552   6.171
 4597SOL    HW114690   2.835   5.465   6.125
 4597SOL    HW214691   2.726   5.547   6.214
 4598SOL     OW14692   1.465   5.514   1.347
 4598SOL    HW114693   1.489   5.610   1.362
 4598SOL    HW214694   1.406   5.482   1.422
 4599SOL     OW14695   1.606   4.764   1.127
 4599SOL    HW114696   1.558   4.808   1.203
 4599SOL    HW214697   1.540   4.737   1.057
 4600SOL     OW14698   0.340   6.668   5.179
 4600SOL    HW114699   0.379   6.602   5.243
 4600SOL    HW214700   0.331   6.757   5.224
 4601SOL     OW14701   0.722   1.633   5.489
 4601SOL    HW114702   0.691   1.544   5.455
 4601SOL    HW214703   0.757   1.687   5.413
 4602SOL     OW14704   2.401   6.348   0.199
 4602SOL    HW114705   2.309   6.385   0.206
 4602SOL    HW214706   2.435   6.362   0.106
 4603SOL     OW14707   3.473   5.707   0.500
 4603SOL    HW114708   3.397   5.671   0.445
 4603SOL    HW214709   3.547   5.640   0.501
 4604SOL     OW14710   5.000   0.216   6.568
 4604SOL    HW114711   5.052   0.201   6.483
 4604SOL    HW214712   4.952   0.303   6.563
 4605SOL     OW14713   2.388   6.892   1.223
 4605SOL    HW114714   2.383   6.798   1.257
 4605SOL    HW214715   2.439   6.893   1.137
 4606SOL     OW14716   0.173   0.011   2.835
 4606SOL    HW114717   0.248   0.055   2.884
 4606SOL    HW214718   0.168   6.937   2.861
 4607SOL     OW14719   1.715   3.457   3.293
 4607SOL    HW114720   1.799   3.409   3.270
 4607SOL    HW214721   1.661   3.472   3.210
 4608SOL     OW14722   6.986   4.104   3.767
 4608SOL    HW114723   0.015   4.051   3.700
 4608SOL    HW214724   6.917   4.158   3.720
 4609SOL     OW14725   4.910   4.828   0.090
 4609SOL    HW114726   4.823   4.778   0.094
 4609SOL    HW214727   4.979   4.778   0.143
 4610SOL     OW14728   4.500   1.625   6.889
 4610SOL    HW114729   4.427   1.628   6.821
 4610SOL    HW214730   4.502   1.535   6.932
 4611SOL     OW14731   0.358   0.463   6.196
 4611SOL    HW114732   0.289   0.446   6.267
 4611SOL    HW214733   0.386   0.559   6.201
 4612SOL     OW14734   2.637   0.056   1.243
 4612SOL    HW114735   2.631   0.002   1.159
 4612SOL    HW214736   2.575   0.018   1.312
 4613SOL     OW14737   1.396   5.684   2.966
 4613SOL    HW114738   1.463   5.610   2.957
 4613SOL    HW214739   1.410   5.751   2.893
 4614SOL     OW14740   6.072   2.875   3.649
 4614SOL    HW114741   6.167   2.906   3.659
 4614SOL    HW214742   6.031   2.920   3.569
 4615SOL     OW14743   1.417   1.338   0.944
 4615SOL    HW114744   1.505   1.385   0.936
 4615SOL    HW214745   1.401   1.282   0.862
 4616SOL     OW14746   5.910   1.759   4.422
 4616SOL    HW114747   5.990   1.801   4.379
 4616SOL    HW214748   5.913   1.660   4.409
 4617SOL     OW14749   1.485   2.353   2.449
 4617SOL    HW114750   1.557   2.331   2.383
 4617SOL    HW214751   1.405   2.386   2.400
 4618SOL     OW14752   2.380   3.429   5.725
 4618SOL    HW114753   2.383   3.527   5.707
 4618SOL    HW214754   2.401   3.379   5.641
 4619SOL     OW14755   3.050   6.503   3.821
 4619SOL    HW114756   3.097   6.416   3.808
 4619SOL    HW214757   2.952   6.488   3.818
 4620SOL     OW14758   0.847   4.509   1.330
 4620SOL    HW114759   0.934   4.505   1.379
 4620SOL    HW214760   0.782   4.564   1.383
 4621SOL     OW14761   5.374   0.790   2.289
 4621SOL    HW114762   5.404   0.853   2.217
 4621SOL    HW214763   5.292   0.741   2.259
 4622SOL     OW14764   3.716   5.341   0.779
 4622SOL    HW114765   3.793   5.391   0.818
 4622SOL    HW214766   3.662   5.299   0.852
 4623SOL     OW14767   4.203   5.408   1.005
 4623SOL    HW114768   4.164   5.335   0.950
 4623SOL    HW214769   4.131   5.450   1.061
 4624SOL     OW14770   3.519   0.750   2.959
 4624SOL    HW114771   3.526   0.663   3.008
 4624SOL    HW214772   3.547   0.737   2.864
 4625SOL     OW14773   2.282   5.587   2.067
 4625SOL    HW114774   2.321   5.495   2.057
 4625SOL    HW214775   2.203   5.583   2.128
 4626SOL     OW14776   4.326   4.432   1.521
 4626SOL    HW114777   4.410   4.441   1.575
 4626SOL    HW214778   4.300   4.335   1.517
 4627SOL     OW14779   1.036   5.747   5.609
 4627SOL    HW114780   1.093   5.769   5.529
 4627SOL    HW214781   1.005   5.831   5.652
 4628SOL     OW14782   4.460   4.542   4.735
 4628SOL    HW114783   4.417   4.535   4.824
 4628SOL    HW214784   4.554   4.508   4.740
 4629SOL     OW14785   2.030   4.607   5.518
 4629SOL    HW114786   2.052   4.520   5.475
 4629SOL    HW214787   2.000   4.672   5.449
 4630SOL     OW14788   2.417   5.508   2.428
 4630SOL    HW114789   2.405   5.599   2.387
 4630SOL    HW214790   2.508   5.503   2.470
 4631SOL     OW14791   0.787   6.732   4.106
 4631SOL    HW114792   0.734   6.647   4.103
 4631SOL    HW214793   0.884   6.710   4.099
 4632SOL     OW14794   2.553   4.737   2.891
 4632SOL    HW114795   2.645   4.757   2.925
 4632SOL    HW214796   2.559   4.690   2.803
 4633SOL     OW14797   5.645   1.167   4.720
 4633SOL    HW114798   5.673   1.224   4.642
 4633SOL    HW214799   5.597   1.086   4.687
 4634SOL     OW14800   2.625   3.875   5.318
 4634SOL    HW114801   2.584   3.855   5.407
 4634SOL    HW214802   2.560   3.926   5.262
 4635SOL     OW14803   4.510   4.411   1.725
 4635SOL    HW114804   4.468   4.325   1.754
 4635SOL    HW214805   4.604   4.416   1.760
 4636SOL     OW14806   2.241   4.532   0.255
 4636SOL    HW114807   2.276   4.621   0.285
 4636SOL    HW214808   2.310   4.462   0.270
 4637SOL     OW14809   0.881   6.652   0.891
 4637SOL    HW114810   0.890   6.594   0.972
 4637SOL    HW214811   0.839   6.599   0.817
 4638SOL     OW14812   3.739   5.867   6.575
 4638SOL    HW114813   3.777   5.832   6.660
 4638SOL    HW214814   3.639   5.865   6.579
 4639SOL     OW14815   2.690   2.911   6.087
 4639SOL    HW114816   2.694   2.958   6.176
 4639SOL    HW214817   2.728   2.820   6.096
 4640SOL     OW14818   6.163   3.282   4.212
 4640SOL    HW114819   6.073   3.278   4.255
 4640SOL    HW214820   6.206   3.369   4.234
 4641SOL     OW14821   2.013   0.263   4.045
 4641SOL    HW114822   2.087   0.286   3.982
 4641SOL    HW214823   1.926   0.261   3.995
 4642SOL     OW14824   1.639   6.520   2.755
 4642SOL    HW114825   1.605   6.605   2.714
 4642SOL    HW214826   1.703   6.476   2.691
 4643SOL     OW14827   6.886   2.283   0.010
 4643SOL    HW114828   6.866   2.327   0.098
 4643SOL    HW214829   6.803   2.283   6.976
 4644SOL     OW14830   6.948   0.451   5.665
 4644SOL    HW114831   6.986   0.533   5.622
 4644SOL    HW214832   7.003   0.372   5.638
 4645SOL     OW14833   2.136   1.115   4.119
 4645SOL    HW114834   2.137   1.135   4.216
 4645SOL    HW214835   2.092   1.026   4.103
 4646SOL     OW14836   2.232   5.191   3.736
 4646SOL    HW114837   2.284   5.108   3.712
 4646SOL    HW214838   2.207   5.187   3.832
 4647SOL     OW14839   1.961   0.227   3.073
 4647SOL    HW114840   1.863   0.247   3.066
 4647SOL    HW214841   1.998   0.207   2.982
 4648SOL     OW14842   2.817   1.050   4.278
 4648SOL    HW114843   2.786   1.017   4.366
 4648SOL    HW214844   2.906   1.010   4.256
 4649SOL     OW14845   6.123   0.966   0.492
 4649SOL    HW114846   6.142   1.040   0.557
 4649SOL    HW214847   6.125   0.878   0.540
 4650SOL     OW14848   4.731   5.165   1.957
 4650SOL    HW114849   4.752   5.150   2.054
 4650SOL    HW214850   4.637   5.136   1.938
 4651SOL     OW14851   5.928   3.602   6.847
 4651SOL    HW114852   6.025   3.595   6.822
 4651SOL    HW214853   5.920   3.624   6.944
 4652SOL     OW14854   6.211   6.365   4.830
 4652SOL    HW114855   6.289   6.374   4.892
 4652SOL    HW214856   6.133   6.415   4.867
 4653SOL     OW14857   5.155   5.830   0.844
 4653SOL    HW114858   5.139   5.752   0.783
 4653SOL    HW214859   5.077   5.840   0.906
 4654SOL     OW14860   0.248   6.020   6.008
 4654SOL    HW114861   0.325   6.074   6.043
 4654SOL    HW214862   0.268   5.989   5.915
 4655SOL     OW14863   5.339   4.245   1.549
 4655SOL    HW114864   5.253   4.219   1.505
 4655SOL    HW214865   5.355   4.188   1.629
 4656SOL     OW14866   1.313   0.543   1.576
 4656SOL    HW114867   1.274   0.452   1.559
 4656SOL    HW214868   1.311   0.562   1.674
 4657SOL     OW14869   4.489   5.437   1.841
 4657SOL    HW114870   4.583   5.410   1.817
 4657SOL    HW214871   4.434   5.356   1.856
 4658SOL     OW14872   3.195   1.906   4.979
 4658SOL    HW114873   3.266   1.846   5.016
 4658SOL    HW214874   3.115   1.904   5.039
 4659SOL     OW14875   2.602   4.172   6.986
 4659SOL    HW114876   2.590   4.174   0.062
 4659SOL    HW214877   2.523   4.127   6.944
 4660SOL     OW14878   1.539   6.572   4.405
 4660SOL    HW114879   1.603   6.585   4.329
 4660SOL    HW214880   1.481   6.653   4.414
 4661SOL     OW14881   2.451   4.969   5.502
 4661SOL    HW114882   2.501   4.939   5.420
 4661SOL    HW214883   2.354   4.948   5.491
 4662SOL     OW14884   3.069   0.343   5.673
 4662SOL    HW114885   3.000   0.402   5.715
 4662SOL    HW214886   3.130   0.399   5.616
 4663SOL     OW14887   0.452   0.499   0.942
 4663SOL    HW114888   0.407   0.436   0.879
 4663SOL    HW214889   0.432   0.593   0.914
 4664SOL     OW14890   0.681   0.741   0.583
 4664SOL    HW114891   0.612   0.791   0.636
 4664SOL    HW214892   0.712   0.661   0.635
 4665SOL     OW14893   2.823   0.062   5.929
 4665SOL    HW114894   2.855   0.096   6.018
 4665SOL    HW214895   2.746   7.022   5.943
 4666SOL     OW14896   2.369   2.204   6.651
 4666SOL    HW114897   2.305   2.209   6.727
 4666SOL    HW214898   2.349   2.277   6.585
 4667SOL     OW14899   6.231   3.876   1.758
 4667SOL    HW114900   6.174   3.907   1.682
 4667SOL    HW214901   6.327   3.894   1.737
 4668SOL     OW14902   4.953   1.572   4.481
 4668SOL    HW114903   4.865   1.558   4.527
 4668SOL    HW214904   5.024   1.588   4.549
 4669SOL     OW14905   5.350   7.018   6.463
 4669SOL    HW114906   5.434   0.050   6.464
 4669SOL    HW214907   5.273   0.054   6.438
 4670SOL     OW14908   1.059   2.869   6.443
 4670SOL    HW114909   1.108   2.939   6.495
 4670SOL    HW214910   0.967   2.902   6.422
 4671SOL     OW14911   0.937   3.450   6.881
 4671SOL    HW114912   1.022   3.401   6.904
 4671SOL    HW214913   0.860   3.406   6.928
 4672SOL     OW14914   4.004   4.670   6.226
 4672SOL    HW114915   4.058   4.593   6.190
 4672SOL    HW214916   3.958   4.642   6.310
 4673SOL     OW14917   4.997   0.217   0.715
 4673SOL    HW114918   4.947   0.171   0.641
 4673SOL    HW214919   5.049   0.150   0.767
 4674SOL     OW14920   5.616   1.824   0.646
 4674SOL    HW114921   5.670   1.753   0.600
 4674SOL    HW214922   5.675   1.899   0.674
 4675SOL     OW14923   3.642   0.199   6.943
 4675SOL    HW114924   3.589   0.261   6.886
 4675SOL    HW214925   3.608   0.204   0.015
 4676SOL     OW14926   0.309   6.684   4.540
 4676SOL    HW114927   0.409   6.679   4.538
 4676SOL    HW214928   0.274   6.676   4.447
 4677SOL     OW14929   2.995   0.143   6.913
 4677SOL    HW114930   2.908   0.093   6.916
 4677SOL    HW214931   3.005   0.196   6.997
 4678SOL     OW14932   2.276   4.724   2.497
 4678SOL    HW114933   2.282   4.672   2.411
 4678SOL    HW214934   2.320   4.812   2.485
 4679SOL     OW14935   3.683   1.180   0.042
 4679SOL    HW114936   3.742   1.207   0.118
 4679SOL    HW214937   3.588   1.201   0.064
 4680SOL     OW14938   2.211   0.141   2.086
 4680SOL    HW114939   2.160   0.098   2.160
 4680SOL    HW214940   2.230   0.072   2.015
 4681SOL     OW14941   5.966   5.847   5.531
 4681SOL    HW114942   6.006   5.924   5.581
 4681SOL    HW214943   6.038   5.786   5.499
 4682SOL     OW14944   4.824   4.454   6.821
 4682SOL    HW114945   4.856   4.418   6.909
 4682SOL    HW214946   4.728   4.480   6.829
 4683SOL     OW14947   5.320   4.312   2.690
 4683SOL    HW114948   5.262   4.320   2.610
 4683SOL    HW214949   5.399   4.254   2.668
 4684SOL     OW14950   6.661   2.099   4.528
 4684SOL    HW114951   6.607   2.015   4.515
 4684SOL    HW214952   6.753   2.075   4.558
 4685SOL     OW14953   0.738   5.844   4.343
 4685SOL    HW114954   0.664   5.790   4.383
 4685SOL    HW214955   0.762   5.807   4.253
 4686SOL     OW14956   5.035   5.931   0.256
 4686SOL    HW114957   5.022   5.861   0.326
 4686SOL    HW214958   5.057   5.887   0.169
 4687SOL     OW14959   6.436   5.058   5.181
 4687SOL    HW114960   6.345   5.060   5.140
 4687SOL    HW214961   6.506   5.073   5.111
 4688SOL     OW14962   7.021   3.204   6.087
 4688SOL    HW114963   0.017   3.112   6.121
 4688SOL    HW214964   7.009   3.201   5.987
 4689SOL     OW14965   5.513   0.556   6.819
 4689SOL    HW114966   5.434   0.602   6.777
 4689SOL    HW214967   5.545   0.611   6.896
 4690SOL     OW14968   1.340   1.899   0.166
 4690SOL    HW114969   1.247   1.870   0.184
 4690SOL    HW214970   1.350   1.996   0.188
 4691SOL     OW14971   3.161   4.074   1.824
 4691SOL    HW114972   3.123   4.151   1.773
 4691SOL    HW214973   3.127   4.076   1.918
 4692SOL     OW14974   6.842   5.336   2.461
 4692SOL    HW114975   6.802   5.274   2.393
 4692SOL    HW214976   6.769   5.371   2.520
 4693SOL     OW14977   0.726   0.402   4.381
 4693SOL    HW114978   0.755   0.319   4.429
 4693SOL    HW214979   0.681   0.377   4.295
 4694SOL     OW14980   2.799   0.665   0.301
 4694SOL    HW114981   2.877   0.694   0.244
 4694SOL    HW214982   2.735   0.613   0.245
 4695SOL     OW14983   2.996   3.309   1.503
 4695SOL    HW114984   2.900   3.328   1.526
 4695SOL    HW214985   3.001   3.271   1.410
 4696SOL     OW14986   0.805   4.432   5.790
 4696SOL    HW114987   0.885   4.441   5.730
 4696SOL    HW214988   0.835   4.396   5.879
 4697SOL     OW14989   1.593   3.405   0.762
 4697SOL    HW114990   1.557   3.375   0.673
 4697SOL    HW214991   1.571   3.336   0.832
 4698SOL     OW14992   4.583   5.501   3.174
 4698SOL    HW114993   4.584   5.401   3.173
 4698SOL    HW214994   4.669   5.536   3.137
 4699SOL     OW14995   1.264   7.007   2.085
 4699SOL    HW114996   1.202   0.016   2.013
 4699SOL    HW214997   1.322   6.934   2.049
 4700SOL     OW14998   6.069   1.895   2.111
 4700SOL    HW114999   6.146   1.933   2.060
 4700SOL    HW215000   5.997   1.867   2.047
 4701SOL     OW15001   1.229   2.278   0.528
 4701SOL    HW115002   1.317   2.322   0.506
 4701SOL    HW215003   1.230   2.247   0.623
 4702SOL     OW15004   5.629   5.330   6.635
 4702SOL    HW115005   5.710   5.305   6.688
 4702SOL    HW215006   5.656   5.357   6.542
 4703SOL     OW15007   1.102   2.786   2.406
 4703SOL    HW115008   1.186   2.779   2.353
 4703SOL    HW215009   1.025   2.800   2.344
 4704SOL     OW15010   7.010   6.550   6.799
 4704SOL    HW115011   7.018   6.621   6.870
 4704SOL    HW215012   0.070   6.549   6.744
 4705SOL     OW15013   3.830   3.373   2.714
 4705SOL    HW115014   3.789   3.421   2.792
 4705SOL    HW215015   3.758   3.331   2.659
 4706SOL     OW15016   4.361   6.089   6.866
 4706SOL    HW115017   4.446   6.043   6.841
 4706SOL    HW215018   4.319   6.127   6.784
 4707SOL     OW15019   1.807   6.277   0.742
 4707SOL    HW115020   1.852   6.351   0.792
 4707SOL    HW215021   1.876   6.218   0.700
 4708SOL     OW15022   1.518   2.591   0.100
 4708SOL    HW115023   1.487   2.614   0.192
 4708SOL    HW215024   1.479   2.503   0.072
 4709SOL     OW15025   3.577   4.889   5.245
 4709SOL    HW115026   3.597   4.915   5.150
 4709SOL    HW215027   3.513   4.812   5.245
 4710SOL     OW15028   3.870   1.303   5.971
 4710SOL    HW115029   3.907   1.390   5.940
 4710SOL    HW215030   3.912   1.228   5.919
 4711SOL     OW15031   4.912   0.308   2.238
 4711SOL    HW115032   5.007   0.290   2.265
 4711SOL    HW215033   4.850   0.280   2.312
 4712SOL     OW15034   2.879   4.418   0.820
 4712SOL    HW115035   2.787   4.455   0.836
 4712SOL    HW215036   2.917   4.458   0.737
 4713SOL     OW15037   2.653   3.693   0.935
 4713SOL    HW115038   2.653   3.596   0.960
 4713SOL    HW215039   2.570   3.715   0.884
 4714SOL     OW15040   2.156   1.761   0.062
 4714SOL    HW115041   2.090   1.811   0.006
 4714SOL    HW215042   2.211   1.701   0.005
 4715SOL     OW15043   6.729   3.999   1.584
 4715SOL    HW115044   6.782   3.943   1.648
 4715SOL    HW215045   6.772   3.997   1.494
 4716SOL     OW15046   3.793   5.572   6.657
 4716SOL    HW115047   3.842   5.631   6.721
 4716SOL    HW215048   3.821   5.477   6.671
 4717SOL     OW15049   1.146   6.275   3.087
 4717SOL    HW115050   1.055   6.250   3.120
 4717SOL    HW215051   1.145   6.369   3.055
 4718SOL     OW15052   5.296   1.846   6.388
 4718SOL    HW115053   5.330   1.870   6.478
 4718SOL    HW215054   5.273   1.749   6.386
 4719SOL     OW15055   4.954   3.381   3.030
 4719SOL    HW115056   5.052   3.365   3.040
 4719SOL    HW215057   4.915   3.409   3.118
 4720SOL     OW15058   2.526   5.836   5.680
 4720SOL    HW115059   2.586   5.813   5.756
 4720SOL    HW215060   2.548   5.928   5.647
 4721SOL     OW15061   6.282   2.160   1.424
 4721SOL    HW115062   6.325   2.227   1.484
 4721SOL    HW215063   6.183   2.165   1.433
 4722SOL     OW15064   1.422   6.343   0.299
 4722SOL    HW115065   1.437   6.247   0.278
 4722SOL    HW215066   1.350   6.379   0.240
 4723SOL     OW15067   1.655   5.243   5.557
 4723SOL    HW115068   1.583   5.194   5.509
 4723SOL    HW215069   1.715   5.178   5.604
 4724SOL     OW15070   4.517   5.921   2.731
 4724SOL    HW115071   4.496   5.832   2.690
 4724SOL    HW215072   4.611   5.920   2.766
 4725SOL     OW15073   5.445   6.311   2.584
 4725SOL    HW115074   5.500   6.338   2.504
 4725SOL    HW215075   5.358   6.361   2.583
 4726SOL     OW15076   1.647   3.236   6.413
 4726SOL    HW115077   1.729   3.199   6.457
 4726SOL    HW215078   1.672   3.313   6.354
 4727SOL     OW15079   6.812   6.091   6.896
 4727SOL    HW115080   6.877   6.166   6.909
 4727SOL    HW215081   6.824   6.052   6.804
 4728SOL     OW15082   4.530   1.560   1.241
 4728SOL    HW115083   4.616   1.553   1.292
 4728SOL    HW215084   4.550   1.550   1.143
 4729SOL     OW15085   2.997   1.430   2.581
 4729SOL    HW115086   2.927   1.474   2.525
 4729SOL    HW215087   3.015   1.338   2.545
 4730SOL     OW15088   1.909   5.816   5.500
 4730SOL    HW115089   1.829   5.771   5.540
 4730SOL    HW215090   1.977   5.747   5.476
 4731SOL     OW15091   4.554   0.105   6.291
 4731SOL    HW115092   4.563   0.118   6.192
 4731SOL    HW215093   4.645   0.092   6.331
 4732SOL     OW15094   6.923   3.378   6.458
 4732SOL    HW115095   6.987   3.303   6.465
 4732SOL    HW215096   6.886   3.382   6.365
 4733SOL     OW15097   0.745   4.395   2.905
 4733SOL    HW115098   0.781   4.487   2.889
 4733SOL    HW215099   0.660   4.383   2.854
 4734SOL     OW15100   4.788   3.311   6.621
 4734SOL    HW115101   4.815   3.215   6.633
 4734SOL    HW215102   4.722   3.336   6.691
 4735SOL     OW15103   0.862   5.310   4.204
 4735SOL    HW115104   0.947   5.361   4.216
 4735SOL    HW215105   0.814   5.345   4.123
 4736SOL     OW15106   0.691   1.633   6.572
 4736SOL    HW115107   0.701   1.694   6.651
 4736SOL    HW215108   0.605   1.583   6.579
 4737SOL     OW15109   1.508   5.485   2.269
 4737SOL    HW115110   1.572   5.559   2.290
 4737SOL    HW215111   1.486   5.487   2.171
 4738SOL     OW15112   0.041   5.966   2.747
 4738SOL    HW115113   0.119   5.971   2.684
 4738SOL    HW215114   6.979   5.977   2.695
 4739SOL     OW15115   4.352   6.241   2.726
 4739SOL    HW115116   4.451   6.236   2.740
 4739SOL    HW215117   4.333   6.264   2.630
 4740SOL     OW15118   0.277   1.168   1.744
 4740SOL    HW115119   0.178   1.153   1.750
 4740SOL    HW215120   0.316   1.106   1.675
 4741SOL     OW15121   3.274   2.388   1.639
 4741SOL    HW115122   3.242   2.482   1.654
 4741SOL    HW215123   3.360   2.374   1.688
 4742SOL     OW15124   1.782   6.669   6.170
 4742SOL    HW115125   1.803   6.638   6.263
 4742SOL    HW215126   1.711   6.610   6.131
 4743SOL     OW15127   2.125   3.419   2.872
 4743SOL    HW115128   2.126   3.361   2.790
 4743SOL    HW215129   2.164   3.508   2.851
 4744SOL     OW15130   1.863   4.854   1.172
 4744SOL    HW115131   1.773   4.818   1.148
 4744SOL    HW215132   1.853   4.933   1.233
 4745SOL     OW15133   3.237   3.964   6.803
 4745SOL    HW115134   3.204   3.958   6.898
 4745SOL    HW215135   3.297   4.043   6.793
 4746SOL     OW15136   4.301   6.291   3.709
 4746SOL    HW115137   4.235   6.227   3.748
 4746SOL    HW215138   4.394   6.256   3.724
 4747SOL     OW15139   1.097   3.665   0.811
 4747SOL    HW115140   1.165   3.616   0.865
 4747SOL    HW215141   1.005   3.637   0.840
 4748SOL     OW15142   1.373   6.674   1.647
 4748SOL    HW115143   1.423   6.760   1.656
 4748SOL    HW215144   1.326   6.672   1.559
 4749SOL     OW15145   1.811   6.936   6.461
 4749SOL    HW115146   1.804   6.837   6.452
 4749SOL    HW215147   1.898   6.967   6.423
 4750SOL     OW15148   6.168   3.532   5.604
 4750SOL    HW115149   6.258   3.546   5.561
 4750SOL    HW215150   6.156   3.435   5.624
 4751SOL     OW15151   4.645   2.442   3.221
 4751SOL    HW115152   4.734   2.432   3.176
 4751SOL    HW215153   4.572   2.415   3.158
 4752SOL     OW15154   4.652   0.374   0.508
 4752SOL    HW115155   4.691   0.464   0.489
 4752SOL    HW215156   4.708   0.303   0.465
 4753SOL     OW15157   0.687   6.936   3.949
 4753SOL    HW115158   0.731   6.879   4.019
 4753SOL    HW215159   0.695   0.009   3.975
 4754SOL     OW15160   4.965   3.652   5.201
 4754SOL    HW115161   4.893   3.606   5.149
 4754SOL    HW215162   5.047   3.596   5.202
 4755SOL     OW15163   2.473   0.713   0.618
 4755SOL    HW115164   2.423   0.787   0.573
 4755SOL    HW215165   2.568   0.741   0.634
 4756SOL     OW15166   6.678   3.868   5.804
 4756SOL    HW115167   6.609   3.901   5.869
 4756SOL    HW215168   6.633   3.836   5.721
 4757SOL     OW15169   1.553   2.764   1.352
 4757SOL    HW115170   1.636   2.712   1.371
 4757SOL    HW215171   1.525   2.813   1.435
 4758SOL     OW15172   1.283   6.962   3.194
 4758SOL    HW115173   1.328   0.026   3.174
 4758SOL    HW215174   1.262   6.914   3.109
 4759SOL     OW15175   0.443   5.756   6.952
 4759SOL    HW115176   0.491   5.786   6.870
 4759SOL    HW215177   0.347   5.784   6.946
 4760SOL     OW15178   1.678   1.145   0.805
 4760SOL    HW115179   1.737   1.152   0.885
 4760SOL    HW215180   1.683   1.230   0.753
 4761SOL     OW15181   1.729   0.673   0.779
 4761SOL    HW115182   1.656   0.686   0.712
 4761SOL    HW215183   1.689   0.655   0.869
 4762SOL     OW15184   1.557   5.990   2.019
 4762SOL    HW115185   1.561   5.893   1.998
 4762SOL    HW215186   1.587   6.043   1.939
 4763SOL     OW15187   4.511   0.402   2.476
 4763SOL    HW115188   4.548   0.453   2.553
 4763SOL    HW215189   4.464   0.465   2.414
 4764SOL     OW15190   4.561   3.388   5.316
 4764SOL    HW115191   4.600   3.443   5.241
 4764SOL    HW215192   4.567   3.440   5.401
 4765SOL     OW15193   4.014   0.905   6.107
 4765SOL    HW115194   3.916   0.919   6.098
 4765SOL    HW215195   4.041   0.824   6.055
 4766SOL     OW15196   5.697   6.170   4.073
 4766SOL    HW115197   5.670   6.153   4.168
 4766SOL    HW215198   5.627   6.226   4.028
 4767SOL     OW15199   2.609   5.198   5.450
 4767SOL    HW115200   2.677   5.131   5.481
 4767SOL    HW215201   2.518   5.167   5.477
 4768SOL     OW15202   3.896   3.271   5.997
 4768SOL    HW115203   3.907   3.206   6.072
 4768SOL    HW215204   3.807   3.316   6.005
 4769SOL     OW15205   3.225   5.905   0.164
 4769SOL    HW115206   3.181   5.915   0.253
 4769SOL    HW215207   3.304   5.966   0.159
 4770SOL     OW15208   6.639   1.921   4.874
 4770SOL    HW115209   6.697   2.000   4.854
 4770SOL    HW215210   6.571   1.911   4.802
 4771SOL     OW15211   2.488   6.473   5.891
 4771SOL    HW115212   2.464   6.474   5.794
 4771SOL    HW215213   2.436   6.401   5.937
 4772SOL     OW15214   3.190   4.817   1.160
 4772SOL    HW115215   3.111   4.834   1.101
 4772SOL    HW215216   3.183   4.875   1.242
 4773SOL     OW15217   1.195   6.363   4.350
 4773SOL    HW115218   1.099   6.383   4.329
 4773SOL    HW215219   1.244   6.343   4.265
 4774SOL     OW15220   1.247   4.185   1.494
 4774SOL    HW115221   1.253   4.212   1.398
 4774SOL    HW215222   1.153   4.200   1.526
 4775SOL     OW15223   4.993   0.148   4.416
 4775SOL    HW115224   4.912   0.092   4.432
 4775SOL    HW215225   5.051   0.105   4.347
 4776SOL     OW15226   0.897   0.940   4.934
 4776SOL    HW115227   0.993   0.930   4.908
 4776SOL    HW215228   0.838   0.915   4.857
 4777SOL     OW15229   1.753   5.352   1.022
 4777SOL    HW115230   1.787   5.317   1.109
 4777SOL    HW215231   1.772   5.450   1.015
 4778SOL     OW15232   0.291   3.049   4.660
 4778SOL    HW115233   0.330   3.094   4.580
 4778SOL    HW215234   0.297   2.950   4.649
 4779SOL     OW15235   5.701   6.495   3.964
 4779SOL    HW115236   5.615   6.451   3.939
 4779SOL    HW215237   5.701   6.514   4.062
 4780SOL     OW15238   6.178   2.415   6.213
 4780SOL    HW115239   6.109   2.448   6.148
 4780SOL    HW215240   6.195   2.486   6.281
 4781SOL     OW15241   2.667   5.310   2.200
 4781SOL    HW115242   2.753   5.337   2.243
 4781SOL    HW215243   2.647   5.214   2.222
 4782SOL     OW15244   6.712   5.917   6.230
 4782SOL    HW115245   6.760   5.854   6.169
 4782SOL    HW215246   6.733   5.895   6.325
 4783SOL     OW15247   5.894   3.614   0.091
 4783SOL    HW115248   5.804   3.599   0.134
 4783SOL    HW215249   5.965   3.610   0.161
 4784SOL     OW15250   6.022   2.235   5.974
 4784SOL    HW115251   6.038   2.329   6.006
 4784SOL    HW215252   6.092   2.211   5.906
 4785SOL     OW15253   0.072   6.784   2.910
 4785SOL    HW115254   0.115   6.706   2.956
 4785SOL    HW215255   7.017   6.815   2.964
 4786SOL     OW15256   2.599   6.962   0.059
 4786SOL    HW115257   2.655   6.886   0.027
 4786SOL    HW215258   2.503   6.945   0.036
 4787SOL     OW15259   4.023   1.897   3.451
 4787SOL    HW115260   4.028   1.904   3.352
 4787SOL    HW215261   3.934   1.858   3.477
 4788SOL     OW15262   6.402   6.183   0.279
 4788SOL    HW115263   6.313   6.180   0.324
 4788SOL    HW215264   6.467   6.233   0.336
 4789SOL     OW15265   4.925   1.708   1.613
 4789SOL    HW115266   4.830   1.681   1.631
 4789SOL    HW215267   4.986   1.659   1.675
 4790SOL     OW15268   5.316   1.757   5.641
 4790SOL    HW115269   5.390   1.701   5.602
 4790SOL    HW215270   5.315   1.744   5.740
 4791SOL     OW15271   0.210   3.102   1.651
 4791SOL    HW115272   0.182   3.169   1.721
 4791SOL    HW215273   0.259   3.027   1.695
 4792SOL     OW15274   2.327   4.334   4.403
 4792SOL    HW115275   2.308   4.253   4.460
 4792SOL    HW215276   2.354   4.410   4.462
 4793SOL     OW15277   1.611   3.615   5.021
 4793SOL    HW115278   1.673   3.536   5.018
 4793SOL    HW215279   1.518   3.585   5.003
 4794SOL     OW15280   4.343   6.703   4.197
 4794SOL    HW115281   4.334   6.618   4.248
 4794SOL    HW215282   4.426   6.750   4.226
 4795SOL     OW15283   6.854   1.740   4.614
 4795SOL    HW115284   6.915   1.696   4.549
 4795SOL    HW215285   6.761   1.708   4.599
 4796SOL     OW15286   3.803   6.841   6.118
 4796SOL    HW115287   3.859   6.923   6.131
 4796SOL    HW215288   3.757   6.844   6.029
 4797SOL     OW15289   1.000   5.599   4.628
 4797SOL    HW115290   1.024   5.568   4.721
 4797SOL    HW215291   1.057   5.676   4.603
 4798SOL     OW15292   6.140   5.156   6.052
 4798SOL    HW115293   6.102   5.210   5.977
 4798SOL    HW215294   6.065   5.117   6.106
 4799SOL     OW15295   3.993   1.167   7.021
 4799SOL    HW115296   3.961   1.225   6.945
 4799SOL    HW215297   3.962   1.207   0.085
 4800SOL     OW15298   1.676   4.199   6.920
 4800SOL    HW115299   1.591   4.221   6.969
 4800SOL    HW215300   1.662   4.215   6.822
 4801SOL     OW15301   3.944   2.759   6.995
 4801SOL    HW115302   3.890   2.844   7.001
 4801SOL    HW215303   3.882   2.682   6.982
 4802SOL     OW15304   6.777   6.449   1.774
 4802SOL    HW115305   6.777   6.493   1.684
 4802SOL    HW215306   6.685   6.419   1.797
 4803SOL     OW15307   6.241   4.856   1.009
 4803SOL    HW115308   6.171   4.827   0.943
 4803SOL    HW215309   6.249   4.788   1.081
 4804SOL     OW15310   5.682   0.579   1.299
 4804SOL    HW115311   5.634   0.493   1.281
 4804SOL    HW215312   5.616   0.650   1.323
 4805SOL     OW15313   6.337   0.856   2.283
 4805SOL    HW115314   6.401   0.831   2.210
 4805SOL    HW215315   6.380   0.840   2.372
 4806SOL     OW15316   1.041   3.516   2.764
 4806SOL    HW115317   1.116   3.450   2.763
 4806SOL    HW215318   1.020   3.545   2.671
 4807SOL     OW15319   1.674   3.531   6.694
 4807SOL    HW115320   1.633   3.521   6.784
 4807SOL    HW215321   1.756   3.474   6.688
 4808SOL     OW15322   4.435   5.376   0.629
 4808SOL    HW115323   4.488   5.315   0.689
 4808SOL    HW215324   4.442   5.343   0.535
 4809SOL     OW15325   3.873   4.373   1.661
 4809SOL    HW115326   3.900   4.468   1.676
 4809SOL    HW215327   3.778   4.361   1.690
 4810SOL     OW15328   1.414   4.176   3.772
 4810SOL    HW115329   1.487   4.163   3.704
 4810SOL    HW215330   1.415   4.271   3.804
 4811SOL     OW15331   3.969   3.961   3.747
 4811SOL    HW115332   3.978   3.915   3.836
 4811SOL    HW215333   3.976   3.893   3.674
 4812SOL     OW15334   0.829   7.005   2.186
 4812SOL    HW115335   0.844   0.080   2.172
 4812SOL    HW215336   0.732   6.985   2.173
 4813SOL     OW15337   5.784   2.101   6.049
 4813SOL    HW115338   5.724   2.163   5.999
 4813SOL    HW215339   5.874   2.143   6.059
 4814SOL     OW15340   6.999   3.174   2.501
 4814SOL    HW115341   6.997   3.182   2.600
 4814SOL    HW215342   0.071   3.160   2.471
 4815SOL     OW15343   5.061   4.661   2.642
 4815SOL    HW115344   4.965   4.637   2.647
 4815SOL    HW215345   5.074   4.756   2.669
 4816SOL     OW15346   2.405   6.096   1.122
 4816SOL    HW115347   2.440   6.153   1.197
 4816SOL    HW215348   2.305   6.095   1.126
 4817SOL     OW15349   3.360   1.306   1.763
 4817SOL    HW115350   3.340   1.397   1.798
 4817SOL    HW215351   3.351   1.305   1.663
 4818SOL     OW15352   1.335   1.313   4.272
 4818SOL    HW115353   1.289   1.386   4.221
 4818SOL    HW215354   1.267   1.254   4.314
 4819SOL     OW15355   2.953   1.742   1.966
 4819SOL    HW115356   3.042   1.708   1.995
 4819SOL    HW215357   2.932   1.827   2.014
 4820SOL     OW15358   6.283   2.309   0.874
 4820SOL    HW115359   6.276   2.220   0.830
 4820SOL    HW215360   6.271   2.299   0.972
 4821SOL     OW15361   6.445   6.236   1.570
 4821SOL    HW115362   6.525   6.289   1.543
 4821SOL    HW215363   6.367   6.261   1.512
 4822SOL     OW15364   1.713   3.109   4.204
 4822SOL    HW115365   1.626   3.078   4.165
 4822SOL    HW215366   1.758   3.033   4.251
 4823SOL     OW15367   6.894   0.790   3.610
 4823SOL    HW115368   6.909   0.764   3.706
 4823SOL    HW215369   6.910   0.711   3.551
 4824SOL     OW15370   5.969   1.412   3.887
 4824SOL    HW115371   5.981   1.350   3.810
 4824SOL    HW215372   5.921   1.494   3.857
 4825SOL     OW15373   2.385   2.719   4.410
 4825SOL    HW115374   2.301   2.669   4.430
 4825SOL    HW215375   2.362   2.811   4.377
 4826SOL     OW15376   0.890   0.210   0.865
 4826SOL    HW115377   0.815   0.173   0.810
 4826SOL    HW215378   0.977   0.187   0.822
 4827SOL     OW15379   6.213   0.766   1.660
 4827SOL    HW115380   6.204   0.673   1.695
 4827SOL    HW215381   6.196   0.832   1.733
 4828SOL     OW15382   6.139   3.673   1.452
 4828SOL    HW115383   6.094   3.656   1.539
 4828SOL    HW215384   6.197   3.595   1.428
 4829SOL     OW15385   3.975   6.583   6.552
 4829SOL    HW115386   3.983   6.653   6.623
 4829SOL    HW215387   3.892   6.529   6.568
 4830SOL     OW15388   5.047   5.857   3.798
 4830SOL    HW115389   5.091   5.910   3.725
 4830SOL    HW215390   5.018   5.769   3.761
 4831SOL     OW15391   6.417   5.186   5.723
 4831SOL    HW115392   6.446   5.277   5.695
 4831SOL    HW215393   6.431   5.175   5.821
 4832SOL     OW15394   2.981   2.831   6.325
 4832SOL    HW115395   2.984   2.918   6.276
 4832SOL    HW215396   3.072   2.790   6.327
 4833SOL     OW15397   5.109   1.866   3.042
 4833SOL    HW115398   5.153   1.777   3.054
 4833SOL    HW215399   5.156   1.933   3.100
 4834SOL     OW15400   3.297   0.243   0.172
 4834SOL    HW115401   3.204   0.254   0.137
 4834SOL    HW215402   3.307   0.297   0.256
 4835SOL     OW15403   1.806   0.549   6.819
 4835SOL    HW115404   1.832   0.484   6.889
 4835SOL    HW215405   1.780   0.636   6.862
 4836SOL     OW15406   4.722   2.598   3.790
 4836SOL    HW115407   4.628   2.563   3.798
 4836SOL    HW215408   4.785   2.533   3.834
 4837SOL     OW15409   3.850   3.039   1.507
 4837SOL    HW115410   3.806   3.039   1.597
 4837SOL    HW215411   3.784   3.008   1.438
 4838SOL     OW15412   2.365   5.098   2.026
 4838SOL    HW115413   2.280   5.061   2.064
 4838SOL    HW215414   2.432   5.024   2.017
 4839SOL     OW15415   1.559   3.869   5.758
 4839SOL    HW115416   1.520   3.894   5.669
 4839SOL    HW215417   1.653   3.904   5.764
 4840SOL     OW15418   6.850   0.006   5.886
 4840SOL    HW115419   6.941   0.047   5.884
 4840SOL    HW215420   6.787   0.068   5.933
 4841SOL     OW15421   3.202   5.998   1.778
 4841SOL    HW115422   3.123   5.983   1.719
 4841SOL    HW215423   3.285   5.969   1.731
 4842SOL     OW15424   3.405   4.691   1.503
 4842SOL    HW115425   3.489   4.688   1.448
 4842SOL    HW215426   3.328   4.660   1.447
 4843SOL     OW15427   6.254   3.853   0.521
 4843SOL    HW115428   6.339   3.818   0.482
 4843SOL    HW215429   6.275   3.920   0.592
 4844SOL     OW15430   6.872   4.002   6.189
 4844SOL    HW115431   6.807   4.078   6.191
 4844SOL    HW215432   6.961   4.036   6.159
 4845SOL     OW15433   6.669   5.904   4.519
 4845SOL    HW115434   6.706   5.844   4.448
 4845SOL    HW215435   6.575   5.877   4.540
 4846SOL     OW15436   6.600   3.473   2.266
 4846SOL    HW115437   6.681   3.427   2.300
 4846SOL    HW215438   6.626   3.555   2.216
 4847SOL     OW15439   3.613   1.846   5.776
 4847SOL    HW115440   3.523   1.823   5.814
 4847SOL    HW215441   3.603   1.880   5.683
 4848SOL     OW15442   1.776   1.280   4.105
 4848SOL    HW115443   1.806   1.230   4.186
 4848SOL    HW215444   1.851   1.283   4.039
 4849SOL     OW15445   1.045   6.947   6.755
 4849SOL    HW115446   1.120   7.005   6.786
 4849SOL    HW215447   0.967   7.004   6.730
 4850SOL     OW15448   4.297   1.284   2.372
 4850SOL    HW115449   4.346   1.371   2.377
 4850SOL    HW215450   4.361   1.209   2.386
 4851SOL     OW15451   3.404   5.729   4.911
 4851SOL    HW115452   3.448   5.782   4.838
 4851SOL    HW215453   3.309   5.759   4.921
 4852SOL     OW15454   0.850   0.076   6.621
 4852SOL    HW115455   0.839   0.100   6.524
 4852SOL    HW215456   0.822   0.153   6.678
 4853SOL     OW15457   2.925   0.904   2.401
 4853SOL    HW115458   2.932   0.846   2.482
 4853SOL    HW215459   2.898   0.848   2.323
 4854SOL     OW15460   5.214   6.238   2.353
 4854SOL    HW115461   5.230   6.152   2.402
 4854SOL    HW215462   5.124   6.237   2.310
 4855SOL     OW15463   5.767   2.669   2.579
 4855SOL    HW115464   5.837   2.734   2.550
 4855SOL    HW215465   5.692   2.669   2.513
 4856SOL     OW15466   1.501   4.163   2.564
 4856SOL    HW115467   1.549   4.168   2.476
 4856SOL    HW215468   1.451   4.076   2.569
 4857SOL     OW15469   1.962   2.364   5.611
 4857SOL    HW115470   2.017   2.283   5.587
 4857SOL    HW215471   1.887   2.336   5.670
 4858SOL     OW15472   2.136   0.873   4.418
 4858SOL    HW115473   2.136   0.915   4.509
 4858SOL    HW215474   2.042   0.852   4.391
 4859SOL     OW15475   1.075   0.683   4.281
 4859SOL    HW115476   0.988   0.729   4.266
 4859SOL    HW215477   1.150   0.744   4.254
 4860SOL     OW15478   3.348   4.965   1.780
 4860SOL    HW115479   3.369   4.991   1.874
 4860SOL    HW215480   3.251   4.943   1.772
 4861SOL     OW15481   5.469   5.314   0.039
 4861SOL    HW115482   5.508   5.225   0.063
 4861SOL    HW215483   5.415   5.348   0.116
 4862SOL     OW15484   2.853   4.804   4.806
 4862SOL    HW115485   2.866   4.746   4.886
 4862SOL    HW215486   2.793   4.758   4.741
 4863SOL     OW15487   5.986   4.350   0.905
 4863SOL    HW115488   5.987   4.333   0.807
 4863SOL    HW215489   5.937   4.275   0.951
 4864SOL     OW15490   3.759   1.142   3.977
 4864SOL    HW115491   3.840   1.188   4.013
 4864SOL    HW215492   3.703   1.208   3.926
 4865SOL     OW15493   1.665   0.704   5.690
 4865SOL    HW115494   1.707   0.635   5.750
 4865SOL    HW215495   1.719   0.788   5.693
 4866SOL     OW15496   6.853   3.053   1.011
 4866SOL    HW115497   6.857   2.966   1.061
 4866SOL    HW215498   6.808   3.039   0.923
 4867SOL     OW15499   4.198   5.398   3.086
 4867SOL    HW115500   4.128   5.455   3.129
 4867SOL    HW215501   4.270   5.456   3.048
 4868SOL     OW15502   6.377   4.982   2.879
 4868SOL    HW115503   6.397   5.075   2.908
 4868SOL    HW215504   6.322   4.936   2.949
 4869SOL     OW15505   1.976   1.775   1.548
 4869SOL    HW115506   1.919   1.737   1.475
 4869SOL    HW215507   1.965   1.874   1.552
 4870SOL     OW15508   0.848   6.378   2.029
 4870SOL    HW115509   0.813   6.451   1.970
 4870SOL    HW215510   0.948   6.385   2.034
 4871SOL     OW15511   0.691   0.998   3.682
 4871SOL    HW115512   0.761   1.048   3.631
 4871SOL    HW215513   0.699   0.900   3.662
 4872SOL     OW15514   6.246   0.104   3.199
 4872SOL    HW115515   6.248   0.081   3.297
 4872SOL    HW215516   6.314   0.175   3.180
 4873SOL     OW15517   6.826   5.731   4.367
 4873SOL    HW115518   6.806   5.728   4.269
 4873SOL    HW215519   6.922   5.705   4.382
 4874SOL     OW15520   5.139   4.031   2.610
 4874SOL    HW115521   5.211   3.966   2.588
 4874SOL    HW215522   5.133   4.100   2.538
 4875SOL     OW15523   6.244   1.215   0.245
 4875SOL    HW115524   6.148   1.198   0.221
 4875SOL    HW215525   6.293   1.248   0.165
 4876SOL     OW15526   0.185   1.679   3.676
 4876SOL    HW115527   0.201   1.667   3.578
 4876SOL    HW215528   0.271   1.667   3.725
 4877SOL     OW15529   0.487   1.377   5.442
 4877SOL    HW115530   0.587   1.367   5.440
 4877SOL    HW215531   0.447   1.301   5.494
 4878SOL     OW15532   6.775   1.184   1.960
 4878SOL    HW115533   6.845   1.156   2.026
 4878SOL    HW215534   6.688   1.197   2.008
 4879SOL     OW15535   4.358   1.586   2.086
 4879SOL    HW115536   4.315   1.669   2.050
 4879SOL    HW215537   4.425   1.552   2.020
 4880SOL     OW15538   5.822   3.207   0.136
 4880SOL    HW115539   5.735   3.257   0.136
 4880SOL    HW215540   5.860   3.207   0.044
 4881SOL     OW15541   1.854   1.530   0.063
 4881SOL    HW115542   1.810   1.443   0.043
 4881SOL    HW215543   1.838   1.594   7.010
 4882SOL     OW15544   4.539   0.937   5.180
 4882SOL    HW115545   4.612   1.001   5.204
 4882SOL    HW215546   4.543   0.858   5.242
 4883SOL     OW15547   4.744   4.210   1.145
 4883SOL    HW115548   4.714   4.128   1.097
 4883SOL    HW215549   4.707   4.209   1.238
 4884SOL     OW15550   3.220   5.411   1.547
 4884SOL    HW115551   3.250   5.332   1.602
 4884SOL    HW215552   3.262   5.406   1.457
 4885SOL     OW15553   2.105   5.290   1.171
 4885SOL    HW115554   2.190   5.319   1.216
 4885SOL    HW215555   2.081   5.198   1.204
 4886SOL     OW15556   2.845   6.431   1.410
 4886SOL    HW115557   2.795   6.458   1.327
 4886SOL    HW215558   2.918   6.367   1.386
 4887SOL     OW15559   6.930   6.349   1.453
 4887SOL    HW115560   6.868   6.313   1.522
 4887SOL    HW215561   6.877   6.374   1.371
 4888SOL     OW15562   2.760   0.053   3.918
 4888SOL    HW115563   2.708   6.992   3.898
 4888SOL    HW215564   2.697   0.123   3.953
 4889SOL     OW15565   0.134   1.918   5.020
 4889SOL    HW115566   0.136   1.844   4.953
 4889SOL    HW215567   0.049   1.913   5.073
 4890SOL     OW15568   0.081   1.373   5.439
 4890SOL    HW115569   7.010   1.393   5.410
 4890SOL    HW215570   0.134   1.458   5.440
 4891SOL     OW15571   2.167   5.374   6.920
 4891SOL    HW115572   2.130   5.360   7.012
 4891SOL    HW215573   2.246   5.315   6.907
 4892SOL     OW15574   4.544   5.345   2.153
 4892SOL    HW115575   4.472   5.373   2.216
 4892SOL    HW215576   4.572   5.423   2.097
 4893SOL     OW15577   6.001   3.123   2.184
 4893SOL    HW115578   6.017   3.130   2.282
 4893SOL    HW215579   6.055   3.049   2.146
 4894SOL     OW15580   3.913   0.739   2.782
 4894SOL    HW115581   3.905   0.831   2.743
 4894SOL    HW215582   3.821   0.700   2.792
 4895SOL     OW15583   0.510   4.682   4.135
 4895SOL    HW115584   0.510   4.744   4.056
 4895SOL    HW215585   0.434   4.706   4.196
 4896SOL     OW15586   2.609   4.588   2.401
 4896SOL    HW115587   2.575   4.672   2.358
 4896SOL    HW215588   2.574   4.508   2.351
 4897SOL     OW15589   1.750   5.276   5.287
 4897SOL    HW115590   1.710   5.255   5.376
 4897SOL    HW215591   1.685   5.330   5.233
 4898SOL     OW15592   4.097   1.196   4.760
 4898SOL    HW115593   4.161   1.203   4.837
 4898SOL    HW215594   4.004   1.191   4.796
 4899SOL     OW15595   5.678   5.179   2.763
 4899SOL    HW115596   5.633   5.095   2.795
 4899SOL    HW215597   5.627   5.259   2.794
 4900SOL     OW15598   3.542   5.933   5.183
 4900SOL    HW115599   3.489   6.015   5.204
 4900SOL    HW215600   3.540   5.917   5.085
 4901SOL     OW15601   2.448   1.722   5.569
 4901SOL    HW115602   2.546   1.738   5.559
 4901SOL    HW215603   2.433   1.627   5.598
 4902SOL     OW15604   1.079   1.368   4.543
 4902SOL    HW115605   1.036   1.445   4.495
 4902SOL    HW215606   1.033   1.353   4.630
 4903SOL     OW15607   4.629   5.786   0.369
 4903SOL    HW115608   4.676   5.873   0.384
 4903SOL    HW215609   4.696   5.712   0.374
 4904SOL     OW15610   1.952   6.812   5.634
 4904SOL    HW115611   1.866   6.861   5.645
 4904SOL    HW215612   2.007   6.821   5.717
 4905SOL     OW15613   3.619   0.802   3.552
 4905SOL    HW115614   3.616   0.884   3.609
 4905SOL    HW215615   3.526   0.767   3.540
 4906SOL     OW15616   4.936   1.879   6.489
 4906SOL    HW115617   5.015   1.873   6.428
 4906SOL    HW215618   4.862   1.822   6.453
 4907SOL     OW15619   4.973   7.014   1.618
 4907SOL    HW115620   4.884   6.969   1.613
 4907SOL    HW215621   4.981   0.041   1.705
 4908SOL     OW15622   5.816   6.645   6.786
 4908SOL    HW115623   5.753   6.679   6.856
 4908SOL    HW215624   5.799   6.692   6.700
 4909SOL     OW15625   6.940   5.652   3.455
 4909SOL    HW115626   6.999   5.628   3.533
 4909SOL    HW215627   6.926   5.751   3.453
 4910SOL     OW15628   5.679   0.773   4.425
 4910SOL    HW115629   5.746   0.846   4.412
 4910SOL    HW215630   5.651   0.738   4.335
 4911SOL     OW15631   1.843   3.687   3.485
 4911SOL    HW115632   1.811   3.737   3.405
 4911SOL    HW215633   1.786   3.606   3.498
 4912SOL     OW15634   5.584   1.885   6.060
 4912SOL    HW115635   5.643   1.964   6.081
 4912SOL    HW215636   5.494   1.901   6.099
 4913SOL     OW15637   4.083   3.476   5.053
 4913SOL    HW115638   4.039   3.542   5.114
 4913SOL    HW215639   4.077   3.384   5.092
 4914SOL     OW15640   4.489   6.661   5.205
 4914SOL    HW115641   4.416   6.629   5.145
 4914SOL    HW215642   4.574   6.613   5.183
 4915SOL     OW15643   2.214   6.451   5.420
 4915SOL    HW115644   2.122   6.437   5.456
 4915SOL    HW215645   2.281   6.411   5.483
 4916SOL     OW15646   0.806   0.976   3.928
 4916SOL    HW115647   0.763   0.973   3.838
 4916SOL    HW215648   0.763   1.046   3.985
 4917SOL     OW15649   3.064   5.669   1.504
 4917SOL    HW115650   2.990   5.618   1.545
 4917SOL    HW215651   3.135   5.687   1.573
 4918SOL     OW15652   5.403   6.185   1.929
 4918SOL    HW115653   5.483   6.227   1.887
 4918SOL    HW215654   5.406   6.199   2.028
 4919SOL     OW15655   2.991   3.283   1.182
 4919SOL    HW115656   2.919   3.320   1.241
 4919SOL    HW215657   2.954   3.266   1.091
 4920SOL     OW15658   5.443   0.403   4.755
 4920SOL    HW115659   5.536   0.416   4.789
 4920SOL    HW215660   5.426   0.466   4.679
 4921SOL     OW15661   1.370   5.712   6.861
 4921SOL    HW115662   1.360   5.743   6.767
 4921SOL    HW215663   1.302   5.641   6.881
 4922SOL     OW15664   3.111   2.117   4.324
 4922SOL    HW115665   3.141   2.133   4.418
 4922SOL    HW215666   3.025   2.164   4.307
 4923SOL     OW15667   3.203   1.202   2.660
 4923SOL    HW115668   3.219   1.276   2.595
 4923SOL    HW215669   3.111   1.164   2.646
 4924SOL     OW15670   3.551   1.571   4.093
 4924SOL    HW115671   3.616   1.639   4.128
 4924SOL    HW215672   3.459   1.594   4.124
 4925SOL     OW15673   5.784   0.780   2.065
 4925SOL    HW115674   5.761   0.855   2.127
 4925SOL    HW215675   5.736   0.793   1.978
 4926SOL     OW15676   5.857   1.987   1.757
 4926SOL    HW115677   5.851   1.888   1.770
 4926SOL    HW215678   5.766   2.028   1.765
 4927SOL     OW15679   3.035   3.517   4.795
 4927SOL    HW115680   3.084   3.548   4.877
 4927SOL    HW215681   3.043   3.418   4.788
 4928SOL     OW15682   1.313   0.937   0.484
 4928SOL    HW115683   1.325   1.023   0.434
 4928SOL    HW215684   1.266   0.871   0.425
 4929SOL     OW15685   6.380   0.277   4.480
 4929SOL    HW115686   6.371   0.262   4.578
 4929SOL    HW215687   6.476   0.272   4.454
 4930SOL     OW15688   5.849   0.274   2.798
 4930SOL    HW115689   5.909   0.346   2.761
 4930SOL    HW215690   5.897   0.224   2.869
 4931SOL     OW15691   6.367   6.813   1.420
 4931SOL    HW115692   6.422   6.759   1.483
 4931SOL    HW215693   6.398   6.797   1.326
 4932SOL     OW15694   3.927   3.017   2.919
 4932SOL    HW115695   3.931   3.020   2.819
 4932SOL    HW215696   3.835   2.988   2.948
 4933SOL     OW15697   2.653   0.111   2.081
 4933SOL    HW115698   2.603   0.058   2.012
 4933SOL    HW215699   2.684   0.197   2.041
 4934SOL     OW15700   3.580   5.638   3.010
 4934SOL    HW115701   3.640   5.561   2.988
 4934SOL    HW215702   3.552   5.684   2.926
 4935SOL     OW15703   1.714   2.108   6.288
 4935SOL    HW115704   1.733   2.049   6.210
 4935SOL    HW215705   1.652   2.181   6.260
 4936SOL     OW15706   3.502   5.169   1.419
 4936SOL    HW115707   3.569   5.176   1.345
 4936SOL    HW215708   3.411   5.151   1.380
 4937SOL     OW15709   5.963   2.996   5.823
 4937SOL    HW115710   5.874   3.043   5.820
 4937SOL    HW215711   6.019   3.037   5.894
 4938SOL     OW15712   1.799   5.868   5.758
 4938SOL    HW115713   1.812   5.847   5.855
 4938SOL    HW215714   1.883   5.906   5.720
 4939SOL     OW15715   5.498   2.118   5.072
 4939SOL    HW115716   5.411   2.086   5.109
 4939SOL    HW215717   5.483   2.201   5.018
 4940SOL     OW15718   0.927   1.037   4.385
 4940SOL    HW115719   1.024   1.047   4.407
 4940SOL    HW215720   0.872   1.096   4.445
 4941SOL     OW15721   4.350   2.193   6.081
 4941SOL    HW115722   4.371   2.096   6.067
 4941SOL    HW215723   4.276   2.202   6.148
 4942SOL     OW15724   5.365   3.028   5.547
 4942SOL    HW115725   5.395   2.983   5.463
 4942SOL    HW215726   5.279   3.076   5.530
 4943SOL     OW15727   3.994   3.326   0.325
 4943SOL    HW115728   4.085   3.296   0.352
 4943SOL    HW215729   4.001   3.403   0.262
 4944SOL     OW15730   2.440   4.415   2.941
 4944SOL    HW115731   2.432   4.315   2.940
 4944SOL    HW215732   2.457   4.448   2.848
 4945SOL     OW15733   1.098   1.111   3.967
 4945SOL    HW115734   1.180   1.114   3.909
 4945SOL    HW215735   1.083   1.017   3.998
 4946SOL     OW15736   0.240   3.132   1.378
 4946SOL    HW115737   0.197   3.079   1.451
 4946SOL    HW215738   0.284   3.069   1.313
 4947SOL     OW15739   1.589   0.632   1.022
 4947SOL    HW115740   1.636   0.571   1.085
 4947SOL    HW215741   1.537   0.700   1.074
 4948SOL     OW15742   2.737   0.237   2.732
 4948SOL    HW115743   2.721   0.156   2.675
 4948SOL    HW215744   2.723   0.213   2.828
 4949SOL     OW15745   4.620   0.137   5.288
 4949SOL    HW115746   4.540   0.190   5.315
 4949SOL    HW215747   4.605   0.040   5.311
 4950SOL     OW15748   3.136   5.473   3.688
 4950SOL    HW115749   3.053   5.483   3.742
 4950SOL    HW215750   3.113   5.441   3.596
 4951SOL     OW15751   5.431   1.266   4.917
 4951SOL    HW115752   5.483   1.344   4.952
 4951SOL    HW215753   5.488   1.214   4.853
 4952SOL     OW15754   0.581   0.809   4.979
 4952SOL    HW115755   0.586   0.873   5.055
 4952SOL    HW215756   0.568   0.860   4.893
 4953SOL     OW15757   2.427   6.381   1.756
 4953SOL    HW115758   2.500   6.420   1.812
 4953SOL    HW215759   2.354   6.448   1.745
 4954SOL     OW15760   4.727   4.552   6.322
 4954SOL    HW115761   4.756   4.631   6.376
 4954SOL    HW215762   4.797   4.531   6.254
 4955SOL     OW15763   1.397   6.596   5.895
 4955SOL    HW115764   1.402   6.630   5.989
 4955SOL    HW215765   1.489   6.585   5.858
 4956SOL     OW15766   2.893   6.913   4.985
 4956SOL    HW115767   2.943   6.992   5.019
 4956SOL    HW215768   2.864   6.930   4.890
 4957SOL     OW15769   0.182   0.889   3.333
 4957SOL    HW115770   0.182   0.903   3.433
 4957SOL    HW215771   0.127   0.961   3.290
 4958SOL     OW15772   6.842   6.225   5.907
 4958SOL    HW115773   6.915   6.158   5.919
 4958SOL    HW215774   6.762   6.180   5.866
 4959SOL     OW15775   6.677   1.468   6.343
 4959SOL    HW115776   6.608   1.403   6.310
 4959SOL    HW215777   6.644   1.561   6.330
 4960SOL     OW15778   3.121   6.306   3.452
 4960SOL    HW115779   3.023   6.297   3.431
 4960SOL    HW215780   3.143   6.249   3.532
 4961SOL     OW15781   5.224   1.875   5.368
 4961SOL    HW115782   5.243   1.827   5.454
 4961SOL    HW215783   5.196   1.809   5.299
 4962SOL     OW15784   5.892   2.805   1.411
 4962SOL    HW115785   5.923   2.858   1.332
 4962SOL    HW215786   5.841   2.865   1.473
 4963SOL     OW15787   5.975   5.877   0.793
 4963SOL    HW115788   6.009   5.966   0.823
 4963SOL    HW215789   6.050   5.811   0.791
 4964SOL     OW15790   3.698   6.257   3.168
 4964SOL    HW115791   3.661   6.296   3.084
 4964SOL    HW215792   3.623   6.222   3.224
 4965SOL     OW15793   0.204   0.237   4.061
 4965SOL    HW115794   0.108   0.210   4.066
 4965SOL    HW215795   0.262   0.158   4.079
 4966SOL     OW15796   2.315   6.689   4.960
 4966SOL    HW115797   2.286   6.718   4.869
 4966SOL    HW215798   2.317   6.768   5.021
 4967SOL     OW15799   3.929   3.414   6.390
 4967SOL    HW115800   3.991   3.394   6.466
 4967SOL    HW215801   3.889   3.329   6.357
 4968SOL     OW15802   5.410   3.063   3.351
 4968SOL    HW115803   5.446   2.981   3.306
 4968SOL    HW215804   5.317   3.045   3.385
 4969SOL     OW15805   2.226   1.241   2.466
 4969SOL    HW115806   2.150   1.304   2.477
 4969SOL    HW215807   2.230   1.179   2.545
 4970SOL     OW15808   1.656   2.434   4.787
 4970SOL    HW115809   1.630   2.340   4.766
 4970SOL    HW215810   1.756   2.442   4.782
 4971SOL     OW15811   6.540   6.012   3.247
 4971SOL    HW115812   6.493   5.932   3.284
 4971SOL    HW215813   6.604   5.983   3.176
 4972SOL     OW15814   2.020   3.580   0.233
 4972SOL    HW115815   1.955   3.656   0.237
 4972SOL    HW215816   2.030   3.550   0.138
 4973SOL     OW15817   0.259   0.047   1.517
 4973SOL    HW115818   0.165   0.080   1.509
 4973SOL    HW215819   0.322   0.125   1.521
 4974SOL     OW15820   6.321   4.336   0.650
 4974SOL    HW115821   6.276   4.379   0.571
 4974SOL    HW215822   6.306   4.237   0.646
 4975SOL     OW15823   6.168   5.835   0.126
 4975SOL    HW115824   6.072   5.825   0.098
 4975SOL    HW215825   6.190   5.932   0.138
 4976SOL     OW15826   3.253   0.529   4.401
 4976SOL    HW115827   3.279   0.551   4.307
 4976SOL    HW215828   3.334   0.531   4.460
 4977SOL     OW15829   4.976   4.104   1.018
 4977SOL    HW115830   5.026   4.181   0.979
 4977SOL    HW215831   5.012   4.083   1.108
 4978SOL     OW15832   6.624   3.428   5.608
 4978SOL    HW115833   6.710   3.445   5.657
 4978SOL    HW215834   6.623   3.335   5.573
 4979SOL     OW15835   6.909   1.785   5.143
 4979SOL    HW115836   6.885   1.758   5.050
 4979SOL    HW215837   6.838   1.754   5.206
 4980SOL     OW15838   4.596   6.929   3.302
 4980SOL    HW115839   4.551   6.964   3.384
 4980SOL    HW215840   4.679   6.981   3.284
 4981SOL     OW15841   4.873   5.506   5.696
 4981SOL    HW115842   4.951   5.470   5.747
 4981SOL    HW215843   4.906   5.569   5.626
 4982SOL     OW15844   2.411   1.424   6.995
 4982SOL    HW115845   2.380   1.412   0.067
 4982SOL    HW215846   2.491   1.367   6.979
 4983SOL     OW15847   5.105   3.185   4.407
 4983SOL    HW115848   5.134   3.097   4.446
 4983SOL    HW215849   5.012   3.178   4.372
 4984SOL     OW15850   5.651   3.582   4.341
 4984SOL    HW115851   5.572   3.619   4.292
 4984SOL    HW215852   5.733   3.635   4.318
 4985SOL     OW15853   6.446   5.924   3.688
 4985SOL    HW115854   6.362   5.906   3.636
 4985SOL    HW215855   6.469   6.021   3.682
 4986SOL     OW15856   6.820   4.391   3.019
 4986SOL    HW115857   6.827   4.489   3.041
 4986SOL    HW215858   6.904   4.345   3.049
 4987SOL     OW15859   0.725   1.809   1.316
 4987SOL    HW115860   0.744   1.718   1.353
 4987SOL    HW215861   0.667   1.860   1.379
 4988SOL     OW15862   6.751   1.754   3.593
 4988SOL    HW115863   6.798   1.721   3.512
 4988SOL    HW215864   6.664   1.705   3.605
 4989SOL     OW15865   6.069   1.033   1.366
 4989SOL    HW115866   6.043   0.959   1.427
 4989SOL    HW215867   6.161   1.016   1.329
 4990SOL     OW15868   1.495   1.441   5.983
 4990SOL    HW115869   1.444   1.519   5.945
 4990SOL    HW215870   1.431   1.366   6.002
 4991SOL     OW15871   0.556   4.089   3.562
 4991SOL    HW115872   0.481   4.117   3.622
 4991SOL    HW215873   0.588   4.168   3.510
 4992SOL     OW15874   5.046   0.538   3.985
 4992SOL    HW115875   5.117   0.494   3.931
 4992SOL    HW215876   4.959   0.491   3.971
 4993SOL     OW15877   2.536   4.575   3.830
 4993SOL    HW115878   2.502   4.667   3.810
 4993SOL    HW215879   2.514   4.514   3.753
 4994SOL     OW15880   1.478   0.462   2.532
 4994SOL    HW115881   1.481   0.365   2.557
 4994SOL    HW215882   1.506   0.472   2.436
 4995SOL     OW15883   6.898   2.809   5.728
 4995SOL    HW115884   6.952   2.787   5.646
 4995SOL    HW215885   6.954   2.791   5.809
 4996SOL     OW15886   1.496   0.559   2.782
 4996SOL    HW115887   1.490   0.530   2.686
 4996SOL    HW215888   1.421   0.622   2.803
 4997SOL     OW15889   6.147   2.581   2.988
 4997SOL    HW115890   6.057   2.539   2.997
 4997SOL    HW215891   6.152   2.630   2.901
 4998SOL     OW15892   2.147   3.915   4.864
 4998SOL    HW115893   2.197   3.972   4.929
 4998SOL    HW215894   2.075   3.970   4.821
 4999SOL     OW15895   5.298   5.805   1.100
 4999SOL    HW115896   5.245   5.889   1.102
 4999SOL    HW215897   5.341   5.795   1.010
 5000SOL     OW15898   1.396   0.565   4.290
 5000SOL    HW115899   1.446   0.625   4.228
 5000SOL    HW215900   1.459   0.532   4.361
 5001SOL     OW15901   1.736   4.263   6.140
 5001SOL    HW115902   1.737   4.320   6.057
 5001SOL    HW215903   1.830   4.247   6.170
 5002SOL     OW15904   1.360   2.955   3.225
 5002SOL    HW115905   1.278   3.003   3.194
 5002SOL    HW215906   1.431   3.022   3.247
 5003SOL     OW15907   1.080   6.560   3.549
 5003SOL    HW115908   1.021   6.635   3.519
 5003SOL    HW215909   1.043   6.520   3.633
 5004SOL     OW15910   2.176   5.516   5.719
 5004SOL    HW115911   2.226   5.597   5.749
 5004SOL    HW215912   2.222   5.434   5.753
 5005SOL     OW15913   3.336   1.941   0.644
 5005SOL    HW115914   3.323   2.022   0.586
 5005SOL    HW215915   3.292   1.956   0.732
 5006SOL     OW15916   5.529   7.008   6.137
 5006SOL    HW115917   5.568   6.934   6.083
 5006SOL    HW215918   5.429   7.005   6.131
 5007SOL     OW15919   2.424   0.451   6.383
 5007SOL    HW115920   2.386   0.525   6.328
 5007SOL    HW215921   2.367   0.437   6.464
 5008SOL     OW15922   6.671   0.115   4.094
 5008SOL    HW115923   6.684   0.056   4.015
 5008SOL    HW215924   6.710   0.070   4.175
 5009SOL     OW15925   2.228   6.666   1.765
 5009SOL    HW115926   2.243   6.681   1.667
 5009SOL    HW215927   2.264   6.743   1.817
 5010SOL     OW15928   3.375   3.385   3.621
 5010SOL    HW115929   3.382   3.329   3.538
 5010SOL    HW215930   3.460   3.435   3.634
 5011SOL     OW15931   2.122   3.522   2.223
 5011SOL    HW115932   2.150   3.617   2.230
 5011SOL    HW215933   2.153   3.484   2.136
 5012SOL     OW15934   5.715   2.611   6.828
 5012SOL    HW115935   5.810   2.607   6.858
 5012SOL    HW215936   5.656   2.574   6.900
 5013SOL     OW15937   5.155   1.355   6.931
 5013SOL    HW115938   5.059   1.381   6.921
 5013SOL    HW215939   5.168   1.305   7.016
 5014SOL     OW15940   5.933   5.445   0.744
 5014SOL    HW115941   5.907   5.509   0.671
 5014SOL    HW215942   5.996   5.491   0.807
 5015SOL     OW15943   4.113   1.677   3.826
 5015SOL    HW115944   4.159   1.724   3.902
 5015SOL    HW215945   4.171   1.600   3.796
 5016SOL     OW15946   2.274   1.775   2.076
 5016SOL    HW115947   2.243   1.856   2.126
 5016SOL    HW215948   2.196   1.733   2.029
 5017SOL     OW15949   2.183   2.478   0.814
 5017SOL    HW115950   2.213   2.383   0.822
 5017SOL    HW215951   2.188   2.523   0.903
 5018SOL     OW15952   0.722   4.668   1.544
 5018SOL    HW115953   0.793   4.732   1.512
 5018SOL    HW215954   0.722   4.666   1.644
 5019SOL     OW15955   2.697   4.469   0.342
 5019SOL    HW115956   2.607   4.475   0.386
 5019SOL    HW215957   2.718   4.373   0.321
 5020SOL     OW15958   5.451   6.625   5.195
 5020SOL    HW115959   5.503   6.702   5.159
 5020SOL    HW215960   5.362   6.657   5.227
 5021SOL     OW15961   1.405   3.421   5.931
 5021SOL    HW115962   1.481   3.376   5.884
 5021SOL    HW215963   1.354   3.355   5.984
 5022SOL     OW15964   1.704   0.412   1.178
 5022SOL    HW115965   1.753   0.410   1.265
 5022SOL    HW215966   1.700   0.319   1.140
 5023SOL     OW15967   6.630   3.447   0.510
 5023SOL    HW115968   6.638   3.373   0.577
 5023SOL    HW215969   6.661   3.533   0.552
 5024SOL     OW15970   0.084   4.199   2.829
 5024SOL    HW115971   0.052   4.188   2.923
 5024SOL    HW215972   0.181   4.221   2.830
 5025SOL     OW15973   4.644   1.977   2.058
 5025SOL    HW115974   4.670   2.054   2.000
 5025SOL    HW215975   4.562   2.000   2.111
 5026SOL     OW15976   5.762   6.167   6.382
 5026SOL    HW115977   5.854   6.187   6.416
 5026SOL    HW215978   5.716   6.252   6.359
 5027SOL     OW15979   0.948   6.921   2.945
 5027SOL    HW115980   0.884   6.895   3.018
 5027SOL    HW215981   0.903   6.911   2.857
 5028SOL     OW15982   0.432   6.580   2.021
 5028SOL    HW115983   0.496   6.647   1.984
 5028SOL    HW215984   0.446   6.492   1.976
 5029SOL     OW15985   6.845   3.168   3.330
 5029SOL    HW115986   6.921   3.104   3.322
 5029SOL    HW215987   6.817   3.199   3.239
 5030SOL     OW15988   6.591   0.925   6.838
 5030SOL    HW115989   6.530   0.855   6.876
 5030SOL    HW215990   6.550   1.015   6.851
 5031SOL     OW15991   5.840   1.303   4.528
 5031SOL    HW115992   5.907   1.232   4.551
 5031SOL    HW215993   5.794   1.277   4.443
 5032SOL     OW15994   1.660   4.003   0.996
 5032SOL    HW115995   1.590   4.068   0.965
 5032SOL    HW215996   1.663   3.925   0.934
 5033SOL     OW15997   2.024   4.935   6.464
 5033SOL    HW115998   2.017   4.972   6.372
 5033SOL    HW215999   2.063   4.843   6.460
 5034SOL     OW16000   0.158   3.615   2.151
 5034SOL    HW116001   0.145   3.564   2.236
 5034SOL    HW216002   0.246   3.589   2.110
 5035SOL     OW16003   5.876   4.783   1.202
 5035SOL    HW116004   5.950   4.724   1.233
 5035SOL    HW216005   5.912   4.853   1.141
 5036SOL     OW16006   0.355   5.664   6.646
 5036SOL    HW116007   0.394   5.738   6.590
 5036SOL    HW216008   0.257   5.679   6.655
 5037SOL     OW16009   4.561   2.581   2.782
 5037SOL    HW116010   4.505   2.508   2.822
 5037SOL    HW216011   4.606   2.632   2.856
 5038SOL     OW16012   1.319   5.374   5.615
 5038SOL    HW116013   1.360   5.284   5.627
 5038SOL    HW216014   1.309   5.393   5.517
 5039SOL     OW16015   1.995   3.682   5.325
 5039SOL    HW116016   2.018   3.586   5.307
 5039SOL    HW216017   1.899   3.698   5.301
 5040SOL     OW16018   2.293   3.535   6.386
 5040SOL    HW116019   2.379   3.579   6.358
 5040SOL    HW216020   2.300   3.436   6.372
 5041SOL     OW16021   0.673   3.635   1.175
 5041SOL    HW116022   0.725   3.551   1.156
 5041SOL    HW216023   0.666   3.648   1.273
 5042SOL     OW16024   0.271   3.008   6.815
 5042SOL    HW116025   0.194   2.945   6.802
 5042SOL    HW216026   0.346   2.960   6.859
 5043SOL     OW16027   3.386   0.842   5.494
 5043SOL    HW116028   3.407   0.940   5.500
 5043SOL    HW216029   3.429   0.803   5.413
 5044SOL     OW16030   6.372   6.433   3.248
 5044SOL    HW116031   6.275   6.411   3.235
 5044SOL    HW216032   6.407   6.385   3.329
 5045SOL     OW16033   4.894   3.530   0.398
 5045SOL    HW116034   4.876   3.616   0.447
 5045SOL    HW216035   4.941   3.551   0.312
 5046SOL     OW16036   3.820   2.928   4.573
 5046SOL    HW116037   3.886   2.996   4.605
 5046SOL    HW216038   3.758   2.905   4.648
 5047SOL     OW16039   6.439   2.138   2.715
 5047SOL    HW116040   6.373   2.108   2.784
 5047SOL    HW216041   6.484   2.058   2.675
 5048SOL     OW16042   6.413   2.601   1.546
 5048SOL    HW116043   6.355   2.599   1.628
 5048SOL    HW216044   6.503   2.637   1.570
 5049SOL     OW16045   6.280   1.132   3.106
 5049SOL    HW116046   6.309   1.196   3.177
 5049SOL    HW216047   6.184   1.107   3.120
 5050SOL     OW16048   0.324   1.772   2.048
 5050SOL    HW116049   0.372   1.716   2.116
 5050SOL    HW216050   0.262   1.714   1.995
 5051SOL     OW16051   3.813   3.065   0.051
 5051SOL    HW116052   3.890   3.109   0.004
 5051SOL    HW216053   3.806   3.101   0.144
 5052SOL     OW16054   2.778   4.894   6.547
 5052SOL    HW116055   2.729   4.893   6.460
 5052SOL    HW216056   2.846   4.821   6.548
 5053SOL     OW16057   2.111   3.747   2.822
 5053SOL    HW116058   2.177   3.803   2.872
 5053SOL    HW216059   2.144   3.734   2.728
 5054SOL     OW16060   4.011   5.591   5.330
 5054SOL    HW116061   4.038   5.584   5.426
 5054SOL    HW216062   3.925   5.542   5.315
 5055SOL     OW16063   6.890   1.403   4.605
 5055SOL    HW116064   6.809   1.366   4.558
 5055SOL    HW216065   6.970   1.349   4.580
 5056SOL     OW16066   6.525   4.041   6.211
 5056SOL    HW116067   6.474   4.121   6.242
 5056SOL    HW216068   6.514   3.966   6.277
 5057SOL     OW16069   1.536   5.359   3.489
 5057SOL    HW116070   1.583   5.429   3.436
 5057SOL    HW216071   1.476   5.306   3.429
 5058SOL     OW16072   3.646   3.858   6.532
 5058SOL    HW116073   3.600   3.784   6.484
 5058SOL    HW216074   3.645   3.941   6.476
 5059SOL     OW16075   5.188   3.403   5.081
 5059SOL    HW116076   5.102   3.361   5.051
 5059SOL    HW216077   5.263   3.369   5.023
 5060SOL     OW16078   6.976   2.860   4.847
 5060SOL    HW116079   7.022   2.805   4.778
 5060SOL    HW216080   0.019   2.923   4.889
 5061SOL     OW16081   2.909   3.475   3.812
 5061SOL    HW116082   2.912   3.388   3.863
 5061SOL    HW216083   2.952   3.463   3.723
 5062SOL     OW16084   5.659   1.819   2.304
 5062SOL    HW116085   5.599   1.797   2.227
 5062SOL    HW216086   5.750   1.842   2.270
 5063SOL     OW16087   1.314   6.247   1.855
 5063SOL    HW116088   1.286   6.343   1.845
 5063SOL    HW216089   1.298   6.218   1.950
 5064SOL     OW16090   5.098   5.603   0.663
 5064SOL    HW116091   5.191   5.567   0.650
 5064SOL    HW216092   5.037   5.528   0.691
 5065SOL     OW16093   1.951   0.305   2.793
 5065SOL    HW116094   1.858   0.300   2.758
 5065SOL    HW216095   1.977   0.400   2.808
 5066SOL     OW16096   2.533   3.964   1.689
 5066SOL    HW116097   2.557   4.058   1.712
 5066SOL    HW216098   2.438   3.960   1.659
 5067SOL     OW16099   4.300   2.000   2.096
 5067SOL    HW116100   4.270   1.994   2.001
 5067SOL    HW216101   4.233   1.954   2.155
 5068SOL     OW16102   2.828   5.471   0.091
 5068SOL    HW116103   2.788   5.428   0.010
 5068SOL    HW216104   2.770   5.548   0.120
 5069SOL     OW16105   2.369   2.877   5.640
 5069SOL    HW116106   2.302   2.855   5.711
 5069SOL    HW216107   2.352   2.969   5.604
 5070SOL     OW16108   5.917   4.170   4.270
 5070SOL    HW116109   6.005   4.206   4.301
 5070SOL    HW216110   5.880   4.228   4.198
 5071SOL     OW16111   3.970   2.165   3.466
 5071SOL    HW116112   3.994   2.070   3.449
 5071SOL    HW216113   3.873   2.179   3.449
 5072SOL     OW16114   2.358   1.345   1.584
 5072SOL    HW116115   2.274   1.317   1.630
 5072SOL    HW216116   2.381   1.438   1.611
 5073SOL     OW16117   1.518   5.760   1.420
 5073SOL    HW116118   1.492   5.774   1.516
 5073SOL    HW216119   1.615   5.782   1.409
 5074SOL     OW16120   3.698   1.782   2.007
 5074SOL    HW116121   3.662   1.793   2.100
 5074SOL    HW216122   3.629   1.737   1.950
 5075SOL     OW16123   1.156   2.256   0.051
 5075SOL    HW116124   1.113   2.268   0.141
 5075SOL    HW216125   1.248   2.297   0.052
 5076SOL     OW16126   5.169   0.305   0.188
 5076SOL    HW116127   5.236   0.374   0.158
 5076SOL    HW216128   5.113   0.278   0.110
 5077SOL     OW16129   0.974   3.614   5.966
 5077SOL    HW116130   0.878   3.587   5.967
 5077SOL    HW216131   0.983   3.705   5.926
 5078SOL     OW16132   0.461   0.923   4.139
 5078SOL    HW116133   0.501   0.847   4.088
 5078SOL    HW216134   0.527   0.999   4.142
 5079SOL     OW16135   2.675   2.547   5.786
 5079SOL    HW116136   2.618   2.628   5.798
 5079SOL    HW216137   2.766   2.565   5.824
 5080SOL     OW16138   5.809   5.784   5.098
 5080SOL    HW116139   5.767   5.697   5.124
 5080SOL    HW216140   5.773   5.857   5.157
 5081SOL     OW16141   2.937   4.786   5.411
 5081SOL    HW116142   3.009   4.745   5.355
 5081SOL    HW216143   2.855   4.799   5.355
 5082SOL     OW16144   4.445   6.898   0.112
 5082SOL    HW116145   4.512   6.831   0.079
 5082SOL    HW216146   4.434   6.888   0.211
 5083SOL     OW16147   3.514   0.206   0.763
 5083SOL    HW116148   3.559   0.125   0.801
 5083SOL    HW216149   3.579   0.282   0.760
 5084SOL     OW16150   0.466   5.020   4.589
 5084SOL    HW116151   0.555   5.057   4.563
 5084SOL    HW216152   0.479   4.930   4.632
 5085SOL     OW16153   1.491   3.102   5.694
 5085SOL    HW116154   1.438   3.153   5.627
 5085SOL    HW216155   1.544   3.165   5.750
 5086SOL     OW16156   0.206   4.326   2.329
 5086SOL    HW116157   0.121   4.367   2.364
 5086SOL    HW216158   0.242   4.383   2.255
 5087SOL     OW16159   0.027   5.548   2.381
 5087SOL    HW116160   6.993   5.631   2.376
 5087SOL    HW216161   6.993   5.471   2.408
 5088SOL     OW16162   4.402   6.665   3.542
 5088SOL    HW116163   4.352   6.751   3.555
 5088SOL    HW216164   4.497   6.678   3.569
 5089SOL     OW16165   5.594   4.354   4.282
 5089SOL    HW116166   5.557   4.395   4.199
 5089SOL    HW216167   5.641   4.269   4.260
 5090SOL     OW16168   2.352   0.913   2.932
 5090SOL    HW116169   2.291   0.865   2.995
 5090SOL    HW216170   2.308   0.996   2.898
 5091SOL     OW16171   6.389   0.663   0.773
 5091SOL    HW116172   6.443   0.703   0.699
 5091SOL    HW216173   6.321   0.730   0.804
 5092SOL     OW16174   3.389   3.001   3.626
 5092SOL    HW116175   3.368   2.993   3.528
 5092SOL    HW216176   3.306   3.026   3.676
 5093SOL     OW16177   2.671   1.686   1.541
 5093SOL    HW116178   2.703   1.606   1.490
 5093SOL    HW216179   2.745   1.721   1.599
 5094SOL     OW16180   1.762   5.776   6.626
 5094SOL    HW116181   1.834   5.843   6.607
 5094SOL    HW216182   1.673   5.821   6.620
 5095SOL     OW16183   0.781   1.688   2.732
 5095SOL    HW116184   0.771   1.775   2.780
 5095SOL    HW216185   0.760   1.613   2.795
 5096SOL     OW16186   5.207   4.867   6.377
 5096SOL    HW116187   5.295   4.845   6.420
 5096SOL    HW216188   5.135   4.814   6.420
 5097SOL     OW16189   6.840   0.497   0.258
 5097SOL    HW116190   6.854   0.577   0.315
 5097SOL    HW216191   6.914   0.490   0.190
 5098SOL     OW16192   3.460   2.168   1.231
 5098SOL    HW116193   3.422   2.250   1.276
 5098SOL    HW216194   3.439   2.173   1.133
 5099SOL     OW16195   0.074   6.123   1.707
 5099SOL    HW116196   0.033   6.212   1.688
 5099SOL    HW216197   0.163   6.117   1.660
 5100SOL     OW16198   3.070   5.419   3.436
 5100SOL    HW116199   3.065   5.358   3.357
 5100SOL    HW216200   3.046   5.512   3.408
 5101SOL     OW16201   4.883   6.949   5.005
 5101SOL    HW116202   4.798   6.987   5.040
 5101SOL    HW216203   4.960   7.000   5.043
 5102SOL     OW16204   5.029   6.008   4.411
 5102SOL    HW116205   5.014   5.913   4.439
 5102SOL    HW216206   5.080   6.056   4.482
 5103SOL     OW16207   0.716   1.413   4.682
 5103SOL    HW116208   0.642   1.434   4.745
 5103SOL    HW216209   0.693   1.446   4.590
 5104SOL     OW16210   3.031   5.996   1.573
 5104SOL    HW116211   3.018   6.095   1.584
 5104SOL    HW216212   2.941   5.952   1.564
 5105SOL     OW16213   3.192   2.692   6.398
 5105SOL    HW116214   3.289   2.702   6.423
 5105SOL    HW216215   3.186   2.648   6.309
 5106SOL     OW16216   3.970   1.546   1.058
 5106SOL    HW116217   3.963   1.604   0.978
 5106SOL    HW216218   3.879   1.516   1.087
 5107SOL     OW16219   4.968   2.266   0.982
 5107SOL    HW116220   4.963   2.330   0.906
 5107SOL    HW216221   4.906   2.189   0.965
 5108SOL     OW16222   4.043   3.900   4.907
 5108SOL    HW116223   3.980   3.975   4.927
 5108SOL    HW216224   4.076   3.860   4.993
 5109SOL     OW16225   1.259   2.507   0.275
 5109SOL    HW116226   1.333   2.497   0.340
 5109SOL    HW216227   1.186   2.443   0.297
 5110SOL     OW16228   0.247   0.851   6.372
 5110SOL    HW116229   0.265   0.840   6.470
 5110SOL    HW216230   0.327   0.821   6.320
 5111SOL     OW16231   0.762   0.143   4.145
 5111SOL    HW116232   0.704   0.204   4.093
 5111SOL    HW216233   0.837   0.195   4.186
 5112SOL     OW16234   0.724   0.769   3.027
 5112SOL    HW116235   0.821   0.782   3.010
 5112SOL    HW216236   0.672   0.797   2.947
 5113SOL     OW16237   1.045   5.984   1.408
 5113SOL    HW116238   1.103   5.991   1.489
 5113SOL    HW216239   1.078   6.046   1.338
 5114SOL     OW16240   3.927   6.470   6.884
 5114SOL    HW116241   3.904   6.504   6.976
 5114SOL    HW216242   3.846   6.477   6.826
 5115SOL     OW16243   1.885   4.316   2.260
 5115SOL    HW116244   1.948   4.340   2.186
 5115SOL    HW216245   1.868   4.397   2.317
 5116SOL     OW16246   1.990   6.705   0.170
 5116SOL    HW116247   1.893   6.708   0.149
 5116SOL    HW216248   2.028   6.797   0.166
 5117SOL     OW16249   0.902   4.108   3.927
 5117SOL    HW116250   0.817   4.126   3.976
 5117SOL    HW216251   0.973   4.170   3.959
 5118SOL     OW16252   5.843   1.169   0.121
 5118SOL    HW116253   5.828   1.078   0.160
 5118SOL    HW216254   5.878   1.231   0.192
 5119SOL     OW16255   4.507   1.486   1.588
 5119SOL    HW116256   4.561   1.415   1.543
 5119SOL    HW216257   4.553   1.574   1.580
 5120SOL     OW16258   4.945   6.434   5.512
 5120SOL    HW116259   4.910   6.380   5.435
 5120SOL    HW216260   5.045   6.441   5.504
 5121SOL     OW16261   2.981   3.546   6.721
 5121SOL    HW116262   2.994   3.643   6.702
 5121SOL    HW216263   3.051   3.514   6.784
 5122SOL     OW16264   3.112   6.099   3.106
 5122SOL    HW116265   3.194   6.099   3.164
 5122SOL    HW216266   3.135   6.136   3.016
 5123SOL     OW16267   5.765   1.975   4.222
 5123SOL    HW116268   5.782   1.916   4.301
 5123SOL    HW216269   5.820   1.943   4.145
 5124SOL     OW16270   2.317   6.230   4.169
 5124SOL    HW116271   2.242   6.167   4.190
 5124SOL    HW216272   2.372   6.192   4.095
 5125SOL     OW16273   0.158   1.950   3.185
 5125SOL    HW116274   0.190   1.927   3.276
 5125SOL    HW216275   0.231   1.997   3.135
 5126SOL     OW16276   0.458   6.117   6.775
 5126SOL    HW116277   0.431   6.140   6.682
 5126SOL    HW216278   0.474   6.019   6.782
 5127SOL     OW16279   0.289   5.388   6.969
 5127SOL    HW116280   0.204   5.427   6.933
 5127SOL    HW216281   0.359   5.389   6.898
 5128SOL     OW16282   6.742   6.620   0.946
 5128SOL    HW116283   6.786   6.692   0.892
 5128SOL    HW216284   6.765   6.531   0.908
 5129SOL     OW16285   4.886   6.535   2.809
 5129SOL    HW116286   4.875   6.455   2.869
 5129SOL    HW216287   4.945   6.602   2.854
 5130SOL     OW16288   6.837   5.399   2.757
 5130SOL    HW116289   6.854   5.303   2.733
 5130SOL    HW216290   6.922   5.442   2.787
 5131SOL     OW16291   2.167   3.673   4.367
 5131SOL    HW116292   2.166   3.579   4.333
 5131SOL    HW216293   2.215   3.676   4.455
 5132SOL     OW16294   4.431   3.000   5.747
 5132SOL    HW116295   4.421   3.094   5.778
 5132SOL    HW216296   4.433   2.939   5.826
 5133SOL     OW16297   2.699   5.086   0.135
 5133SOL    HW116298   2.709   5.136   0.220
 5133SOL    HW216299   2.602   5.080   0.111
 5134SOL     OW16300   6.541   2.465   2.130
 5134SOL    HW116301   6.441   2.466   2.135
 5134SOL    HW216302   6.576   2.387   2.183
 5135SOL     OW16303   6.414   2.196   4.923
 5135SOL    HW116304   6.344   2.254   4.881
 5135SOL    HW216305   6.455   2.138   4.853
 5136SOL     OW16306   4.883   0.188   5.793
 5136SOL    HW116307   4.828   0.267   5.820
 5136SOL    HW216308   4.833   0.104   5.814
 5137SOL     OW16309   5.553   3.279   6.703
 5137SOL    HW116310   5.564   3.218   6.781
 5137SOL    HW216311   5.605   3.243   6.625
 5138SOL     OW16312   3.237   2.882   5.955
 5138SOL    HW116313   3.188   2.926   5.879
 5138SOL    HW216314   3.322   2.931   5.973
 5139SOL     OW16315   1.422   6.906   3.453
 5139SOL    HW116316   1.342   6.872   3.502
 5139SOL    HW216317   1.400   6.917   3.356
 5140SOL     OW16318   3.459   1.186   0.411
 5140SOL    HW116319   3.538   1.243   0.389
 5140SOL    HW216320   3.389   1.198   0.341
 5141SOL     OW16321   6.976   3.883   0.831
 5141SOL    HW116322   6.939   3.912   0.919
 5141SOL    HW216323   0.025   3.946   0.802
 5142SOL     OW16324   6.441   1.065   3.919
 5142SOL    HW116325   6.442   0.975   3.962
 5142SOL    HW216326   6.409   1.056   3.824
 5143SOL     OW16327   0.465   4.394   4.167
 5143SOL    HW116328   0.469   4.492   4.150
 5143SOL    HW216329   0.416   4.349   4.092
 5144SOL     OW16330   0.712   5.641   6.622
 5144SOL    HW116331   0.726   5.609   6.528
 5144SOL    HW216332   0.709   5.563   6.684
 5145SOL     OW16333   1.566   4.872   6.088
 5145SOL    HW116334   1.641   4.843   6.148
 5145SOL    HW216335   1.479   4.849   6.132
 5146SOL     OW16336   4.077   3.504   5.454
 5146SOL    HW116337   4.000   3.519   5.392
 5146SOL    HW216338   4.091   3.406   5.467
 5147SOL     OW16339   6.788   4.623   2.492
 5147SOL    HW116340   6.859   4.618   2.562
 5147SOL    HW216341   6.710   4.674   2.527
 5148SOL     OW16342   0.874   6.489   1.115
 5148SOL    HW116343   0.954   6.436   1.089
 5148SOL    HW216344   0.810   6.430   1.165
 5149SOL     OW16345   5.913   5.991   4.371
 5149SOL    HW116346   5.937   6.085   4.345
 5149SOL    HW216347   5.974   5.927   4.324
 5150SOL     OW16348   2.022   5.253   2.803
 5150SOL    HW116349   2.091   5.311   2.846
 5150SOL    HW216350   1.993   5.182   2.867
 5151SOL     OW16351   5.368   1.824   0.504
 5151SOL    HW116352   5.448   1.818   0.564
 5151SOL    HW216353   5.325   1.913   0.513
 5152SOL     OW16354   2.162   4.682   6.582
 5152SOL    HW116355   2.247   4.731   6.601
 5152SOL    HW216356   2.125   4.645   6.668
 5153SOL     OW16357   2.472   0.630   6.799
 5153SOL    HW116358   2.544   0.698   6.788
 5153SOL    HW216359   2.474   0.566   6.722
 5154SOL     OW16360   2.039   2.958   6.595
 5154SOL    HW116361   2.033   2.883   6.662
 5154SOL    HW216362   2.100   2.931   6.521
 5155SOL     OW16363   3.524   6.678   2.299
 5155SOL    HW116364   3.616   6.656   2.265
 5155SOL    HW216365   3.531   6.754   2.364
 5156SOL     OW16366   6.887   3.506   5.762
 5156SOL    HW116367   6.927   3.435   5.820
 5156SOL    HW216368   6.958   3.545   5.703
 5157SOL     OW16369   4.476   2.488   3.868
 5157SOL    HW116370   4.438   2.399   3.842
 5157SOL    HW216371   4.410   2.560   3.848
 5158SOL     OW16372   3.247   1.345   1.504
 5158SOL    HW116373   3.272   1.420   1.443
 5158SOL    HW216374   3.265   1.257   1.460
 5159SOL     OW16375   0.458   3.386   4.421
 5159SOL    HW116376   0.551   3.350   4.422
 5159SOL    HW216377   0.393   3.311   4.412
 5160SOL     OW16378   0.473   4.327   3.255
 5160SOL    HW116379   0.541   4.345   3.326
 5160SOL    HW216380   0.417   4.409   3.241
 5161SOL     OW16381   1.836   3.501   4.336
 5161SOL    HW116382   1.868   3.590   4.369
 5161SOL    HW216383   1.738   3.506   4.315
 5162SOL     OW16384   1.218   4.811   4.251
 5162SOL    HW116385   1.251   4.788   4.343
 5162SOL    HW216386   1.257   4.898   4.223
 5163SOL     OW16387   3.454   4.898   0.832
 5163SOL    HW116388   3.497   4.927   0.746
 5163SOL    HW216389   3.520   4.849   0.888
 5164SOL     OW16390   5.369   2.509   0.163
 5164SOL    HW116391   5.354   2.527   0.066
 5164SOL    HW216392   5.326   2.422   0.188
 5165SOL     OW16393   6.124   3.875   5.203
 5165SOL    HW116394   6.102   3.970   5.224
 5165SOL    HW216395   6.129   3.823   5.288
 5166SOL     OW16396   0.877   5.866   2.115
 5166SOL    HW116397   0.914   5.959   2.113
 5166SOL    HW216398   0.944   5.804   2.155
 5167SOL     OW16399   5.915   0.102   5.921
 5167SOL    HW116400   5.919   0.021   5.981
 5167SOL    HW216401   6.002   0.151   5.926
 5168SOL     OW16402   5.158   3.013   3.515
 5168SOL    HW116403   5.137   2.958   3.435
 5168SOL    HW216404   5.083   3.006   3.582
 5169SOL     OW16405   3.468   2.284   5.882
 5169SOL    HW116406   3.462   2.261   5.979
 5169SOL    HW216407   3.452   2.202   5.827
 5170SOL     OW16408   6.843   3.384   6.193
 5170SOL    HW116409   6.867   3.467   6.142
 5170SOL    HW216410   6.892   3.306   6.155
 5171SOL     OW16411   1.954   4.976   3.925
 5171SOL    HW116412   1.886   4.964   3.853
 5171SOL    HW216413   1.942   4.905   3.994
 5172SOL     OW16414   0.009   3.066   2.201
 5172SOL    HW116415   0.037   3.147   2.149
 5172SOL    HW216416   0.089   3.029   2.249
 5173SOL     OW16417   6.000   4.820   6.093
 5173SOL    HW116418   5.935   4.759   6.049
 5173SOL    HW216419   5.961   4.911   6.102
 5174SOL     OW16420   1.862   4.526   3.578
 5174SOL    HW116421   1.916   4.443   3.567
 5174SOL    HW216422   1.826   4.555   3.490
 5175SOL     OW16423   2.672   4.411   6.847
 5175SOL    HW116424   2.676   4.484   6.915
 5175SOL    HW216425   2.642   4.326   6.891
 5176SOL     OW16426   4.445   3.537   0.483
 5176SOL    HW116427   4.429   3.484   0.566
 5176SOL    HW216428   4.426   3.481   0.403
 5177SOL     OW16429   4.911   6.963   6.002
 5177SOL    HW116430   4.994   7.004   5.965
 5177SOL    HW216431   4.855   6.928   5.927
 5178SOL     OW16432   1.924   3.047   1.242
 5178SOL    HW116433   1.971   3.086   1.164
 5178SOL    HW216434   1.836   3.093   1.255
 5179SOL     OW16435   4.276   5.806   5.479
 5179SOL    HW116436   4.220   5.801   5.397
 5179SOL    HW216437   4.308   5.715   5.504
 5180SOL     OW16438   3.256   3.046   6.171
 5180SOL    HW116439   3.335   3.019   6.226
 5180SOL    HW216440   3.232   2.972   6.109
 5181SOL     OW16441   5.196   1.727   2.391
 5181SOL    HW116442   5.136   1.692   2.318
 5181SOL    HW216443   5.187   1.669   2.471
 5182SOL     OW16444   4.683   4.932   1.177
 5182SOL    HW116445   4.692   5.028   1.148
 5182SOL    HW216446   4.626   4.883   1.111
 5183SOL     OW16447   4.078   0.726   2.449
 5183SOL    HW116448   4.155   0.675   2.410
 5183SOL    HW216449   4.101   0.823   2.455
 5184SOL     OW16450   0.602   2.148   3.995
 5184SOL    HW116451   0.680   2.176   4.051
 5184SOL    HW216452   0.540   2.225   3.982
 5185SOL     OW16453   4.825   0.051   3.279
 5185SOL    HW116454   4.891   6.999   3.289
 5185SOL    HW216455   4.829   0.086   3.185
 5186SOL     OW16456   5.407   3.541   0.934
 5186SOL    HW116457   5.328   3.601   0.933
 5186SOL    HW216458   5.489   3.592   0.908
 5187SOL     OW16459   6.164   0.769   3.676
 5187SOL    HW116460   6.133   0.693   3.620
 5187SOL    HW216461   6.095   0.790   3.745
 5188SOL     OW16462   0.854   5.140   0.492
 5188SOL    HW116463   0.836   5.152   0.394
 5188SOL    HW216464   0.951   5.153   0.510
 5189SOL     OW16465   4.934   4.636   0.893
 5189SOL    HW116466   4.918   4.550   0.845
 5189SOL    HW216467   4.904   4.627   0.988
 5190SOL     OW16468   0.742   2.196   4.236
 5190SOL    HW116469   0.826   2.188   4.291
 5190SOL    HW216470   0.707   2.289   4.243
 5191SOL     OW16471   4.307   0.504   2.069
 5191SOL    HW116472   4.346   0.570   2.133
 5191SOL    HW216473   4.220   0.471   2.104
 5192SOL     OW16474   3.756   5.460   2.290
 5192SOL    HW116475   3.666   5.487   2.325
 5192SOL    HW216476   3.771   5.501   2.200
 5193SOL     OW16477   4.889   5.081   3.963
 5193SOL    HW116478   4.822   5.146   3.927
 5193SOL    HW216479   4.865   4.989   3.932
 5194SOL     OW16480   4.485   0.113   6.573
 5194SOL    HW116481   4.398   0.158   6.557
 5194SOL    HW216482   4.504   0.049   6.498
 5195SOL     OW16483   6.456   6.002   4.122
 5195SOL    HW116484   6.479   6.048   4.208
 5195SOL    HW216485   6.435   5.906   4.141
 5196SOL     OW16486   1.266   3.519   1.001
 5196SOL    HW116487   1.265   3.421   1.024
 5196SOL    HW216488   1.353   3.559   1.029
 5197SOL     OW16489   1.788   5.946   4.425
 5197SOL    HW116490   1.855   5.876   4.401
 5197SOL    HW216491   1.700   5.903   4.445
 5198SOL     OW16492   4.010   0.384   3.935
 5198SOL    HW116493   4.000   0.285   3.927
 5198SOL    HW216494   4.022   0.423   3.844
 5199SOL     OW16495   1.680   6.001   0.306
 5199SOL    HW116496   1.765   6.049   0.329
 5199SOL    HW216497   1.701   5.925   0.243
 5200SOL     OW16498   1.132   1.784   5.231
 5200SOL    HW116499   1.115   1.744   5.320
 5200SOL    HW216500   1.211   1.845   5.236
 5201SOL     OW16501   5.164   6.055   4.184
 5201SOL    HW116502   5.220   5.972   4.182
 5201SOL    HW216503   5.102   6.052   4.263
 5202SOL     OW16504   6.005   3.552   6.098
 5202SOL    HW116505   5.933   3.491   6.131
 5202SOL    HW216506   6.092   3.527   6.140
 5203SOL     OW16507   1.961   0.269   0.119
 5203SOL    HW116508   2.015   0.307   0.044
 5203SOL    HW216509   2.004   0.292   0.206
 5204SOL     OW16510   3.322   6.323   6.926
 5204SOL    HW116511   3.243   6.368   6.966
 5204SOL    HW216512   3.298   6.287   6.835
 5205SOL     OW16513   6.948   5.646   0.162
 5205SOL    HW116514   6.900   5.649   0.075
 5205SOL    HW216515   6.975   5.738   0.189
 5206SOL     OW16516   0.754   5.052   5.525
 5206SOL    HW116517   0.671   5.058   5.469
 5206SOL    HW216518   0.769   4.957   5.553
 5207SOL     OW16519   0.695   0.727   3.673
 5207SOL    HW116520   0.626   0.662   3.703
 5207SOL    HW216521   0.779   0.678   3.648
 5208SOL     OW16522   4.404   2.299   0.288
 5208SOL    HW116523   4.376   2.371   0.224
 5208SOL    HW216524   4.503   2.296   0.293
 5209SOL     OW16525   5.386   0.368   1.804
 5209SOL    HW116526   5.354   0.310   1.730
 5209SOL    HW216527   5.446   0.439   1.767
 5210SOL     OW16528   5.453   4.016   1.153
 5210SOL    HW116529   5.495   4.052   1.236
 5210SOL    HW216530   5.362   3.981   1.174
 5211SOL     OW16531   5.159   1.592   4.646
 5211SOL    HW116532   5.112   1.565   4.730
 5211SOL    HW216533   5.257   1.576   4.657
 5212SOL     OW16534   1.406   2.832   0.837
 5212SOL    HW116535   1.422   2.840   0.935
 5212SOL    HW216536   1.335   2.764   0.820
 5213SOL     OW16537   4.352   3.468   1.204
 5213SOL    HW116538   4.436   3.414   1.198
 5213SOL    HW216539   4.315   3.460   1.297
 5214SOL     OW16540   4.965   3.591   5.663
 5214SOL    HW116541   5.049   3.640   5.687
 5214SOL    HW216542   4.933   3.623   5.574
 5215SOL     OW16543   6.893   4.290   4.291
 5215SOL    HW116544   6.879   4.372   4.346
 5215SOL    HW216545   6.809   4.237   4.288
 5216SOL     OW16546   4.809   5.646   1.033
 5216SOL    HW116547   4.855   5.729   1.002
 5216SOL    HW216548   4.838   5.623   1.125
 5217SOL     OW16549   3.896   5.998   4.594
 5217SOL    HW116550   3.909   6.002   4.693
 5217SOL    HW216551   3.857   5.910   4.569
 5218SOL     OW16552   0.496   0.933   1.218
 5218SOL    HW116553   0.583   0.981   1.206
 5218SOL    HW216554   0.437   0.985   1.279
 5219SOL     OW16555   3.671   1.851   3.964
 5219SOL    HW116556   3.724   1.776   3.924
 5219SOL    HW216557   3.695   1.861   4.061
 5220SOL     OW16558   1.706   4.845   2.460
 5220SOL    HW116559   1.750   4.756   2.449
 5220SOL    HW216560   1.617   4.833   2.502
 5221SOL     OW16561   0.042   0.417   2.304
 5221SOL    HW116562   0.070   0.480   2.232
 5221SOL    HW216563   0.012   0.469   2.384
 5222SOL     OW16564   3.511   5.456   2.412
 5222SOL    HW116565   3.448   5.470   2.335
 5222SOL    HW216566   3.489   5.370   2.458
 5223SOL     OW16567   0.626   2.469   0.745
 5223SOL    HW116568   0.588   2.554   0.709
 5223SOL    HW216569   0.697   2.435   0.684
 5224SOL     OW16570   0.082   1.889   4.264
 5224SOL    HW116571   0.069   1.810   4.325
 5224SOL    HW216572   7.016   1.932   4.247
 5225SOL     OW16573   0.094   0.601   4.332
 5225SOL    HW116574   0.110   0.586   4.234
 5225SOL    HW216575   0.158   0.670   4.366
 5226SOL     OW16576   0.591   6.434   3.596
 5226SOL    HW116577   0.650   6.515   3.592
 5226SOL    HW216578   0.516   6.445   3.529
 5227SOL     OW16579   6.908   3.851   5.952
 5227SOL    HW116580   6.829   3.881   5.898
 5227SOL    HW216581   6.913   3.906   6.036
 5228SOL     OW16582   0.616   2.287   0.275
 5228SOL    HW116583   0.544   2.331   0.329
 5228SOL    HW216584   0.574   2.229   0.205
 5229SOL     OW16585   3.229   6.238   6.693
 5229SOL    HW116586   3.180   6.162   6.651
 5229SOL    HW216587   3.167   6.317   6.699
 5230SOL     OW16588   6.386   0.135   2.741
 5230SOL    HW116589   6.316   0.187   2.790
 5230SOL    HW216590   6.458   0.107   2.805
 5231SOL     OW16591   4.619   2.288   4.010
 5231SOL    HW116592   4.578   2.375   3.983
 5231SOL    HW216593   4.668   2.249   3.932
 5232SOL     OW16594   1.036   4.143   5.891
 5232SOL    HW116595   1.033   4.100   5.982
 5232SOL    HW216596   0.984   4.228   5.893
 5233SOL     OW16597   3.310   0.909   1.780
 5233SOL    HW116598   3.235   0.853   1.745
 5233SOL    HW216599   3.288   0.942   1.872
 5234SOL     OW16600   3.047   3.189   6.463
 5234SOL    HW116601   3.034   3.183   6.364
 5234SOL    HW216602   3.120   3.255   6.482
 5235SOL     OW16603   1.932   2.570   0.531
 5235SOL    HW116604   2.018   2.609   0.563
 5235SOL    HW216605   1.857   2.606   0.587
 5236SOL     OW16606   3.498   5.421   1.775
 5236SOL    HW116607   3.565   5.365   1.823
 5236SOL    HW216608   3.429   5.363   1.733
 5237SOL     OW16609   2.383   1.045   4.651
 5237SOL    HW116610   2.454   0.980   4.678
 5237SOL    HW216611   2.397   1.073   4.556
 5238SOL     OW16612   1.071   5.735   1.634
 5238SOL    HW116613   1.089   5.831   1.654
 5238SOL    HW216614   0.972   5.719   1.628
 5239SOL     OW16615   3.373   3.324   0.276
 5239SOL    HW116616   3.284   3.370   0.274
 5239SOL    HW216617   3.429   3.356   0.200
 5240SOL     OW16618   2.933   2.476   5.296
 5240SOL    HW116619   2.872   2.486   5.218
 5240SOL    HW216620   3.023   2.446   5.264
 5241SOL     OW16621   0.735   5.442   2.623
 5241SOL    HW116622   0.762   5.515   2.560
 5241SOL    HW216623   0.727   5.479   2.716
 5242SOL     OW16624   5.184   0.309   2.271
 5242SOL    HW116625   5.227   0.390   2.232
 5242SOL    HW216626   5.250   0.257   2.325
 5243SOL     OW16627   2.764   6.308   1.661
 5243SOL    HW116628   2.729   6.336   1.751
 5243SOL    HW216629   2.758   6.386   1.598
 5244SOL     OW16630   5.168   3.827   0.156
 5244SOL    HW116631   5.219   3.912   0.165
 5244SOL    HW216632   5.075   3.840   0.190
 5245SOL     OW16633   3.745   4.530   0.932
 5245SOL    HW116634   3.796   4.465   0.988
 5245SOL    HW216635   3.695   4.480   0.860
 5246SOL     OW16636   6.028   2.597   2.364
 5246SOL    HW116637   5.948   2.552   2.325
 5246SOL    HW216638   6.000   2.684   2.406
 5247SOL     OW16639   3.479   0.806   6.025
 5247SOL    HW116640   3.429   0.890   6.006
 5247SOL    HW216641   3.416   0.729   6.023
 5248SOL     OW16642   0.026   1.814   2.987
 5248SOL    HW116643   0.081   1.846   3.064
 5248SOL    HW216644   6.952   1.816   3.013
 5249SOL     OW16645   1.624   6.121   6.584
 5249SOL    HW116646   1.564   6.197   6.561
 5249SOL    HW216647   1.577   6.034   6.565
 5250SOL     OW16648   0.814   5.697   0.835
 5250SOL    HW116649   0.825   5.751   0.919
 5250SOL    HW216650   0.856   5.607   0.847
 5251SOL     OW16651   1.293   4.163   0.631
 5251SOL    HW116652   1.262   4.092   0.568
 5251SOL    HW216653   1.321   4.244   0.579
 5252SOL     OW16654   2.593   6.671   1.397
 5252SOL    HW116655   2.515   6.637   1.345
 5252SOL    HW216656   2.671   6.685   1.336
 5253SOL     OW16657   6.922   3.847   4.672
 5253SOL    HW116658   6.944   3.757   4.710
 5253SOL    HW216659   7.005   3.903   4.670
 5254SOL     OW16660   6.145   0.132   3.454
 5254SOL    HW116661   6.061   0.175   3.421
 5254SOL    HW216662   6.187   0.190   3.524
 5255SOL     OW16663   5.535   2.877   4.723
 5255SOL    HW116664   5.494   2.893   4.813
 5255SOL    HW216665   5.634   2.886   4.730
 5256SOL     OW16666   4.777   1.592   4.255
 5256SOL    HW116667   4.696   1.647   4.277
 5256SOL    HW216668   4.833   1.581   4.337
 5257SOL     OW16669   4.533   7.000   1.147
 5257SOL    HW116670   4.621   0.006   1.110
 5257SOL    HW216671   4.487   6.939   1.082
 5258SOL     OW16672   5.467   2.349   2.710
 5258SOL    HW116673   5.530   2.405   2.765
 5258SOL    HW216674   5.500   2.346   2.616
 5259SOL     OW16675   4.769   5.984   2.849
 5259SOL    HW116676   4.769   6.010   2.946
 5259SOL    HW216677   4.812   6.057   2.795
 5260SOL     OW16678   4.291   5.005   0.427
 5260SOL    HW116679   4.293   4.911   0.461
 5260SOL    HW216680   4.383   5.044   0.433
 5261SOL     OW16681   0.116   4.198   6.283
 5261SOL    HW116682   0.036   4.255   6.265
 5261SOL    HW216683   0.111   4.160   6.375
 5262SOL     OW16684   3.189   1.176   3.749
 5262SOL    HW116685   3.143   1.177   3.660
 5262SOL    HW216686   3.222   1.268   3.770
 5263SOL     OW16687   1.408   1.372   2.832
 5263SOL    HW116688   1.423   1.279   2.799
 5263SOL    HW216689   1.457   1.386   2.918
 5264SOL     OW16690   6.386   2.814   1.854
 5264SOL    HW116691   6.403   2.878   1.779
 5264SOL    HW216692   6.444   2.837   1.932
 5265SOL     OW16693   6.591   3.104   4.595
 5265SOL    HW116694   6.686   3.075   4.595
 5265SOL    HW216695   6.580   3.184   4.535
 5266SOL     OW16696   2.629   5.703   0.107
 5266SOL    HW116697   2.536   5.681   0.078
 5266SOL    HW216698   2.643   5.668   0.200
 5267SOL     OW16699   5.196   2.421   4.676
 5267SOL    HW116700   5.125   2.460   4.616
 5267SOL    HW216701   5.161   2.338   4.720
 5268SOL     OW16702   5.209   0.645   0.304
 5268SOL    HW116703   5.252   0.599   0.227
 5268SOL    HW216704   5.114   0.667   0.281
 5269SOL     OW16705   0.736   6.906   2.458
 5269SOL    HW116706   0.776   6.948   2.376
 5269SOL    HW216707   0.748   6.807   2.454
 5270SOL     OW16708   5.938   1.439   1.905
 5270SOL    HW116709   5.930   1.494   1.988
 5270SOL    HW216710   5.886   1.354   1.916
 5271SOL     OW16711   5.331   4.961   5.206
 5271SOL    HW116712   5.396   4.939   5.134
 5271SOL    HW216713   5.323   4.884   5.269
 5272SOL     OW16714   3.581   5.404   1.197
 5272SOL    HW116715   3.590   5.448   1.108
 5272SOL    HW216716   3.648   5.330   1.204
 5273SOL     OW16717   0.309   3.363   2.725
 5273SOL    HW116718   0.257   3.398   2.804
 5273SOL    HW216719   0.348   3.440   2.674
 5274SOL     OW16720   5.411   6.979   3.079
 5274SOL    HW116721   5.385   0.051   3.060
 5274SOL    HW216722   5.484   6.951   3.018
 5275SOL     OW16723   4.009   0.809   0.911
 5275SOL    HW116724   4.064   0.784   0.831
 5275SOL    HW216725   3.999   0.730   0.971
 5276SOL     OW16726   2.085   0.328   1.443
 5276SOL    HW116727   2.137   0.299   1.523
 5276SOL    HW216728   2.135   0.304   1.360
 5277SOL     OW16729   2.574   1.125   2.980
 5277SOL    HW116730   2.520   1.198   3.024
 5277SOL    HW216731   2.516   1.045   2.967
 5278SOL     OW16732   4.860   5.669   4.206
 5278SOL    HW116733   4.920   5.749   4.218
 5278SOL    HW216734   4.876   5.604   4.279
 5279SOL     OW16735   2.966   5.525   0.747
 5279SOL    HW116736   2.924   5.610   0.716
 5279SOL    HW216737   3.004   5.538   0.839
 5280SOL     OW16738   3.142   6.025   5.086
 5280SOL    HW116739   3.043   6.018   5.097
 5280SOL    HW216740   3.176   5.945   5.038
 5281SOL     OW16741   6.175   2.129   2.414
 5281SOL    HW116742   6.098   2.133   2.350
 5281SOL    HW216743   6.140   2.117   2.507
 5282SOL     OW16744   3.564   1.405   3.643
 5282SOL    HW116745   3.644   1.379   3.697
 5282SOL    HW216746   3.515   1.323   3.614
 5283SOL     OW16747   4.868   6.471   1.714
 5283SOL    HW116748   4.913   6.419   1.786
 5283SOL    HW216749   4.932   6.535   1.673
 5284SOL     OW16750   5.699   4.638   3.297
 5284SOL    HW116751   5.637   4.602   3.366
 5284SOL    HW216752   5.714   4.570   3.226
 5285SOL     OW16753   3.026   4.863   4.287
 5285SOL    HW116754   3.120   4.894   4.303
 5285SOL    HW216755   2.967   4.943   4.273
 5286SOL     OW16756   2.391   4.501   1.064
 5286SOL    HW116757   2.305   4.538   1.027
 5286SOL    HW216758   2.387   4.501   1.164
 5287SOL     OW16759   2.661   1.352   0.846
 5287SOL    HW116760   2.670   1.358   0.946
 5287SOL    HW216761   2.730   1.290   0.810
 5288SOL     OW16762   3.764   0.002   1.562
 5288SOL    HW116763   3.677   6.985   1.591
 5288SOL    HW216764   3.826   0.009   1.641
 5289SOL     OW16765   1.613   4.865   6.978
 5289SOL    HW116766   1.581   4.931   6.909
 5289SOL    HW216767   1.597   4.772   6.945
 5290SOL     OW16768   2.653   4.901   6.304
 5290SOL    HW116769   2.691   4.864   6.220
 5290SOL    HW216770   2.621   4.995   6.287
 5291SOL     OW16771   2.749   5.447   5.468
 5291SOL    HW116772   2.707   5.362   5.436
 5291SOL    HW216773   2.778   5.502   5.390
 5292SOL     OW16774   6.110   2.898   0.499
 5292SOL    HW116775   6.094   2.910   0.401
 5292SOL    HW216776   6.032   2.935   0.551
 5293SOL     OW16777   0.775   0.833   4.703
 5293SOL    HW116778   0.728   0.890   4.636
 5293SOL    HW216779   0.782   0.740   4.669
 5294SOL     OW16780   5.268   3.573   6.543
 5294SOL    HW116781   5.359   3.545   6.573
 5294SOL    HW216782   5.253   3.669   6.568
 5295SOL     OW16783   5.370   1.180   2.805
 5295SOL    HW116784   5.339   1.127   2.884
 5295SOL    HW216785   5.377   1.120   2.725
 5296SOL     OW16786   1.516   5.319   6.751
 5296SOL    HW116787   1.562   5.336   6.664
 5296SOL    HW216788   1.528   5.398   6.811
 5297SOL     OW16789   1.606   2.633   0.990
 5297SOL    HW116790   1.551   2.573   0.932
 5297SOL    HW216791   1.640   2.581   1.069
 5298SOL     OW16792   6.403   5.867   1.971
 5298SOL    HW116793   6.454   5.910   2.046
 5298SOL    HW216794   6.311   5.842   2.003
 5299SOL     OW16795   2.384   0.636   1.357
 5299SOL    HW116796   2.369   0.682   1.269
 5299SOL    HW216797   2.321   0.674   1.425
 5300SOL     OW16798   0.319   5.604   3.197
 5300SOL    HW116799   0.232   5.556   3.199
 5300SOL    HW216800   0.393   5.539   3.217
 5301SOL     OW16801   3.867   1.288   0.208
 5301SOL    HW116802   3.843   1.383   0.227
 5301SOL    HW216803   3.870   1.237   0.295
 5302SOL     OW16804   6.402   4.269   2.138
 5302SOL    HW116805   6.309   4.240   2.161
 5302SOL    HW216806   6.409   4.368   2.146
 5303SOL     OW16807   6.234   5.701   3.977
 5303SOL    HW116808   6.227   5.603   3.960
 5303SOL    HW216809   6.210   5.751   3.894
 5304SOL     OW16810   4.960   2.124   6.291
 5304SOL    HW116811   4.924   2.211   6.259
 5304SOL    HW216812   5.049   2.139   6.335
 5305SOL     OW16813   1.631   0.895   4.436
 5305SOL    HW116814   1.634   0.941   4.525
 5305SOL    HW216815   1.633   0.963   4.363
 5306SOL     OW16816   2.678   6.072   5.572
 5306SOL    HW116817   2.626   6.036   5.494
 5306SOL    HW216818   2.759   6.015   5.587
 5307SOL     OW16819   4.509   6.214   6.213
 5307SOL    HW116820   4.443   6.155   6.165
 5307SOL    HW216821   4.466   6.252   6.295
 5308SOL     OW16822   0.169   0.628   3.815
 5308SOL    HW116823   0.129   0.546   3.773
 5308SOL    HW216824   0.226   0.602   3.892
 5309SOL     OW16825   4.101   3.638   3.369
 5309SOL    HW116826   4.168   3.667   3.438
 5309SOL    HW216827   4.128   3.550   3.330
 5310SOL     OW16828   4.940   2.608   1.785
 5310SOL    HW116829   5.016   2.640   1.842
 5310SOL    HW216830   4.874   2.682   1.772
 5311SOL     OW16831   1.052   5.818   6.808
 5311SOL    HW116832   1.085   5.824   6.714
 5311SOL    HW216833   1.105   5.880   6.866
 5312SOL     OW16834   0.895   4.798   2.228
 5312SOL    HW116835   0.824   4.848   2.278
 5312SOL    HW216836   0.976   4.787   2.287
 5313SOL     OW16837   0.722   5.412   6.758
 5313SOL    HW116838   0.707   5.320   6.796
 5313SOL    HW216839   0.816   5.441   6.779
 5314SOL     OW16840   4.207   5.256   0.312
 5314SOL    HW116841   4.267   5.180   0.333
 5314SOL    HW216842   4.261   5.337   0.292
 5315SOL     OW16843   4.781   4.192   1.926
 5315SOL    HW116844   4.683   4.207   1.944
 5315SOL    HW216845   4.792   4.116   1.863
 5316SOL     OW16846   0.204   5.461   4.703
 5316SOL    HW116847   0.137   5.402   4.749
 5316SOL    HW216848   0.220   5.427   4.610
 5317SOL     OW16849   5.651   0.997   3.484
 5317SOL    HW116850   5.564   0.950   3.474
 5317SOL    HW216851   5.650   1.055   3.565
 5318SOL     OW16852   6.849   2.396   4.902
 5318SOL    HW116853   6.850   2.400   4.802
 5318SOL    HW216854   6.942   2.397   4.937
 5319SOL     OW16855   5.646   0.111   6.463
 5319SOL    HW116856   5.678   0.105   6.369
 5319SOL    HW216857   5.586   0.191   6.473
 5320SOL     OW16858   6.042   4.474   6.691
 5320SOL    HW116859   6.041   4.566   6.652
 5320SOL    HW216860   6.052   4.480   6.791
 5321SOL     OW16861   1.604   4.962   4.187
 5321SOL    HW116862   1.568   4.929   4.274
 5321SOL    HW216863   1.531   4.962   4.118
 5322SOL     OW16864   3.604   6.348   6.980
 5322SOL    HW116865   3.504   6.341   6.979
 5322SOL    HW216866   3.635   6.359   0.051
 5323SOL     OW16867   4.085   2.161   0.992
 5323SOL    HW116868   4.172   2.209   0.979
 5323SOL    HW216869   4.030   2.168   0.909
 5324SOL     OW16870   3.848   2.017   1.919
 5324SOL    HW116871   3.813   1.927   1.947
 5324SOL    HW216872   3.782   2.062   1.859
 5325SOL     OW16873   4.674   6.585   2.657
 5325SOL    HW116874   4.751   6.562   2.717
 5325SOL    HW216875   4.693   6.552   2.565
 5326SOL     OW16876   0.072   5.691   1.618
 5326SOL    HW116877   0.006   5.755   1.577
 5326SOL    HW216878   0.032   5.651   1.700
 5327SOL     OW16879   0.379   6.398   4.406
 5327SOL    HW116880   0.350   6.367   4.496
 5327SOL    HW216881   0.299   6.427   4.353
 5328SOL     OW16882   3.625   3.397   6.002
 5328SOL    HW116883   3.526   3.402   6.020
 5328SOL    HW216884   3.662   3.490   5.992
 5329SOL     OW16885   0.250   4.431   0.315
 5329SOL    HW116886   0.328   4.480   0.275
 5329SOL    HW216887   0.256   4.334   0.289
 5330SOL     OW16888   4.230   3.383   6.982
 5330SOL    HW116889   4.186   3.428   6.904
 5330SOL    HW216890   4.300   3.444   7.020
 5331SOL     OW16891   4.642   2.400   0.844
 5331SOL    HW116892   4.710   2.472   0.831
 5331SOL    HW216893   4.569   2.433   0.903
 5332SOL     OW16894   6.252   5.084   0.226
 5332SOL    HW116895   6.308   5.114   0.304
 5332SOL    HW216896   6.234   5.162   0.166
 5333SOL     OW16897   2.066   0.812   3.714
 5333SOL    HW116898   2.145   0.868   3.690
 5333SOL    HW216899   2.002   0.810   3.637
 5334SOL     OW16900   4.539   4.762   3.743
 5334SOL    HW116901   4.523   4.799   3.834
 5334SOL    HW216902   4.504   4.669   3.738
 5335SOL     OW16903   6.488   4.504   2.389
 5335SOL    HW116904   6.497   4.584   2.448
 5335SOL    HW216905   6.400   4.460   2.406
 5336SOL     OW16906   2.074   1.672   4.144
 5336SOL    HW116907   2.000   1.695   4.207
 5336SOL    HW216908   2.101   1.754   4.093
 5337SOL     OW16909   6.098   4.635   1.296
 5337SOL    HW116910   6.186   4.626   1.249
 5337SOL    HW216911   6.111   4.623   1.394
 5338SOL     OW16912   6.029   2.790   6.766
 5338SOL    HW116913   6.082   2.834   6.838
 5338SOL    HW216914   6.043   2.691   6.770
 5339SOL     OW16915   5.977   2.126   2.231
 5339SOL    HW116916   6.030   2.057   2.180
 5339SOL    HW216917   5.903   2.161   2.173
 5340SOL     OW16918   5.244   3.116   2.137
 5340SOL    HW116919   5.262   3.213   2.118
 5340SOL    HW216920   5.184   3.108   2.216
 5341SOL     OW16921   4.690   4.668   3.230
 5341SOL    HW116922   4.646   4.672   3.320
 5341SOL    HW216923   4.620   4.675   3.159
 5342SOL     OW16924   5.891   6.849   5.765
 5342SOL    HW116925   5.913   6.823   5.671
 5342SOL    HW216926   5.969   6.832   5.824
 5343SOL     OW16927   3.767   3.650   4.980
 5343SOL    HW116928   3.854   3.614   4.946
 5343SOL    HW216929   3.691   3.603   4.935
 5344SOL     OW16930   0.762   1.478   0.199
 5344SOL    HW116931   0.799   1.474   0.107
 5344SOL    HW216932   0.789   1.396   0.249
 5345SOL     OW16933   4.457   1.373   6.989
 5345SOL    HW116934   4.436   1.331   6.900
 5345SOL    HW216935   4.377   1.364   0.026
 5346SOL     OW16936   2.421   4.984   3.744
 5346SOL    HW116937   2.431   4.975   3.843
 5346SOL    HW216938   2.511   4.991   3.702
 5347SOL     OW16939   6.804   2.644   3.503
 5347SOL    HW116940   6.873   2.716   3.517
 5347SOL    HW216941   6.800   2.621   3.406
 5348SOL     OW16942   6.044   1.580   4.985
 5348SOL    HW116943   5.989   1.661   5.007
 5348SOL    HW216944   6.000   1.528   4.912
 5349SOL     OW16945   0.418   2.688   2.012
 5349SOL    HW116946   0.493   2.703   1.946
 5349SOL    HW216947   0.353   2.623   1.973
 5350SOL     OW16948   1.485   0.064   5.767
 5350SOL    HW116949   1.479   6.990   5.794
 5350SOL    HW216950   1.486   0.121   5.849
 5351SOL     OW16951   0.296   5.606   1.457
 5351SOL    HW116952   0.239   5.649   1.527
 5351SOL    HW216953   0.248   5.527   1.418
 5352SOL     OW16954   1.841   4.120   2.867
 5352SOL    HW116955   1.775   4.192   2.890
 5352SOL    HW216956   1.810   4.033   2.905
 5353SOL     OW16957   3.838   5.402   3.869
 5353SOL    HW116958   3.870   5.375   3.960
 5353SOL    HW216959   3.898   5.363   3.800
 5354SOL     OW16960   3.621   4.752   0.465
 5354SOL    HW116961   3.570   4.666   0.474
 5354SOL    HW216962   3.719   4.733   0.471
 5355SOL     OW16963   5.028   5.477   5.285
 5355SOL    HW116964   4.965   5.406   5.315
 5355SOL    HW216965   5.082   5.509   5.363
 5356SOL     OW16966   6.925   3.783   1.688
 5356SOL    HW116967   6.852   3.752   1.627
 5356SOL    HW216968   6.983   3.705   1.713
 5357SOL     OW16969   4.383   4.654   1.812
 5357SOL    HW116970   4.331   4.632   1.895
 5357SOL    HW216971   4.441   4.577   1.787
 5358SOL     OW16972   4.191   1.402   0.029
 5358SOL    HW116973   4.128   1.472   0.061
 5358SOL    HW216974   4.152   1.311   0.047
 5359SOL     OW16975   2.242   2.003   0.399
 5359SOL    HW116976   2.154   2.016   0.352
 5359SOL    HW216977   2.232   1.935   0.471
 5360SOL     OW16978   5.361   5.066   3.839
 5360SOL    HW116979   5.408   5.154   3.845
 5360SOL    HW216980   5.280   5.075   3.781
 5361SOL     OW16981   3.326   6.028   2.822
 5361SOL    HW116982   3.410   5.999   2.777
 5361SOL    HW216983   3.347   6.093   2.894
 5362SOL     OW16984   5.363   6.701   2.650
 5362SOL    HW116985   5.319   6.626   2.600
 5362SOL    HW216986   5.350   6.688   2.748
 5363SOL     OW16987   5.377   6.453   4.981
 5363SOL    HW116988   5.390   6.523   5.052
 5363SOL    HW216989   5.466   6.430   4.941
 5364SOL     OW16990   5.541   0.721   2.487
 5364SOL    HW116991   5.476   0.745   2.415
 5364SOL    HW216992   5.625   0.685   2.446
 5365SOL     OW16993   3.384   3.238   3.383
 5365SOL    HW116994   3.386   3.140   3.365
 5365SOL    HW216995   3.387   3.288   3.296
 5366SOL     OW16996   7.005   0.124   1.525
 5366SOL    HW116997   0.023   0.175   1.449
 5366SOL    HW216998   6.911   0.154   1.538
 5367SOL     OW16999   5.848   0.367   0.574
 5367SOL    HW117000   5.928   0.402   0.525
 5367SOL    HW217001   5.830   0.423   0.654
 5368SOL     OW17002   6.919   5.867   1.990
 5368SOL    HW117003   6.938   5.965   1.982
 5368SOL    HW217004   6.821   5.851   1.979
 5369SOL     OW17005   2.843   4.932   1.678
 5369SOL    HW117006   2.808   4.842   1.650
 5369SOL    HW217007   2.822   4.947   1.774
 5370SOL     OW17008   3.712   3.658   1.507
 5370SOL    HW117009   3.811   3.665   1.497
 5370SOL    HW217010   3.690   3.607   1.591
 5371SOL     OW17011   6.561   5.156   4.946
 5371SOL    HW117012   6.543   5.075   4.889
 5371SOL    HW217013   6.510   5.234   4.909
 5372SOL     OW17014   2.143   6.916   3.155
 5372SOL    HW117015   2.094   6.968   3.225
 5372SOL    HW217016   2.111   6.943   3.064
 5373SOL     OW17017   4.313   6.690   5.958
 5373SOL    HW117018   4.235   6.654   5.906
 5373SOL    HW217019   4.329   6.633   6.039
 5374SOL     OW17020   2.507   4.867   1.355
 5374SOL    HW117021   2.431   4.804   1.340
 5374SOL    HW217022   2.472   4.956   1.384
 5375SOL     OW17023   0.403   6.685   5.602
 5375SOL    HW117024   0.315   6.666   5.556
 5375SOL    HW217025   0.388   6.750   5.676
 5376SOL     OW17026   1.454   2.454   1.605
 5376SOL    HW117027   1.366   2.411   1.628
 5376SOL    HW217028   1.510   2.389   1.553
 5377SOL     OW17029   2.135   0.814   3.122
 5377SOL    HW117030   2.165   0.848   3.211
 5377SOL    HW217031   2.160   0.718   3.113
 5378SOL     OW17032   5.396   0.836   0.958
 5378SOL    HW117033   5.355   0.791   1.038
 5378SOL    HW217034   5.386   0.777   0.878
 5379SOL     OW17035   1.646   2.526   5.367
 5379SOL    HW117036   1.558   2.481   5.352
 5379SOL    HW217037   1.662   2.593   5.295
 5380SOL     OW17038   3.702   0.176   1.366
 5380SOL    HW117039   3.662   0.243   1.429
 5380SOL    HW217040   3.756   0.110   1.418
 5381SOL     OW17041   5.662   6.651   2.707
 5381SOL    HW117042   5.627   6.561   2.732
 5381SOL    HW217043   5.588   6.706   2.668
 5382SOL     OW17044   4.284   1.687   2.730
 5382SOL    HW117045   4.270   1.703   2.632
 5382SOL    HW217046   4.305   1.773   2.775
 5383SOL     OW17047   1.049   3.057   3.789
 5383SOL    HW117048   1.015   3.105   3.870
 5383SOL    HW217049   1.057   2.959   3.809
 5384SOL     OW17050   4.414   5.518   5.239
 5384SOL    HW117051   4.401   5.514   5.338
 5384SOL    HW217052   4.490   5.580   5.218
 5385SOL     OW17053   6.699   2.720   6.040
 5385SOL    HW117054   6.762   2.661   5.989
 5385SOL    HW217055   6.605   2.691   6.022
 5386SOL     OW17056   5.941   3.089   3.869
 5386SOL    HW117057   5.881   3.169   3.870
 5386SOL    HW217058   5.920   3.033   3.788
 5387SOL     OW17059   2.755   0.059   2.974
 5387SOL    HW117060   2.732   0.047   3.071
 5387SOL    HW217061   2.801   7.000   2.940
 5388SOL     OW17062   0.669   6.374   2.684
 5388SOL    HW117063   0.642   6.354   2.778
 5388SOL    HW217064   0.732   6.303   2.652
 5389SOL     OW17065   4.673   1.976   4.917
 5389SOL    HW117066   4.623   1.892   4.896
 5389SOL    HW217067   4.654   2.044   4.846
 5390SOL     OW17068   6.294   3.411   3.884
 5390SOL    HW117069   6.282   3.474   3.808
 5390SOL    HW217070   6.252   3.323   3.862
 5391SOL     OW17071   2.277   2.584   0.232
 5391SOL    HW117072   2.206   2.640   0.188
 5391SOL    HW217073   2.233   2.520   0.295
 5392SOL     OW17074   4.581   2.532   3.482
 5392SOL    HW117075   4.608   2.514   3.387
 5392SOL    HW217076   4.635   2.609   3.518
 5393SOL     OW17077   4.236   0.152   5.066
 5393SOL    HW117078   4.231   0.053   5.057
 5393SOL    HW217079   4.314   0.177   5.123
 5394SOL     OW17080   1.466   0.024   1.032
 5394SOL    HW117081   1.375   7.007   1.022
 5394SOL    HW217082   1.481   0.049   1.127
 5395SOL     OW17083   5.026   1.472   1.117
 5395SOL    HW117084   4.952   1.539   1.115
 5395SOL    HW217085   5.002   1.395   1.057
 5396SOL     OW17086   5.654   5.687   2.581
 5396SOL    HW117087   5.732   5.733   2.624
 5396SOL    HW217088   5.577   5.686   2.645
 5397SOL     OW17089   6.128   2.018   2.664
 5397SOL    HW117090   6.143   1.919   2.665
 5397SOL    HW217091   6.108   2.050   2.757
 5398SOL     OW17092   4.796   2.197   4.193
 5398SOL    HW117093   4.816   2.266   4.263
 5398SOL    HW217094   4.739   2.237   4.122
 5399SOL     OW17095   1.570   0.121   5.154
 5399SOL    HW117096   1.607   0.116   5.061
 5399SOL    HW217097   1.479   0.080   5.156
 5400SOL     OW17098   3.635   2.788   0.800
 5400SOL    HW117099   3.616   2.840   0.883
 5400SOL    HW217100   3.681   2.847   0.734
 5401SOL     OW17101   5.178   5.005   3.091
 5401SOL    HW117102   5.192   4.911   3.060
 5401SOL    HW217103   5.092   5.040   3.053
 5402SOL     OW17104   2.476   7.018   0.788
 5402SOL    HW117105   2.568   0.032   0.777
 5402SOL    HW217106   2.426   0.004   0.702
 5403SOL     OW17107   5.463   3.204   0.102
 5403SOL    HW117108   5.448   3.159   0.190
 5403SOL    HW217109   5.377   3.209   0.052
 5404SOL     OW17110   0.749   0.999   0.963
 5404SOL    HW117111   0.816   0.949   0.908
 5404SOL    HW217112   0.674   1.030   0.904
 5405SOL     OW17113   5.341   5.784   0.435
 5405SOL    HW117114   5.431   5.745   0.412
 5405SOL    HW217115   5.322   5.860   0.373
 5406SOL     OW17116   2.504   0.578   4.661
 5406SOL    HW117117   2.414   0.536   4.671
 5406SOL    HW217118   2.565   0.543   4.731
 5407SOL     OW17119   2.629   0.766   1.364
 5407SOL    HW117120   2.551   0.703   1.372
 5407SOL    HW217121   2.596   0.860   1.368
 5408SOL     OW17122   2.686   1.767   4.190
 5408SOL    HW117123   2.719   1.858   4.215
 5408SOL    HW217124   2.593   1.754   4.226
 5409SOL     OW17125   6.702   2.667   1.419
 5409SOL    HW117126   6.695   2.648   1.517
 5409SOL    HW217127   6.675   2.762   1.402
 5410SOL     OW17128   0.375   2.462   1.164
 5410SOL    HW117129   0.432   2.420   1.093
 5410SOL    HW217130   0.339   2.392   1.225
 5411SOL     OW17131   4.969   4.806   6.793
 5411SOL    HW117132   5.000   4.747   6.868
 5411SOL    HW217133   4.872   4.827   6.806
 5412SOL     OW17134   1.357   1.643   6.564
 5412SOL    HW117135   1.298   1.722   6.546
 5412SOL    HW217136   1.389   1.604   6.478
 5413SOL     OW17137   6.297   0.443   5.170
 5413SOL    HW117138   6.346   0.404   5.248
 5413SOL    HW217139   6.264   0.535   5.193
 5414SOL     OW17140   6.973   4.684   5.356
 5414SOL    HW117141   6.887   4.698   5.404
 5414SOL    HW217142   0.015   4.755   5.383
 5415SOL     OW17143   2.595   6.539   0.409
 5415SOL    HW117144   2.661   6.467   0.431
 5415SOL    HW217145   2.636   6.628   0.426
 5416SOL     OW17146   2.614   5.463   5.103
 5416SOL    HW117147   2.611   5.375   5.150
 5416SOL    HW217148   2.664   5.454   5.017
 5417SOL     OW17149   4.705   6.326   3.724
 5417SOL    HW117150   4.672   6.407   3.772
 5417SOL    HW217151   4.632   6.258   3.721
 5418SOL     OW17152   5.850   4.705   4.135
 5418SOL    HW117153   5.888   4.754   4.214
 5418SOL    HW217154   5.891   4.739   4.051
 5419SOL     OW17155   4.328   6.757   6.834
 5419SOL    HW117156   4.255   6.818   6.867
 5419SOL    HW217157   4.290   6.667   6.815
 5420SOL     OW17158   1.241   1.713   1.514
 5420SOL    HW117159   1.168   1.647   1.494
 5420SOL    HW217160   1.215   1.802   1.477
 5421SOL     OW17161   3.483   5.443   2.091
 5421SOL    HW117162   3.418   5.480   2.024
 5421SOL    HW217163   3.502   5.347   2.070
 5422SOL     OW17164   2.223   5.845   4.143
 5422SOL    HW117165   2.163   5.768   4.121
 5422SOL    HW217166   2.207   5.874   4.237
 5423SOL     OW17167   6.678   6.201   2.080
 5423SOL    HW117168   6.611   6.271   2.055
 5423SOL    HW217169   6.730   6.175   1.998
 5424SOL     OW17170   4.734   4.152   5.016
 5424SOL    HW117171   4.736   4.191   4.924
 5424SOL    HW217172   4.699   4.059   5.012
 5425SOL     OW17173   0.312   3.292   5.550
 5425SOL    HW117174   0.257   3.375   5.557
 5425SOL    HW217175   0.399   3.305   5.596
 5426SOL     OW17176   5.177   5.253   2.344
 5426SOL    HW117177   5.167   5.349   2.317
 5426SOL    HW217178   5.111   5.197   2.294
 5427SOL     OW17179   4.826   2.637   6.563
 5427SOL    HW117180   4.884   2.686   6.629
 5427SOL    HW217181   4.766   2.574   6.612
 5428SOL     OW17182   6.242   5.470   2.970
 5428SOL    HW117183   6.181   5.419   2.909
 5428SOL    HW217184   6.244   5.425   3.060
 5429SOL     OW17185   3.334   0.672   3.792
 5429SOL    HW117186   3.430   0.673   3.818
 5429SOL    HW217187   3.277   0.683   3.873
 5430SOL     OW17188   2.324   3.962   6.253
 5430SOL    HW117189   2.411   3.987   6.293
 5430SOL    HW217190   2.306   4.018   6.172
 5431SOL     OW17191   3.514   4.896   6.252
 5431SOL    HW117192   3.461   4.949   6.318
 5431SOL    HW217193   3.603   4.940   6.239
 5432SOL     OW17194   5.738   5.928   1.331
 5432SOL    HW117195   5.777   5.878   1.253
 5432SOL    HW217196   5.638   5.927   1.323
 5433SOL     OW17197   1.438   0.427   1.295
 5433SOL    HW117198   1.527   0.434   1.250
 5433SOL    HW217199   1.371   0.480   1.243
 5434SOL     OW17200   4.916   1.350   4.878
 5434SOL    HW117201   4.888   1.266   4.831
 5434SOL    HW217202   4.837   1.412   4.885
 5435SOL     OW17203   6.497   3.857   0.926
 5435SOL    HW117204   6.537   3.926   0.866
 5435SOL    HW217205   6.562   3.833   0.998
 5436SOL     OW17206   1.476   5.509   2.681
 5436SOL    HW117207   1.489   5.421   2.727
 5436SOL    HW217208   1.395   5.505   2.624
 5437SOL     OW17209   2.943   5.093   6.389
 5437SOL    HW117210   2.891   5.069   6.471
 5437SOL    HW217211   2.970   5.189   6.394
 5438SOL     OW17212   4.819   3.978   2.094
 5438SOL    HW117213   4.834   4.060   2.038
 5438SOL    HW217214   4.861   3.899   2.048
 5439SOL     OW17215   0.792   4.043   0.752
 5439SOL    HW117216   0.890   4.028   0.742
 5439SOL    HW217217   0.772   4.071   0.846
 5440SOL     OW17218   5.660   6.261   3.360
 5440SOL    HW117219   5.722   6.202   3.413
 5440SOL    HW217220   5.587   6.294   3.420
 5441SOL     OW17221   4.787   2.770   4.004
 5441SOL    HW117222   4.740   2.711   3.938
 5441SOL    HW217223   4.858   2.717   4.050
 5442SOL     OW17224   5.350   0.079   4.014
 5442SOL    HW117225   5.430   0.025   4.039
 5442SOL    HW217226   5.378   0.158   3.959
 5443SOL     OW17227   4.985   6.699   5.123
 5443SOL    HW117228   5.003   6.786   5.076
 5443SOL    HW217229   4.892   6.699   5.158
 5444SOL     OW17230   0.212   1.515   3.952
 5444SOL    HW117231   0.276   1.592   3.952
 5444SOL    HW217232   0.231   1.456   4.030
 5445SOL     OW17233   4.892   5.282   5.436
 5445SOL    HW117234   4.894   5.184   5.453
 5445SOL    HW217235   4.910   5.331   5.521
 5446SOL     OW17236   0.234   4.813   5.093
 5446SOL    HW117237   0.169   4.888   5.078
 5446SOL    HW217238   0.254   4.805   5.190
 5447SOL     OW17239   1.545   1.857   1.174
 5447SOL    HW117240   1.469   1.914   1.203
 5447SOL    HW217241   1.627   1.882   1.226
 5448SOL     OW17242   4.585   6.086   3.678
 5448SOL    HW117243   4.525   6.010   3.653
 5448SOL    HW217244   4.680   6.059   3.664
 5449SOL     OW17245   3.335   1.389   2.453
 5449SOL    HW117246   3.409   1.322   2.463
 5449SOL    HW217247   3.272   1.357   2.382
 5450SOL     OW17248   4.216   6.254   1.987
 5450SOL    HW117249   4.245   6.164   2.021
 5450SOL    HW217250   4.116   6.259   1.985
 5451SOL     OW17251   1.277   0.480   3.204
 5451SOL    HW117252   1.351   0.496   3.138
 5451SOL    HW217253   1.314   0.489   3.297
 5452SOL     OW17254   1.829   4.697   1.530
 5452SOL    HW117255   1.784   4.787   1.535
 5452SOL    HW217256   1.797   4.649   1.449
 5453SOL     OW17257   5.643   4.125   2.798
 5453SOL    HW117258   5.718   4.061   2.813
 5453SOL    HW217259   5.556   4.076   2.803
 5454SOL     OW17260   5.812   5.865   2.748
 5454SOL    HW117261   5.910   5.859   2.728
 5454SOL    HW217262   5.795   5.948   2.801
 5455SOL     OW17263   0.507   1.682   2.293
 5455SOL    HW117264   0.467   1.595   2.322
 5455SOL    HW217265   0.508   1.746   2.371
 5456SOL     OW17266   4.941   0.645   6.820
 5456SOL    HW117267   4.941   0.702   6.738
 5456SOL    HW217268   4.870   0.678   6.883
 5457SOL     OW17269   6.506   2.240   0.665
 5457SOL    HW117270   6.439   2.297   0.713
 5457SOL    HW217271   6.532   2.285   0.579
 5458SOL     OW17272   6.274   4.579   1.104
 5458SOL    HW117273   6.234   4.526   1.030
 5458SOL    HW217274   6.372   4.590   1.087
 5459SOL     OW17275   1.405   4.575   5.413
 5459SOL    HW117276   1.360   4.506   5.471
 5459SOL    HW217277   1.501   4.583   5.440
 5460SOL     OW17278   1.948   1.611   0.978
 5460SOL    HW117279   1.957   1.594   1.076
 5460SOL    HW217280   1.992   1.536   0.927
 5461SOL     OW17281   0.268   1.698   6.213
 5461SOL    HW117282   0.255   1.750   6.128
 5461SOL    HW217283   0.179   1.685   6.257
 5462SOL     OW17284   5.551   6.488   6.692
 5462SOL    HW117285   5.609   6.538   6.756
 5462SOL    HW217286   5.483   6.551   6.653
 5463SOL     OW17287   7.002   2.497   6.360
 5463SOL    HW117288   0.046   2.437   6.404
 5463SOL    HW217289   6.910   2.465   6.382
 5464SOL     OW17290   6.050   6.225   5.583
 5464SOL    HW117291   5.962   6.220   5.536
 5464SOL    HW217292   6.057   6.150   5.648
 5465SOL     OW17293   6.324   6.885   3.112
 5465SOL    HW117294   6.315   6.981   3.137
 5465SOL    HW217295   6.234   6.846   3.098
 5466SOL     OW17296   5.740   2.362   5.071
 5466SOL    HW117297   5.656   2.325   5.031
 5466SOL    HW217298   5.717   2.422   5.147
 5467SOL     OW17299   5.792   4.110   3.498
 5467SOL    HW117300   5.768   4.024   3.452
 5467SOL    HW217301   5.779   4.186   3.434
 5468SOL     OW17302   6.861   1.969   2.782
 5468SOL    HW117303   6.917   1.886   2.787
 5468SOL    HW217304   6.914   2.042   2.738
 5469SOL     OW17305   2.093   0.842   6.023
 5469SOL    HW117306   2.092   0.763   6.084
 5469SOL    HW217307   2.095   0.926   6.078
 5470SOL     OW17308   3.879   5.441   4.787
 5470SOL    HW117309   3.926   5.449   4.875
 5470SOL    HW217310   3.903   5.519   4.729
 5471SOL     OW17311   5.075   0.048   2.943
 5471SOL    HW117312   5.146   0.100   2.990
 5471SOL    HW217313   5.117   7.013   2.872
 5472SOL     OW17314   2.959   1.964   6.313
 5472SOL    HW117315   2.970   1.879   6.363
 5472SOL    HW217316   2.866   1.968   6.276
 5473SOL     OW17317   1.762   4.638   0.329
 5473SOL    HW117318   1.809   4.627   0.416
 5473SOL    HW217319   1.771   4.733   0.298
 5474SOL     OW17320   1.221   5.667   3.629
 5474SOL    HW117321   1.223   5.661   3.529
 5474SOL    HW217322   1.307   5.706   3.662
 5475SOL     OW17323   1.707   2.055   0.279
 5475SOL    HW117324   1.680   2.028   0.372
 5475SOL    HW217325   1.684   1.983   0.215
 5476SOL     OW17326   2.053   5.228   5.309
 5476SOL    HW117327   2.110   5.299   5.268
 5476SOL    HW217328   1.957   5.254   5.301
 5477SOL     OW17329   1.686   4.345   2.943
 5477SOL    HW117330   1.700   4.407   2.866
 5477SOL    HW217331   1.718   4.388   3.027
 5478SOL     OW17332   5.378   5.626   6.338
 5478SOL    HW117333   5.279   5.641   6.340
 5478SOL    HW217334   5.399   5.550   6.277
 5479SOL     OW17335   4.395   1.474   4.347
 5479SOL    HW117336   4.307   1.434   4.367
 5479SOL    HW217337   4.466   1.403   4.347
 5480SOL     OW17338   6.158   4.972   4.732
 5480SOL    HW117339   6.077   4.926   4.696
 5480SOL    HW217340   6.148   5.071   4.718
 5481SOL     OW17341   4.126   0.831   5.848
 5481SOL    HW117342   4.219   0.835   5.884
 5481SOL    HW217343   4.123   0.771   5.768
 5482SOL     OW17344   3.729   3.520   2.244
 5482SOL    HW117345   3.745   3.500   2.147
 5482SOL    HW217346   3.745   3.438   2.298
 5483SOL     OW17347   6.640   2.897   5.668
 5483SOL    HW117348   6.623   2.815   5.613
 5483SOL    HW217349   6.717   2.881   5.729
 5484SOL     OW17350   6.603   6.699   3.873
 5484SOL    HW117351   6.566   6.625   3.930
 5484SOL    HW217352   6.681   6.665   3.821
 5485SOL     OW17353   2.630   0.277   4.381
 5485SOL    HW117354   2.683   0.345   4.432
 5485SOL    HW217355   2.562   0.323   4.324
 5486SOL     OW17356   1.414   0.309   3.964
 5486SOL    HW117357   1.357   0.253   4.024
 5486SOL    HW217358   1.372   0.314   3.873
 5487SOL     OW17359   6.040   3.915   6.717
 5487SOL    HW117360   6.048   3.931   6.816
 5487SOL    HW217361   6.036   3.816   6.701
 5488SOL     OW17362   4.577   1.548   0.256
 5488SOL    HW117363   4.545   1.642   0.246
 5488SOL    HW217364   4.518   1.487   0.202
 5489SOL     OW17365   1.402   4.298   2.117
 5489SOL    HW117366   1.325   4.360   2.102
 5489SOL    HW217367   1.368   4.210   2.151
 5490SOL     OW17368   2.998   6.830   0.294
 5490SOL    HW117369   3.086   6.877   0.301
 5490SOL    HW217370   2.924   6.895   0.308
 5491SOL     OW17371   1.336   4.503   6.316
 5491SOL    HW117372   1.284   4.433   6.364
 5491SOL    HW217373   1.347   4.583   6.375
 5492SOL     OW17374   1.316   1.241   6.038
 5492SOL    HW117375   1.310   1.195   6.126
 5492SOL    HW217376   1.317   1.172   5.965
 5493SOL     OW17377   3.752   2.961   5.028
 5493SOL    HW117378   3.747   3.060   5.023
 5493SOL    HW217379   3.797   2.935   5.114
 5494SOL     OW17380   6.727   2.795   0.425
 5494SOL    HW117381   6.650   2.747   0.468
 5494SOL    HW217382   6.812   2.771   0.472
 5495SOL     OW17383   3.299   2.980   0.485
 5495SOL    HW117384   3.325   3.021   0.572
 5495SOL    HW217385   3.219   2.921   0.499
 5496SOL     OW17386   3.430   6.065   1.620
 5496SOL    HW117387   3.457   6.161   1.615
 5496SOL    HW217388   3.365   6.046   1.547
 5497SOL     OW17389   0.105   2.278   3.114
 5497SOL    HW117390   0.186   2.226   3.086
 5497SOL    HW217391   0.076   2.337   3.039
 5498SOL     OW17392   4.867   1.052   0.366
 5498SOL    HW117393   4.845   1.148   0.383
 5498SOL    HW217394   4.922   1.017   0.442
 5499SOL     OW17395   0.848   1.252   3.628
 5499SOL    HW117396   0.798   1.283   3.547
 5499SOL    HW217397   0.816   1.303   3.708
 5500SOL     OW17398   2.000   5.980   6.966
 5500SOL    HW117399   2.085   5.977   7.018
 5500SOL    HW217400   2.007   6.047   6.892
 5501SOL     OW17401   3.526   6.919   1.652
 5501SOL    HW117402   3.429   6.906   1.673
 5501SOL    HW217403   3.581   6.885   1.728
 5502SOL     OW17404   5.985   4.384   5.964
 5502SOL    HW117405   5.979   4.339   6.053
 5502SOL    HW217406   5.932   4.331   5.897
 5503SOL     OW17407   0.825   4.974   2.826
 5503SOL    HW117408   0.836   4.984   2.925
 5503SOL    HW217409   0.741   5.019   2.797
 5504SOL     OW17410   2.758   0.989   4.840
 5504SOL    HW117411   2.691   1.059   4.863
 5504SOL    HW217412   2.780   0.936   4.922
 5505SOL     OW17413   1.914   6.022   4.778
 5505SOL    HW117414   1.898   6.057   4.685
 5505SOL    HW217415   1.917   6.099   4.842
 5506SOL     OW17416   6.714   0.102   5.219
 5506SOL    HW117417   6.638   0.038   5.207
 5506SOL    HW217418   6.787   0.058   5.271
 5507SOL     OW17419   3.023   6.653   3.303
 5507SOL    HW117420   2.947   6.672   3.241
 5507SOL    HW217421   3.094   6.603   3.254
 5508SOL     OW17422   2.534   0.973   0.297
 5508SOL    HW117423   2.538   1.071   0.315
 5508SOL    HW217424   2.595   0.951   0.221
 5509SOL     OW17425   6.973   6.319   0.668
 5509SOL    HW117426   0.017   6.388   0.639
 5509SOL    HW217427   7.002   6.229   0.636
 5510SOL     OW17428   5.236   6.608   0.222
 5510SOL    HW117429   5.227   6.607   0.122
 5510SOL    HW217430   5.327   6.642   0.246
 5511SOL     OW17431   1.890   0.354   3.469
 5511SOL    HW117432   1.867   0.372   3.374
 5511SOL    HW217433   1.891   0.255   3.485
 5512SOL     OW17434   6.347   2.028   0.613
 5512SOL    HW117435   6.276   2.069   0.556
 5512SOL    HW217436   6.407   2.100   0.648
 5513SOL     OW17437   5.092   4.257   5.199
 5513SOL    HW117438   5.082   4.292   5.106
 5513SOL    HW217439   5.014   4.287   5.255
 5514SOL     OW17440   5.092   5.659   2.839
 5514SOL    HW117441   5.112   5.725   2.911
 5514SOL    HW217442   5.161   5.586   2.841
 5515SOL     OW17443   6.499   3.622   0.769
 5515SOL    HW117444   6.509   3.705   0.824
 5515SOL    HW217445   6.585   3.571   0.771
 5516SOL     OW17446   1.312   2.993   0.299
 5516SOL    HW117447   1.270   2.907   0.271
 5516SOL    HW217448   1.411   2.986   0.287
 5517SOL     OW17449   2.689   2.409   2.539
 5517SOL    HW117450   2.750   2.418   2.618
 5517SOL    HW217451   2.734   2.356   2.468
 5518SOL     OW17452   6.564   5.879   5.745
 5518SOL    HW117453   6.628   5.820   5.794
 5518SOL    HW217454   6.567   5.971   5.785
 5519SOL     OW17455   5.045   3.679   2.986
 5519SOL    HW117456   5.010   3.653   2.897
 5519SOL    HW217457   5.030   3.777   3.001
 5520SOL     OW17458   0.585   4.620   2.689
 5520SOL    HW117459   0.665   4.634   2.748
 5520SOL    HW217460   0.556   4.525   2.694
 5521SOL     OW17461   4.354   5.713   2.338
 5521SOL    HW117462   4.420   5.731   2.411
 5521SOL    HW217463   4.396   5.650   2.271
 5522SOL     OW17464   1.880   3.318   0.948
 5522SOL    HW117465   1.831   3.281   1.026
 5522SOL    HW217466   1.849   3.273   0.864
 5523SOL     OW17467   3.323   6.480   2.863
 5523SOL    HW117468   3.390   6.503   2.792
 5523SOL    HW217469   3.276   6.563   2.893
 5524SOL     OW17470   0.004   5.952   4.915
 5524SOL    HW117471   7.005   5.880   4.981
 5524SOL    HW217472   0.103   5.967   4.912
 5525SOL     OW17473   6.458   4.407   0.130
 5525SOL    HW117474   6.492   4.399   0.037
 5525SOL    HW217475   6.366   4.369   0.135
 5526SOL     OW17476   5.723   3.883   4.724
 5526SOL    HW117477   5.767   3.945   4.659
 5526SOL    HW217478   5.791   3.818   4.760
 5527SOL     OW17479   0.909   3.498   3.226
 5527SOL    HW117480   0.878   3.565   3.294
 5527SOL    HW217481   0.995   3.529   3.185
 5528SOL     OW17482   0.837   2.210   5.880
 5528SOL    HW117483   0.895   2.130   5.895
 5528SOL    HW217484   0.742   2.186   5.895
 5529SOL     OW17485   2.245   0.319   4.433
 5529SOL    HW117486   2.320   0.255   4.451
 5529SOL    HW217487   2.239   0.385   4.508
 5530SOL     OW17488   0.019   2.013   2.217
 5530SOL    HW117489   6.968   1.999   2.283
 5530SOL    HW217490   7.018   1.972   2.129
 5531SOL     OW17491   4.099   3.536   4.057
 5531SOL    HW117492   4.035   3.481   4.004
 5531SOL    HW217493   4.123   3.487   4.141
 5532SOL     OW17494   1.624   1.494   1.218
 5532SOL    HW117495   1.606   1.495   1.119
 5532SOL    HW217496   1.625   1.399   1.251
 5533SOL     OW17497   2.605   0.413   2.992
 5533SOL    HW117498   2.698   0.379   3.011
 5533SOL    HW217499   2.612   0.499   2.941
 5534SOL     OW17500   1.281   3.297   6.592
 5534SOL    HW117501   1.325   3.299   6.502
 5534SOL    HW217502   1.348   3.323   6.662
 5535SOL     OW17503   0.126   3.512   3.183
 5535SOL    HW117504   0.161   3.450   3.113
 5535SOL    HW217505   0.082   3.459   3.255
 5536SOL     OW17506   3.125   0.985   4.223
 5536SOL    HW117507   3.165   1.048   4.289
 5536SOL    HW217508   3.167   1.001   4.133
 5537SOL     OW17509   3.294   1.391   4.283
 5537SOL    HW117510   3.200   1.360   4.295
 5537SOL    HW217511   3.295   1.473   4.226
 5538SOL     OW17512   3.125   0.219   4.642
 5538SOL    HW117513   3.221   0.243   4.658
 5538SOL    HW217514   3.098   0.248   4.550
 5539SOL     OW17515   0.581   1.788   0.731
 5539SOL    HW117516   0.526   1.747   0.803
 5539SOL    HW217517   0.584   1.727   0.652
 5540SOL     OW17518   5.054   3.434   2.393
 5540SOL    HW117519   5.024   3.452   2.299
 5540SOL    HW217520   5.011   3.350   2.426
 5541SOL     OW17521   5.279   2.855   5.831
 5541SOL    HW117522   5.300   2.875   5.736
 5541SOL    HW217523   5.362   2.863   5.886
 5542SOL     OW17524   5.905   6.157   5.987
 5542SOL    HW117525   5.935   6.251   5.995
 5542SOL    HW217526   5.954   6.100   6.053
 5543SOL     OW17527   1.672   5.151   6.370
 5543SOL    HW117528   1.696   5.138   6.274
 5543SOL    HW217529   1.683   5.247   6.394
 5544SOL     OW17530   5.303   5.294   5.879
 5544SOL    HW117531   5.345   5.257   5.963
 5544SOL    HW217532   5.340   5.385   5.861
 5545SOL     OW17533   5.128   0.987   2.407
 5545SOL    HW117534   5.070   1.012   2.329
 5545SOL    HW217535   5.118   1.056   2.479
 5546SOL     OW17536   1.260   6.286   4.085
 5546SOL    HW117537   1.325   6.214   4.107
 5546SOL    HW217538   1.235   6.281   3.989
 5547SOL     OW17539   4.067   0.913   4.921
 5547SOL    HW117540   4.110   0.983   4.863
 5547SOL    HW217541   4.139   0.858   4.964
 5548SOL     OW17542   6.556   3.824   5.567
 5548SOL    HW117543   6.522   3.733   5.541
 5548SOL    HW217544   6.479   3.883   5.589
 5549SOL     OW17545   3.836   4.359   1.291
 5549SOL    HW117546   3.915   4.329   1.344
 5549SOL    HW217547   3.854   4.343   1.194
 5550SOL     OW17548   2.451   4.472   2.164
 5550SOL    HW117549   2.390   4.540   2.122
 5550SOL    HW217550   2.459   4.393   2.104
 5551SOL     OW17551   1.454   6.350   2.620
 5551SOL    HW117552   1.355   6.353   2.634
 5551SOL    HW217553   1.500   6.405   2.690
 5552SOL     OW17554   6.548   1.336   6.597
 5552SOL    HW117555   6.543   1.384   6.510
 5552SOL    HW217556   6.460   1.293   6.617
 5553SOL     OW17557   4.898   6.538   6.456
 5553SOL    HW117558   4.947   6.539   6.369
 5553SOL    HW217559   4.808   6.581   6.444
 5554SOL     OW17560   4.686   2.278   0.117
 5554SOL    HW117561   4.695   2.375   0.139
 5554SOL    HW217562   4.773   2.245   0.080
 5555SOL     OW17563   0.934   3.842   2.102
 5555SOL    HW117564   0.979   3.760   2.136
 5555SOL    HW217565   0.974   3.869   2.015
 5556SOL     OW17566   6.305   1.340   3.272
 5556SOL    HW117567   6.219   1.391   3.279
 5556SOL    HW217568   6.382   1.404   3.282
 5557SOL     OW17569   4.124   5.893   2.312
 5557SOL    HW117570   4.195   5.829   2.340
 5557SOL    HW217571   4.044   5.842   2.281
 5558SOL     OW17572   2.766   3.803   6.346
 5558SOL    HW117573   2.803   3.725   6.397
 5558SOL    HW217574   2.666   3.805   6.356
 5559SOL     OW17575   2.182   0.581   1.848
 5559SOL    HW117576   2.263   0.549   1.800
 5559SOL    HW217577   2.140   0.505   1.898
 5560SOL     OW17578   0.285   5.232   1.520
 5560SOL    HW117579   0.381   5.258   1.509
 5560SOL    HW217580   0.279   5.132   1.530
 5561SOL     OW17581   2.369   0.860   4.244
 5561SOL    HW117582   2.407   0.777   4.285
 5561SOL    HW217583   2.292   0.892   4.300
 5562SOL     OW17584   3.801   2.701   6.725
 5562SOL    HW117585   3.846   2.737   6.643
 5562SOL    HW217586   3.866   2.645   6.776
 5563SOL     OW17587   3.009   4.912   2.438
 5563SOL    HW117588   2.961   4.827   2.463
 5563SOL    HW217589   2.985   4.984   2.503
 5564SOL     OW17590   4.731   0.126   0.862
 5564SOL    HW117591   4.760   0.134   0.767
 5564SOL    HW217592   4.647   0.179   0.875
 5565SOL     OW17593   3.735   2.349   5.959
 5565SOL    HW117594   3.635   2.348   5.960
 5565SOL    HW217595   3.767   2.419   5.896
 5566SOL     OW17596   1.463   4.417   6.746
 5566SOL    HW117597   1.538   4.367   6.703
 5566SOL    HW217598   1.376   4.372   6.725
 5567SOL     OW17599   0.060   3.174   0.885
 5567SOL    HW117600   0.018   3.265   0.886
 5567SOL    HW217601   7.022   3.109   0.930
 5568SOL     OW17602   4.956   0.970   3.334
 5568SOL    HW117603   4.908   0.893   3.291
 5568SOL    HW217604   4.905   1.054   3.317
 5569SOL     OW17605   1.981   1.356   2.494
 5569SOL    HW117606   1.882   1.355   2.508
 5569SOL    HW217607   2.020   1.436   2.540
 5570SOL     OW17608   6.862   3.993   4.445
 5570SOL    HW117609   6.873   3.930   4.521
 5570SOL    HW217610   6.945   4.049   4.436
 5571SOL     OW17611   6.186   6.094   1.461
 5571SOL    HW117612   6.245   6.036   1.405
 5571SOL    HW217613   6.234   6.180   1.481
 5572SOL     OW17614   1.548   3.788   4.811
 5572SOL    HW117615   1.605   3.781   4.729
 5572SOL    HW217616   1.592   3.739   4.887
 5573SOL     OW17617   1.706   5.811   4.783
 5573SOL    HW117618   1.617   5.806   4.827
 5573SOL    HW217619   1.742   5.904   4.788
 5574SOL     OW17620   0.334   1.956   2.227
 5574SOL    HW117621   0.244   1.958   2.270
 5574SOL    HW217622   0.332   1.893   2.149
 5575SOL     OW17623   0.071   1.310   0.980
 5575SOL    HW117624   0.142   1.372   1.014
 5575SOL    HW217625   7.004   1.341   1.012
 5576SOL     OW17626   0.862   5.004   1.724
 5576SOL    HW117627   0.951   4.960   1.723
 5576SOL    HW217628   0.838   5.029   1.818
 5577SOL     OW17629   2.886   2.817   6.595
 5577SOL    HW117630   2.857   2.910   6.618
 5577SOL    HW217631   2.920   2.815   6.501
 5578SOL     OW17632   3.131   3.394   1.846
 5578SOL    HW117633   3.088   3.465   1.790
 5578SOL    HW217634   3.143   3.312   1.792
 5579SOL     OW17635   0.309   3.659   0.608
 5579SOL    HW117636   0.257   3.708   0.538
 5579SOL    HW217637   0.246   3.606   0.665
 5580SOL     OW17638   4.990   2.470   5.410
 5580SOL    HW117639   4.933   2.401   5.365
 5580SOL    HW217640   5.048   2.515   5.342
 5581SOL     OW17641   2.318   0.342   1.720
 5581SOL    HW117642   2.221   0.326   1.741
 5581SOL    HW217643   2.374   0.305   1.793
 5582SOL     OW17644   3.228   3.458   6.271
 5582SOL    HW117645   3.194   3.550   6.247
 5582SOL    HW217646   3.235   3.403   6.188
 5583SOL     OW17647   5.165   0.590   2.779
 5583SOL    HW117648   5.163   0.595   2.879
 5583SOL    HW217649   5.097   0.654   2.741
 5584SOL     OW17650   6.809   5.038   4.291
 5584SOL    HW117651   6.798   5.098   4.371
 5584SOL    HW217652   6.722   4.996   4.269
 5585SOL     OW17653   5.522   5.861   3.085
 5585SOL    HW117654   5.498   5.951   3.047
 5585SOL    HW217655   5.505   5.860   3.183
 5586SOL     OW17656   0.163   2.994   5.762
 5586SOL    HW117657   0.136   3.008   5.666
 5586SOL    HW217658   0.142   2.900   5.789
 5587SOL     OW17659   4.121   6.460   0.893
 5587SOL    HW117660   4.136   6.389   0.961
 5587SOL    HW217661   4.074   6.420   0.814
 5588SOL     OW17662   2.533   5.136   3.002
 5588SOL    HW117663   2.459   5.086   3.047
 5588SOL    HW217664   2.549   5.223   3.050
 5589SOL     OW17665   6.673   3.166   5.559
 5589SOL    HW117666   6.681   3.080   5.611
 5589SOL    HW217667   6.715   3.154   5.469
 5590SOL     OW17668   0.138   6.280   3.479
 5590SOL    HW117669   0.130   6.184   3.450
 5590SOL    HW217670   0.224   6.318   3.444
 5591SOL     OW17671   5.729   1.635   1.635
 5591SOL    HW117672   5.804   1.649   1.699
 5591SOL    HW217673   5.710   1.538   1.625
 5592SOL     OW17674   1.675   5.725   2.209
 5592SOL    HW117675   1.737   5.793   2.248
 5592SOL    HW217676   1.721   5.678   2.133
 5593SOL     OW17677   0.856   2.832   0.672
 5593SOL    HW117678   0.874   2.734   0.682
 5593SOL    HW217679   0.786   2.846   0.601
 5594SOL     OW17680   4.497   1.059   6.601
 5594SOL    HW117681   4.518   1.058   6.504
 5594SOL    HW217682   4.537   0.979   6.646
 5595SOL     OW17683   0.438   0.901   4.754
 5595SOL    HW117684   0.491   0.881   4.672
 5595SOL    HW217685   0.345   0.864   4.743
 5596SOL     OW17686   4.766   0.795   2.656
 5596SOL    HW117687   4.703   0.727   2.693
 5596SOL    HW217688   4.842   0.808   2.719
 5597SOL     OW17689   4.944   3.154   4.740
 5597SOL    HW117690   5.012   3.110   4.799
 5597SOL    HW217691   4.885   3.084   4.698
 5598SOL     OW17692   5.322   4.095   4.171
 5598SOL    HW117693   5.304   4.145   4.087
 5598SOL    HW217694   5.300   3.998   4.158
 5599SOL     OW17695   1.156   2.226   2.642
 5599SOL    HW117696   1.190   2.167   2.570
 5599SOL    HW217697   1.205   2.314   2.639
 5600SOL     OW17698   1.079   1.484   1.454
 5600SOL    HW117699   1.050   1.478   1.358
 5600SOL    HW217700   1.106   1.394   1.486
 5601SOL     OW17701   2.007   0.618   6.194
 5601SOL    HW117702   2.004   0.518   6.183
 5601SOL    HW217703   2.090   0.643   6.243
 5602SOL     OW17704   0.135   1.585   1.371
 5602SOL    HW117705   0.173   1.669   1.333
 5602SOL    HW217706   0.050   1.606   1.420
 5603SOL     OW17707   5.877   2.960   0.648
 5603SOL    HW117708   5.818   3.002   0.579
 5603SOL    HW217709   5.831   2.881   0.689
 5604SOL     OW17710   6.372   2.514   4.790
 5604SOL    HW117711   6.282   2.473   4.807
 5604SOL    HW217712   6.423   2.458   4.725
 5605SOL     OW17713   0.278   1.321   5.266
 5605SOL    HW117714   0.363   1.326   5.318
 5605SOL    HW217715   0.200   1.321   5.328
 5606SOL     OW17716   4.791   6.710   0.666
 5606SOL    HW117717   4.827   6.713   0.572
 5606SOL    HW217718   4.865   6.727   0.731
 5607SOL     OW17719   5.348   1.014   2.569
 5607SOL    HW117720   5.327   1.003   2.472
 5607SOL    HW217721   5.286   0.958   2.623
 5608SOL     OW17722   5.835   0.492   4.103
 5608SOL    HW117723   5.934   0.483   4.111
 5608SOL    HW217724   5.792   0.402   4.111
 5609SOL     OW17725   3.109   5.879   0.892
 5609SOL    HW117726   3.045   5.813   0.931
 5609SOL    HW217727   3.168   5.833   0.825
 5610SOL     OW17728   3.837   5.943   0.255
 5610SOL    HW117729   3.883   5.890   0.326
 5610SOL    HW217730   3.743   5.911   0.245
 5611SOL     OW17731   1.384   5.900   2.812
 5611SOL    HW117732   1.306   5.952   2.847
 5611SOL    HW217733   1.462   5.961   2.802
 5612SOL     OW17734   3.790   2.223   6.181
 5612SOL    HW117735   3.764   2.269   6.096
 5612SOL    HW217736   3.850   2.283   6.234
 5613SOL     OW17737   6.132   4.319   3.097
 5613SOL    HW117738   6.048   4.266   3.087
 5613SOL    HW217739   6.206   4.274   3.047
 5614SOL     OW17740   4.818   1.989   4.547
 5614SOL    HW117741   4.757   2.056   4.505
 5614SOL    HW217742   4.910   2.027   4.552
 5615SOL     OW17743   0.060   1.932   3.946
 5615SOL    HW117744   0.031   1.894   4.033
 5615SOL    HW217745   0.007   1.891   3.872
 5616SOL     OW17746   2.904   1.589   4.629
 5616SOL    HW117747   2.861   1.545   4.551
 5616SOL    HW217748   2.872   1.683   4.637
 5617SOL     OW17749   2.698   6.630   5.885
 5617SOL    HW117750   2.635   6.555   5.904
 5617SOL    HW217751   2.674   6.672   5.797
 5618SOL     OW17752   0.017   4.623   3.603
 5618SOL    HW117753   6.995   4.537   3.580
 5618SOL    HW217754   0.116   4.609   3.610
 5619SOL     OW17755   3.134   3.665   5.029
 5619SOL    HW117756   3.086   3.752   5.014
 5619SOL    HW217757   3.084   3.612   5.098
 5620SOL     OW17758   4.133   3.524   0.499
 5620SOL    HW117759   4.094   3.447   0.549
 5620SOL    HW217760   4.213   3.559   0.547
 5621SOL     OW17761   2.185   2.321   0.364
 5621SOL    HW117762   2.250   2.356   0.432
 5621SOL    HW217763   2.234   2.265   0.297
 5622SOL     OW17764   4.525   0.109   6.012
 5622SOL    HW117765   4.445   0.058   6.042
 5622SOL    HW217766   4.515   0.131   5.914
 5623SOL     OW17767   3.009   5.365   5.216
 5623SOL    HW117768   2.968   5.454   5.235
 5623SOL    HW217769   2.937   5.295   5.217
 5624SOL     OW17770   1.230   3.991   3.762
 5624SOL    HW117771   1.300   4.062   3.772
 5624SOL    HW217772   1.224   3.964   3.666
 5625SOL     OW17773   5.738   1.217   5.472
 5625SOL    HW117774   5.814   1.257   5.523
 5625SOL    HW217775   5.702   1.286   5.409
 5626SOL     OW17776   2.527   6.005   4.289
 5626SOL    HW117777   2.582   6.086   4.308
 5626SOL    HW217778   2.430   6.030   4.287
 5627SOL     OW17779   0.701   5.566   6.357
 5627SOL    HW117780   0.621   5.521   6.319
 5627SOL    HW217781   0.720   5.650   6.306
 5628SOL     OW17782   1.373   2.172   0.762
 5628SOL    HW117783   1.299   2.156   0.828
 5628SOL    HW217784   1.381   2.092   0.702
 5629SOL     OW17785   3.497   3.872   2.568
 5629SOL    HW117786   3.421   3.930   2.538
 5629SOL    HW217787   3.462   3.799   2.626
 5630SOL     OW17788   1.551   3.843   0.061
 5630SOL    HW117789   1.632   3.900   0.071
 5630SOL    HW217790   1.475   3.886   0.110
 5631SOL     OW17791   4.478   1.857   0.928
 5631SOL    HW117792   4.481   1.956   0.909
 5631SOL    HW217793   4.450   1.842   1.023
 5632SOL     OW17794   3.037   2.429   6.067
 5632SOL    HW117795   2.991   2.378   6.140
 5632SOL    HW217796   3.077   2.512   6.105
 5633SOL     OW17797   6.119   4.038   4.014
 5633SOL    HW117798   6.044   4.077   3.961
 5633SOL    HW217799   6.176   4.112   4.051
 5634SOL     OW17800   2.170   4.506   4.262
 5634SOL    HW117801   2.202   4.431   4.320
 5634SOL    HW217802   2.241   4.577   4.259
 5635SOL     OW17803   1.886   4.373   5.342
 5635SOL    HW117804   1.835   4.298   5.299
 5635SOL    HW217805   1.971   4.337   5.381
 5636SOL     OW17806   4.313   6.329   4.230
 5636SOL    HW117807   4.413   6.338   4.237
 5636SOL    HW217808   4.290   6.261   4.160
 5637SOL     OW17809   5.495   0.308   3.485
 5637SOL    HW117810   5.511   0.248   3.407
 5637SOL    HW217811   5.469   0.399   3.453
 5638SOL     OW17812   6.387   3.617   1.237
 5638SOL    HW117813   6.356   3.658   1.151
 5638SOL    HW217814   6.429   3.688   1.294
 5639SOL     OW17815   0.504   1.270   2.126
 5639SOL    HW117816   0.577   1.331   2.095
 5639SOL    HW217817   0.479   1.207   2.053
 5640SOL     OW17818   3.322   0.147   3.661
 5640SOL    HW117819   3.227   0.118   3.658
 5640SOL    HW217820   3.331   0.228   3.719
 5641SOL     OW17821   1.159   4.936   5.086
 5641SOL    HW117822   1.188   4.860   5.144
 5641SOL    HW217823   1.156   4.905   4.991
 5642SOL     OW17824   1.701   6.689   5.507
 5642SOL    HW117825   1.739   6.779   5.484
 5642SOL    HW217826   1.739   6.620   5.446
 5643SOL     OW17827   4.551   0.933   5.643
 5643SOL    HW117828   4.623   1.002   5.647
 5643SOL    HW217829   4.561   0.869   5.719
 5644SOL     OW17830   3.537   0.412   5.139
 5644SOL    HW117831   3.570   0.322   5.167
 5644SOL    HW217832   3.517   0.467   5.220
 5645SOL     OW17833   6.287   4.578   3.939
 5645SOL    HW117834   6.310   4.630   3.857
 5645SOL    HW217835   6.270   4.482   3.914
 5646SOL     OW17836   1.762   5.538   3.427
 5646SOL    HW117837   1.807   5.466   3.374
 5646SOL    HW217838   1.831   5.594   3.472
 5647SOL     OW17839   4.591   5.886   1.536
 5647SOL    HW117840   4.582   5.939   1.621
 5647SOL    HW217841   4.666   5.821   1.545
 5648SOL     OW17842   2.212   6.134   2.425
 5648SOL    HW117843   2.277   6.127   2.501
 5648SOL    HW217844   2.257   6.173   2.345
 5649SOL     OW17845   0.854   6.945   4.326
 5649SOL    HW117846   0.906   6.962   4.409
 5649SOL    HW217847   0.865   7.022   4.263
 5650SOL     OW17848   0.932   5.263   1.329
 5650SOL    HW117849   0.898   5.274   1.422
 5650SOL    HW217850   0.896   5.336   1.271
 5651SOL     OW17851   1.827   1.651   1.349
 5651SOL    HW117852   1.742   1.617   1.309
 5651SOL    HW217853   1.905   1.608   1.305
 5652SOL     OW17854   6.080   6.614   1.437
 5652SOL    HW117855   6.007   6.661   1.488
 5652SOL    HW217856   6.154   6.678   1.419
 5653SOL     OW17857   6.210   6.664   6.492
 5653SOL    HW117858   6.194   6.737   6.425
 5653SOL    HW217859   6.296   6.682   6.540
 5654SOL     OW17860   0.876   6.423   4.429
 5654SOL    HW117861   0.909   6.375   4.347
 5654SOL    HW217862   0.786   6.387   4.455
 5655SOL     OW17863   0.366   2.785   3.869
 5655SOL    HW117864   0.412   2.865   3.832
 5655SOL    HW217865   0.269   2.789   3.846
 5656SOL     OW17866   6.977   4.097   6.624
 5656SOL    HW117867   6.950   4.004   6.598
 5656SOL    HW217868   0.054   4.103   6.625
 5657SOL     OW17869   5.828   3.335   6.205
 5657SOL    HW117870   5.872   3.249   6.233
 5657SOL    HW217871   5.771   3.369   6.280
 5658SOL     OW17872   3.027   3.162   6.191
 5658SOL    HW117873   3.004   3.172   6.094
 5658SOL    HW217874   3.119   3.123   6.199
 5659SOL     OW17875   3.308   3.314   6.058
 5659SOL    HW117876   3.276   3.306   5.963
 5659SOL    HW217877   3.322   3.222   6.095
 5660SOL     OW17878   4.769   6.678   6.050
 5660SOL    HW117879   4.815   6.725   6.126
 5660SOL    HW217880   4.747   6.584   6.077
 5661SOL     OW17881   1.979   6.116   5.105
 5661SOL    HW117882   1.920   6.100   5.184
 5661SOL    HW217883   2.062   6.061   5.114
 5662SOL     OW17884   3.004   6.917   3.286
 5662SOL    HW117885   2.922   6.956   3.329
 5662SOL    HW217886   3.018   6.824   3.319
 5663SOL     OW17887   2.603   2.528   0.667
 5663SOL    HW117888   2.585   2.476   0.750
 5663SOL    HW217889   2.632   2.620   0.691
 5664SOL     OW17890   6.913   3.669   4.286
 5664SOL    HW117891   6.999   3.680   4.336
 5664SOL    HW217892   6.837   3.686   4.349
 5665SOL     OW17893   1.539   0.797   0.570
 5665SOL    HW117894   1.460   0.850   0.539
 5665SOL    HW217895   1.603   0.785   0.494
 5666SOL     OW17896   6.614   6.978   3.566
 5666SOL    HW117897   6.687   0.012   3.606
 5666SOL    HW217898   6.631   6.965   3.468
 5667SOL     OW17899   1.540   4.892   4.812
 5667SOL    HW117900   1.570   4.931   4.899
 5667SOL    HW217901   1.594   4.810   4.793
 5668SOL     OW17902   5.752   3.219   3.355
 5668SOL    HW117903   5.736   3.172   3.268
 5668SOL    HW217904   5.711   3.310   3.351
 5669SOL     OW17905   6.274   3.739   1.003
 5669SOL    HW117906   6.348   3.804   0.986
 5669SOL    HW217907   6.243   3.702   0.915
 5670SOL     OW17908   1.362   3.646   4.006
 5670SOL    HW117909   1.440   3.707   4.021
 5670SOL    HW217910   1.282   3.681   4.056
 5671SOL     OW17911   5.961   6.401   5.233
 5671SOL    HW117912   5.916   6.474   5.284
 5671SOL    HW217913   6.051   6.383   5.272
 5672SOL     OW17914   5.025   3.850   6.487
 5672SOL    HW117915   5.102   3.842   6.550
 5672SOL    HW217916   5.024   3.941   6.446
 5673SOL     OW17917   2.049   6.569   1.282
 5673SOL    HW117918   2.132   6.571   1.225
 5673SOL    HW217919   2.009   6.661   1.286
 5674SOL     OW17920   1.219   4.742   5.264
 5674SOL    HW117921   1.190   4.788   5.348
 5674SOL    HW217922   1.295   4.681   5.284
 5675SOL     OW17923   4.339   2.855   6.330
 5675SOL    HW117924   4.377   2.841   6.421
 5675SOL    HW217925   4.389   2.799   6.264
 5676SOL     OW17926   2.420   2.095   3.189
 5676SOL    HW117927   2.368   2.164   3.241
 5676SOL    HW217928   2.516   2.098   3.216
 5677SOL     OW17929   0.988   0.659   0.663
 5677SOL    HW117930   1.061   0.591   0.667
 5677SOL    HW217931   1.027   0.750   0.651
 5678SOL     OW17932   3.767   0.185   2.881
 5678SOL    HW117933   3.685   0.129   2.871
 5678SOL    HW217934   3.831   0.164   2.808
 5679SOL     OW17935   5.642   0.956   3.867
 5679SOL    HW117936   5.594   0.887   3.813
 5679SOL    HW217937   5.656   0.922   3.960
 5680SOL     OW17938   1.522   5.026   6.745
 5680SOL    HW117939   1.595   4.987   6.690
 5680SOL    HW217940   1.523   5.126   6.735
 5681SOL     OW17941   0.442   3.901   1.769
 5681SOL    HW117942   0.387   3.979   1.740
 5681SOL    HW217943   0.437   3.829   1.700
 5682SOL     OW17944   1.964   5.267   4.385
 5682SOL    HW117945   1.935   5.212   4.306
 5682SOL    HW217946   1.893   5.266   4.455
 5683SOL     OW17947   3.957   1.762   6.421
 5683SOL    HW117948   4.029   1.824   6.389
 5683SOL    HW217949   3.913   1.720   6.342
 5684SOL     OW17950   2.459   3.667   6.186
 5684SOL    HW117951   2.528   3.631   6.124
 5684SOL    HW217952   2.384   3.707   6.134
 5685SOL     OW17953   2.783   1.456   3.577
 5685SOL    HW117954   2.792   1.392   3.654
 5685SOL    HW217955   2.849   1.530   3.588
 5686SOL     OW17956   3.197   1.592   5.277
 5686SOL    HW117957   3.285   1.545   5.267
 5686SOL    HW217958   3.213   1.685   5.311
 5687SOL     OW17959   0.635   5.572   5.894
 5687SOL    HW117960   0.576   5.634   5.842
 5687SOL    HW217961   0.699   5.626   5.948
 5688SOL     OW17962   1.573   2.232   2.825
 5688SOL    HW117963   1.559   2.161   2.894
 5688SOL    HW217964   1.655   2.284   2.846
 5689SOL     OW17965   2.602   1.174   2.459
 5689SOL    HW117966   2.626   1.215   2.547
 5689SOL    HW217967   2.528   1.108   2.473
 5690SOL     OW17968   1.438   6.066   0.195
 5690SOL    HW117969   1.361   6.007   0.218
 5690SOL    HW217970   1.521   6.031   0.238
 5691SOL     OW17971   3.688   0.709   2.002
 5691SOL    HW117972   3.720   0.615   1.995
 5691SOL    HW217973   3.753   0.762   2.057
 5692SOL     OW17974   5.504   4.507   0.489
 5692SOL    HW117975   5.580   4.448   0.459
 5692SOL    HW217976   5.420   4.453   0.493
 5693SOL     OW17977   4.386   1.243   2.121
 5693SOL    HW117978   4.339   1.288   2.197
 5693SOL    HW217979   4.320   1.193   2.065
 5694SOL     OW17980   1.264   0.754   2.797
 5694SOL    HW117981   1.173   0.760   2.838
 5694SOL    HW217982   1.325   0.819   2.843
 5695SOL     OW17983   1.755   1.547   3.670
 5695SOL    HW117984   1.777   1.604   3.591
 5695SOL    HW217985   1.656   1.532   3.675
 5696SOL     OW17986   0.453   6.736   4.125
 5696SOL    HW117987   0.509   6.741   4.043
 5696SOL    HW217988   0.512   6.741   4.206
 5697SOL     OW17989   5.867   2.408   2.023
 5697SOL    HW117990   5.796   2.428   1.956
 5697SOL    HW217991   5.937   2.349   1.982
 5698SOL     OW17992   1.027   4.537   4.090
 5698SOL    HW117993   1.013   4.548   4.189
 5698SOL    HW217994   0.940   4.553   4.043
 5699SOL     OW17995   1.147   2.230   2.930
 5699SOL    HW117996   1.142   2.186   2.841
 5699SOL    HW217997   1.058   2.269   2.953
 5700SOL     OW17998   6.220   6.571   3.989
 5700SOL    HW117999   6.286   6.635   4.028
 5700SOL    HW218000   6.174   6.613   3.911
 5701SOL     OW18001   0.894   0.118   1.609
 5701SOL    HW118002   0.982   0.077   1.583
 5701SOL    HW218003   0.839   0.050   1.658
 5702SOL     OW18004   2.198   5.894   4.405
 5702SOL    HW118005   2.163   5.988   4.411
 5702SOL    HW218006   2.128   5.830   4.437
 5703SOL     OW18007   6.710   4.089   0.240
 5703SOL    HW118008   6.776   4.154   0.204
 5703SOL    HW218009   6.660   4.047   0.164
 5704SOL     OW18010   5.142   4.180   3.385
 5704SOL    HW118011   5.052   4.153   3.420
 5704SOL    HW218012   5.205   4.194   3.461
 5705SOL     OW18013   4.834   6.374   6.922
 5705SOL    HW118014   4.847   6.471   6.903
 5705SOL    HW218015   4.772   6.335   6.853
 5706SOL     OW18016   5.160   2.720   2.479
 5706SOL    HW118017   5.090   2.742   2.410
 5706SOL    HW218018   5.152   2.784   2.556
 5707SOL     OW18019   5.895   0.166   1.053
 5707SOL    HW118020   5.917   0.077   1.094
 5707SOL    HW218021   5.843   0.151   0.969
 5708SOL     OW18022   4.857   5.821   1.981
 5708SOL    HW118023   4.896   5.876   1.907
 5708SOL    HW218024   4.928   5.799   2.048
 5709SOL     OW18025   0.745   1.352   2.478
 5709SOL    HW118026   0.805   1.416   2.525
 5709SOL    HW218027   0.796   1.269   2.454
 5710SOL     OW18028   3.692   2.100   0.372
 5710SOL    HW118029   3.638   2.024   0.410
 5710SOL    HW218030   3.671   2.183   0.423
 5711SOL     OW18031   5.082   1.317   1.649
 5711SOL    HW118032   5.137   1.245   1.607
 5711SOL    HW218033   5.061   1.387   1.580
 5712SOL     OW18034   6.165   6.876   0.380
 5712SOL    HW118035   6.244   6.936   0.367
 5712SOL    HW218036   6.139   6.875   0.476
 5713SOL     OW18037   2.707   3.765   1.701
 5713SOL    HW118038   2.620   3.813   1.715
 5713SOL    HW218039   2.777   3.831   1.676
 5714SOL     OW18040   6.617   6.400   1.428
 5714SOL    HW118041   6.688   6.386   1.360
 5714SOL    HW218042   6.611   6.497   1.451
 5715SOL     OW18043   6.995   0.188   2.839
 5715SOL    HW118044   6.976   0.225   2.930
 5715SOL    HW218045   0.038   0.113   2.847
 5716SOL     OW18046   1.403   5.785   5.889
 5716SOL    HW118047   1.491   5.785   5.938
 5716SOL    HW218048   1.383   5.692   5.859
 5717SOL     OW18049   1.569   5.165   0.649
 5717SOL    HW118050   1.552   5.082   0.596
 5717SOL    HW218051   1.637   5.221   0.602
 5718SOL     OW18052   1.262   3.859   0.843
 5718SOL    HW118053   1.196   3.791   0.810
 5718SOL    HW218054   1.355   3.827   0.825
 5719SOL     OW18055   2.612   3.833   0.249
 5719SOL    HW118056   2.640   3.817   0.155
 5719SOL    HW218057   2.540   3.902   0.251
 5720SOL     OW18058   1.361   6.733   4.731
 5720SOL    HW118059   1.345   6.827   4.758
 5720SOL    HW218060   1.378   6.677   4.812
 5721SOL     OW18061   5.966   4.373   0.632
 5721SOL    HW118062   5.924   4.288   0.601
 5721SOL    HW218063   6.045   4.394   0.574
 5722SOL     OW18064   6.585   2.251   5.254
 5722SOL    HW118065   6.653   2.178   5.253
 5722SOL    HW218066   6.610   2.321   5.187
 5723SOL     OW18067   3.965   3.556   0.113
 5723SOL    HW118068   4.011   3.588   0.031
 5723SOL    HW218069   3.999   3.606   0.193
 5724SOL     OW18070   5.912   2.955   4.108
 5724SOL    HW118071   5.947   2.995   4.023
 5724SOL    HW218072   5.814   2.936   4.098
 5725SOL     OW18073   6.196   5.110   3.920
 5725SOL    HW118074   6.290   5.098   3.889
 5725SOL    HW218075   6.133   5.089   3.845
 5726SOL     OW18076   0.232   5.744   4.122
 5726SOL    HW118077   0.295   5.667   4.111
 5726SOL    HW218078   0.158   5.736   4.055
 5727SOL     OW18079   6.161   2.679   4.487
 5727SOL    HW118080   6.167   2.750   4.558
 5727SOL    HW218081   6.246   2.627   4.485
 5728SOL     OW18082   5.245   6.659   5.665
 5728SOL    HW118083   5.222   6.748   5.625
 5728SOL    HW218084   5.207   6.654   5.757
 5729SOL     OW18085   1.317   1.154   6.842
 5729SOL    HW118086   1.349   1.236   6.889
 5729SOL    HW218087   1.284   1.088   6.909
 5730SOL     OW18088   5.654   4.970   5.973
 5730SOL    HW118089   5.749   4.980   6.001
 5730SOL    HW218090   5.612   4.894   6.024
 5731SOL     OW18091   6.797   0.366   3.066
 5731SOL    HW118092   6.744   0.422   3.129
 5731SOL    HW218093   6.885   0.343   3.108
 5732SOL     OW18094   0.445   6.010   3.744
 5732SOL    HW118095   0.470   6.105   3.763
 5732SOL    HW218096   0.516   5.949   3.780
 5733SOL     OW18097   3.357   6.514   5.004
 5733SOL    HW118098   3.437   6.473   5.049
 5733SOL    HW218099   3.366   6.504   4.905
 5734SOL     OW18100   1.140   0.436   5.642
 5734SOL    HW118101   1.201   0.367   5.603
 5734SOL    HW218102   1.191   0.491   5.708
 5735SOL     OW18103   4.157   1.404   0.821
 5735SOL    HW118104   4.070   1.362   0.847
 5735SOL    HW218105   4.229   1.373   0.883
 5736SOL     OW18106   6.276   4.192   0.292
 5736SOL    HW118107   6.359   4.179   0.346
 5736SOL    HW218108   6.258   4.110   0.237
 5737SOL     OW18109   5.709   6.417   0.768
 5737SOL    HW118110   5.648   6.410   0.689
 5737SOL    HW218111   5.732   6.325   0.800
 5738SOL     OW18112   2.112   2.716   6.112
 5738SOL    HW118113   2.151   2.624   6.114
 5738SOL    HW218114   2.144   2.765   6.031
 5739SOL     OW18115   1.833   1.108   6.027
 5739SOL    HW118116   1.861   1.123   6.122
 5739SOL    HW218117   1.802   1.195   5.988
 5740SOL     OW18118   4.305   4.732   0.488
 5740SOL    HW118119   4.268   4.660   0.547
 5740SOL    HW218120   4.399   4.711   0.464
 5741SOL     OW18121   0.484   5.298   4.371
 5741SOL    HW118122   0.509   5.234   4.298
 5741SOL    HW218123   0.389   5.329   4.357
 5742SOL     OW18124   5.143   6.388   2.874
 5742SOL    HW118125   5.170   6.294   2.852
 5742SOL    HW218126   5.054   6.387   2.920
 5743SOL     OW18127   2.492   6.456   4.972
 5743SOL    HW118128   2.415   6.404   4.932
 5743SOL    HW218129   2.458   6.543   5.007
 5744SOL     OW18130   5.012   0.169   1.393
 5744SOL    HW118131   5.071   0.248   1.411
 5744SOL    HW218132   4.994   0.121   1.479
 5745SOL     OW18133   3.938   1.441   4.480
 5745SOL    HW118134   3.867   1.461   4.412
 5745SOL    HW218135   3.940   1.343   4.499
 5746SOL     OW18136   4.895   0.773   1.029
 5746SOL    HW118137   4.852   0.732   0.947
 5746SOL    HW218138   4.980   0.818   1.002
 5747SOL     OW18139   0.337   5.153   2.989
 5747SOL    HW118140   0.310   5.064   2.953
 5747SOL    HW218141   0.393   5.201   2.921
 5748SOL     OW18142   1.620   4.895   0.849
 5748SOL    HW118143   1.523   4.907   0.872
 5748SOL    HW218144   1.668   4.982   0.864
 5749SOL     OW18145   2.798   0.423   4.513
 5749SOL    HW118146   2.808   0.426   4.613
 5749SOL    HW218147   2.886   0.403   4.471
 5750SOL     OW18148   5.812   5.290   4.859
 5750SOL    HW118149   5.844   5.202   4.825
 5750SOL    HW218150   5.713   5.287   4.870
 5751SOL     OW18151   2.709   2.403   4.532
 5751SOL    HW118152   2.672   2.492   4.559
 5751SOL    HW218153   2.726   2.348   4.614
 5752SOL     OW18154   6.171   1.415   6.335
 5752SOL    HW118155   6.154   1.448   6.428
 5752SOL    HW218156   6.084   1.404   6.287
 5753SOL     OW18157   3.183   3.703   6.174
 5753SOL    HW118158   3.086   3.717   6.154
 5753SOL    HW218159   3.232   3.684   6.089
 5754SOL     OW18160   5.479   5.864   1.308
 5754SOL    HW118161   5.415   5.847   1.233
 5754SOL    HW218162   5.453   5.809   1.387
 5755SOL     OW18163   3.388   3.517   5.383
 5755SOL    HW118164   3.391   3.453   5.460
 5755SOL    HW218165   3.381   3.465   5.298
 5756SOL     OW18166   6.812   5.413   3.776
 5756SOL    HW118167   6.775   5.379   3.690
 5756SOL    HW218168   6.910   5.390   3.782
 5757SOL     OW18169   6.548   6.286   2.465
 5757SOL    HW118170   6.627   6.286   2.403
 5757SOL    HW218171   6.539   6.376   2.507
 5758SOL     OW18172   3.014   1.846   4.070
 5758SOL    HW118173   2.958   1.825   4.150
 5758SOL    HW218174   2.975   1.804   3.989
 5759SOL     OW18175   4.605   1.967   6.586
 5759SOL    HW118176   4.677   2.030   6.616
 5759SOL    HW218177   4.630   1.873   6.612
 5760SOL     OW18178   1.451   6.443   2.023
 5760SOL    HW118179   1.541   6.420   2.061
 5760SOL    HW218180   1.463   6.488   1.935
 5761SOL     OW18181   5.793   0.904   5.592
 5761SOL    HW118182   5.772   0.930   5.686
 5761SOL    HW218183   5.775   0.982   5.531
 5762SOL     OW18184   4.857   0.032   0.566
 5762SOL    HW118185   4.762   0.002   0.556
 5762SOL    HW218186   4.918   6.982   0.534
 5763SOL     OW18187   0.494   7.020   0.255
 5763SOL    HW118188   0.412   0.027   0.206
 5763SOL    HW218189   0.537   0.075   0.300
 5764SOL     OW18190   5.310   4.825   6.111
 5764SOL    HW118191   5.252   4.856   6.035
 5764SOL    HW218192   5.264   4.845   6.198
 5765SOL     OW18193   6.438   4.761   6.410
 5765SOL    HW118194   6.396   4.676   6.443
 5765SOL    HW218195   6.400   4.784   6.320
 5766SOL     OW18196   2.655   1.094   1.751
 5766SOL    HW118197   2.733   1.135   1.703
 5766SOL    HW218198   2.570   1.121   1.707
 5767SOL     OW18199   2.276   6.842   0.427
 5767SOL    HW118200   2.298   6.938   0.409
 5767SOL    HW218201   2.309   6.785   0.352
 5768SOL     OW18202   6.931   0.087   3.120
 5768SOL    HW118203   6.915   7.018   3.085
 5768SOL    HW218204   0.006   0.104   3.127
 5769SOL     OW18205   2.442   6.957   3.581
 5769SOL    HW118206   2.370   0.003   3.587
 5769SOL    HW218207   2.404   6.873   3.542
 5770SOL     OW18208   6.814   6.849   0.797
 5770SOL    HW118209   6.820   6.895   0.885
 5770SOL    HW218210   6.742   6.889   0.742
 5771SOL     OW18211   1.503   6.383   1.428
 5771SOL    HW118212   1.423   6.323   1.423
 5771SOL    HW218213   1.473   6.478   1.425
 5772SOL     OW18214   6.027   3.087   0.874
 5772SOL    HW118215   5.976   3.164   0.912
 5772SOL    HW218216   5.991   3.066   0.783
 5773SOL     OW18217   5.961   0.259   3.900
 5773SOL    HW118218   6.060   0.248   3.912
 5773SOL    HW218219   5.913   0.208   3.972
 5774SOL     OW18220   2.364   4.613   3.373
 5774SOL    HW118221   2.378   4.706   3.407
 5774SOL    HW218222   2.434   4.591   3.305
 5775SOL     OW18223   1.794   0.720   1.315
 5775SOL    HW118224   1.706   0.701   1.358
 5775SOL    HW218225   1.865   0.664   1.357
 5776SOL     OW18226   6.739   0.590   6.180
 5776SOL    HW118227   6.736   0.518   6.249
 5776SOL    HW218228   6.833   0.622   6.170
 5777SOL     OW18229   5.782   0.982   4.275
 5777SOL    HW118230   5.872   0.978   4.318
 5777SOL    HW218231   5.778   0.917   4.199
 5778SOL     OW18232   2.368   0.423   2.121
 5778SOL    HW118233   2.312   0.410   2.203
 5778SOL    HW218234   2.404   0.335   2.091
 5779SOL     OW18235   3.719   0.400   0.778
 5779SOL    HW118236   3.677   0.466   0.841
 5779SOL    HW218237   3.808   0.373   0.813
 5780SOL     OW18238   6.574   5.125   1.787
 5780SOL    HW118239   6.545   5.220   1.783
 5780SOL    HW218240   6.591   5.099   1.882
 5781SOL     OW18241   2.074   4.348   4.870
 5781SOL    HW118242   2.170   4.375   4.880
 5781SOL    HW218243   2.069   4.264   4.816
 5782SOL     OW18244   1.617   1.427   1.668
 5782SOL    HW118245   1.594   1.361   1.740
 5782SOL    HW218246   1.533   1.462   1.627
 5783SOL     OW18247   1.771   1.843   0.701
 5783SOL    HW118248   1.736   1.855   0.793
 5783SOL    HW218249   1.722   1.904   0.638
 5784SOL     OW18250   0.495   6.326   0.138
 5784SOL    HW118251   0.566   6.273   0.094
 5784SOL    HW218252   0.509   6.326   0.237
 5785SOL     OW18253   1.349   1.266   1.192
 5785SOL    HW118254   1.431   1.277   1.248
 5785SOL    HW218255   1.362   1.313   1.105
 5786SOL     OW18256   1.441   3.288   1.305
 5786SOL    HW118257   1.342   3.285   1.316
 5786SOL    HW218258   1.464   3.270   1.209
 5787SOL     OW18259   5.498   2.460   4.097
 5787SOL    HW118260   5.574   2.395   4.101
 5787SOL    HW218261   5.416   2.413   4.063
 5788SOL     OW18262   3.142   0.338   1.114
 5788SOL    HW118263   3.237   0.353   1.089
 5788SOL    HW218264   3.132   0.247   1.154
 5789SOL     OW18265   3.910   2.854   6.517
 5789SOL    HW118266   3.967   2.837   6.437
 5789SOL    HW218267   3.814   2.846   6.491
 5790SOL     OW18268   6.446   6.079   4.922
 5790SOL    HW118269   6.386   6.075   4.843
 5790SOL    HW218270   6.541   6.072   4.892
 5791SOL     OW18271   3.136   1.232   2.311
 5791SOL    HW118272   3.180   1.147   2.338
 5791SOL    HW218273   3.038   1.215   2.297
 5792SOL     OW18274   5.295   3.474   3.248
 5792SOL    HW118275   5.280   3.522   3.161
 5792SOL    HW218276   5.346   3.390   3.231
 5793SOL     OW18277   5.964   2.646   5.581
 5793SOL    HW118278   5.956   2.744   5.563
 5793SOL    HW218279   5.937   2.595   5.499
 5794SOL     OW18280   3.366   6.895   6.338
 5794SOL    HW118281   3.451   6.890   6.389
 5794SOL    HW218282   3.289   6.896   6.402
 5795SOL     OW18283   1.045   6.088   2.117
 5795SOL    HW118284   1.110   6.126   2.184
 5795SOL    HW218285   1.040   6.148   2.038
 5796SOL     OW18286   4.627   0.801   6.084
 5796SOL    HW118287   4.649   0.737   6.158
 5796SOL    HW218288   4.537   0.842   6.102
 5797SOL     OW18289   5.787   1.640   0.525
 5797SOL    HW118290   5.819   1.604   0.613
 5797SOL    HW218291   5.865   1.659   0.466
 5798SOL     OW18292   0.794   3.680   4.766
 5798SOL    HW118293   0.710   3.626   4.761
 5798SOL    HW218294   0.809   3.709   4.860
 5799SOL     OW18295   0.955   0.004   3.241
 5799SOL    HW118296   1.017   0.046   3.307
 5799SOL    HW218297   1.004   7.003   3.158
 5800SOL     OW18298   0.719   6.889   0.765
 5800SOL    HW118299   0.806   6.840   0.761
 5800SOL    HW218300   0.694   6.906   0.860
 5801SOL     OW18301   2.405   2.690   2.647
 5801SOL    HW118302   2.444   2.616   2.701
 5801SOL    HW218303   2.381   2.767   2.707
 5802SOL     OW18304   6.426   2.702   2.907
 5802SOL    HW118305   6.393   2.610   2.928
 5802SOL    HW218306   6.466   2.742   2.990
 5803SOL     OW18307   1.274   4.651   4.037
 5803SOL    HW118308   1.184   4.615   4.012
 5803SOL    HW218309   1.266   4.703   4.121
 5804SOL     OW18310   6.609   6.988   3.862
 5804SOL    HW118311   6.562   7.020   3.780
 5804SOL    HW218312   6.572   6.898   3.888
 5805SOL     OW18313   1.629   3.524   1.004
 5805SOL    HW118314   1.640   3.481   0.915
 5805SOL    HW218315   1.683   3.473   1.072
 5806SOL     OW18316   0.568   3.451   3.833
 5806SOL    HW118317   0.481   3.462   3.880
 5806SOL    HW218318   0.640   3.430   3.899
 5807SOL     OW18319   1.112   6.127   1.173
 5807SOL    HW118320   1.025   6.150   1.129
 5807SOL    HW218321   1.186   6.177   1.129
 5808SOL     OW18322   6.335   6.850   4.111
 5808SOL    HW118323   6.376   6.935   4.075
 5808SOL    HW218324   6.334   6.854   4.211
 5809SOL     OW18325   0.878   1.940   5.927
 5809SOL    HW118326   0.786   1.918   5.961
 5809SOL    HW218327   0.946   1.910   5.994
 5810SOL     OW18328   4.292   6.575   4.982
 5810SOL    HW118329   4.270   6.645   4.913
 5810SOL    HW218330   4.208   6.546   5.028
 5811SOL     OW18331   2.884   2.808   5.693
 5811SOL    HW118332   2.790   2.837   5.674
 5811SOL    HW218333   2.886   2.747   5.771
 5812SOL     OW18334   5.752   3.086   0.435
 5812SOL    HW118335   5.846   3.105   0.407
 5812SOL    HW218336   5.704   3.173   0.450
 5813SOL     OW18337   3.625   6.283   1.293
 5813SOL    HW118338   3.616   6.379   1.268
 5813SOL    HW218339   3.537   6.237   1.286
 5814SOL     OW18340   6.684   2.009   2.247
 5814SOL    HW118341   6.607   1.973   2.299
 5814SOL    HW218342   6.685   1.967   2.156
 5815SOL     OW18343   6.223   1.496   3.949
 5815SOL    HW118344   6.135   1.454   3.928
 5815SOL    HW218345   6.250   1.557   3.875
 5816SOL     OW18346   0.244   5.089   2.182
 5816SOL    HW118347   0.292   5.007   2.151
 5816SOL    HW218348   0.285   5.120   2.268
 5817SOL     OW18349   5.321   3.893   5.260
 5817SOL    HW118350   5.409   3.931   5.231
 5817SOL    HW218351   5.336   3.818   5.324
 5818SOL     OW18352   0.953   6.181   5.166
 5818SOL    HW118353   0.870   6.171   5.222
 5818SOL    HW218354   0.980   6.277   5.166
 5819SOL     OW18355   2.894   5.049   6.980
 5819SOL    HW118356   2.975   5.102   7.005
 5819SOL    HW218357   2.823   5.062   0.027
 5820SOL     OW18358   5.374   5.078   2.367
 5820SOL    HW118359   5.315   5.153   2.338
 5820SOL    HW218360   5.454   5.074   2.307
 5821SOL     OW18361   6.814   1.059   1.402
 5821SOL    HW118362   6.755   1.075   1.481
 5821SOL    HW218363   6.903   1.024   1.433
 5822SOL     OW18364   1.403   1.935   2.822
 5822SOL    HW118365   1.379   1.994   2.899
 5822SOL    HW218366   1.441   1.991   2.748
 5823SOL     OW18367   2.357   6.330   4.561
 5823SOL    HW118368   2.421   6.385   4.615
 5823SOL    HW218369   2.335   6.379   4.476
 5824SOL     OW18370   1.066   0.140   2.495
 5824SOL    HW118371   1.069   0.057   2.439
 5824SOL    HW218372   0.978   0.186   2.482
 5825SOL     OW18373   6.869   6.239   4.453
 5825SOL    HW118374   6.928   6.315   4.480
 5825SOL    HW218375   6.926   6.160   4.429
 5826SOL     OW18376   6.996   0.431   5.260
 5826SOL    HW118377   0.038   0.505   5.281
 5826SOL    HW218378   0.022   0.344   5.259
 5827SOL     OW18379   1.329   3.525   4.986
 5827SOL    HW118380   1.285   3.460   5.049
 5827SOL    HW218381   1.259   3.582   4.944
 5828SOL     OW18382   5.315   6.799   3.847
 5828SOL    HW118383   5.273   6.732   3.785
 5828SOL    HW218384   5.396   6.838   3.804
 5829SOL     OW18385   1.691   0.801   4.886
 5829SOL    HW118386   1.698   0.710   4.845
 5829SOL    HW218387   1.781   0.843   4.890
 5830SOL     OW18388   3.644   5.082   5.415
 5830SOL    HW118389   3.635   5.003   5.354
 5830SOL    HW218390   3.663   5.163   5.361
 5831SOL     OW18391   1.226   1.239   5.486
 5831SOL    HW118392   1.127   1.244   5.489
 5831SOL    HW218393   1.257   1.235   5.391
 5832SOL     OW18394   3.314   4.321   1.398
 5832SOL    HW118395   3.276   4.413   1.392
 5832SOL    HW218396   3.297   4.271   1.313
 5833SOL     OW18397   4.038   3.831   5.404
 5833SOL    HW118398   4.098   3.781   5.467
 5833SOL    HW218399   4.071   3.818   5.311
 5834SOL     OW18400   6.609   4.320   6.481
 5834SOL    HW118401   6.593   4.291   6.575
 5834SOL    HW218402   6.576   4.249   6.418
 5835SOL     OW18403   5.632   1.030   2.625
 5835SOL    HW118404   5.545   0.982   2.629
 5835SOL    HW218405   5.693   0.994   2.697
 5836SOL     OW18406   3.741   6.252   2.621
 5836SOL    HW118407   3.660   6.290   2.576
 5836SOL    HW218408   3.763   6.163   2.581
 5837SOL     OW18409   3.546   4.163   0.493
 5837SOL    HW118410   3.474   4.100   0.463
 5837SOL    HW218411   3.564   4.229   0.420
 5838SOL     OW18412   3.559   1.929   1.319
 5838SOL    HW118413   3.492   1.998   1.290
 5838SOL    HW218414   3.574   1.937   1.417
 5839SOL     OW18415   0.603   2.754   1.794
 5839SOL    HW118416   0.659   2.836   1.776
 5839SOL    HW218417   0.612   2.690   1.717
 5840SOL     OW18418   0.138   3.893   2.184
 5840SOL    HW118419   0.147   3.796   2.165
 5840SOL    HW218420   0.148   3.946   2.100
 5841SOL     OW18421   4.420   0.708   1.728
 5841SOL    HW118422   4.330   0.694   1.685
 5841SOL    HW218423   4.492   0.684   1.662
 5842SOL     OW18424   3.931   1.963   0.280
 5842SOL    HW118425   3.833   1.986   0.280
 5842SOL    HW218426   3.981   2.033   0.331
 5843SOL     OW18427   2.037   3.657   1.127
 5843SOL    HW118428   2.007   3.594   1.056
 5843SOL    HW218429   1.958   3.707   1.162
 5844SOL     OW18430   0.600   6.528   5.040
 5844SOL    HW118431   0.617   6.471   4.960
 5844SOL    HW218432   0.531   6.484   5.098
 5845SOL     OW18433   0.321   6.851   1.708
 5845SOL    HW118434   0.248   6.906   1.749
 5845SOL    HW218435   0.344   6.886   1.618
 5846SOL     OW18436   6.760   3.870   5.401
 5846SOL    HW118437   6.744   3.953   5.347
 5846SOL    HW218438   6.677   3.846   5.450
 5847SOL     OW18439   2.543   2.869   1.697
 5847SOL    HW118440   2.581   2.778   1.708
 5847SOL    HW218441   2.443   2.864   1.704
 5848SOL     OW18442   2.478   5.819   4.051
 5848SOL    HW118443   2.384   5.802   4.084
 5848SOL    HW218444   2.536   5.842   4.129
 5849SOL     OW18445   2.761   6.313   5.365
 5849SOL    HW118446   2.672   6.313   5.321
 5849SOL    HW218447   2.798   6.406   5.365
 5850SOL     OW18448   1.083   2.624   2.084
 5850SOL    HW118449   1.086   2.722   2.103
 5850SOL    HW218450   1.008   2.582   2.135
 5851SOL     OW18451   5.889   3.460   4.563
 5851SOL    HW118452   5.794   3.491   4.557
 5851SOL    HW218453   5.939   3.516   4.630
 5852SOL     OW18454   4.813   5.698   3.506
 5852SOL    HW118455   4.866   5.662   3.582
 5852SOL    HW218456   4.716   5.675   3.520
 5853SOL     OW18457   3.983   5.038   5.396
 5853SOL    HW118458   3.923   4.983   5.453
 5853SOL    HW218459   4.007   5.122   5.444
 5854SOL     OW18460   3.560   4.219   5.540
 5854SOL    HW118461   3.564   4.122   5.516
 5854SOL    HW218462   3.650   4.250   5.571
 5855SOL     OW18463   1.952   2.433   3.901
 5855SOL    HW118464   1.954   2.389   3.811
 5855SOL    HW218465   1.925   2.528   3.891
 5856SOL     OW18466   1.730   6.858   2.368
 5856SOL    HW118467   1.744   6.843   2.271
 5856SOL    HW218468   1.808   6.822   2.419
 5857SOL     OW18469   0.130   3.480   5.652
 5857SOL    HW118470   0.164   3.563   5.608
 5857SOL    HW218471   0.200   3.442   5.712
 5858SOL     OW18472   2.651   1.325   2.677
 5858SOL    HW118473   2.702   1.274   2.747
 5858SOL    HW218474   2.688   1.418   2.671
 5859SOL     OW18475   5.586   6.283   1.599
 5859SOL    HW118476   5.638   6.269   1.683
 5859SOL    HW218477   5.642   6.334   1.534
 5860SOL     OW18478   0.301   4.595   3.616
 5860SOL    HW118479   0.365   4.638   3.679
 5860SOL    HW218480   0.318   4.497   3.612
 5861SOL     OW18481   5.956   0.769   5.114
 5861SOL    HW118482   5.955   0.689   5.174
 5861SOL    HW218483   5.862   0.803   5.104
 5862SOL     OW18484   6.668   5.805   2.034
 5862SOL    HW118485   6.583   5.806   1.981
 5862SOL    HW218486   6.647   5.809   2.132
 5863SOL     OW18487   3.091   0.758   4.492
 5863SOL    HW118488   3.065   0.812   4.412
 5863SOL    HW218489   3.166   0.696   4.467
 5864SOL     OW18490   3.248   3.691   3.189
 5864SOL    HW118491   3.255   3.667   3.286
 5864SOL    HW218492   3.259   3.609   3.133
 5865SOL     OW18493   5.703   1.339   5.773
 5865SOL    HW118494   5.770   1.288   5.827
 5865SOL    HW218495   5.675   1.420   5.824
 5866SOL     OW18496   3.286   3.136   1.063
 5866SOL    HW118497   3.378   3.173   1.057
 5866SOL    HW218498   3.221   3.210   1.084
 5867SOL     OW18499   2.006   2.317   1.463
 5867SOL    HW118500   2.068   2.239   1.451
 5867SOL    HW218501   2.059   2.397   1.492
 5868SOL     OW18502   1.116   1.834   5.835
 5868SOL    HW118503   1.139   1.911   5.894
 5868SOL    HW218504   1.158   1.846   5.746
 5869SOL     OW18505   1.276   4.339   3.299
 5869SOL    HW118506   1.326   4.256   3.274
 5869SOL    HW218507   1.195   4.314   3.353
 5870SOL     OW18508   4.242   4.623   5.505
 5870SOL    HW118509   4.174   4.571   5.558
 5870SOL    HW218510   4.214   4.625   5.409
 5871SOL     OW18511   3.485   3.441   3.152
 5871SOL    HW118512   3.516   3.517   3.210
 5871SOL    HW218513   3.548   3.430   3.075
 5872SOL     OW18514   3.955   5.861   1.444
 5872SOL    HW118515   4.010   5.930   1.490
 5872SOL    HW218516   3.939   5.888   1.349
 5873SOL     OW18517   2.450   5.361   2.030
 5873SOL    HW118518   2.401   5.274   2.034
 5873SOL    HW218519   2.533   5.355   2.085
 5874SOL     OW18520   2.204   4.269   5.143
 5874SOL    HW118521   2.201   4.244   5.240
 5874SOL    HW218522   2.239   4.192   5.090
 5875SOL     OW18523   3.555   2.038   0.104
 5875SOL    HW118524   3.591   2.076   0.189
 5875SOL    HW218525   3.467   2.082   0.082
 5876SOL     OW18526   4.038   3.668   2.182
 5876SOL    HW118527   4.090   3.738   2.133
 5876SOL    HW218528   4.081   3.579   2.170
 5877SOL     OW18529   5.814   6.285   1.166
 5877SOL    HW118530   5.842   6.381   1.162
 5877SOL    HW218531   5.860   6.240   1.242
 5878SOL     OW18532   1.519   6.164   3.564
 5878SOL    HW118533   1.439   6.224   3.575
 5878SOL    HW218534   1.602   6.217   3.574
 5879SOL     OW18535   6.395   3.370   0.041
 5879SOL    HW118536   6.394   3.457   7.016
 5879SOL    HW218537   6.460   3.308   7.019
 5880SOL     OW18538   2.705   5.436   1.372
 5880SOL    HW118539   2.611   5.470   1.381
 5880SOL    HW218540   2.765   5.512   1.346
 5881SOL     OW18541   0.265   4.844   3.488
 5881SOL    HW118542   0.268   4.749   3.519
 5881SOL    HW218543   0.358   4.882   3.492
 5882SOL     OW18544   5.651   0.564   0.991
 5882SOL    HW118545   5.684   0.480   1.036
 5882SOL    HW218546   5.585   0.540   0.920
 5883SOL     OW18547   0.376   2.350   6.419
 5883SOL    HW118548   0.396   2.440   6.381
 5883SOL    HW218549   0.452   2.321   6.477
 5884SOL     OW18550   2.039   1.148   3.712
 5884SOL    HW118551   2.110   1.081   3.732
 5884SOL    HW218552   1.959   1.102   3.674
 5885SOL     OW18553   6.862   6.919   1.632
 5885SOL    HW118554   6.938   6.979   1.604
 5885SOL    HW218555   6.791   6.974   1.676
 5886SOL     OW18556   0.338   2.427   4.683
 5886SOL    HW118557   0.431   2.393   4.694
 5886SOL    HW218558   0.285   2.362   4.628
 5887SOL     OW18559   3.943   1.396   3.284
 5887SOL    HW118560   3.945   1.444   3.371
 5887SOL    HW218561   3.995   1.310   3.292
 5888SOL     OW18562   2.920   6.639   2.729
 5888SOL    HW118563   2.826   6.606   2.726
 5888SOL    HW218564   2.983   6.563   2.711
 5889SOL     OW18565   1.672   6.837   1.390
 5889SOL    HW118566   1.578   6.833   1.424
 5889SOL    HW218567   1.735   6.851   1.467
 5890SOL     OW18568   1.048   0.121   5.531
 5890SOL    HW118569   0.959   0.091   5.566
 5890SOL    HW218570   1.103   0.042   5.506
 5891SOL     OW18571   3.994   2.997   6.147
 5891SOL    HW118572   4.013   2.922   6.210
 5891SOL    HW218573   4.069   3.063   6.150
 5892SOL     OW18574   0.966   6.249   1.805
 5892SOL    HW118575   0.885   6.271   1.859
 5892SOL    HW218576   0.989   6.326   1.746
 5893SOL     OW18577   1.279   3.790   3.529
 5893SOL    HW118578   1.203   3.767   3.468
 5893SOL    HW218579   1.264   3.747   3.618
 5894SOL     OW18580   1.193   4.967   2.966
 5894SOL    HW118581   1.127   5.017   3.023
 5894SOL    HW218582   1.232   5.030   2.899
 5895SOL     OW18583   5.466   2.742   3.974
 5895SOL    HW118584   5.525   2.787   3.906
 5895SOL    HW218585   5.498   2.649   3.990
 5896SOL     OW18586   4.074   1.664   0.009
 5896SOL    HW118587   4.070   1.754   6.987
 5896SOL    HW218588   4.059   1.675   0.107
 5897SOL     OW18589   3.731   7.011   2.115
 5897SOL    HW118590   3.783   0.074   2.121
 5897SOL    HW218591   3.645   7.022   2.164
 5898SOL     OW18592   2.185   0.357   3.144
 5898SOL    HW118593   2.255   0.310   3.092
 5898SOL    HW218594   2.099   0.307   3.138
 5899SOL     OW18595   5.452   7.002   5.591
 5899SOL    HW118596   5.496   6.948   5.663
 5899SOL    HW218597   5.491   0.071   5.590
 5900SOL     OW18598   4.572   5.109   4.139
 5900SOL    HW118599   4.588   5.134   4.234
 5900SOL    HW218600   4.621   5.171   4.078
 5901SOL     OW18601   2.794   0.551   6.482
 5901SOL    HW118602   2.768   0.547   6.385
 5901SOL    HW218603   2.872   0.490   6.498
 5902SOL     OW18604   0.348   2.005   0.883
 5902SOL    HW118605   0.401   1.924   0.858
 5902SOL    HW218606   0.263   2.006   0.831
 5903SOL     OW18607   4.921   4.022   0.521
 5903SOL    HW118608   4.966   4.082   0.588
 5903SOL    HW218609   4.918   3.929   0.557
 5904SOL     OW18610   0.008   3.463   2.621
 5904SOL    HW118611   7.000   3.558   2.615
 5904SOL    HW218612   0.050   3.447   2.711
 5905SOL     OW18613   6.084   5.791   3.025
 5905SOL    HW118614   6.079   5.698   2.989
 5905SOL    HW218615   6.176   5.808   3.061
 5906SOL     OW18616   5.354   1.025   4.357
 5906SOL    HW118617   5.416   1.023   4.435
 5906SOL    HW218618   5.278   1.086   4.376
 5907SOL     OW18619   1.760   6.129   1.738
 5907SOL    HW118620   1.804   6.142   1.649
 5907SOL    HW218621   1.806   6.186   1.806
 5908SOL     OW18622   0.943   2.506   5.522
 5908SOL    HW118623   0.887   2.425   5.504
 5908SOL    HW218624   0.965   2.510   5.620
 5909SOL     OW18625   0.642   5.104   0.675
 5909SOL    HW118626   0.650   5.021   0.730
 5909SOL    HW218627   0.728   5.121   0.627
 5910SOL     OW18628   0.780   3.136   3.462
 5910SOL    HW118629   0.793   3.068   3.534
 5910SOL    HW218630   0.870   3.167   3.429
 5911SOL     OW18631   6.762   5.499   6.460
 5911SOL    HW118632   6.780   5.566   6.388
 5911SOL    HW218633   6.803   5.412   6.435
 5912SOL     OW18634   6.100   1.373   5.155
 5912SOL    HW118635   6.091   1.410   5.248
 5912SOL    HW218636   6.075   1.443   5.088
 5913SOL     OW18637   4.982   2.821   0.171
 5913SOL    HW118638   5.072   2.823   0.127
 5913SOL    HW218639   4.914   2.785   0.107
 5914SOL     OW18640   1.147   6.808   6.523
 5914SOL    HW118641   1.187   6.891   6.484
 5914SOL    HW218642   1.083   6.833   6.595
 5915SOL     OW18643   3.393   6.139   0.080
 5915SOL    HW118644   3.478   6.099   0.045
 5915SOL    HW218645   3.356   6.204   0.013
 5916SOL     OW18646   0.070   7.000   2.594
 5916SOL    HW118647   0.100   0.036   2.519
 5916SOL    HW218648   0.133   7.009   2.671
 5917SOL     OW18649   3.373   3.724   5.186
 5917SOL    HW118650   3.308   3.698   5.115
 5917SOL    HW218651   3.383   3.648   5.251
 5918SOL     OW18652   1.655   5.477   6.188
 5918SOL    HW118653   1.630   5.470   6.091
 5918SOL    HW218654   1.575   5.457   6.244
 5919SOL     OW18655   3.202   3.816   2.587
 5919SOL    HW118656   3.195   3.891   2.520
 5919SOL    HW218657   3.210   3.854   2.679
 5920SOL     OW18658   5.224   0.963   6.486
 5920SOL    HW118659   5.285   0.938   6.562
 5920SOL    HW218660   5.216   1.062   6.480
 5921SOL     OW18661   4.108   5.295   6.284
 5921SOL    HW118662   4.049   5.273   6.207
 5921SOL    HW218663   4.186   5.232   6.286
 5922SOL     OW18664   6.106   3.908   4.263
 5922SOL    HW118665   6.137   3.941   4.352
 5922SOL    HW218666   6.115   3.981   4.195
 5923SOL     OW18667   0.130   0.599   1.698
 5923SOL    HW118668   0.106   0.663   1.771
 5923SOL    HW218669   0.149   0.509   1.737
 5924SOL     OW18670   5.792   6.841   3.134
 5924SOL    HW118671   5.883   6.858   3.170
 5924SOL    HW218672   5.777   6.899   3.053
 5925SOL     OW18673   3.972   5.839   1.750
 5925SOL    HW118674   3.968   5.798   1.658
 5925SOL    HW218675   4.062   5.822   1.790
 5926SOL     OW18676   4.749   4.028   2.641
 5926SOL    HW118677   4.656   3.991   2.639
 5926SOL    HW218678   4.778   4.049   2.548
 5927SOL     OW18679   0.698   3.985   2.046
 5927SOL    HW118680   0.634   3.911   2.028
 5927SOL    HW218681   0.788   3.947   2.068
 5928SOL     OW18682   3.642   6.874   1.884
 5928SOL    HW118683   3.675   6.932   1.959
 5928SOL    HW218684   3.581   6.804   1.921
 5929SOL     OW18685   5.944   1.344   5.580
 5929SOL    HW118686   5.916   1.399   5.659
 5929SOL    HW218687   6.040   1.319   5.589
 5930SOL     OW18688   0.618   2.675   2.864
 5930SOL    HW118689   0.679   2.724   2.927
 5930SOL    HW218690   0.671   2.610   2.810
 5931SOL     OW18691   5.997   5.860   2.418
 5931SOL    HW118692   6.002   5.830   2.513
 5931SOL    HW218693   5.934   5.802   2.367
 5932SOL     OW18694   3.187   0.256   6.694
 5932SOL    HW118695   3.148   0.226   6.781
 5932SOL    HW218696   3.261   0.194   6.668
 5933SOL     OW18697   6.591   4.894   3.969
 5933SOL    HW118698   6.584   4.794   3.965
 5933SOL    HW218699   6.565   4.925   4.061
 5934SOL     OW18700   3.655   3.088   5.389
 5934SOL    HW118701   3.686   3.102   5.483
 5934SOL    HW218702   3.728   3.044   5.337
 5935SOL     OW18703   0.689   6.189   5.297
 5935SOL    HW118704   0.619   6.123   5.269
 5935SOL    HW218705   0.705   6.181   5.395
 5936SOL     OW18706   3.088   3.646   2.108
 5936SOL    HW118707   3.042   3.609   2.189
 5936SOL    HW218708   3.022   3.658   2.034
 5937SOL     OW18709   5.763   3.100   2.045
 5937SOL    HW118710   5.850   3.082   2.091
 5937SOL    HW218711   5.726   3.187   2.079
 5938SOL     OW18712   5.730   6.126   4.663
 5938SOL    HW118713   5.756   6.067   4.739
 5938SOL    HW218714   5.804   6.191   4.646
 5939SOL     OW18715   2.917   5.945   4.544
 5939SOL    HW118716   2.996   5.892   4.516
 5939SOL    HW218717   2.940   6.042   4.547
 5940SOL     OW18718   4.220   5.157   3.840
 5940SOL    HW118719   4.218   5.057   3.850
 5940SOL    HW218720   4.254   5.198   3.924
 5941SOL     OW18721   5.585   2.691   3.361
 5941SOL    HW118722   5.608   2.711   3.456
 5941SOL    HW218723   5.574   2.777   3.311
 5942SOL     OW18724   5.484   3.538   6.736
 5942SOL    HW118725   5.503   3.441   6.718
 5942SOL    HW218726   5.557   3.594   6.696
 5943SOL     OW18727   3.936   3.063   6.678
 5943SOL    HW118728   3.926   2.985   6.616
 5943SOL    HW218729   3.849   3.081   6.723
 5944SOL     OW18730   0.866   2.589   0.143
 5944SOL    HW118731   0.776   2.606   0.181
 5944SOL    HW218732   0.866   2.501   0.095
 5945SOL     OW18733   0.278   5.956   5.391
 5945SOL    HW118734   0.181   5.935   5.379
 5945SOL    HW218735   0.291   6.055   5.385
 5946SOL     OW18736   3.251   4.559   6.946
 5946SOL    HW118737   3.189   4.487   6.915
 5946SOL    HW218738   3.267   4.623   6.871
 5947SOL     OW18739   3.208   3.584   3.433
 5947SOL    HW118740   3.268   3.519   3.481
 5947SOL    HW218741   3.117   3.543   3.424
 5948SOL     OW18742   4.542   4.598   2.402
 5948SOL    HW118743   4.593   4.638   2.326
 5948SOL    HW218744   4.586   4.513   2.431
 5949SOL     OW18745   4.770   5.211   1.227
 5949SOL    HW118746   4.825   5.142   1.272
 5949SOL    HW218747   4.789   5.209   1.128
 5950SOL     OW18748   4.786   2.205   5.492
 5950SOL    HW118749   4.716   2.199   5.420
 5950SOL    HW218750   4.868   2.158   5.461
 5951SOL     OW18751   1.036   5.595   5.238
 5951SOL    HW118752   0.957   5.604   5.298
 5951SOL    HW218753   1.049   5.679   5.187
 5952SOL     OW18754   4.199   5.436   3.440
 5952SOL    HW118755   4.234   5.361   3.384
 5952SOL    HW218756   4.169   5.511   3.381
 5953SOL     OW18757   6.845   4.322   5.172
 5953SOL    HW118758   6.940   4.352   5.184
 5953SOL    HW218759   6.832   4.288   5.079
 5954SOL     OW18760   0.385   5.523   5.549
 5954SOL    HW118761   0.361   5.429   5.574
 5954SOL    HW218762   0.482   5.539   5.565
 5955SOL     OW18763   4.222   5.029   1.570
 5955SOL    HW118764   4.307   4.984   1.598
 5955SOL    HW218765   4.237   5.128   1.567
 5956SOL     OW18766   5.792   1.604   3.804
 5956SOL    HW118767   5.769   1.570   3.713
 5956SOL    HW218768   5.713   1.594   3.864
 5957SOL     OW18769   2.353   1.784   3.765
 5957SOL    HW118770   2.286   1.709   3.768
 5957SOL    HW218771   2.436   1.756   3.813
 5958SOL     OW18772   4.107   0.330   2.846
 5958SOL    HW118773   4.081   0.248   2.795
 5958SOL    HW218774   4.058   0.409   2.809
 5959SOL     OW18775   4.156   2.473   5.739
 5959SOL    HW118776   4.142   2.375   5.757
 5959SOL    HW218777   4.250   2.489   5.711
 5960SOL     OW18778   2.680   6.238   4.365
 5960SOL    HW118779   2.777   6.228   4.389
 5960SOL    HW218780   2.672   6.288   4.279
 5961SOL     OW18781   4.719   1.139   2.560
 5961SOL    HW118782   4.727   1.202   2.483
 5961SOL    HW218783   4.736   1.045   2.529
 5962SOL     OW18784   5.468   5.747   5.980
 5962SOL    HW118785   5.550   5.699   6.014
 5962SOL    HW218786   5.454   5.829   6.035
 5963SOL     OW18787   2.980   3.952   6.400
 5963SOL    HW118788   2.890   3.919   6.372
 5963SOL    HW218789   3.028   3.881   6.452
 5964SOL     OW18790   2.715   6.886   4.211
 5964SOL    HW118791   2.738   6.860   4.118
 5964SOL    HW218792   2.763   6.971   4.235
 5965SOL     OW18793   2.108   0.593   0.203
 5965SOL    HW118794   2.132   0.514   0.146
 5965SOL    HW218795   2.188   0.651   0.214
 5966SOL     OW18796   0.930   6.907   6.100
 5966SOL    HW118797   0.928   6.904   6.200
 5966SOL    HW218798   0.863   6.843   6.064
 5967SOL     OW18799   1.720   0.017   5.636
 5967SOL    HW118800   1.790   0.088   5.630
 5967SOL    HW218801   1.643   0.050   5.690
 5968SOL     OW18802   5.852   2.637   0.197
 5968SOL    HW118803   5.867   2.729   0.160
 5968SOL    HW218804   5.775   2.594   0.149
 5969SOL     OW18805   4.907   0.867   6.668
 5969SOL    HW118806   4.959   0.938   6.715
 5969SOL    HW218807   4.915   0.879   6.569
 5970SOL     OW18808   0.576   4.538   0.851
 5970SOL    HW118809   0.523   4.453   0.839
 5970SOL    HW218810   0.534   4.610   0.796
 5971SOL     OW18811   6.471   0.178   1.598
 5971SOL    HW118812   6.427   0.259   1.636
 5971SOL    HW218813   6.404   0.124   1.547
 5972SOL     OW18814   5.005   5.990   6.389
 5972SOL    HW118815   5.081   6.052   6.406
 5972SOL    HW218816   4.923   6.043   6.368
 5973SOL     OW18817   1.817   3.056   2.822
 5973SOL    HW118818   1.834   3.065   2.920
 5973SOL    HW218819   1.764   2.973   2.804
 5974SOL     OW18820   4.840   0.221   0.372
 5974SOL    HW118821   4.884   0.144   0.419
 5974SOL    HW218822   4.907   0.295   0.359
 5975SOL     OW18823   3.891   6.009   0.700
 5975SOL    HW118824   3.978   6.058   0.706
 5975SOL    HW218825   3.833   6.052   0.631
 5976SOL     OW18826   3.406   3.010   5.308
 5976SOL    HW118827   3.360   2.981   5.392
 5976SOL    HW218828   3.496   3.047   5.331
 5977SOL     OW18829   0.479   5.865   0.558
 5977SOL    HW118830   0.397   5.842   0.611
 5977SOL    HW218831   0.539   5.922   0.614
 5978SOL     OW18832   3.682   5.606   1.352
 5978SOL    HW118833   3.640   5.531   1.300
 5978SOL    HW218834   3.688   5.687   1.295
 5979SOL     OW18835   6.651   0.928   2.110
 5979SOL    HW118836   6.627   0.853   2.172
 5979SOL    HW218837   6.746   0.955   2.126
 5980SOL     OW18838   3.725   3.102   1.773
 5980SOL    HW118839   3.777   3.142   1.849
 5980SOL    HW218840   3.627   3.114   1.789
 5981SOL     OW18841   4.914   1.753   0.275
 5981SOL    HW118842   4.834   1.730   0.332
 5981SOL    HW218843   4.990   1.780   0.334
 5982SOL     OW18844   6.078   2.276   2.872
 5982SOL    HW118845   5.989   2.292   2.915
 5982SOL    HW218846   6.079   2.315   2.780
 5983SOL     OW18847   1.252   0.865   4.202
 5983SOL    HW118848   1.232   0.963   4.207
 5983SOL    HW218849   1.340   0.851   4.155
 5984SOL     OW18850   5.789   6.647   3.504
 5984SOL    HW118851   5.733   6.632   3.422
 5984SOL    HW218852   5.882   6.613   3.488
 5985SOL     OW18853   6.506   2.558   3.551
 5985SOL    HW118854   6.603   2.583   3.546
 5985SOL    HW218855   6.456   2.608   3.480
 5986SOL     OW18856   3.782   3.775   5.648
 5986SOL    HW118857   3.685   3.766   5.623
 5986SOL    HW218858   3.829   3.830   5.579
 5987SOL     OW18859   5.562   0.781   4.794
 5987SOL    HW118860   5.462   0.774   4.795
 5987SOL    HW218861   5.601   0.694   4.823
 5988SOL     OW18862   3.612   0.589   6.622
 5988SOL    HW118863   3.610   0.565   6.525
 5988SOL    HW218864   3.692   0.548   6.665
 5989SOL     OW18865   1.375   5.095   5.773
 5989SOL    HW118866   1.408   5.041   5.695
 5989SOL    HW218867   1.277   5.079   5.785
 5990SOL     OW18868   3.909   4.140   0.400
 5990SOL    HW118869   3.866   4.149   0.490
 5990SOL    HW218870   3.924   4.231   0.361
 5991SOL     OW18871   4.594   5.990   6.774
 5991SOL    HW118872   4.624   5.959   6.864
 5991SOL    HW218873   4.628   5.927   6.704
 5992SOL     OW18874   3.326   6.596   2.029
 5992SOL    HW118875   3.297   6.592   2.125
 5992SOL    HW218876   3.417   6.554   2.020
 5993SOL     OW18877   5.266   4.070   6.405
 5993SOL    HW118878   5.325   4.044   6.328
 5993SOL    HW218879   5.320   4.069   6.490
 5994SOL     OW18880   6.696   2.655   0.945
 5994SOL    HW118881   6.601   2.680   0.927
 5994SOL    HW218882   6.719   2.677   1.040
 5995SOL     OW18883   4.852   2.788   2.027
 5995SOL    HW118884   4.833   2.886   2.029
 5995SOL    HW218885   4.815   2.749   1.942
 5996SOL     OW18886   1.551   5.242   1.815
 5996SOL    HW118887   1.510   5.225   1.725
 5996SOL    HW218888   1.522   5.170   1.879
 5997SOL     OW18889   1.067   6.652   3.186
 5997SOL    HW118890   1.129   6.628   3.261
 5997SOL    HW218891   1.108   6.627   3.099
 5998SOL     OW18892   5.817   0.599   1.516
 5998SOL    HW118893   5.889   0.538   1.549
 5998SOL    HW218894   5.781   0.564   1.429
 5999SOL     OW18895   2.525   3.177   1.054
 5999SOL    HW118896   2.461   3.185   0.977
 5999SOL    HW218897   2.559   3.083   1.060
 6000SOL     OW18898   0.771   6.172   0.334
 6000SOL    HW118899   0.767   6.091   0.392
 6000SOL    HW218900   0.698   6.235   0.361
 6001SOL     OW18901   6.002   5.499   6.923
 6001SOL    HW118902   6.094   5.474   6.891
 6001SOL    HW218903   5.998   5.490   7.022
 6002SOL     OW18904   6.294   0.059   5.862
 6002SOL    HW118905   6.305   6.982   5.859
 6002SOL    HW218906   6.320   0.098   5.774
 6003SOL     OW18907   5.541   2.701   4.515
 6003SOL    HW118908   5.538   2.761   4.596
 6003SOL    HW218909   5.633   2.703   4.476
 6004SOL     OW18910   6.401   2.196   3.642
 6004SOL    HW118911   6.350   2.198   3.555
 6004SOL    HW218912   6.472   2.267   3.640
 6005SOL     OW18913   5.690   4.717   5.360
 6005SOL    HW118914   5.621   4.713   5.432
 6005SOL    HW218915   5.665   4.654   5.286
 6006SOL     OW18916   2.891   0.623   5.116
 6006SOL    HW118917   2.969   0.569   5.148
 6006SOL    HW218918   2.923   0.691   5.050
 6007SOL     OW18919   0.291   3.245   6.152
 6007SOL    HW118920   0.338   3.158   6.164
 6007SOL    HW218921   0.198   3.229   6.117
 6008SOL     OW18922   2.354   4.848   5.180
 6008SOL    HW118923   2.259   4.873   5.193
 6008SOL    HW218924   2.380   4.865   5.085
 6009SOL     OW18925   4.220   5.917   3.048
 6009SOL    HW118926   4.208   5.854   3.125
 6009SOL    HW218927   4.212   6.011   3.080
 6010SOL     OW18928   0.675   4.335   3.457
 6010SOL    HW118929   0.700   4.422   3.414
 6010SOL    HW218930   0.713   4.331   3.549
 6011SOL     OW18931   4.814   3.148   2.940
 6011SOL    HW118932   4.756   3.095   3.003
 6011SOL    HW218933   4.824   3.241   2.974
 6012SOL     OW18934   6.300   0.751   0.127
 6012SOL    HW118935   6.321   0.828   0.188
 6012SOL    HW218936   6.286   0.668   0.182
 6013SOL     OW18937   5.102   1.023   2.780
 6013SOL    HW118938   5.096   1.122   2.775
 6013SOL    HW218939   5.024   0.982   2.732
 6014SOL     OW18940   3.408   4.114   3.946
 6014SOL    HW118941   3.413   4.156   3.855
 6014SOL    HW218942   3.313   4.098   3.970
 6015SOL     OW18943   6.354   3.538   4.533
 6015SOL    HW118944   6.340   3.594   4.452
 6015SOL    HW218945   6.366   3.597   4.613
 6016SOL     OW18946   5.726   1.852   5.797
 6016SOL    HW118947   5.699   1.778   5.735
 6016SOL    HW218948   5.670   1.849   5.880
 6017SOL     OW18949   0.065   5.038   5.106
 6017SOL    HW118950   0.113   5.089   5.034
 6017SOL    HW218951   7.008   5.091   5.136
 6018SOL     OW18952   3.393   1.051   4.935
 6018SOL    HW118953   3.353   1.117   4.999
 6018SOL    HW218954   3.363   0.959   4.959
 6019SOL     OW18955   0.872   3.327   5.469
 6019SOL    HW118956   0.834   3.374   5.389
 6019SOL    HW218957   0.909   3.394   5.533
 6020SOL     OW18958   0.689   5.532   0.488
 6020SOL    HW118959   0.667   5.494   0.578
 6020SOL    HW218960   0.606   5.567   0.445
 6021SOL     OW18961   4.700   0.292   3.006
 6021SOL    HW118962   4.640   0.214   2.992
 6021SOL    HW218963   4.749   0.312   2.921
 6022SOL     OW18964   0.085   1.701   3.425
 6022SOL    HW118965   0.158   1.691   3.357
 6022SOL    HW218966   7.021   1.674   3.383
 6023SOL     OW18967   5.310   0.529   2.009
 6023SOL    HW118968   5.366   0.483   2.078
 6023SOL    HW218969   5.321   0.482   1.921
 6024SOL     OW18970   0.814   4.435   0.875
 6024SOL    HW118971   0.738   4.500   0.877
 6024SOL    HW218972   0.840   4.416   0.781
 6025SOL     OW18973   3.545   1.306   3.190
 6025SOL    HW118974   3.583   1.398   3.185
 6025SOL    HW218975   3.446   1.311   3.195
 6026SOL     OW18976   6.969   5.415   4.947
 6026SOL    HW118977   6.936   5.507   4.926
 6026SOL    HW218978   0.029   5.422   5.003
 6027SOL     OW18979   0.437   3.029   5.768
 6027SOL    HW118980   0.460   2.960   5.700
 6027SOL    HW218981   0.337   3.036   5.776
 6028SOL     OW18982   5.267   4.804   0.856
 6028SOL    HW118983   5.351   4.842   0.894
 6028SOL    HW218984   5.189   4.837   0.910
 6029SOL     OW18985   2.684   6.792   3.948
 6029SOL    HW118986   2.627   6.721   3.989
 6029SOL    HW218987   2.775   6.756   3.928
 6030SOL     OW18988   4.992   3.700   4.600
 6030SOL    HW118989   4.929   3.777   4.587
 6030SOL    HW218990   4.963   3.647   4.679
 6031SOL     OW18991   2.142   5.615   4.590
 6031SOL    HW118992   2.234   5.596   4.626
 6031SOL    HW218993   2.100   5.688   4.644
 6032SOL     OW18994   2.821   4.754   2.984
 6032SOL    HW118995   2.784   4.775   3.075
 6032SOL    HW218996   2.908   4.802   2.972
 6033SOL     OW18997   2.135   3.240   2.645
 6033SOL    HW118998   2.110   3.311   2.580
 6033SOL    HW218999   2.068   3.165   2.640
 6034SOL     OW19000   0.756   0.437   6.361
 6034SOL    HW119001   0.793   0.514   6.310
 6034SOL    HW219002   0.667   0.462   6.399
 6035SOL     OW19003   1.484   0.206   2.640
 6035SOL    HW119004   1.510   0.134   2.575
 6035SOL    HW219005   1.395   0.184   2.680
 6036SOL     OW19006   5.990   4.938   1.462
 6036SOL    HW119007   5.923   4.866   1.481
 6036SOL    HW219008   5.944   5.017   1.422
 6037SOL     OW19009   3.483   6.774   0.566
 6037SOL    HW119010   3.565   6.771   0.623
 6037SOL    HW219011   3.410   6.821   0.616
 6038SOL     OW19012   1.115   2.622   6.568
 6038SOL    HW119013   1.132   2.541   6.512
 6038SOL    HW219014   1.087   2.698   6.509
 6039SOL     OW19015   4.113   3.374   3.317
 6039SOL    HW119016   4.077   3.298   3.371
 6039SOL    HW219017   4.131   3.342   3.224
 6040SOL     OW19018   1.807   1.594   0.625
 6040SOL    HW119019   1.783   1.683   0.663
 6040SOL    HW219020   1.886   1.605   0.564
 6041SOL     OW19021   3.244   2.124   5.250
 6041SOL    HW119022   3.287   2.163   5.332
 6041SOL    HW219023   3.227   2.196   5.184
 6042SOL     OW19024   3.677   6.756   2.923
 6042SOL    HW119025   3.664   6.663   2.888
 6042SOL    HW219026   3.772   6.784   2.908
 6043SOL     OW19027   1.150   0.508   4.547
 6043SOL    HW119028   1.153   0.562   4.631
 6043SOL    HW219029   1.162   0.569   4.468
 6044SOL     OW19030   2.434   2.131   1.897
 6044SOL    HW119031   2.417   2.195   1.972
 6044SOL    HW219032   2.526   2.092   1.907
 6045SOL     OW19033   5.397   3.604   3.799
 6045SOL    HW119034   5.450   3.647   3.872
 6045SOL    HW219035   5.377   3.510   3.823
 6046SOL     OW19036   3.273   2.620   0.156
 6046SOL    HW119037   3.293   2.522   0.151
 6046SOL    HW219038   3.194   2.635   0.215
 6047SOL     OW19039   5.424   2.212   1.079
 6047SOL    HW119040   5.355   2.152   1.040
 6047SOL    HW219041   5.476   2.163   1.149
 6048SOL     OW19042   5.116   5.569   5.021
 6048SOL    HW119043   5.126   5.668   5.026
 6048SOL    HW219044   5.084   5.533   5.108
 6049SOL     OW19045   4.948   4.459   6.146
 6049SOL    HW119046   5.020   4.442   6.213
 6049SOL    HW219047   4.985   4.513   6.070
 6050SOL     OW19048   2.260   5.196   0.913
 6050SOL    HW119049   2.222   5.282   0.879
 6050SOL    HW219050   2.217   5.172   1.001
 6051SOL     OW19051   1.831   6.394   2.576
 6051SOL    HW119052   1.834   6.326   2.503
 6051SOL    HW219053   1.922   6.408   2.614
 6052SOL     OW19054   5.378   1.513   1.609
 6052SOL    HW119055   5.365   1.600   1.561
 6052SOL    HW219056   5.385   1.529   1.707
 6053SOL     OW19057   3.932   0.558   6.089
 6053SOL    HW119058   3.862   0.587   6.024
 6053SOL    HW219059   3.891   0.541   6.178
 6054SOL     OW19060   3.353   4.452   0.733
 6054SOL    HW119061   3.298   4.522   0.777
 6054SOL    HW219062   3.409   4.406   0.802
 6055SOL     OW19063   3.999   5.855   5.944
 6055SOL    HW119064   4.013   5.850   6.043
 6055SOL    HW219065   3.979   5.764   5.909
 6056SOL     OW19066   5.049   3.158   5.229
 6056SOL    HW119067   5.011   3.235   5.178
 6056SOL    HW219068   4.976   3.112   5.279
 6057SOL     OW19069   6.048   0.289   2.160
 6057SOL    HW119070   5.990   0.362   2.124
 6057SOL    HW219071   6.144   0.315   2.148
 6058SOL     OW19072   5.656   4.112   0.197
 6058SOL    HW119073   5.647   4.148   0.290
 6058SOL    HW219074   5.732   4.047   0.194
 6059SOL     OW19075   5.126   4.496   5.461
 6059SOL    HW119076   5.027   4.485   5.454
 6059SOL    HW219077   5.146   4.586   5.502
 6060SOL     OW19078   2.489   3.268   6.690
 6060SOL    HW119079   2.422   3.210   6.644
 6060SOL    HW219080   2.567   3.213   6.718
 6061SOL     OW19081   4.813   3.957   0.855
 6061SOL    HW119082   4.881   4.009   0.907
 6061SOL    HW219083   4.860   3.890   0.798
 6062SOL     OW19084   2.251   1.596   6.856
 6062SOL    HW119085   2.305   1.668   6.811
 6062SOL    HW219086   2.313   1.524   6.888
 6063SOL     OW19087   3.495   3.733   5.509
 6063SOL    HW119088   3.460   3.651   5.464
 6063SOL    HW219089   3.516   3.802   5.440
 6064SOL     OW19090   1.235   0.946   0.971
 6064SOL    HW119091   1.174   1.007   1.021
 6064SOL    HW219092   1.307   1.001   0.927
 6065SOL     OW19093   0.326   5.727   1.758
 6065SOL    HW119094   0.320   5.827   1.754
 6065SOL    HW219095   0.234   5.689   1.756
 6066SOL     OW19096   5.474   1.330   5.587
 6066SOL    HW119097   5.442   1.237   5.598
 6066SOL    HW219098   5.568   1.338   5.621
 6067SOL     OW19099   4.803   1.033   5.263
 6067SOL    HW119100   4.859   1.075   5.192
 6067SOL    HW219101   4.817   1.081   5.350
 6068SOL     OW19102   4.996   2.568   4.563
 6068SOL    HW119103   4.909   2.592   4.605
 6068SOL    HW219104   5.015   2.631   4.487
 6069SOL     OW19105   6.547   3.874   5.047
 6069SOL    HW119106   6.575   3.782   5.021
 6069SOL    HW219107   6.609   3.909   5.118
 6070SOL     OW19108   3.563   2.913   1.049
 6070SOL    HW119109   3.481   2.857   1.061
 6070SOL    HW219110   3.537   3.009   1.044
 6071SOL     OW19111   1.358   5.777   4.291
 6071SOL    HW119112   1.420   5.784   4.369
 6071SOL    HW219113   1.308   5.690   4.296
 6072SOL     OW19114   0.964   0.970   1.915
 6072SOL    HW119115   0.905   1.007   1.988
 6072SOL    HW219116   0.949   0.872   1.906
 6073SOL     OW19117   5.231   2.702   0.879
 6073SOL    HW119118   5.224   2.662   0.971
 6073SOL    HW219119   5.171   2.782   0.874
 6074SOL     OW19120   2.018   6.563   1.918
 6074SOL    HW119121   2.075   6.610   1.851
 6074SOL    HW219122   2.071   6.542   2.000
 6075SOL     OW19123   4.631   0.097   5.028
 6075SOL    HW119124   4.606   0.188   4.992
 6075SOL    HW219125   4.650   0.104   5.126
 6076SOL     OW19126   2.458   5.162   3.418
 6076SOL    HW119127   2.484   5.222   3.343
 6076SOL    HW219128   2.513   5.183   3.499
 6077SOL     OW19129   6.553   6.060   1.143
 6077SOL    HW119130   6.631   6.007   1.110
 6077SOL    HW219131   6.562   6.076   1.241
 6078SOL     OW19132   4.576   4.718   0.379
 6078SOL    HW119133   4.585   4.735   0.281
 6078SOL    HW219134   4.562   4.620   0.395
 6079SOL     OW19135   5.355   4.807   6.608
 6079SOL    HW119136   5.378   4.732   6.670
 6079SOL    HW219137   5.275   4.856   6.643
 6080SOL     OW19138   0.580   5.251   1.415
 6080SOL    HW119139   0.672   5.256   1.455
 6080SOL    HW219140   0.563   5.159   1.381
 6081SOL     OW19141   0.018   2.835   5.165
 6081SOL    HW119142   6.975   2.879   5.104
 6081SOL    HW219143   0.077   2.904   5.205
 6082SOL     OW19144   3.416   6.611   2.634
 6082SOL    HW119145   3.480   6.687   2.621
 6082SOL    HW219146   3.323   6.641   2.612
 6083SOL     OW19147   5.758   5.792   0.935
 6083SOL    HW119148   5.843   5.797   0.883
 6083SOL    HW219149   5.712   5.881   0.933
 6084SOL     OW19150   0.792   6.639   2.349
 6084SOL    HW119151   0.765   6.543   2.354
 6084SOL    HW219152   0.859   6.650   2.275
 6085SOL     OW19153   6.985   5.740   6.792
 6085SOL    HW119154   6.979   5.835   6.763
 6085SOL    HW219155   6.918   5.723   6.864
 6086SOL     OW19156   2.675   1.981   5.901
 6086SOL    HW119157   2.596   1.921   5.894
 6086SOL    HW219158   2.674   2.046   5.825
 6087SOL     OW19159   3.771   5.814   0.873
 6087SOL    HW119160   3.677   5.817   0.841
 6087SOL    HW219161   3.825   5.883   0.824
 6088SOL     OW19162   5.680   6.728   4.829
 6088SOL    HW119163   5.587   6.764   4.825
 6088SOL    HW219164   5.741   6.787   4.775
 6089SOL     OW19165   6.150   2.214   3.206
 6089SOL    HW119166   6.181   2.295   3.255
 6089SOL    HW219167   6.128   2.238   3.112
 6090SOL     OW19168   2.111   4.859   4.316
 6090SOL    HW119169   2.145   4.951   4.294
 6090SOL    HW219170   2.026   4.842   4.264
 6091SOL     OW19171   2.742   1.555   0.369
 6091SOL    HW119172   2.675   1.541   0.442
 6091SOL    HW219173   2.805   1.477   0.368
 6092SOL     OW19174   4.652   1.071   1.847
 6092SOL    HW119175   4.720   1.130   1.804
 6092SOL    HW219176   4.690   0.979   1.858
 6093SOL     OW19177   2.352   2.363   1.731
 6093SOL    HW119178   2.378   2.280   1.781
 6093SOL    HW219179   2.317   2.431   1.795
 6094SOL     OW19180   1.386   5.891   3.196
 6094SOL    HW119181   1.416   5.832   3.121
 6094SOL    HW219182   1.320   5.841   3.252
 6095SOL     OW19183   4.730   4.773   6.553
 6095SOL    HW119184   4.719   4.761   6.651
 6095SOL    HW219185   4.806   4.835   6.535
 6096SOL     OW19186   6.190   6.675   2.224
 6096SOL    HW119187   6.276   6.629   2.202
 6096SOL    HW219188   6.173   6.670   2.322
 6097SOL     OW19189   1.921   5.277   2.389
 6097SOL    HW119190   2.016   5.258   2.411
 6097SOL    HW219191   1.884   5.201   2.335
 6098SOL     OW19192   0.028   1.255   6.031
 6098SOL    HW119193   0.031   1.279   6.128
 6098SOL    HW219194   7.020   1.334   5.978
 6099SOL     OW19195   4.896   5.705   5.510
 6099SOL    HW119196   4.905   5.764   5.591
 6099SOL    HW219197   4.984   5.699   5.463
 6100SOL     OW19198   0.403   6.310   2.407
 6100SOL    HW119199   0.422   6.389   2.465
 6100SOL    HW219200   0.332   6.335   2.340
 6101SOL     OW19201   6.772   2.984   2.745
 6101SOL    HW119202   6.759   2.972   2.646
 6101SOL    HW219203   6.698   3.040   2.781
 6102SOL     OW19204   4.143   5.370   2.744
 6102SOL    HW119205   4.222   5.383   2.804
 6102SOL    HW219206   4.059   5.368   2.798
 6103SOL     OW19207   6.584   0.692   0.985
 6103SOL    HW119208   6.518   0.660   0.917
 6103SOL    HW219209   6.547   0.771   1.033
 6104SOL     OW19210   5.875   0.059   5.025
 6104SOL    HW119211   5.824   0.103   5.099
 6104SOL    HW219212   5.947   0.121   4.993
 6105SOL     OW19213   1.568   5.198   5.938
 6105SOL    HW119214   1.545   5.295   5.935
 6105SOL    HW219215   1.506   5.147   5.877
 6106SOL     OW19216   1.285   4.776   7.019
 6106SOL    HW119217   1.366   4.722   6.997
 6106SOL    HW219218   1.259   4.832   6.941
 6107SOL     OW19219   4.885   5.565   4.871
 6107SOL    HW119220   4.840   5.649   4.903
 6107SOL    HW219221   4.972   5.554   4.919
 6108SOL     OW19222   2.274   2.337   3.768
 6108SOL    HW119223   2.313   2.280   3.695
 6108SOL    HW219224   2.178   2.357   3.746
 6109SOL     OW19225   5.433   1.078   5.670
 6109SOL    HW119226   5.370   1.057   5.744
 6109SOL    HW219227   5.471   0.994   5.633
 6110SOL     OW19228   2.789   3.125   0.712
 6110SOL    HW119229   2.783   3.171   0.623
 6110SOL    HW219230   2.704   3.075   0.730
 6111SOL     OW19231   1.084   3.516   2.410
 6111SOL    HW119232   1.073   3.417   2.399
 6111SOL    HW219233   1.007   3.553   2.462
 6112SOL     OW19234   4.390   0.664   2.627
 6112SOL    HW119235   4.329   0.682   2.704
 6112SOL    HW219236   4.467   0.608   2.657
 6113SOL     OW19237   2.541   2.939   6.713
 6113SOL    HW119238   2.574   2.845   6.725
 6113SOL    HW219239   2.585   2.999   6.779
 6114SOL     OW19240   5.017   3.641   2.719
 6114SOL    HW119241   5.020   3.544   2.694
 6114SOL    HW219242   5.011   3.697   2.636
 6115SOL     OW19243   6.286   1.120   4.721
 6115SOL    HW119244   6.254   1.049   4.783
 6115SOL    HW219245   6.361   1.171   4.764
 6116SOL     OW19246   3.767   1.608   6.238
 6116SOL    HW119247   3.718   1.565   6.314
 6116SOL    HW219248   3.855   1.561   6.224
 6117SOL     OW19249   1.767   2.067   3.220
 6117SOL    HW119250   1.751   1.970   3.200
 6117SOL    HW219251   1.851   2.097   3.174
 6118SOL     OW19252   5.715   1.349   1.523
 6118SOL    HW119253   5.799   1.383   1.481
 6118SOL    HW219254   5.636   1.381   1.471
 6119SOL     OW19255   1.296   3.617   0.586
 6119SOL    HW119256   1.355   3.634   0.665
 6119SOL    HW219257   1.200   3.615   0.615
 6120SOL     OW19258   1.754   6.234   5.677
 6120SOL    HW119259   1.677   6.171   5.663
 6120SOL    HW219260   1.830   6.208   5.618
 6121SOL     OW19261   1.270   3.705   5.595
 6121SOL    HW119262   1.261   3.803   5.574
 6121SOL    HW219263   1.240   3.688   5.689
 6122SOL     OW19264   4.636   5.491   6.947
 6122SOL    HW119265   4.736   5.499   6.955
 6122SOL    HW219266   4.612   5.466   6.854
 6123SOL     OW19267   4.694   6.806   5.522
 6123SOL    HW119268   4.711   6.708   5.521
 6123SOL    HW219269   4.689   6.838   5.616
 6124SOL     OW19270   0.685   6.772   6.021
 6124SOL    HW119271   0.641   6.838   5.960
 6124SOL    HW219272   0.685   6.682   5.979
 6125SOL     OW19273   2.390   4.268   0.157
 6125SOL    HW119274   2.468   4.213   0.188
 6125SOL    HW219275   2.307   4.238   0.205
 6126SOL     OW19276   0.242   1.184   5.034
 6126SOL    HW119277   0.253   1.231   5.122
 6126SOL    HW219278   0.173   1.112   5.044
 6127SOL     OW19279   4.070   6.927   1.950
 6127SOL    HW119280   4.162   6.908   1.917
 6127SOL    HW219281   4.075   6.964   2.043
 6128SOL     OW19282   5.651   5.631   0.721
 6128SOL    HW119283   5.720   5.634   0.794
 6128SOL    HW219284   5.586   5.557   0.740
 6129SOL     OW19285   0.793   3.471   2.862
 6129SOL    HW119286   0.888   3.448   2.842
 6129SOL    HW219287   0.741   3.476   2.776
 6130SOL     OW19288   5.167   2.607   2.869
 6130SOL    HW119289   5.084   2.561   2.838
 6130SOL    HW219290   5.144   2.672   2.942
 6131SOL     OW19291   0.706   1.603   3.146
 6131SOL    HW119292   0.723   1.546   3.227
 6131SOL    HW219293   0.620   1.653   3.157
 6132SOL     OW19294   3.729   2.225   6.685
 6132SOL    HW119295   3.677   2.152   6.639
 6132SOL    HW219296   3.666   2.284   6.735
 6133SOL     OW19297   2.130   3.330   3.155
 6133SOL    HW119298   2.149   3.318   3.058
 6133SOL    HW219299   2.173   3.415   3.188
 6134SOL     OW19300   4.373   6.532   0.053
 6134SOL    HW119301   4.311   6.549   7.000
 6134SOL    HW219302   4.330   6.562   0.138
 6135SOL     OW19303   0.560   5.573   1.497
 6135SOL    HW119304   0.569   5.476   1.474
 6135SOL    HW219305   0.463   5.597   1.501
 6136SOL     OW19306   1.206   2.765   1.602
 6136SOL    HW119307   1.238   2.695   1.538
 6136SOL    HW219308   1.137   2.726   1.663
 6137SOL     OW19309   0.328   4.179   2.556
 6137SOL    HW119310   0.288   4.250   2.498
 6137SOL    HW219311   0.349   4.099   2.500
 6138SOL     OW19312   3.664   0.092   3.757
 6138SOL    HW119313   3.632   0.185   3.736
 6138SOL    HW219314   3.653   0.034   3.677
 6139SOL     OW19315   0.702   6.635   5.635
 6139SOL    HW119316   0.603   6.624   5.635
 6139SOL    HW219317   0.744   6.560   5.583
 6140SOL     OW19318   0.708   0.565   2.144
 6140SOL    HW119319   0.753   0.505   2.210
 6140SOL    HW219320   0.700   0.519   2.056
 6141SOL     OW19321   0.019   0.160   6.316
 6141SOL    HW119322   0.063   0.077   6.280
 6141SOL    HW219323   6.958   0.134   6.364
 6142SOL     OW19324   0.465   5.429   6.295
 6142SOL    HW119325   0.454   5.354   6.229
 6142SOL    HW219326   0.408   5.412   6.375
 6143SOL     OW19327   0.025   4.320   0.782
 6143SOL    HW119328   0.004   4.301   0.878
 6143SOL    HW219329   0.083   4.247   0.746
 6144SOL     OW19330   5.077   5.099   3.752
 6144SOL    HW119331   5.033   5.073   3.838
 6144SOL    HW219332   5.018   5.072   3.676
 6145SOL     OW19333   5.211   4.865   4.008
 6145SOL    HW119334   5.278   4.852   4.081
 6145SOL    HW219335   5.255   4.910   3.930
 6146SOL     OW19336   3.341   5.976   3.238
 6146SOL    HW119337   3.407   5.939   3.173
 6146SOL    HW219338   3.325   5.910   3.311
 6147SOL     OW19339   1.912   2.429   5.063
 6147SOL    HW119340   1.823   2.417   5.019
 6147SOL    HW219341   1.903   2.412   5.161
 6148SOL     OW19342   4.185   5.742   5.788
 6148SOL    HW119343   4.140   5.812   5.844
 6148SOL    HW219344   4.242   5.684   5.846
 6149SOL     OW19345   2.909   6.669   1.555
 6149SOL    HW119346   2.897   6.609   1.476
 6149SOL    HW219347   2.826   6.667   1.611
 6150SOL     OW19348   6.002   4.072   6.513
 6150SOL    HW119349   5.957   4.149   6.558
 6150SOL    HW219350   6.023   4.001   6.581
 6151SOL     OW19351   6.024   4.906   5.392
 6151SOL    HW119352   5.931   4.936   5.411
 6151SOL    HW219353   6.089   4.973   5.428
 6152SOL     OW19354   0.625   5.616   4.836
 6152SOL    HW119355   0.695   5.593   4.904
 6152SOL    HW219356   0.660   5.597   4.745
 6153SOL     OW19357   5.685   4.881   1.437
 6153SOL    HW119358   5.735   4.946   1.381
 6153SOL    HW219359   5.649   4.807   1.379
 6154SOL     OW19360   5.771   3.409   2.355
 6154SOL    HW119361   5.865   3.434   2.335
 6154SOL    HW219362   5.720   3.490   2.385
 6155SOL     OW19363   2.963   0.881   2.832
 6155SOL    HW119364   2.945   0.816   2.758
 6155SOL    HW219365   3.061   0.899   2.837
 6156SOL     OW19366   4.524   4.809   1.356
 6156SOL    HW119367   4.586   4.847   1.286
 6156SOL    HW219368   4.464   4.741   1.314
 6157SOL     OW19369   0.848   2.125   2.703
 6157SOL    HW119370   0.829   2.146   2.799
 6157SOL    HW219371   0.879   2.209   2.656
 6158SOL     OW19372   3.793   2.509   6.950
 6158SOL    HW119373   3.712   2.511   6.890
 6158SOL    HW219374   3.805   2.418   6.987
 6159SOL     OW19375   4.161   2.418   0.709
 6159SOL    HW119376   4.205   2.355   0.645
 6159SOL    HW219377   4.062   2.402   0.709
 6160SOL     OW19378   6.013   0.096   6.554
 6160SOL    HW119379   5.979   0.037   6.627
 6160SOL    HW219380   5.942   0.161   6.529
 6161SOL     OW19381   5.558   1.441   0.179
 6161SOL    HW119382   5.626   1.417   0.248
 6161SOL    HW219383   5.553   1.368   0.111
 6162SOL     OW19384   6.091   6.337   3.770
 6162SOL    HW119385   6.132   6.394   3.841
 6162SOL    HW219386   6.161   6.279   3.730
 6163SOL     OW19387   5.141   5.992   2.058
 6163SOL    HW119388   5.149   5.915   2.121
 6163SOL    HW219389   5.127   6.076   2.109
 6164SOL     OW19390   3.391   4.163   4.616
 6164SOL    HW119391   3.351   4.132   4.530
 6164SOL    HW219392   3.335   4.132   4.693
 6165SOL     OW19393   4.434   1.506   6.027
 6165SOL    HW119394   4.377   1.438   6.073
 6165SOL    HW219395   4.399   1.598   6.046
 6166SOL     OW19396   5.991   1.794   0.851
 6166SOL    HW119397   6.008   1.857   0.776
 6166SOL    HW219398   5.905   1.818   0.897
 6167SOL     OW19399   1.035   4.822   2.750
 6167SOL    HW119400   1.054   4.751   2.817
 6167SOL    HW219401   0.953   4.872   2.777
 6168SOL     OW19402   0.306   3.161   3.429
 6168SOL    HW119403   0.403   3.184   3.423
 6168SOL    HW219404   0.262   3.220   3.497
 6169SOL     OW19405   1.340   2.146   0.289
 6169SOL    HW119406   1.397   2.221   0.255
 6169SOL    HW219407   1.290   2.176   0.370
 6170SOL     OW19408   3.091   4.185   5.287
 6170SOL    HW119409   3.053   4.095   5.308
 6170SOL    HW219410   3.191   4.181   5.289
 6171SOL     OW19411   1.576   3.555   1.322
 6171SOL    HW119412   1.518   3.625   1.280
 6171SOL    HW219413   1.521   3.473   1.339
 6172SOL     OW19414   1.094   0.714   3.549
 6172SOL    HW119415   1.092   0.802   3.501
 6172SOL    HW219416   1.135   0.726   3.639
 6173SOL     OW19417   6.797   4.982   2.487
 6173SOL    HW119418   6.750   4.916   2.428
 6173SOL    HW219419   6.733   5.017   2.555
 6174SOL     OW19420   5.916   5.124   2.866
 6174SOL    HW119421   5.835   5.159   2.819
 6174SOL    HW219422   5.900   5.029   2.894
 6175SOL     OW19423   5.206   0.397   3.747
 6175SOL    HW119424   5.192   0.480   3.693
 6175SOL    HW219425   5.146   0.325   3.715
 6176SOL     OW19426   6.515   2.628   0.482
 6176SOL    HW119427   6.508   2.623   0.382
 6176SOL    HW219428   6.425   2.615   0.523
 6177SOL     OW19429   6.395   1.993   1.254
 6177SOL    HW119430   6.374   2.084   1.289
 6177SOL    HW219431   6.442   1.940   1.325
 6178SOL     OW19432   4.575   5.038   2.446
 6178SOL    HW119433   4.479   5.023   2.468
 6178SOL    HW219434   4.628   5.041   2.531
 6179SOL     OW19435   6.539   5.101   4.458
 6179SOL    HW119436   6.576   5.180   4.505
 6179SOL    HW219437   6.441   5.113   4.444
 6180SOL     OW19438   3.448   6.072   6.369
 6180SOL    HW119439   3.442   6.016   6.452
 6180SOL    HW219440   3.531   6.049   6.319
 6181SOL     OW19441   4.170   6.590   1.294
 6181SOL    HW119442   4.260   6.558   1.325
 6181SOL    HW219443   4.143   6.671   1.346
 6182SOL     OW19444   5.522   3.728   5.580
 6182SOL    HW119445   5.470   3.785   5.644
 6182SOL    HW219446   5.460   3.692   5.510
 6183SOL     OW19447   3.121   7.012   2.980
 6183SOL    HW119448   3.142   0.018   3.073
 6183SOL    HW219449   3.033   6.966   2.978
 6184SOL     OW19450   1.391   6.669   6.166
 6184SOL    HW119451   1.435   6.652   6.254
 6184SOL    HW219452   1.323   6.742   6.176
 6185SOL     OW19453   0.691   4.557   6.238
 6185SOL    HW119454   0.787   4.581   6.223
 6185SOL    HW219455   0.656   4.608   6.316
 6186SOL     OW19456   5.893   0.329   5.054
 6186SOL    HW119457   5.896   0.407   4.992
 6186SOL    HW219458   5.819   0.342   5.120
 6187SOL     OW19459   4.387   4.554   4.051
 6187SOL    HW119460   4.467   4.501   4.081
 6187SOL    HW219461   4.347   4.601   4.130
 6188SOL     OW19462   2.051   6.928   0.592
 6188SOL    HW119463   2.010   6.853   0.643
 6188SOL    HW219464   2.105   6.892   0.516
 6189SOL     OW19465   4.777   4.217   4.098
 6189SOL    HW119466   4.760   4.150   4.170
 6189SOL    HW219467   4.871   4.207   4.066
 6190SOL     OW19468   6.519   3.810   6.340
 6190SOL    HW119469   6.474   3.767   6.262
 6190SOL    HW219470   6.609   3.768   6.355
 6191SOL     OW19471   4.371   2.935   0.022
 6191SOL    HW119472   4.388   2.988   0.105
 6191SOL    HW219473   4.434   2.964   6.973
 6192SOL     OW19474   3.443   3.334   6.616
 6192SOL    HW119475   3.511   3.354   6.545
 6192SOL    HW219476   3.351   3.337   6.576
 6193SOL     OW19477   5.095   0.774   2.553
 6193SOL    HW119478   5.084   0.842   2.480
 6193SOL    HW219479   5.078   0.683   2.517
 6194SOL     OW19480   0.917   6.971   0.436
 6194SOL    HW119481   0.889   6.904   0.367
 6194SOL    HW219482   1.017   6.978   0.438
 6195SOL     OW19483   3.842   5.619   5.836
 6195SOL    HW119484   3.821   5.551   5.766
 6195SOL    HW219485   3.867   5.706   5.793
 6196SOL     OW19486   6.002   2.237   1.430
 6196SOL    HW119487   6.006   2.295   1.511
 6196SOL    HW219488   5.972   2.292   1.352
 6197SOL     OW19489   4.170   4.092   0.444
 6197SOL    HW119490   4.171   4.173   0.503
 6197SOL    HW219491   4.078   4.052   0.444
 6198SOL     OW19492   3.118   5.253   2.161
 6198SOL    HW119493   3.128   5.171   2.105
 6198SOL    HW219494   3.135   5.334   2.106
 6199SOL     OW19495   0.875   6.825   1.134
 6199SOL    HW119496   0.821   6.778   1.204
 6199SOL    HW219497   0.900   6.760   1.062
 6200SOL     OW19498   1.789   0.895   5.393
 6200SOL    HW119499   1.741   0.983   5.391
 6200SOL    HW219500   1.722   0.821   5.400
 6201SOL     OW19501   1.785   3.943   5.245
 6201SOL    HW119502   1.714   3.877   5.268
 6201SOL    HW219503   1.774   4.025   5.302
 6202SOL     OW19504   4.087   1.784   1.696
 6202SOL    HW119505   4.105   1.687   1.678
 6202SOL    HW219506   4.084   1.833   1.609
 6203SOL     OW19507   5.539   6.489   3.061
 6203SOL    HW119508   5.530   6.515   2.965
 6203SOL    HW219509   5.559   6.391   3.067
 6204SOL     OW19510   0.772   5.511   5.039
 6204SOL    HW119511   0.720   5.426   5.042
 6204SOL    HW219512   0.808   5.532   5.130
 6205SOL     OW19513   5.999   6.385   0.067
 6205SOL    HW119514   6.001   6.440   7.006
 6205SOL    HW219515   5.947   6.435   0.137
 6206SOL     OW19516   6.512   0.606   2.902
 6206SOL    HW119517   6.562   0.521   2.888
 6206SOL    HW219518   6.427   0.588   2.950
 6207SOL     OW19519   1.714   4.243   4.306
 6207SOL    HW119520   1.767   4.318   4.268
 6207SOL    HW219521   1.623   4.275   4.333
 6208SOL     OW19522   6.011   1.740   6.428
 6208SOL    HW119523   6.015   1.656   6.482
 6208SOL    HW219524   5.925   1.787   6.446
 6209SOL     OW19525   4.855   5.624   0.269
 6209SOL    HW119526   4.931   5.642   0.331
 6209SOL    HW219527   4.888   5.623   0.175
 6210SOL     OW19528   5.976   4.550   3.819
 6210SOL    HW119529   6.063   4.504   3.807
 6210SOL    HW219530   5.991   4.649   3.823
 6211SOL     OW19531   3.264   6.255   4.937
 6211SOL    HW119532   3.287   6.342   4.981
 6211SOL    HW219533   3.216   6.197   5.003
 6212SOL     OW19534   2.232   5.363   2.919
 6212SOL    HW119535   2.248   5.384   3.015
 6212SOL    HW219536   2.318   5.365   2.869
 6213SOL     OW19537   5.138   0.451   6.927
 6213SOL    HW119538   5.120   0.354   6.917
 6213SOL    HW219539   5.059   0.504   6.895
 6214SOL     OW19540   4.457   5.111   3.720
 6214SOL    HW119541   4.450   5.013   3.735
 6214SOL    HW219542   4.381   5.157   3.765
 6215SOL     OW19543   3.934   2.077   0.737
 6215SOL    HW119544   3.836   2.096   0.734
 6215SOL    HW219545   3.952   1.990   0.690
 6216SOL     OW19546   6.403   2.244   2.473
 6216SOL    HW119547   6.318   2.211   2.432
 6216SOL    HW219548   6.405   2.218   2.570
 6217SOL     OW19549   0.227   2.927   3.031
 6217SOL    HW119550   0.208   2.838   3.073
 6217SOL    HW219551   0.237   2.915   2.932
 6218SOL     OW19552   3.223   4.839   5.691
 6218SOL    HW119553   3.248   4.849   5.595
 6218SOL    HW219554   3.183   4.925   5.723
 6219SOL     OW19555   1.205   2.093   4.201
 6219SOL    HW119556   1.164   2.133   4.119
 6219SOL    HW219557   1.270   2.022   4.174
 6220SOL     OW19558   1.609   3.163   5.373
 6220SOL    HW119559   1.692   3.201   5.332
 6220SOL    HW219560   1.632   3.079   5.422
 6221SOL     OW19561   6.267   5.762   6.733
 6221SOL    HW119562   6.186   5.747   6.676
 6221SOL    HW219563   6.344   5.790   6.674
 6222SOL     OW19564   1.223   6.473   1.200
 6222SOL    HW119565   1.195   6.420   1.281
 6222SOL    HW219566   1.248   6.565   1.229
 6223SOL     OW19567   0.291   4.368   4.714
 6223SOL    HW119568   0.379   4.405   4.687
 6223SOL    HW219569   0.265   4.405   4.803
 6224SOL     OW19570   2.723   1.961   6.178
 6224SOL    HW119571   2.687   1.875   6.214
 6224SOL    HW219572   2.687   1.977   6.086
 6225SOL     OW19573   3.606   3.438   0.932
 6225SOL    HW119574   3.643   3.416   0.842
 6225SOL    HW219575   3.673   3.492   0.983
 6226SOL     OW19576   5.790   1.637   5.455
 6226SOL    HW119577   5.842   1.578   5.393
 6226SOL    HW219578   5.786   1.730   5.417
 6227SOL     OW19579   3.802   5.397   5.680
 6227SOL    HW119580   3.748   5.403   5.596
 6227SOL    HW219581   3.745   5.362   5.754
 6228SOL     OW19582   1.212   2.601   2.823
 6228SOL    HW119583   1.225   2.669   2.896
 6228SOL    HW219584   1.299   2.559   2.799
 6229SOL     OW19585   0.754   2.844   2.580
 6229SOL    HW119586   0.834   2.903   2.574
 6229SOL    HW219587   0.775   2.764   2.636
 6230SOL     OW19588   1.193   1.489   4.101
 6230SOL    HW119589   1.135   1.539   4.164
 6230SOL    HW219590   1.139   1.460   4.022
 6231SOL     OW19591   6.564   4.905   1.228
 6231SOL    HW119592   6.664   4.907   1.234
 6231SOL    HW219593   6.527   4.845   1.299
 6232SOL     OW19594   6.331   1.519   1.032
 6232SOL    HW119595   6.308   1.505   1.128
 6232SOL    HW219596   6.252   1.493   0.975
 6233SOL     OW19597   6.084   0.845   0.001
 6233SOL    HW119598   6.160   0.812   0.058
 6233SOL    HW219599   6.119   0.868   6.933
 6234SOL     OW19600   6.387   1.871   5.635
 6234SOL    HW119601   6.436   1.931   5.572
 6234SOL    HW219602   6.426   1.881   5.727
 6235SOL     OW19603   1.446   0.259   1.576
 6235SOL    HW119604   1.498   0.259   1.661
 6235SOL    HW219605   1.350   0.283   1.595
 6236SOL     OW19606   0.403   3.844   0.243
 6236SOL    HW119607   0.380   3.826   0.148
 6236SOL    HW219608   0.445   3.935   0.251
 6237SOL     OW19609   3.469   5.905   6.578
 6237SOL    HW119610   3.437   5.817   6.615
 6237SOL    HW219611   3.463   5.975   6.649
 6238SOL     OW19612   4.086   4.892   3.211
 6238SOL    HW119613   4.177   4.854   3.223
 6238SOL    HW219614   4.033   4.880   3.294
 6239SOL     OW19615   3.489   6.093   1.921
 6239SOL    HW119616   3.452   6.032   1.851
 6239SOL    HW219617   3.506   6.041   2.004
 6240SOL     OW19618   2.798   3.144   6.569
 6240SOL    HW119619   2.877   3.154   6.509
 6240SOL    HW219620   2.798   3.218   6.636
 6241SOL     OW19621   3.270   6.978   1.747
 6241SOL    HW119622   3.232   0.017   1.678
 6241SOL    HW219623   3.233   6.886   1.733
 6242SOL     OW19624   5.367   1.131   3.689
 6242SOL    HW119625   5.270   1.148   3.673
 6242SOL    HW219626   5.382   1.033   3.702
 6243SOL     OW19627   6.084   6.679   3.748
 6243SOL    HW119628   6.058   6.598   3.696
 6243SOL    HW219629   6.110   6.752   3.686
 6244SOL     OW19630   0.885   2.227   2.258
 6244SOL    HW119631   0.862   2.137   2.296
 6244SOL    HW219632   0.923   2.215   2.166
 6245SOL     OW19633   1.879   3.824   0.224
 6245SOL    HW119634   1.837   3.901   0.176
 6245SOL    HW219635   1.813   3.785   0.289
 6246SOL     OW19636   1.980   2.637   5.557
 6246SOL    HW119637   1.999   2.539   5.559
 6246SOL    HW219638   1.886   2.654   5.585
 6247SOL     OW19639   1.230   6.854   4.055
 6247SOL    HW119640   1.275   6.787   3.996
 6247SOL    HW219641   1.193   6.809   4.136
 6248SOL     OW19642   3.007   3.906   0.722
 6248SOL    HW119643   3.044   3.924   0.631
 6248SOL    HW219644   2.965   3.990   0.758
 6249SOL     OW19645   0.608   4.153   0.592
 6249SOL    HW119646   0.583   4.093   0.516
 6249SOL    HW219647   0.688   4.115   0.639
 6250SOL     OW19648   0.160   5.849   0.871
 6250SOL    HW119649   0.159   5.782   0.946
 6250SOL    HW219650   0.067   5.882   0.855
 6251SOL     OW19651   3.794   5.241   6.755
 6251SOL    HW119652   3.799   5.214   6.851
 6251SOL    HW219653   3.733   5.178   6.706
 6252SOL     OW19654   1.207   6.205   6.063
 6252SOL    HW119655   1.110   6.188   6.079
 6252SOL    HW219656   1.237   6.282   6.121
 6253SOL     OW19657   2.191   4.113   2.916
 6253SOL    HW119658   2.098   4.137   2.891
 6253SOL    HW219659   2.191   4.027   2.968
 6254SOL     OW19660   4.832   1.158   0.727
 6254SOL    HW119661   4.775   1.231   0.690
 6254SOL    HW219662   4.900   1.131   0.659
 6255SOL     OW19663   2.716   0.732   1.091
 6255SOL    HW119664   2.660   0.705   1.170
 6255SOL    HW219665   2.699   0.669   1.016
 6256SOL     OW19666   3.393   4.896   2.653
 6256SOL    HW119667   3.321   4.921   2.718
 6256SOL    HW219668   3.477   4.874   2.702
 6257SOL     OW19669   4.949   2.441   0.491
 6257SOL    HW119670   4.976   2.359   0.542
 6257SOL    HW219671   4.996   2.521   0.530
 6258SOL     OW19672   4.299   0.149   3.936
 6258SOL    HW119673   4.266   0.078   3.999
 6258SOL    HW219674   4.326   0.230   3.988
 6259SOL     OW19675   2.674   2.772   0.556
 6259SOL    HW119676   2.727   2.790   0.474
 6259SOL    HW219677   2.720   2.812   0.635
 6260SOL     OW19678   3.179   5.423   6.939
 6260SOL    HW119679   3.114   5.474   6.881
 6260SOL    HW219680   3.167   5.325   6.923
 6261SOL     OW19681   3.806   7.020   6.441
 6261SOL    HW119682   3.834   7.013   6.345
 6261SOL    HW219683   3.885   0.016   6.498
 6262SOL     OW19684   1.571   4.957   0.437
 6262SOL    HW119685   1.563   4.913   0.347
 6262SOL    HW219686   1.653   4.925   0.483
 6263SOL     OW19687   0.040   0.162   5.300
 6263SOL    HW119688   7.000   0.086   5.286
 6263SOL    HW219689   0.042   0.186   5.398
 6264SOL     OW19690   1.434   0.062   1.847
 6264SOL    HW119691   1.451   0.015   1.934
 6264SOL    HW219692   1.414   7.017   1.776
 6265SOL     OW19693   3.134   3.993   0.514
 6265SOL    HW119694   3.080   4.073   0.489
 6265SOL    HW219695   3.202   3.975   0.442
 6266SOL     OW19696   4.190   6.794   4.824
 6266SOL    HW119697   4.191   6.878   4.769
 6266SOL    HW219698   4.124   6.730   4.785
 6267SOL     OW19699   2.824   0.684   6.882
 6267SOL    HW119700   2.826   0.692   6.782
 6267SOL    HW219701   2.917   0.688   6.918
 6268SOL     OW19702   3.687   6.460   3.401
 6268SOL    HW119703   3.596   6.475   3.362
 6268SOL    HW219704   3.740   6.399   3.342
 6269SOL     OW19705   6.675   5.565   1.932
 6269SOL    HW119706   6.660   5.655   1.974
 6269SOL    HW219707   6.765   5.531   1.959
 6270SOL     OW19708   1.854   0.552   5.092
 6270SOL    HW119709   1.829   0.556   4.995
 6270SOL    HW219710   1.785   0.498   5.141
 6271SOL     OW19711   5.633   2.281   5.902
 6271SOL    HW119712   5.579   2.341   5.960
 6271SOL    HW219713   5.700   2.334   5.851
 6272SOL     OW19714   0.710   2.265   6.485
 6272SOL    HW119715   0.808   2.287   6.485
 6272SOL    HW219716   0.679   2.251   6.391
 6273SOL     OW19717   1.780   6.730   3.055
 6273SOL    HW119718   1.801   6.812   3.108
 6273SOL    HW219719   1.682   6.709   3.064
 6274SOL     OW19720   2.175   5.194   5.983
 6274SOL    HW119721   2.226   5.121   5.937
 6274SOL    HW219722   2.101   5.225   5.924
 6275SOL     OW19723   2.114   5.921   5.259
 6275SOL    HW119724   2.119   5.856   5.183
 6275SOL    HW219725   2.076   5.875   5.339
 6276SOL     OW19726   1.798   4.873   3.039
 6276SOL    HW119727   1.877   4.920   3.001
 6276SOL    HW219728   1.718   4.932   3.033
 6277SOL     OW19729   5.609   3.668   1.858
 6277SOL    HW119730   5.687   3.611   1.886
 6277SOL    HW219731   5.628   3.764   1.879
 6278SOL     OW19732   5.293   6.715   4.900
 6278SOL    HW119733   5.268   6.618   4.897
 6278SOL    HW219734   5.250   6.762   4.823
 6279SOL     OW19735   3.815   0.539   6.353
 6279SOL    HW119736   3.715   0.534   6.353
 6279SOL    HW219737   3.851   0.481   6.426
 6280SOL     OW19738   0.927   2.025   5.001
 6280SOL    HW119739   0.901   2.096   4.936
 6280SOL    HW219740   0.918   1.935   4.957
 6281SOL     OW19741   1.583   4.811   3.724
 6281SOL    HW119742   1.589   4.736   3.790
 6281SOL    HW219743   1.609   4.897   3.768
 6282SOL     OW19744   1.622   6.901   4.966
 6282SOL    HW119745   1.537   6.938   4.929
 6282SOL    HW219746   1.700   6.938   4.915
 6283SOL     OW19747   6.714   2.972   6.080
 6283SOL    HW119748   6.723   3.038   6.005
 6283SOL    HW219749   6.731   2.880   6.046
 6284SOL     OW19750   1.836   5.192   4.607
 6284SOL    HW119751   1.806   5.101   4.635
 6284SOL    HW219752   1.773   5.261   4.643
 6285SOL     OW19753   1.040   3.461   3.862
 6285SOL    HW119754   1.101   3.384   3.883
 6285SOL    HW219755   1.000   3.495   3.947
 6286SOL     OW19756   6.518   1.754   3.960
 6286SOL    HW119757   6.505   1.826   3.892
 6286SOL    HW219758   6.500   1.665   3.918
 6287SOL     OW19759   3.929   5.013   4.007
 6287SOL    HW119760   3.843   4.990   4.052
 6287SOL    HW219761   3.926   4.982   3.912
 6288SOL     OW19762   5.352   4.668   2.758
 6288SOL    HW119763   5.291   4.714   2.693
 6288SOL    HW219764   5.300   4.602   2.812
 6289SOL     OW19765   1.465   4.676   1.955
 6289SOL    HW119766   1.499   4.583   1.944
 6289SOL    HW219767   1.461   4.699   2.052
 6290SOL     OW19768   5.845   3.765   4.271
 6290SOL    HW119769   5.921   3.804   4.324
 6290SOL    HW219770   5.830   3.821   4.189
 6291SOL     OW19771   3.421   2.865   4.831
 6291SOL    HW119772   3.516   2.857   4.800
 6291SOL    HW219773   3.411   2.819   4.920
 6292SOL     OW19774   1.530   2.174   3.615
 6292SOL    HW119775   1.537   2.086   3.663
 6292SOL    HW219776   1.560   2.247   3.676
 6293SOL     OW19777   3.560   0.103   0.159
 6293SOL    HW119778   3.571   0.043   0.239
 6293SOL    HW219779   3.469   0.144   0.162
 6294SOL     OW19780   3.695   5.065   4.435
 6294SOL    HW119781   3.613   5.044   4.381
 6294SOL    HW219782   3.701   5.164   4.448
 6295SOL     OW19783   5.324   5.261   5.537
 6295SOL    HW119784   5.333   5.185   5.602
 6295SOL    HW219785   5.270   5.333   5.579
 6296SOL     OW19786   0.110   6.718   5.510
 6296SOL    HW119787   0.078   6.676   5.425
 6296SOL    HW219788   0.032   6.760   5.557
 6297SOL     OW19789   4.494   6.643   4.704
 6297SOL    HW119790   4.569   6.664   4.767
 6297SOL    HW219791   4.439   6.726   4.689
 6298SOL     OW19792   1.390   2.838   6.150
 6298SOL    HW119793   1.396   2.878   6.241
 6298SOL    HW219794   1.479   2.846   6.104
 6299SOL     OW19795   5.234   1.550   0.148
 6299SOL    HW119796   5.183   1.583   0.068
 6299SOL    HW219797   5.309   1.491   0.117
 6300SOL     OW19798   5.356   0.520   0.091
 6300SOL    HW119799   5.416   0.594   0.062
 6300SOL    HW219800   5.297   0.493   0.014
 6301SOL     OW19801   3.561   0.595   0.930
 6301SOL    HW119802   3.477   0.620   0.979
 6301SOL    HW219803   3.612   0.678   0.908
 6302SOL     OW19804   1.823   0.893   3.872
 6302SOL    HW119805   1.898   0.862   3.813
 6302SOL    HW219806   1.859   0.924   3.959
 6303SOL     OW19807   1.853   1.083   4.601
 6303SOL    HW119808   1.826   1.120   4.690
 6303SOL    HW219809   1.952   1.074   4.596
 6304SOL     OW19810   2.338   1.153   1.351
 6304SOL    HW119811   2.346   1.202   1.438
 6304SOL    HW219812   2.355   1.215   1.275
 6305SOL     OW19813   6.033   0.099   1.986
 6305SOL    HW119814   6.117   0.047   2.000
 6305SOL    HW219815   6.018   0.160   2.064
 6306SOL     OW19816   1.289   3.286   4.432
 6306SOL    HW119817   1.308   3.378   4.396
 6306SOL    HW219818   1.202   3.288   4.482
 6307SOL     OW19819   4.031   4.412   5.577
 6307SOL    HW119820   4.080   4.383   5.494
 6307SOL    HW219821   3.955   4.350   5.594
 6308SOL     OW19822   2.011   1.992   4.724
 6308SOL    HW119823   1.924   2.019   4.765
 6308SOL    HW219824   2.021   2.038   4.636
 6309SOL     OW19825   5.337   4.173   4.441
 6309SOL    HW119826   5.354   4.270   4.455
 6309SOL    HW219827   5.328   4.154   4.343
 6310SOL     OW19828   2.064   5.566   3.076
 6310SOL    HW119829   2.103   5.648   3.117
 6310SOL    HW219830   2.020   5.589   2.990
 6311SOL     OW19831   5.234   0.848   5.647
 6311SOL    HW119832   5.328   0.821   5.625
 6311SOL    HW219833   5.217   0.940   5.612
 6312SOL     OW19834   6.040   5.329   5.844
 6312SOL    HW119835   6.026   5.255   5.778
 6312SOL    HW219836   6.040   5.417   5.796
 6313SOL     OW19837   1.276   6.606   3.898
 6313SOL    HW119838   1.229   6.525   3.862
 6313SOL    HW219839   1.357   6.578   3.949
 6314SOL     OW19840   4.093   6.478   1.743
 6314SOL    HW119841   4.056   6.404   1.800
 6314SOL    HW219842   4.017   6.528   1.702
 6315SOL     OW19843   3.554   3.078   6.241
 6315SOL    HW119844   3.547   3.015   6.163
 6315SOL    HW219845   3.505   3.039   6.318
 6316SOL     OW19846   4.685   1.727   6.672
 6316SOL    HW119847   4.626   1.656   6.712
 6316SOL    HW219848   4.764   1.685   6.629
 6317SOL     OW19849   4.816   5.727   2.801
 6317SOL    HW119850   4.810   5.825   2.821
 6317SOL    HW219851   4.911   5.698   2.805
 6318SOL     OW19852   2.967   1.982   4.771
 6318SOL    HW119853   3.051   1.929   4.778
 6318SOL    HW219854   2.911   1.945   4.696
 6319SOL     OW19855   6.878   2.272   4.174
 6319SOL    HW119856   6.831   2.306   4.093
 6319SOL    HW219857   6.830   2.305   4.256
 6320SOL     OW19858   5.944   5.532   4.875
 6320SOL    HW119859   5.872   5.597   4.901
 6320SOL    HW219860   5.904   5.441   4.866
 6321SOL     OW19861   3.074   3.593   1.136
 6321SOL    HW119862   3.076   3.681   1.183
 6321SOL    HW219863   3.102   3.521   1.199
 6322SOL     OW19864   1.948   2.177   0.077
 6322SOL    HW119865   1.934   2.170   0.176
 6322SOL    HW219866   1.865   2.215   0.034
 6323SOL     OW19867   2.969   2.750   1.219
 6323SOL    HW119868   2.962   2.712   1.312
 6323SOL    HW219869   2.901   2.706   1.160
 6324SOL     OW19870   5.186   0.214   6.388
 6324SOL    HW119871   5.182   0.244   6.292
 6324SOL    HW219872   5.263   0.259   6.433
 6325SOL     OW19873   2.143   2.087   2.437
 6325SOL    HW119874   2.043   2.098   2.431
 6325SOL    HW219875   2.184   2.113   2.349
 6326SOL     OW19876   5.006   5.394   1.527
 6326SOL    HW119877   5.018   5.299   1.554
 6326SOL    HW219878   5.087   5.447   1.553
 6327SOL     OW19879   0.259   0.201   5.149
 6327SOL    HW119880   0.184   0.174   5.209
 6327SOL    HW219881   0.241   0.291   5.110
 6328SOL     OW19882   1.970   4.194   0.785
 6328SOL    HW119883   2.065   4.168   0.766
 6328SOL    HW219884   1.968   4.286   0.823
 6329SOL     OW19885   2.209   2.708   3.126
 6329SOL    HW119886   2.262   2.691   3.209
 6329SOL    HW219887   2.175   2.622   3.089
 6330SOL     OW19888   4.693   1.043   1.095
 6330SOL    HW119889   4.687   0.952   1.052
 6330SOL    HW219890   4.602   1.083   1.100
 6331SOL     OW19891   6.411   2.103   6.882
 6331SOL    HW119892   6.427   2.187   6.934
 6331SOL    HW219893   6.327   2.060   6.914
 6332SOL     OW19894   6.161   3.614   1.851
 6332SOL    HW119895   6.179   3.605   1.949
 6332SOL    HW219896   6.183   3.706   1.821
 6333SOL     OW19897   4.402   5.415   4.900
 6333SOL    HW119898   4.427   5.502   4.857
 6333SOL    HW219899   4.465   5.398   4.977
 6334SOL     OW19900   3.363   0.012   1.979
 6334SOL    HW119901   3.359   6.989   1.890
 6334SOL    HW219902   3.310   6.983   2.045
 6335SOL     OW19903   4.551   1.133   0.455
 6335SOL    HW119904   4.583   1.220   0.492
 6335SOL    HW219905   4.548   1.139   0.355
 6336SOL     OW19906   0.716   1.803   6.339
 6336SOL    HW119907   0.757   1.875   6.395
 6336SOL    HW219908   0.664   1.740   6.397
 6337SOL     OW19909   4.716   4.437   5.973
 6337SOL    HW119910   4.724   4.471   5.880
 6337SOL    HW219911   4.799   4.459   6.024
 6338SOL     OW19912   3.355   1.926   3.274
 6338SOL    HW119913   3.387   1.980   3.197
 6338SOL    HW219914   3.384   1.831   3.263
 6339SOL     OW19915   1.452   2.846   2.587
 6339SOL    HW119916   1.493   2.937   2.595
 6339SOL    HW219917   1.461   2.797   2.674
 6340SOL     OW19918   1.488   4.739   2.580
 6340SOL    HW119919   1.508   4.649   2.541
 6340SOL    HW219920   1.456   4.727   2.674
 6341SOL     OW19921   0.694   4.188   4.128
 6341SOL    HW119922   0.634   4.260   4.161
 6341SOL    HW219923   0.780   4.190   4.178
 6342SOL     OW19924   2.633   1.922   1.929
 6342SOL    HW119925   2.714   1.971   1.961
 6342SOL    HW219926   2.635   1.916   1.829
 6343SOL     OW19927   4.825   2.153   6.573
 6343SOL    HW119928   4.874   2.232   6.536
 6343SOL    HW219929   4.849   2.071   6.521
 6344SOL     OW19930   5.874   3.495   5.120
 6344SOL    HW119931   5.900   3.403   5.152
 6344SOL    HW219932   5.832   3.487   5.030
 6345SOL     OW19933   4.994   1.695   2.176
 6345SOL    HW119934   5.057   1.714   2.100
 6345SOL    HW219935   4.900   1.706   2.144
 6346SOL     OW19936   6.791   4.532   3.876
 6346SOL    HW119937   6.839   4.619   3.886
 6346SOL    HW219938   6.825   4.467   3.944
 6347SOL     OW19939   1.816   0.108   1.309
 6347SOL    HW119940   1.851   0.064   1.227
 6347SOL    HW219941   1.865   0.193   1.326
 6348SOL     OW19942   1.669   4.147   4.929
 6348SOL    HW119943   1.756   4.124   4.972
 6348SOL    HW219944   1.595   4.103   4.979
 6349SOL     OW19945   3.322   0.252   1.366
 6349SOL    HW119946   3.329   0.247   1.267
 6349SOL    HW219947   3.385   0.321   1.402
 6350SOL     OW19948   2.598   4.540   4.100
 6350SOL    HW119949   2.579   4.562   4.004
 6350SOL    HW219950   2.677   4.593   4.131
 6351SOL     OW19951   6.189   3.626   3.090
 6351SOL    HW119952   6.280   3.617   3.131
 6351SOL    HW219953   6.131   3.551   3.121
 6352SOL     OW19954   2.976   5.123   4.828
 6352SOL    HW119955   3.007   5.120   4.923
 6352SOL    HW219956   2.879   5.100   4.824
 6353SOL     OW19957   0.477   0.950   6.033
 6353SOL    HW119958   0.560   0.995   6.001
 6353SOL    HW219959   0.443   0.889   5.961
 6354SOL     OW19960   2.133   5.966   3.397
 6354SOL    HW119961   2.142   5.952   3.495
 6354SOL    HW219962   2.040   5.942   3.368
 6355SOL     OW19963   0.977   5.224   6.291
 6355SOL    HW119964   0.915   5.186   6.222
 6355SOL    HW219965   0.936   5.215   6.382
 6356SOL     OW19966   3.721   4.981   2.317
 6356SOL    HW119967   3.744   5.069   2.275
 6356SOL    HW219968   3.806   4.933   2.341
 6357SOL     OW19969   5.093   3.098   2.353
 6357SOL    HW119970   4.999   3.092   2.320
 6357SOL    HW219971   5.093   3.125   2.449
 6358SOL     OW19972   1.246   2.116   6.253
 6358SOL    HW119973   1.231   2.210   6.282
 6358SOL    HW219974   1.288   2.064   6.328
 6359SOL     OW19975   6.239   6.850   5.686
 6359SOL    HW119976   6.183   6.926   5.654
 6359SOL    HW219977   6.307   6.827   5.616
 6360SOL     OW19978   1.530   3.810   3.689
 6360SOL    HW119979   1.458   3.879   3.702
 6360SOL    HW219980   1.554   3.804   3.593
 6361SOL     OW19981   6.077   0.460   0.446
 6361SOL    HW119982   6.136   0.443   0.367
 6361SOL    HW219983   6.088   0.555   0.476
 6362SOL     OW19984   0.039   6.062   0.604
 6362SOL    HW119985   0.060   6.032   0.511
 6362SOL    HW219986   0.002   5.986   0.657
 6363SOL     OW19987   2.144   4.090   3.254
 6363SOL    HW119988   2.234   4.119   3.220
 6363SOL    HW219989   2.074   4.152   3.220
 6364SOL     OW19990   3.154   1.604   5.980
 6364SOL    HW119991   3.136   1.514   5.939
 6364SOL    HW219992   3.068   1.644   6.011
 6365SOL     OW19993   5.702   0.259   4.144
 6365SOL    HW119994   5.643   0.286   4.220
 6365SOL    HW219995   5.660   0.183   4.094
 6366SOL     OW19996   0.969   5.542   6.496
 6366SOL    HW119997   0.948   5.541   6.593
 6366SOL    HW219998   0.884   5.551   6.444
 6367SOL     OW19999   4.081   6.996   4.613
 6367SOL    HW120000   3.995   0.017   4.587
 6367SOL    HW220001   4.108   6.931   4.543
 6368SOL     OW20002   3.464   5.781   3.414
 6368SOL    HW120003   3.554   5.813   3.385
 6368SOL    HW220004   3.423   5.727   3.340
 6369SOL     OW20005   1.881   4.497   4.343
 6369SOL    HW120006   1.869   4.490   4.442
 6369SOL    HW220007   1.978   4.504   4.322
 6370SOL     OW20008   0.392   3.591   2.544
 6370SOL    HW120009   0.448   3.674   2.548
 6370SOL    HW220010   0.306   3.610   2.498
 6371SOL     OW20011   5.233   3.477   4.176
 6371SOL    HW120012   5.272   3.385   4.173
 6371SOL    HW220013   5.188   3.497   4.089
 6372SOL     OW20014   3.634   0.170   1.911
 6372SOL    HW120015   3.558   0.106   1.896
 6372SOL    HW220016   3.720   0.125   1.886
 6373SOL     OW20017   5.603   4.469   3.578
 6373SOL    HW120018   5.539   4.524   3.632
 6373SOL    HW220019   5.553   4.400   3.526
 6374SOL     OW20020   3.256   3.777   4.515
 6374SOL    HW120021   3.187   3.832   4.561
 6374SOL    HW220022   3.213   3.724   4.442
 6375SOL     OW20023   0.032   1.635   4.429
 6375SOL    HW120024   6.977   1.649   4.368
 6375SOL    HW220025   0.053   1.537   4.435
 6376SOL     OW20026   6.324   2.433   5.133
 6376SOL    HW120027   6.282   2.342   5.133
 6376SOL    HW220028   6.411   2.429   5.085
 6377SOL     OW20029   6.197   1.678   5.593
 6377SOL    HW120030   6.147   1.709   5.512
 6377SOL    HW220031   6.275   1.738   5.609
 6378SOL     OW20032   5.164   5.363   3.748
 6378SOL    HW120033   5.250   5.363   3.697
 6378SOL    HW220034   5.123   5.271   3.745
 6379SOL     OW20035   2.413   4.296   4.128
 6379SOL    HW120036   2.502   4.340   4.122
 6379SOL    HW220037   2.385   4.290   4.224
 6380SOL     OW20038   0.920   1.542   6.495
 6380SOL    HW120039   0.920   1.454   6.448
 6380SOL    HW220040   0.826   1.576   6.501
 6381SOL     OW20041   4.151   3.143   1.715
 6381SOL    HW120042   4.250   3.137   1.728
 6381SOL    HW220043   4.129   3.140   1.617
 6382SOL     OW20044   0.844   2.156   0.588
 6382SOL    HW120045   0.782   2.128   0.662
 6382SOL    HW220046   0.876   2.074   0.540
 6383SOL     OW20047   1.978   2.044   3.042
 6383SOL    HW120048   1.993   2.108   2.967
 6383SOL    HW220049   1.927   1.965   3.008
 6384SOL     OW20050   5.567   4.260   1.449
 6384SOL    HW120051   5.605   4.169   1.436
 6384SOL    HW220052   5.468   4.254   1.459
 6385SOL     OW20053   0.061   5.375   3.789
 6385SOL    HW120054   0.075   5.295   3.730
 6385SOL    HW220055   0.084   5.352   3.883
 6386SOL     OW20056   2.414   4.772   6.577
 6386SOL    HW120057   2.494   4.720   6.607
 6386SOL    HW220058   2.442   4.862   6.543
 6387SOL     OW20059   0.883   1.983   6.516
 6387SOL    HW120060   0.901   2.068   6.467
 6387SOL    HW220061   0.815   1.999   6.587
 6388SOL     OW20062   4.285   4.748   1.137
 6388SOL    HW120063   4.236   4.797   1.209
 6388SOL    HW220064   4.330   4.668   1.176
 6389SOL     OW20065   1.187   6.328   2.703
 6389SOL    HW120066   1.120   6.264   2.740
 6389SOL    HW220067   1.153   6.422   2.711
 6390SOL     OW20068   0.834   1.766   4.823
 6390SOL    HW120069   0.780   1.714   4.890
 6390SOL    HW220070   0.790   1.762   4.734
 6391SOL     OW20071   2.607   6.740   5.662
 6391SOL    HW120072   2.552   6.818   5.632
 6391SOL    HW220073   2.577   6.657   5.614
 6392SOL     OW20074   2.151   6.991   3.607
 6392SOL    HW120075   2.100   6.906   3.595
 6392SOL    HW220076   2.150   0.019   3.521
 6393SOL     OW20077   6.186   0.317   1.392
 6393SOL    HW120078   6.227   0.234   1.429
 6393SOL    HW220079   6.189   0.314   1.292
 6394SOL     OW20080   2.251   4.682   0.692
 6394SOL    HW120081   2.187   4.759   0.692
 6394SOL    HW220082   2.344   4.717   0.678
 6395SOL     OW20083   6.155   2.854   2.159
 6395SOL    HW120084   6.123   2.762   2.137
 6395SOL    HW220085   6.249   2.849   2.194
 6396SOL     OW20086   5.205   3.177   6.314
 6396SOL    HW120087   5.228   3.196   6.410
 6396SOL    HW220088   5.290   3.169   6.261
 6397SOL     OW20089   5.605   2.668   6.154
 6397SOL    HW120090   5.577   2.643   6.061
 6397SOL    HW220091   5.524   2.676   6.212
 6398SOL     OW20092   3.166   0.891   0.866
 6398SOL    HW120093   3.174   0.862   0.770
 6398SOL    HW220094   3.074   0.924   0.884
 6399SOL     OW20095   1.167   5.460   6.862
 6399SOL    HW120096   1.200   5.391   6.927
 6399SOL    HW220097   1.188   5.431   6.769
 6400SOL     OW20098   2.065   6.604   2.260
 6400SOL    HW120099   2.013   6.519   2.264
 6400SOL    HW220100   2.126   6.602   2.182
 6401SOL     OW20101   0.540   4.527   3.703
 6401SOL    HW120102   0.550   4.615   3.657
 6401SOL    HW220103   0.630   4.486   3.717
 6402SOL     OW20104   4.490   1.355   2.932
 6402SOL    HW120105   4.406   1.406   2.916
 6402SOL    HW220106   4.472   1.278   2.992
 6403SOL     OW20107   6.929   6.481   6.524
 6403SOL    HW120108   6.881   6.472   6.612
 6403SOL    HW220109   6.998   6.553   6.532
 6404SOL     OW20110   4.075   1.263   2.752
 6404SOL    HW120111   4.129   1.187   2.715
 6404SOL    HW220112   3.978   1.241   2.747
 6405SOL     OW20113   2.449   0.462   3.614
 6405SOL    HW120114   2.352   0.462   3.590
 6405SOL    HW220115   2.471   0.379   3.665
 6406SOL     OW20116   1.504   2.565   3.782
 6406SOL    HW120117   1.411   2.594   3.759
 6406SOL    HW220118   1.501   2.478   3.831
 6407SOL     OW20119   2.984   0.190   3.868
 6407SOL    HW120120   3.046   0.177   3.946
 6407SOL    HW220121   2.900   0.138   3.884
 6408SOL     OW20122   6.078   2.102   0.214
 6408SOL    HW120123   6.161   2.146   0.248
 6408SOL    HW220124   6.015   2.086   0.290
 6409SOL     OW20125   0.509   4.654   3.352
 6409SOL    HW120126   0.537   4.748   3.331
 6409SOL    HW220127   0.426   4.655   3.408
 6410SOL     OW20128   2.027   1.558   0.455
 6410SOL    HW120129   2.125   1.543   0.462
 6410SOL    HW220130   2.009   1.632   0.391
 6411SOL     OW20131   0.241   2.622   3.457
 6411SOL    HW120132   0.221   2.712   3.493
 6411SOL    HW220133   0.159   2.564   3.461
 6412SOL     OW20134   0.522   2.836   5.101
 6412SOL    HW120135   0.560   2.744   5.097
 6412SOL    HW220136   0.423   2.831   5.117
 6413SOL     OW20137   4.366   4.752   3.145
 6413SOL    HW120138   4.341   4.697   3.226
 6413SOL    HW220139   4.399   4.691   3.073
 6414SOL     OW20140   5.917   0.725   1.194
 6414SOL    HW120141   5.868   0.640   1.181
 6414SOL    HW220142   5.856   0.794   1.233
 6415SOL     OW20143   1.817   2.511   3.179
 6415SOL    HW120144   1.750   2.493   3.250
 6415SOL    HW220145   1.803   2.602   3.141
 6416SOL     OW20146   1.348   1.101   6.274
 6416SOL    HW120147   1.291   1.099   6.357
 6416SOL    HW220148   1.386   1.010   6.258
 6417SOL     OW20149   6.686   4.373   1.913
 6417SOL    HW120150   6.593   4.342   1.893
 6417SOL    HW220151   6.719   4.329   1.997
 6418SOL     OW20152   4.713   4.662   1.572
 6418SOL    HW120153   4.782   4.720   1.529
 6418SOL    HW220154   4.633   4.655   1.513
 6419SOL     OW20155   2.551   4.549   2.671
 6419SOL    HW120156   2.594   4.563   2.583
 6419SOL    HW220157   2.455   4.524   2.658
 6420SOL     OW20158   3.025   3.845   5.364
 6420SOL    HW120159   3.106   3.790   5.344
 6420SOL    HW220160   2.967   3.850   5.283
 6421SOL     OW20161   5.784   1.283   2.182
 6421SOL    HW120162   5.687   1.262   2.169
 6421SOL    HW220163   5.793   1.379   2.209
 6422SOL     OW20164   0.092   0.330   4.390
 6422SOL    HW120165   0.179   0.285   4.368
 6422SOL    HW220166   0.093   0.423   4.355
 6423SOL     OW20167   4.765   4.814   2.407
 6423SOL    HW120168   4.770   4.786   2.311
 6423SOL    HW220169   4.684   4.871   2.421
 6424SOL     OW20170   6.541   6.057   5.206
 6424SOL    HW120171   6.467   6.077   5.269
 6424SOL    HW220172   6.508   6.062   5.112
 6425SOL     OW20173   6.322   5.880   3.355
 6425SOL    HW120174   6.241   5.902   3.411
 6425SOL    HW220175   6.293   5.837   3.270
 6426SOL     OW20176   0.637   4.901   3.367
 6426SOL    HW120177   0.735   4.921   3.367
 6426SOL    HW220178   0.588   4.979   3.408
 6427SOL     OW20179   2.418   3.029   5.966
 6427SOL    HW120180   2.447   3.070   6.052
 6427SOL    HW220181   2.475   3.065   5.891
 6428SOL     OW20182   6.480   2.699   6.711
 6428SOL    HW120183   6.423   2.772   6.674
 6428SOL    HW220184   6.552   2.677   6.645
 6429SOL     OW20185   0.919   1.667   5.716
 6429SOL    HW120186   0.838   1.695   5.665
 6429SOL    HW220187   0.970   1.747   5.746
 6430SOL     OW20188   5.461   0.947   2.089
 6430SOL    HW120189   5.531   0.923   2.023
 6430SOL    HW220190   5.386   0.994   2.043
 6431SOL     OW20191   5.454   6.542   3.523
 6431SOL    HW120192   5.472   6.472   3.592
 6431SOL    HW220193   5.540   6.581   3.491
 6432SOL     OW20194   4.461   3.676   6.721
 6432SOL    HW120195   4.444   3.749   6.654
 6432SOL    HW220196   4.473   3.589   6.672
 6433SOL     OW20197   3.674   4.334   0.680
 6433SOL    HW120198   3.633   4.266   0.619
 6433SOL    HW220199   3.676   4.298   0.773
 6434SOL     OW20200   2.028   3.424   0.457
 6434SOL    HW120201   2.022   3.471   0.369
 6434SOL    HW220202   1.937   3.422   0.500
 6435SOL     OW20203   3.953   6.260   0.078
 6435SOL    HW120204   3.947   6.325   0.002
 6435SOL    HW220205   3.956   6.167   0.042
 6436SOL     OW20206   2.176   3.145   3.374
 6436SOL    HW120207   2.084   3.135   3.412
 6436SOL    HW220208   2.172   3.196   3.289
 6437SOL     OW20209   2.518   0.989   1.083
 6437SOL    HW120210   2.588   0.920   1.092
 6437SOL    HW220211   2.544   1.070   1.136
 6438SOL     OW20212   0.577   4.603   6.557
 6438SOL    HW120213   0.626   4.639   6.636
 6438SOL    HW220214   0.529   4.519   6.582
 6439SOL     OW20215   6.411   0.947   1.591
 6439SOL    HW120216   6.340   0.883   1.620
 6439SOL    HW220217   6.370   1.037   1.576
 6440SOL     OW20218   2.237   1.834   0.614
 6440SOL    HW120219   2.267   1.749   0.571
 6440SOL    HW220220   2.153   1.818   0.665
 6441SOL     OW20221   1.293   6.652   2.365
 6441SOL    HW120222   1.215   6.622   2.310
 6441SOL    HW220223   1.277   6.746   2.397
 6442SOL     OW20224   2.774   0.829   3.740
 6442SOL    HW120225   2.863   0.875   3.740
 6442SOL    HW220226   2.724   0.853   3.657
 6443SOL     OW20227   4.115   2.568   6.138
 6443SOL    HW120228   4.128   2.608   6.048
 6443SOL    HW220229   4.199   2.521   6.167
 6444SOL     OW20230   6.948   2.556   3.950
 6444SOL    HW120231   6.969   2.632   3.887
 6444SOL    HW220232   0.006   2.498   3.958
 6445SOL     OW20233   4.801   3.021   5.829
 6445SOL    HW120234   4.879   3.024   5.892
 6445SOL    HW220235   4.772   3.115   5.809
 6446SOL     OW20236   1.027   0.663   6.037
 6446SOL    HW120237   1.024   0.649   5.938
 6446SOL    HW220238   1.109   0.714   6.061
 6447SOL     OW20239   0.091   5.505   2.812
 6447SOL    HW120240   0.088   5.423   2.870
 6447SOL    HW220241   0.177   5.508   2.762
 6448SOL     OW20242   4.906   4.981   2.855
 6448SOL    HW120243   4.863   4.898   2.888
 6448SOL    HW220244   5.001   4.963   2.831
 6449SOL     OW20245   2.763   4.625   0.129
 6449SOL    HW120246   2.676   4.670   0.109
 6449SOL    HW220247   2.751   4.560   0.203
 6450SOL     OW20248   0.099   3.756   1.216
 6450SOL    HW120249   0.091   3.775   1.314
 6450SOL    HW220250   0.049   3.672   1.195
 6451SOL     OW20251   2.677   6.612   5.201
 6451SOL    HW120252   2.656   6.543   5.131
 6451SOL    HW220253   2.774   6.605   5.226
 6452SOL     OW20254   3.343   6.421   4.516
 6452SOL    HW120255   3.380   6.499   4.466
 6452SOL    HW220256   3.316   6.350   4.450
 6453SOL     OW20257   1.178   6.901   0.487
 6453SOL    HW120258   1.132   6.824   0.531
 6453SOL    HW220259   1.265   6.919   0.532
 6454SOL     OW20260   3.325   1.643   3.241
 6454SOL    HW120261   3.363   1.607   3.326
 6454SOL    HW220262   3.232   1.609   3.229
 6455SOL     OW20263   0.177   2.132   4.128
 6455SOL    HW120264   0.167   2.057   4.063
 6455SOL    HW220265   0.220   2.098   4.212
 6456SOL     OW20266   1.665   0.680   3.748
 6456SOL    HW120267   1.711   0.754   3.796
 6456SOL    HW220268   1.608   0.717   3.676
 6457SOL     OW20269   4.782   1.456   0.853
 6457SOL    HW120270   4.840   1.388   0.898
 6457SOL    HW220271   4.831   1.542   0.847
 6458SOL     OW20272   1.065   0.388   3.354
 6458SOL    HW120273   1.102   0.299   3.378
 6458SOL    HW220274   1.139   0.449   3.325
 6459SOL     OW20275   5.800   5.102   0.432
 6459SOL    HW120276   5.775   5.153   0.514
 6459SOL    HW220277   5.899   5.105   0.420
 6460SOL     OW20278   4.503   5.246   5.711
 6460SOL    HW120279   4.447   5.315   5.757
 6460SOL    HW220280   4.569   5.290   5.651
 6461SOL     OW20281   2.753   4.913   5.104
 6461SOL    HW120282   2.677   4.889   5.165
 6461SOL    HW220283   2.801   4.830   5.076
 6462SOL     OW20284   2.340   2.718   4.951
 6462SOL    HW120285   2.284   2.669   5.018
 6462SOL    HW220286   2.335   2.816   4.969
 6463SOL     OW20287   0.902   3.714   6.861
 6463SOL    HW120288   0.886   3.616   6.846
 6463SOL    HW220289   0.971   3.746   6.796
 6464SOL     OW20290   1.034   5.570   4.909
 6464SOL    HW120291   0.947   5.531   4.939
 6464SOL    HW220292   1.108   5.537   4.968
 6465SOL     OW20293   6.297   2.520   3.713
 6465SOL    HW120294   6.375   2.536   3.651
 6465SOL    HW220295   6.212   2.528   3.662
 6466SOL     OW20296   1.059   1.355   6.658
 6466SOL    HW120297   0.998   1.280   6.635
 6466SOL    HW220298   1.048   1.429   6.592
 6467SOL     OW20299   2.992   0.768   0.114
 6467SOL    HW120300   3.034   0.855   0.140
 6467SOL    HW220301   3.064   0.699   0.101
 6468SOL     OW20302   4.285   6.724   1.779
 6468SOL    HW120303   4.254   6.816   1.755
 6468SOL    HW220304   4.207   6.662   1.785
 6469SOL     OW20305   4.305   0.967   5.504
 6469SOL    HW120306   4.393   0.978   5.551
 6469SOL    HW220307   4.233   1.007   5.561
 6470SOL     OW20308   6.262   5.496   6.813
 6470SOL    HW120309   6.234   5.418   6.756
 6470SOL    HW220310   6.271   5.577   6.756
 6471SOL     OW20311   6.557   6.420   5.760
 6471SOL    HW120312   6.563   6.517   5.785
 6471SOL    HW220313   6.504   6.371   5.829
 6472SOL     OW20314   0.468   4.270   1.545
 6472SOL    HW120315   0.449   4.351   1.601
 6472SOL    HW220316   0.384   4.218   1.531
 6473SOL     OW20317   2.246   1.544   4.301
 6473SOL    HW120318   2.229   1.585   4.391
 6473SOL    HW220319   2.186   1.587   4.233
 6474SOL     OW20320   1.908   3.820   5.998
 6474SOL    HW120321   1.867   3.868   5.920
 6474SOL    HW220322   1.989   3.769   5.969
 6475SOL     OW20323   0.207   5.355   4.334
 6475SOL    HW120324   0.181   5.363   4.238
 6475SOL    HW220325   0.165   5.272   4.373
 6476SOL     OW20326   4.639   3.609   1.231
 6476SOL    HW120327   4.649   3.663   1.147
 6476SOL    HW220328   4.632   3.512   1.208
 6477SOL     OW20329   0.007   5.236   1.160
 6477SOL    HW120330   6.948   5.238   1.216
 6477SOL    HW220331   7.005   5.222   1.064
 6478SOL     OW20332   3.803   5.777   2.493
 6478SOL    HW120333   3.796   5.686   2.534
 6478SOL    HW220334   3.873   5.830   2.540
 6479SOL     OW20335   3.834   5.498   3.451
 6479SOL    HW120336   3.860   5.541   3.538
 6479SOL    HW220337   3.850   5.400   3.457
 6480SOL     OW20338   3.062   2.089   5.665
 6480SOL    HW120339   3.049   2.109   5.762
 6480SOL    HW220340   3.027   2.165   5.610
 6481SOL     OW20341   3.321   2.048   2.369
 6481SOL    HW120342   3.348   2.085   2.458
 6481SOL    HW220343   3.269   2.117   2.319
 6482SOL     OW20344   0.438   0.736   6.203
 6482SOL    HW120345   0.427   0.817   6.144
 6482SOL    HW220346   0.534   0.727   6.228
 6483SOL     OW20347   1.870   6.143   1.483
 6483SOL    HW120348   1.799   6.138   1.413
 6483SOL    HW220349   1.960   6.145   1.440
 6484SOL     OW20350   3.910   0.736   2.202
 6484SOL    HW120351   3.935   0.705   2.110
 6484SOL    HW220352   3.969   0.813   2.228
 6485SOL     OW20353   1.901   3.644   3.032
 6485SOL    HW120354   1.825   3.582   3.012
 6485SOL    HW220355   1.947   3.667   2.947
 6486SOL     OW20356   1.865   4.228   4.555
 6486SOL    HW120357   1.958   4.264   4.557
 6486SOL    HW220358   1.828   4.236   4.463
 6487SOL     OW20359   6.768   5.907   5.266
 6487SOL    HW120360   6.693   5.960   5.226
 6487SOL    HW220361   6.779   5.821   5.215
 6488SOL     OW20362   3.009   5.863   5.385
 6488SOL    HW120363   2.985   5.949   5.340
 6488SOL    HW220364   2.957   5.853   5.470
 6489SOL     OW20365   2.595   3.487   6.490
 6489SOL    HW120366   2.569   3.416   6.556
 6489SOL    HW220367   2.668   3.452   6.431
 6490SOL     OW20368   4.135   1.982   6.450
 6490SOL    HW120369   4.069   2.045   6.492
 6490SOL    HW220370   4.227   2.006   6.479
 6491SOL     OW20371   3.948   1.241   6.735
 6491SOL    HW120372   4.021   1.188   6.691
 6491SOL    HW220373   3.863   1.189   6.732
 6492SOL     OW20374   5.378   5.966   0.027
 6492SOL    HW120375   5.397   5.949   6.953
 6492SOL    HW220376   5.460   5.948   0.081
 6493SOL     OW20377   1.310   5.510   4.535
 6493SOL    HW120378   1.296   5.514   4.436
 6493SOL    HW220379   1.280   5.596   4.577
 6494SOL     OW20380   0.744   1.211   3.215
 6494SOL    HW120381   0.661   1.185   3.265
 6494SOL    HW220382   0.728   1.196   3.117
 6495SOL     OW20383   4.631   6.061   4.398
 6495SOL    HW120384   4.668   5.985   4.452
 6495SOL    HW220385   4.649   6.044   4.301
 6496SOL     OW20386   0.156   0.066   1.936
 6496SOL    HW120387   0.068   0.019   1.947
 6496SOL    HW220388   0.185   0.105   2.023
 6497SOL     OW20389   2.649   3.832   6.993
 6497SOL    HW120390   2.554   3.807   7.011
 6497SOL    HW220391   2.672   3.811   6.899
 6498SOL     OW20392   2.166   4.263   3.772
 6498SOL    HW120393   2.212   4.333   3.828
 6498SOL    HW220394   2.118   4.199   3.833
 6499SOL     OW20395   5.513   2.347   4.902
 6499SOL    HW120396   5.507   2.333   4.803
 6499SOL    HW220397   5.485   2.440   4.925
 6500SOL     OW20398   6.582   4.628   4.034
 6500SOL    HW120399   6.625   4.578   3.959
 6500SOL    HW220400   6.483   4.614   4.030
 6501SOL     OW20401   6.368   2.842   6.486
 6501SOL    HW120402   6.324   2.931   6.494
 6501SOL    HW220403   6.413   2.835   6.397
 6502SOL     OW20404   6.088   4.027   1.969
 6502SOL    HW120405   6.001   4.066   1.939
 6502SOL    HW220406   6.138   3.993   1.889
 6503SOL     OW20407   5.419   0.339   3.885
 6503SOL    HW120408   5.339   0.369   3.834
 6503SOL    HW220409   5.476   0.418   3.907
 6504SOL     OW20410   5.037   6.565   6.221
 6504SOL    HW120411   5.034   6.664   6.204
 6504SOL    HW220412   5.038   6.516   6.134
 6505SOL     OW20413   5.215   4.956   1.476
 6505SOL    HW120414   5.289   5.024   1.474
 6505SOL    HW220415   5.252   4.868   1.507
 6506SOL     OW20416   6.385   3.464   1.685
 6506SOL    HW120417   6.299   3.496   1.723
 6506SOL    HW220418   6.461   3.515   1.725
 6507SOL     OW20419   1.345   5.533   5.821
 6507SOL    HW120420   1.335   5.477   5.738
 6507SOL    HW220421   1.428   5.505   5.870
 6508SOL     OW20422   2.724   0.862   3.426
 6508SOL    HW120423   2.806   0.804   3.424
 6508SOL    HW220424   2.750   0.955   3.448
 6509SOL     OW20425   2.584   2.058   3.864
 6509SOL    HW120426   2.616   2.138   3.814
 6509SOL    HW220427   2.514   2.085   3.929
 6510SOL     OW20428   6.619   4.374   6.928
 6510SOL    HW120429   6.555   4.314   6.879
 6510SOL    HW220430   6.712   4.339   6.917
 6511SOL     OW20431   4.964   0.802   4.912
 6511SOL    HW120432   5.017   0.732   4.961
 6511SOL    HW220433   5.022   0.881   4.893
 6512SOL     OW20434   5.044   0.158   1.833
 6512SOL    HW120435   4.964   0.216   1.850
 6512SOL    HW220436   5.101   0.154   1.915
 6513SOL     OW20437   3.314   5.044   2.963
 6513SOL    HW120438   3.302   5.007   3.056
 6513SOL    HW220439   3.270   4.983   2.897
 6514SOL     OW20440   5.924   0.249   3.347
 6514SOL    HW120441   5.906   0.348   3.353
 6514SOL    HW220442   5.854   0.206   3.290
 6515SOL     OW20443   0.579   4.864   3.917
 6515SOL    HW120444   0.665   4.900   3.954
 6515SOL    HW220445   0.541   4.930   3.852
 6516SOL     OW20446   0.531   3.292   1.355
 6516SOL    HW120447   0.624   3.327   1.361
 6516SOL    HW220448   0.491   3.316   1.266
 6517SOL     OW20449   6.679   1.207   0.856
 6517SOL    HW120450   6.716   1.290   0.813
 6517SOL    HW220451   6.601   1.230   0.914
 6518SOL     OW20452   7.022   0.496   0.029
 6518SOL    HW120453   0.042   0.430   0.091
 6518SOL    HW220454   7.004   0.452   6.964
 6519SOL     OW20455   2.577   1.826   3.613
 6519SOL    HW120456   2.489   1.792   3.581
 6519SOL    HW220457   2.566   1.870   3.702
 6520SOL     OW20458   5.406   5.582   2.219
 6520SOL    HW120459   5.321   5.530   2.225
 6520SOL    HW220460   5.464   5.559   2.298
 6521SOL     OW20461   1.424   2.227   4.344
 6521SOL    HW120462   1.340   2.179   4.318
 6521SOL    HW220463   1.433   2.309   4.289
 6522SOL     OW20464   3.507   4.405   6.906
 6522SOL    HW120465   3.580   4.457   6.861
 6522SOL    HW220466   3.425   4.462   6.913
 6523SOL     OW20467   3.311   0.699   6.866
 6523SOL    HW120468   3.411   0.690   6.865
 6523SOL    HW220469   3.273   0.647   6.789
 6524SOL     OW20470   2.867   3.299   2.192
 6524SOL    HW120471   2.816   3.313   2.108
 6524SOL    HW220472   2.964   3.319   2.176
 6525SOL     OW20473   1.843   3.396   2.918
 6525SOL    HW120474   1.941   3.400   2.938
 6525SOL    HW220475   1.829   3.378   2.821
 6526SOL     OW20476   2.439   0.026   5.778
 6526SOL    HW120477   2.368   6.979   5.786
 6526SOL    HW220478   2.428   0.075   5.692
 6527SOL     OW20479   0.581   1.584   4.481
 6527SOL    HW120480   0.516   1.549   4.414
 6527SOL    HW220481   0.650   1.639   4.435
 6528SOL     OW20482   0.112   0.979   3.581
 6528SOL    HW120483   0.085   1.074   3.570
 6528SOL    HW220484   0.051   0.934   3.647
 6529SOL     OW20485   6.837   1.674   3.338
 6529SOL    HW120486   6.832   1.677   3.238
 6529SOL    HW220487   6.808   1.584   3.371
 6530SOL     OW20488   6.602   3.525   1.846
 6530SOL    HW120489   6.644   3.598   1.900
 6530SOL    HW220490   6.598   3.441   1.899
 6531SOL     OW20491   5.450   3.960   4.735
 6531SOL    HW120492   5.540   3.920   4.750
 6531SOL    HW220493   5.443   4.048   4.782
 6532SOL     OW20494   6.409   0.728   6.904
 6532SOL    HW120495   6.404   0.746   7.003
 6532SOL    HW220496   6.379   0.634   6.886
 6533SOL     OW20497   4.552   6.223   1.073
 6533SOL    HW120498   4.469   6.230   1.128
 6533SOL    HW220499   4.599   6.137   1.095
 6534SOL     OW20500   3.171   4.252   1.626
 6534SOL    HW120501   3.076   4.250   1.594
 6534SOL    HW220502   3.232   4.268   1.548
 6535SOL     OW20503   6.938   3.180   4.156
 6535SOL    HW120504   6.845   3.213   4.140
 6535SOL    HW220505   6.942   3.082   4.136
 6536SOL     OW20506   0.546   2.705   5.430
 6536SOL    HW120507   0.635   2.727   5.389
 6536SOL    HW220508   0.476   2.707   5.359
 6537SOL     OW20509   5.819   5.698   0.062
 6537SOL    HW120510   5.737   5.685   0.006
 6537SOL    HW220511   5.868   5.611   0.070
 6538SOL     OW20512   3.362   4.504   0.171
 6538SOL    HW120513   3.315   4.516   0.083
 6538SOL    HW220514   3.344   4.412   0.206
 6539SOL     OW20515   3.160   1.036   6.363
 6539SOL    HW120516   3.218   1.103   6.317
 6539SOL    HW220517   3.115   0.979   6.295
 6540SOL     OW20518   4.789   1.518   5.360
 6540SOL    HW120519   4.789   1.592   5.428
 6540SOL    HW220520   4.882   1.504   5.326
 6541SOL     OW20521   4.081   1.801   5.281
 6541SOL    HW120522   4.028   1.880   5.310
 6541SOL    HW220523   4.020   1.730   5.245
 6542SOL     OW20524   6.841   4.998   3.891
 6542SOL    HW120525   6.867   4.909   3.852
 6542SOL    HW220526   6.751   4.990   3.934
 6543SOL     OW20527   6.313   3.962   6.947
 6543SOL    HW120528   6.232   3.977   7.003
 6543SOL    HW220529   6.326   4.040   6.885
 6544SOL     OW20530   0.377   6.199   2.753
 6544SOL    HW120531   0.331   6.123   2.708
 6544SOL    HW220532   0.331   6.285   2.730
 6545SOL     OW20533   5.352   1.950   6.642
 6545SOL    HW120534   5.301   2.017   6.696
 6545SOL    HW220535   5.334   1.858   6.676
 6546SOL     OW20536   4.502   4.116   6.653
 6546SOL    HW120537   4.417   4.074   6.685
 6546SOL    HW220538   4.489   4.150   6.560
 6547SOL     OW20539   4.761   1.550   5.845
 6547SOL    HW120540   4.686   1.575   5.784
 6547SOL    HW220541   4.817   1.630   5.863
 6548SOL     OW20542   0.720   3.070   0.002
 6548SOL    HW120543   0.815   3.074   6.994
 6548SOL    HW220544   0.716   3.039   0.097
 6549SOL     OW20545   3.996   1.365   0.474
 6549SOL    HW120546   3.906   1.334   0.504
 6549SOL    HW220547   4.009   1.460   0.502
 6550SOL     OW20548   0.340   6.654   3.468
 6550SOL    HW120549   0.319   6.647   3.566
 6550SOL    HW220550   0.254   6.659   3.416
 6551SOL     OW20551   2.064   4.413   2.077
 6551SOL    HW120552   2.068   4.464   1.991
 6551SOL    HW220553   2.110   4.326   2.067
 6552SOL     OW20554   2.314   6.883   5.163
 6552SOL    HW120555   2.408   6.884   5.197
 6552SOL    HW220556   2.251   6.882   5.241
 6553SOL     OW20557   0.626   1.775   2.526
 6553SOL    HW120558   0.717   1.797   2.493
 6553SOL    HW220559   0.633   1.733   2.617
 6554SOL     OW20560   6.601   1.618   5.552
 6554SOL    HW120561   6.544   1.693   5.584
 6554SOL    HW220562   6.550   1.532   5.558
 6555SOL     OW20563   1.190   2.324   1.666
 6555SOL    HW120564   1.133   2.367   1.736
 6555SOL    HW220565   1.244   2.251   1.707
 6556SOL     OW20566   4.468   4.772   5.019
 6556SOL    HW120567   4.414   4.856   5.024
 6556SOL    HW220568   4.409   4.696   4.992
 6557SOL     OW20569   4.336   5.298   1.439
 6557SOL    HW120570   4.395   5.218   1.425
 6557SOL    HW220571   4.388   5.381   1.421
 6558SOL     OW20572   6.506   5.606   0.531
 6558SOL    HW120573   6.512   5.689   0.588
 6558SOL    HW220574   6.460   5.628   0.445
 6559SOL     OW20575   6.909   4.000   6.878
 6559SOL    HW120576   6.906   4.018   6.779
 6559SOL    HW220577   6.896   4.086   6.927
 6560SOL     OW20578   3.998   3.535   0.866
 6560SOL    HW120579   3.964   3.608   0.806
 6560SOL    HW220580   3.923   3.502   0.923
 6561SOL     OW20581   3.637   3.884   2.336
 6561SOL    HW120582   3.590   3.869   2.423
 6561SOL    HW220583   3.604   3.969   2.295
 6562SOL     OW20584   5.885   4.911   6.704
 6562SOL    HW120585   5.869   4.940   6.610
 6562SOL    HW220586   5.980   4.928   6.729
 6563SOL     OW20587   0.021   6.288   0.241
 6563SOL    HW120588   0.053   6.195   0.259
 6563SOL    HW220589   0.094   6.340   0.196
 6564SOL     OW20590   6.543   3.976   2.715
 6564SOL    HW120591   6.599   3.977   2.798
 6564SOL    HW220592   6.601   3.999   2.636
 6565SOL     OW20593   6.053   2.611   4.238
 6565SOL    HW120594   6.089   2.631   4.329
 6565SOL    HW220595   5.953   2.608   4.241
 6566SOL     OW20596   3.158   0.115   1.542
 6566SOL    HW120597   3.100   0.052   1.490
 6566SOL    HW220598   3.219   0.163   1.479
 6567SOL     OW20599   4.179   2.496   1.327
 6567SOL    HW120600   4.142   2.505   1.420
 6567SOL    HW220601   4.198   2.399   1.309
 6568SOL     OW20602   4.920   6.361   3.037
 6568SOL    HW120603   4.995   6.376   3.102
 6568SOL    HW220604   4.873   6.275   3.059
 6569SOL     OW20605   3.584   3.835   0.714
 6569SOL    HW120606   3.591   3.900   0.639
 6569SOL    HW220607   3.488   3.812   0.728
 6570SOL     OW20608   4.660   6.694   1.779
 6570SOL    HW120609   4.727   6.620   1.776
 6570SOL    HW220610   4.586   6.674   1.715
 6571SOL     OW20611   2.989   6.202   2.095
 6571SOL    HW120612   3.011   6.300   2.098
 6571SOL    HW220613   3.071   6.150   2.069
 6572SOL     OW20614   6.613   5.594   5.534
 6572SOL    HW120615   6.696   5.648   5.526
 6572SOL    HW220616   6.545   5.627   5.468
 6573SOL     OW20617   2.755   0.832   3.009
 6573SOL    HW120618   2.851   0.818   2.985
 6573SOL    HW220619   2.746   0.907   3.074
 6574SOL     OW20620   2.947   6.029   2.298
 6574SOL    HW120621   2.963   6.089   2.220
 6574SOL    HW220622   3.008   5.949   2.292
 6575SOL     OW20623   1.019   1.434   1.877
 6575SOL    HW120624   1.024   1.337   1.856
 6575SOL    HW220625   0.990   1.485   1.797
 6576SOL     OW20626   1.365   6.545   6.693
 6576SOL    HW120627   1.440   6.610   6.689
 6576SOL    HW220628   1.339   6.528   6.788
 6577SOL     OW20629   0.404   1.939   3.607
 6577SOL    HW120630   0.432   1.900   3.519
 6577SOL    HW220631   0.306   1.958   3.605
 6578SOL     OW20632   0.494   4.338   2.704
 6578SOL    HW120633   0.415   4.343   2.764
 6578SOL    HW220634   0.475   4.274   2.629
 6579SOL     OW20635   0.129   3.997   4.668
 6579SOL    HW120636   0.117   4.048   4.583
 6579SOL    HW220637   0.224   3.967   4.676
 6580SOL     OW20638   0.191   1.112   1.357
 6580SOL    HW120639   0.162   1.075   1.269
 6580SOL    HW220640   0.129   1.079   1.429
 6581SOL     OW20641   3.236   1.468   6.693
 6581SOL    HW120642   3.294   1.545   6.669
 6581SOL    HW220643   3.260   1.389   6.637
 6582SOL     OW20644   1.898   0.601   2.365
 6582SOL    HW120645   1.916   0.520   2.309
 6582SOL    HW220646   1.947   0.679   2.327
 6583SOL     OW20647   4.410   0.290   5.338
 6583SOL    HW120648   4.333   0.292   5.403
 6583SOL    HW220649   4.425   0.382   5.303
 6584SOL     OW20650   5.189   1.935   6.994
 6584SOL    HW120651   5.212   1.853   0.023
 6584SOL    HW220652   5.108   1.918   6.939
 6585SOL     OW20653   6.964   1.053   0.477
 6585SOL    HW120654   6.999   1.117   0.546
 6585SOL    HW220655   6.864   1.056   0.476
 6586SOL     OW20656   6.430   2.614   6.044
 6586SOL    HW120657   6.381   2.653   6.122
 6586SOL    HW220658   6.416   2.515   6.042
 6587SOL     OW20659   2.703   5.810   4.682
 6587SOL    HW120660   2.786   5.861   4.659
 6587SOL    HW220661   2.628   5.874   4.701
 6588SOL     OW20662   1.903   3.813   1.692
 6588SOL    HW120663   1.851   3.742   1.739
 6588SOL    HW220664   1.985   3.772   1.651
 6589SOL     OW20665   4.777   0.060   6.437
 6589SOL    HW120666   4.739   0.048   6.529
 6589SOL    HW220667   4.837   0.140   6.436
 6590SOL     OW20668   0.877   1.203   5.968
 6590SOL    HW120669   0.802   1.258   5.931
 6590SOL    HW220670   0.946   1.264   6.008
 6591SOL     OW20671   4.954   6.165   2.695
 6591SOL    HW120672   4.959   6.094   2.626
 6591SOL    HW220673   4.882   6.231   2.671
 6592SOL     OW20674   5.976   6.765   3.969
 6592SOL    HW120675   6.014   6.708   3.896
 6592SOL    HW220676   5.907   6.826   3.931
 6593SOL     OW20677   2.218   1.994   3.695
 6593SOL    HW120678   2.289   1.926   3.716
 6593SOL    HW220679   2.163   1.962   3.618
 6594SOL     OW20680   4.016   1.702   0.261
 6594SOL    HW120681   3.994   1.799   0.269
 6594SOL    HW220682   4.060   1.671   0.345
 6595SOL     OW20683   0.785   3.366   1.051
 6595SOL    HW120684   0.865   3.358   1.110
 6595SOL    HW220685   0.811   3.414   0.967
 6596SOL     OW20686   3.394   0.094   4.593
 6596SOL    HW120687   3.318   0.031   4.610
 6596SOL    HW220688   3.415   0.095   4.495
 6597SOL     OW20689   1.582   6.350   3.227
 6597SOL    HW120690   1.633   6.363   3.312
 6597SOL    HW220691   1.647   6.342   3.151
 6598SOL     OW20692   0.536   0.026   4.253
 6598SOL    HW120693   0.565   6.991   4.328
 6598SOL    HW220694   0.615   0.075   4.215
 6599SOL     OW20695   3.214   5.716   5.541
 6599SOL    HW120696   3.253   5.775   5.612
 6599SOL    HW220697   3.121   5.747   5.521
 6600SOL     OW20698   4.604   4.888   6.054
 6600SOL    HW120699   4.700   4.881   6.083
 6600SOL    HW220700   4.583   4.984   6.034
 6601SOL     OW20701   0.746   1.160   6.842
 6601SOL    HW120702   0.717   1.103   6.765
 6601SOL    HW220703   0.845   1.155   6.851
 6602SOL     OW20704   6.965   1.060   2.101
 6602SOL    HW120705   6.974   1.041   2.198
 6602SOL    HW220706   0.033   1.066   2.059
 6603SOL     OW20707   0.841   2.858   4.071
 6603SOL    HW120708   0.909   2.932   4.075
 6603SOL    HW220709   0.749   2.897   4.083
 6604SOL     OW20710   2.190   6.391   0.668
 6604SOL    HW120711   2.284   6.362   0.648
 6604SOL    HW220712   2.133   6.375   0.588
 6605SOL     OW20713   5.693   4.503   0.758
 6605SOL    HW120714   5.671   4.576   0.693
 6605SOL    HW220715   5.786   4.471   0.741
 6606SOL     OW20716   5.437   0.290   2.540
 6606SOL    HW120717   5.351   0.240   2.530
 6606SOL    HW220718   5.417   0.385   2.568
 6607SOL     OW20719   1.735   2.380   1.479
 6607SOL    HW120720   1.830   2.360   1.456
 6607SOL    HW220721   1.725   2.478   1.495
 6608SOL     OW20722   4.702   6.069   1.826
 6608SOL    HW120723   4.792   6.032   1.848
 6608SOL    HW220724   4.710   6.131   1.748
 6609SOL     OW20725   4.393   0.723   5.888
 6609SOL    HW120726   4.392   0.638   5.941
 6609SOL    HW220727   4.411   0.800   5.949
 6610SOL     OW20728   2.476   1.215   6.182
 6610SOL    HW120729   2.485   1.115   6.189
 6610SOL    HW220730   2.552   1.259   6.229
 6611SOL     OW20731   6.394   2.770   3.375
 6611SOL    HW120732   6.387   2.814   3.465
 6611SOL    HW220733   6.303   2.745   3.343
 6612SOL     OW20734   0.242   2.703   6.897
 6612SOL    HW120735   0.151   2.670   6.924
 6612SOL    HW220736   0.264   2.669   6.806
 6613SOL     OW20737   5.576   5.957   4.510
 6613SOL    HW120738   5.634   5.894   4.459
 6613SOL    HW220739   5.628   5.995   4.587
 6614SOL     OW20740   5.649   6.334   0.038
 6614SOL    HW120741   5.591   6.312   0.117
 6614SOL    HW220742   5.721   6.266   0.030
 6615SOL     OW20743   0.813   4.394   3.738
 6615SOL    HW120744   0.851   4.480   3.771
 6615SOL    HW220745   0.888   4.333   3.711
 6616SOL     OW20746   4.322   1.207   6.397
 6616SOL    HW120747   4.234   1.163   6.377
 6616SOL    HW220748   4.359   1.170   6.482
 6617SOL     OW20749   2.808   6.064   3.183
 6617SOL    HW120750   2.906   6.072   3.165
 6617SOL    HW220751   2.767   5.998   3.121
 6618SOL     OW20752   1.130   3.153   3.115
 6618SOL    HW120753   1.183   3.234   3.089
 6618SOL    HW220754   1.136   3.139   3.214
 6619SOL     OW20755   6.951   6.712   4.368
 6619SOL    HW120756   6.997   6.768   4.299
 6619SOL    HW220757   6.954   6.758   4.456
 6620SOL     OW20758   2.514   2.512   5.314
 6620SOL    HW120759   2.509   2.608   5.341
 6620SOL    HW220760   2.551   2.505   5.222
 6621SOL     OW20761   2.273   3.123   6.611
 6621SOL    HW120762   2.327   3.068   6.546
 6621SOL    HW220763   2.187   3.077   6.630
 6622SOL     OW20764   5.913   6.148   1.395
 6622SOL    HW120765   5.852   6.069   1.385
 6622SOL    HW220766   6.008   6.116   1.401
 6623SOL     OW20767   2.907   3.543   0.912
 6623SOL    HW120768   2.996   3.545   0.957
 6623SOL    HW220769   2.860   3.630   0.925
 6624SOL     OW20770   1.637   0.550   4.431
 6624SOL    HW120771   1.636   0.451   4.415
 6624SOL    HW220772   1.660   0.597   4.346
 6625SOL     OW20773   5.059   1.941   5.824
 6625SOL    HW120774   5.147   1.899   5.804
 6625SOL    HW220775   5.069   2.041   5.824
 6626SOL     OW20776   4.021   4.915   5.153
 6626SOL    HW120777   4.001   4.954   5.243
 6626SOL    HW220778   3.987   4.976   5.081
 6627SOL     OW20779   2.462   0.840   5.874
 6627SOL    HW120780   2.541   0.828   5.814
 6627SOL    HW220781   2.380   0.804   5.829
 6628SOL     OW20782   4.747   4.681   4.155
 6628SOL    HW120783   4.833   4.731   4.167
 6628SOL    HW220784   4.704   4.667   4.245
 6629SOL     OW20785   2.593   5.699   6.659
 6629SOL    HW120786   2.602   5.600   6.659
 6629SOL    HW220787   2.541   5.727   6.578
 6630SOL     OW20788   3.069   1.452   1.683
 6630SOL    HW120789   3.110   1.403   1.606
 6630SOL    HW220790   3.024   1.386   1.744
 6631SOL     OW20791   3.870   0.229   2.216
 6631SOL    HW120792   3.795   0.283   2.179
 6631SOL    HW220793   3.954   0.284   2.215
 6632SOL     OW20794   0.829   0.253   2.176
 6632SOL    HW120795   0.732   0.254   2.202
 6632SOL    HW220796   0.872   0.338   2.206
 6633SOL     OW20797   0.976   4.437   5.307
 6633SOL    HW120798   0.882   4.410   5.288
 6633SOL    HW220799   1.033   4.418   5.227
 6634SOL     OW20800   5.981   3.009   5.011
 6634SOL    HW120801   6.012   2.934   4.952
 6634SOL    HW220802   6.060   3.063   5.039
 6635SOL     OW20803   3.798   5.182   3.557
 6635SOL    HW120804   3.894   5.205   3.575
 6635SOL    HW220805   3.750   5.168   3.644
 6636SOL     OW20806   3.664   1.994   5.995
 6636SOL    HW120807   3.637   1.952   5.909
 6636SOL    HW220808   3.651   2.093   5.989
 6637SOL     OW20809   1.738   0.244   6.029
 6637SOL    HW120810   1.658   0.187   6.010
 6637SOL    HW220811   1.708   0.329   6.072
 6638SOL     OW20812   3.647   4.159   4.933
 6638SOL    HW120813   3.668   4.143   4.836
 6638SOL    HW220814   3.627   4.257   4.947
 6639SOL     OW20815   5.671   5.446   0.338
 6639SOL    HW120816   5.626   5.531   0.366
 6639SOL    HW220817   5.614   5.400   0.270
 6640SOL     OW20818   0.426   1.911   5.034
 6640SOL    HW120819   0.461   1.821   5.010
 6640SOL    HW220820   0.327   1.913   5.021
 6641SOL     OW20821   2.304   2.316   6.895
 6641SOL    HW120822   2.288   2.412   6.915
 6641SOL    HW220823   2.361   2.276   6.967
 6642SOL     OW20824   2.683   5.587   0.347
 6642SOL    HW120825   2.706   5.506   0.401
 6642SOL    HW220826   2.628   5.649   0.402
 6643SOL     OW20827   6.774   4.886   6.768
 6643SOL    HW120828   6.770   4.962   6.833
 6643SOL    HW220829   6.682   4.864   6.737
 6644SOL     OW20830   2.775   4.679   1.665
 6644SOL    HW120831   2.700   4.644   1.610
 6644SOL    HW220832   2.793   4.616   1.741
 6645SOL     OW20833   6.946   5.008   0.131
 6645SOL    HW120834   6.922   4.914   0.154
 6645SOL    HW220835   0.019   5.013   0.106
 6646SOL     OW20836   3.686   7.021   4.416
 6646SOL    HW120837   3.710   0.087   4.455
 6646SOL    HW220838   3.692   6.952   4.488
 6647SOL     OW20839   4.049   0.965   2.195
 6647SOL    HW120840   4.118   1.019   2.148
 6647SOL    HW220841   3.964   1.019   2.202
 6648SOL     OW20842   3.289   5.758   2.373
 6648SOL    HW120843   3.326   5.701   2.446
 6648SOL    HW220844   3.350   5.755   2.294
 6649SOL     OW20845   4.833   1.398   0.125
 6649SOL    HW120846   4.791   1.488   0.139
 6649SOL    HW220847   4.837   1.349   0.212
 6650SOL     OW20848   3.594   1.011   5.334
 6650SOL    HW120849   3.666   0.942   5.340
 6650SOL    HW220850   3.575   1.048   5.425
 6651SOL     OW20851   2.060   1.414   6.937
 6651SOL    HW120852   1.981   1.448   6.989
 6651SOL    HW220853   2.115   1.491   6.906
 6652SOL     OW20854   6.900   5.208   0.329
 6652SOL    HW120855   6.918   5.145   0.254
 6652SOL    HW220856   6.873   5.297   0.293
 6653SOL     OW20857   3.428   3.361   2.094
 6653SOL    HW120858   3.494   3.311   2.151
 6653SOL    HW220859   3.346   3.306   2.083
 6654SOL     OW20860   1.583   3.186   0.941
 6654SOL    HW120861   1.631   3.102   0.966
 6654SOL    HW220862   1.484   3.168   0.941
 6655SOL     OW20863   3.516   6.652   1.403
 6655SOL    HW120864   3.592   6.704   1.443
 6655SOL    HW220865   3.540   6.623   1.310
 6656SOL     OW20866   6.375   1.973   2.227
 6656SOL    HW120867   6.348   2.033   2.303
 6656SOL    HW220868   6.388   1.880   2.262
 6657SOL     OW20869   5.422   6.184   6.426
 6657SOL    HW120870   5.355   6.256   6.445
 6657SOL    HW220871   5.484   6.176   6.504
 6658SOL     OW20872   5.751   1.772   4.872
 6658SOL    HW120873   5.800   1.815   4.796
 6658SOL    HW220874   5.804   1.784   4.956
 6659SOL     OW20875   2.243   2.212   0.872
 6659SOL    HW120876   2.286   2.204   0.782
 6659SOL    HW220877   2.158   2.160   0.873
 6660SOL     OW20878   0.645   6.088   1.061
 6660SOL    HW120879   0.692   6.002   1.044
 6660SOL    HW220880   0.567   6.072   1.121
 6661SOL     OW20881   0.627   6.159   3.515
 6661SOL    HW120882   0.545   6.112   3.482
 6661SOL    HW220883   0.603   6.252   3.542
 6662SOL     OW20884   1.225   0.766   6.835
 6662SOL    HW120885   1.240   0.685   6.892
 6662SOL    HW220886   1.242   0.848   6.890
 6663SOL     OW20887   7.010   5.305   3.020
 6663SOL    HW120888   6.913   5.321   3.033
 6663SOL    HW220889   0.036   5.318   3.106
 6664SOL     OW20890   1.733   0.075   0.530
 6664SOL    HW120891   1.816   0.129   0.536
 6664SOL    HW220892   1.714   0.033   0.619
 6665SOL     OW20893   1.874   0.073   3.546
 6665SOL    HW120894   1.800   0.027   3.594
 6665SOL    HW220895   1.960   0.058   3.594
 6666SOL     OW20896   5.891   0.693   6.277
 6666SOL    HW120897   5.801   0.671   6.240
 6666SOL    HW220898   5.885   0.781   6.326
 6667SOL     OW20899   6.968   5.029   5.495
 6667SOL    HW120900   0.006   4.954   5.473
 6667SOL    HW220901   6.955   5.087   5.415
 6668SOL     OW20902   6.125   5.821   1.921
 6668SOL    HW120903   6.142   5.814   1.823
 6668SOL    HW220904   6.081   5.738   1.953
 6669SOL     OW20905   2.114   2.859   3.702
 6669SOL    HW120906   2.174   2.822   3.773
 6669SOL    HW220907   2.109   2.958   3.712
 6670SOL     OW20908   3.526   2.488   5.745
 6670SOL    HW120909   3.501   2.399   5.784
 6670SOL    HW220910   3.454   2.518   5.683
 6671SOL     OW20911   4.965   5.738   1.251
 6671SOL    HW120912   5.055   5.772   1.225
 6671SOL    HW220913   4.914   5.811   1.297
 6672SOL     OW20914   0.735   2.108   5.276
 6672SOL    HW120915   0.639   2.088   5.294
 6672SOL    HW220916   0.793   2.041   5.323
 6673SOL     OW20917   5.174   6.155   3.306
 6673SOL    HW120918   5.174   6.238   3.362
 6673SOL    HW220919   5.086   6.108   3.316
 6674SOL     OW20920   0.688   4.883   6.102
 6674SOL    HW120921   0.705   4.806   6.040
 6674SOL    HW220922   0.644   4.849   6.185
 6675SOL     OW20923   4.221   4.150   1.614
 6675SOL    HW120924   4.136   4.120   1.658
 6675SOL    HW220925   4.296   4.147   1.681
 6676SOL     OW20926   0.652   4.537   5.343
 6676SOL    HW120927   0.579   4.539   5.411
 6676SOL    HW220928   0.674   4.442   5.321
 6677SOL     OW20929   1.123   2.099   6.694
 6677SOL    HW120930   1.197   2.154   6.732
 6677SOL    HW220931   1.091   2.033   6.762
 6678SOL     OW20932   2.422   2.701   0.507
 6678SOL    HW120933   2.403   2.603   0.500
 6678SOL    HW220934   2.519   2.715   0.528
 6679SOL     OW20935   3.023   1.346   4.285
 6679SOL    HW120936   2.951   1.411   4.260
 6679SOL    HW220937   2.993   1.292   4.363
 6680SOL     OW20938   4.499   6.499   6.651
 6680SOL    HW120939   4.509   6.449   6.737
 6680SOL    HW220940   4.530   6.594   6.664
 6681SOL     OW20941   4.843   5.102   0.149
 6681SOL    HW120942   4.889   5.178   0.103
 6681SOL    HW220943   4.892   5.017   0.131
 6682SOL     OW20944   1.538   4.514   2.430
 6682SOL    HW120945   1.552   4.587   2.363
 6682SOL    HW220946   1.545   4.425   2.384
 6683SOL     OW20947   4.870   2.612   5.591
 6683SOL    HW120948   4.861   2.711   5.581
 6683SOL    HW220949   4.924   2.576   5.514
 6684SOL     OW20950   2.263   6.676   0.673
 6684SOL    HW120951   2.193   6.608   0.653
 6684SOL    HW220952   2.290   6.723   0.589
 6685SOL     OW20953   5.653   3.185   5.415
 6685SOL    HW120954   5.601   3.248   5.357
 6685SOL    HW220955   5.591   3.140   5.479
 6686SOL     OW20956   5.056   6.124   3.952
 6686SOL    HW120957   5.028   6.035   3.915
 6686SOL    HW220958   5.117   6.110   4.030
 6687SOL     OW20959   0.246   2.269   1.307
 6687SOL    HW120960   0.269   2.174   1.283
 6687SOL    HW220961   0.170   2.300   1.251
 6688SOL     OW20962   6.605   4.093   2.078
 6688SOL    HW120963   6.684   4.151   2.096
 6688SOL    HW220964   6.521   4.146   2.091
 6689SOL     OW20965   4.189   3.027   0.389
 6689SOL    HW120966   4.202   2.930   0.364
 6689SOL    HW220967   4.214   3.084   0.311
 6690SOL     OW20968   2.227   1.052   1.989
 6690SOL    HW120969   2.304   1.000   1.951
 6690SOL    HW220970   2.257   1.100   2.072
 6691SOL     OW20971   3.040   6.251   1.654
 6691SOL    HW120972   2.959   6.307   1.668
 6691SOL    HW220973   3.109   6.275   1.723
 6692SOL     OW20974   2.843   4.415   5.603
 6692SOL    HW120975   2.881   4.337   5.654
 6692SOL    HW220976   2.877   4.411   5.509
 6693SOL     OW20977   4.048   3.194   5.780
 6693SOL    HW120978   3.954   3.195   5.749
 6693SOL    HW220979   4.050   3.183   5.880
 6694SOL     OW20980   5.241   6.345   0.291
 6694SOL    HW120981   5.216   6.438   0.263
 6694SOL    HW220982   5.329   6.321   0.248
 6695SOL     OW20983   2.356   2.063   5.680
 6695SOL    HW120984   2.443   2.112   5.689
 6695SOL    HW220985   2.291   2.098   5.747
 6696SOL     OW20986   1.797   2.604   0.148
 6696SOL    HW120987   1.832   2.546   0.222
 6696SOL    HW220988   1.699   2.617   0.160
 6697SOL     OW20989   5.024   2.624   3.406
 6697SOL    HW120990   5.037   2.540   3.353
 6697SOL    HW220991   5.101   2.637   3.468
 6698SOL     OW20992   3.096   2.781   0.523
 6698SOL    HW120993   3.103   2.702   0.585
 6698SOL    HW220994   3.089   2.749   0.429
 6699SOL     OW20995   3.402   5.087   6.446
 6699SOL    HW120996   3.474   5.153   6.425
 6699SOL    HW220997   3.325   5.134   6.489
 6700SOL     OW20998   0.134   6.187   1.311
 6700SOL    HW120999   0.083   6.247   1.374
 6700SOL    HW221000   0.203   6.136   1.362
 6701SOL     OW21001   5.287   2.938   1.130
 6701SOL    HW121002   5.263   2.854   1.080
 6701SOL    HW221003   5.205   2.993   1.142
 6702SOL     OW21004   2.378   2.886   0.310
 6702SOL    HW121005   2.407   2.963   0.367
 6702SOL    HW221006   2.379   2.802   0.365
 6703SOL     OW21007   6.489   1.607   0.049
 6703SOL    HW121008   6.398   1.596   0.010
 6703SOL    HW221009   6.553   1.636   7.001
 6704SOL     OW21010   4.439   2.236   2.392
 6704SOL    HW121011   4.341   2.249   2.379
 6704SOL    HW221012   4.474   2.303   2.457
 6705SOL     OW21013   0.003   2.258   2.074
 6705SOL    HW121014   0.010   2.333   2.140
 6705SOL    HW221015   0.039   2.174   2.115
 6706SOL     OW21016   1.127   3.970   1.224
 6706SOL    HW121017   1.039   3.983   1.269
 6706SOL    HW221018   1.163   4.058   1.194
 6707SOL     OW21019   0.346   5.672   4.812
 6707SOL    HW121020   0.299   5.585   4.795
 6707SOL    HW221021   0.444   5.661   4.796
 6708SOL     OW21022   1.312   5.098   2.478
 6708SOL    HW121023   1.283   5.182   2.434
 6708SOL    HW221024   1.406   5.076   2.453
 6709SOL     OW21025   3.101   5.487   2.046
 6709SOL    HW121026   3.176   5.520   1.989
 6709SOL    HW221027   3.016   5.485   1.993
 6710SOL     OW21028   2.910   1.684   6.043
 6710SOL    HW121029   2.836   1.691   6.109
 6710SOL    HW221030   2.922   1.772   5.996
 6711SOL     OW21031   5.741   4.676   6.787
 6711SOL    HW121032   5.795   4.749   6.746
 6711SOL    HW221033   5.684   4.714   6.860
 6712SOL     OW21034   4.630   5.466   0.190
 6712SOL    HW121035   4.630   5.463   0.090
 6712SOL    HW221036   4.680   5.546   0.221
 6713SOL     OW21037   1.644   1.989   1.528
 6713SOL    HW121038   1.685   2.003   1.438
 6713SOL    HW221039   1.684   2.053   1.593
 6714SOL     OW21040   5.411   0.506   6.131
 6714SOL    HW121041   5.365   0.542   6.050
 6714SOL    HW221042   5.487   0.447   6.104
 6715SOL     OW21043   0.157   0.856   6.843
 6715SOL    HW121044   0.253   0.840   6.819
 6715SOL    HW221045   0.145   0.952   6.868
 6716SOL     OW21046   1.095   5.733   2.280
 6716SOL    HW121047   1.025   5.757   2.349
 6716SOL    HW221048   1.177   5.699   2.327
 6717SOL     OW21049   4.059   3.099   0.892
 6717SOL    HW121050   4.085   3.009   0.856
 6717SOL    HW221051   4.050   3.093   0.991
 6718SOL     OW21052   4.002   6.168   6.343
 6718SOL    HW121053   3.910   6.195   6.314
 6718SOL    HW221054   3.998   6.078   6.385
 6719SOL     OW21055   0.337   0.103   5.922
 6719SOL    HW121056   0.347   0.145   5.832
 6719SOL    HW221057   0.370   0.166   5.992
 6720SOL     OW21058   1.330   6.173   2.145
 6720SOL    HW121059   1.375   6.206   2.229
 6720SOL    HW221060   1.384   6.100   2.105
 6721SOL     OW21061   5.872   6.790   4.368
 6721SOL    HW121062   5.900   6.698   4.399
 6721SOL    HW221063   5.946   6.831   4.316
 6722SOL     OW21064   5.340   3.385   1.452
 6722SOL    HW121065   5.293   3.458   1.403
 6722SOL    HW221066   5.438   3.390   1.435
 6723SOL     OW21067   2.468   6.410   2.798
 6723SOL    HW121068   2.430   6.321   2.770
 6723SOL    HW221069   2.419   6.483   2.751
 6724SOL     OW21070   1.168   3.579   6.165
 6724SOL    HW121071   1.226   3.660   6.166
 6724SOL    HW221072   1.084   3.598   6.114
 6725SOL     OW21073   0.630   4.331   1.924
 6725SOL    HW121074   0.673   4.259   1.870
 6725SOL    HW221075   0.538   4.349   1.889
 6726SOL     OW21076   0.664   1.968   4.347
 6726SOL    HW121077   0.732   1.938   4.414
 6726SOL    HW221078   0.697   2.050   4.299
 6727SOL     OW21079   6.652   3.417   5.931
 6727SOL    HW121080   6.675   3.478   5.855
 6727SOL    HW221081   6.722   3.425   6.002
 6728SOL     OW21082   4.710   1.525   4.579
 6728SOL    HW121083   4.709   1.625   4.578
 6728SOL    HW221084   4.640   1.491   4.642
 6729SOL     OW21085   6.734   1.629   2.219
 6729SOL    HW121086   6.717   1.724   2.245
 6729SOL    HW221087   6.660   1.597   2.160
 6730SOL     OW21088   1.856   6.633   6.450
 6730SOL    HW121089   1.798   6.577   6.509
 6730SOL    HW221090   1.931   6.577   6.415
 6731SOL     OW21091   2.032   4.637   1.261
 6731SOL    HW121092   1.986   4.726   1.259
 6731SOL    HW221093   1.963   4.564   1.261
 6732SOL     OW21094   4.433   5.578   6.113
 6732SOL    HW121095   4.523   5.541   6.136
 6732SOL    HW221096   4.442   5.645   6.040
 6733SOL     OW21097   4.442   5.211   6.742
 6733SOL    HW121098   4.443   5.219   6.842
 6733SOL    HW221099   4.396   5.290   6.702
 6734SOL     OW21100   1.112   3.199   5.410
 6734SOL    HW121101   1.017   3.213   5.437
 6734SOL    HW221102   1.132   3.101   5.408
 6735SOL     OW21103   0.678   5.910   4.769
 6735SOL    HW121104   0.734   5.943   4.844
 6735SOL    HW221105   0.656   5.814   4.783
 6736SOL     OW21106   1.699   3.218   0.473
 6736SOL    HW121107   1.684   3.134   0.420
 6736SOL    HW221108   1.696   3.296   0.411
 6737SOL     OW21109   2.075   2.710   1.049
 6737SOL    HW121110   2.000   2.714   0.982
 6737SOL    HW221111   2.134   2.790   1.037
 6738SOL     OW21112   2.102   3.208   2.070
 6738SOL    HW121113   2.140   3.297   2.046
 6738SOL    HW221114   2.165   3.160   2.131
 6739SOL     OW21115   3.141   5.125   5.879
 6739SOL    HW121116   3.211   5.054   5.892
 6739SOL    HW221117   3.175   5.211   5.915
 6740SOL     OW21118   2.172   1.568   4.568
 6740SOL    HW121119   2.149   1.474   4.593
 6740SOL    HW221120   2.090   1.615   4.535
 6741SOL     OW21121   4.421   1.377   5.785
 6741SOL    HW121122   4.436   1.453   5.848
 6741SOL    HW221123   4.397   1.413   5.695
 6742SOL     OW21124   0.445   5.700   2.882
 6742SOL    HW121125   0.526   5.749   2.848
 6742SOL    HW221126   0.386   5.764   2.930
 6743SOL     OW21127   3.958   4.513   6.722
 6743SOL    HW121128   3.904   4.429   6.715
 6743SOL    HW221129   4.055   4.491   6.725
 6744SOL     OW21130   4.371   5.414   5.874
 6744SOL    HW121131   4.278   5.418   5.910
 6744SOL    HW221132   4.431   5.472   5.930
 6745SOL     OW21133   1.110   6.102   2.399
 6745SOL    HW121134   1.186   6.058   2.447
 6745SOL    HW221135   1.114   6.201   2.414
 6746SOL     OW21136   0.422   1.138   2.888
 6746SOL    HW121137   0.374   1.053   2.909
 6746SOL    HW221138   0.377   1.183   2.811
 6747SOL     OW21139   5.484   6.798   4.399
 6747SOL    HW121140   5.400   6.798   4.346
 6747SOL    HW221141   5.506   6.705   4.429
 6748SOL     OW21142   1.668   0.339   2.786
 6748SOL    HW121143   1.623   0.426   2.804
 6748SOL    HW221144   1.601   0.272   2.753
 6749SOL     OW21145   3.150   6.499   6.632
 6749SOL    HW121146   3.219   6.555   6.679
 6749SOL    HW221147   3.129   6.539   6.543
 6750SOL     OW21148   3.832   1.595   4.755
 6750SOL    HW121149   3.806   1.664   4.687
 6750SOL    HW221150   3.883   1.521   4.711
 6751SOL     OW21151   3.765   1.684   3.529
 6751SOL    HW121152   3.685   1.645   3.483
 6751SOL    HW221153   3.750   1.782   3.545
 6752SOL     OW21154   6.036   3.214   2.471
 6752SOL    HW121155   6.023   3.144   2.542
 6752SOL    HW221156   6.055   3.302   2.514
 6753SOL     OW21157   4.588   1.139   6.280
 6753SOL    HW121158   4.512   1.184   6.327
 6753SOL    HW221159   4.572   1.140   6.181
 6754SOL     OW21160   6.540   2.059   5.479
 6754SOL    HW121161   6.600   2.137   5.461
 6754SOL    HW221162   6.487   2.038   5.396
 6755SOL     OW21163   4.726   1.826   4.088
 6755SOL    HW121164   4.722   1.756   4.159
 6755SOL    HW221165   4.787   1.900   4.117
 6756SOL     OW21166   4.616   4.352   4.387
 6756SOL    HW121167   4.578   4.444   4.380
 6756SOL    HW221168   4.595   4.301   4.303
 6757SOL     OW21169   4.706   6.350   0.883
 6757SOL    HW121170   4.686   6.442   0.918
 6757SOL    HW221171   4.635   6.287   0.913
 6758SOL     OW21172   5.425   3.947   2.084
 6758SOL    HW121173   5.356   3.876   2.093
 6758SOL    HW221174   5.387   4.035   2.112
 6759SOL     OW21175   1.161   3.682   4.183
 6759SOL    HW121176   1.163   3.770   4.137
 6759SOL    HW221177   1.067   3.647   4.185
 6760SOL     OW21178   6.510   5.450   4.667
 6760SOL    HW121179   6.466   5.410   4.747
 6760SOL    HW221180   6.598   5.490   4.694
 6761SOL     OW21181   5.440   2.466   6.003
 6761SOL    HW121182   5.407   2.499   5.915
 6761SOL    HW221183   5.379   2.499   6.075
 6762SOL     OW21184   0.036   5.575   3.168
 6762SOL    HW121185   7.017   5.648   3.114
 6762SOL    HW221186   7.015   5.571   3.258
 6763SOL     OW21187   6.260   6.061   3.922
 6763SOL    HW121188   6.233   6.133   3.986
 6763SOL    HW221189   6.336   6.009   3.960
 6764SOL     OW21190   2.975   4.640   6.524
 6764SOL    HW121191   3.023   4.553   6.523
 6764SOL    HW221192   3.033   4.711   6.483
 6765SOL     OW21193   6.038   5.082   3.686
 6765SOL    HW121194   5.988   5.020   3.626
 6765SOL    HW221195   6.024   5.176   3.655
 6766SOL     OW21196   2.942   7.001   6.384
 6766SOL    HW121197   2.859   6.958   6.349
 6766SOL    HW221198   2.945   0.074   6.355
 6767SOL     OW21199   0.524   3.030   1.028
 6767SOL    HW121200   0.562   2.943   0.998
 6767SOL    HW221201   0.566   3.056   1.116
 6768SOL     OW21202   1.017   0.481   3.662
 6768SOL    HW121203   1.043   0.533   3.580
 6768SOL    HW221204   1.018   0.541   3.742
 6769SOL     OW21205   2.991   1.424   5.260
 6769SOL    HW121206   3.068   1.485   5.277
 6769SOL    HW221207   2.908   1.465   5.298
 6770SOL     OW21208   0.032   2.357   4.354
 6770SOL    HW121209   0.016   2.301   4.273
 6770SOL    HW221210   0.073   2.444   4.327
 6771SOL     OW21211   3.674   2.145   3.424
 6771SOL    HW121212   3.605   2.172   3.491
 6771SOL    HW221213   3.633   2.138   3.334
 6772SOL     OW21214   5.611   2.048   2.410
 6772SOL    HW121215   5.542   2.030   2.479
 6772SOL    HW221216   5.635   1.962   2.364
 6773SOL     OW21217   6.828   6.643   1.568
 6773SOL    HW121218   6.860   6.737   1.573
 6773SOL    HW221219   6.876   6.594   1.495
 6774SOL     OW21220   2.082   1.693   5.561
 6774SOL    HW121221   2.001   1.750   5.569
 6774SOL    HW221222   2.107   1.655   5.650
 6775SOL     OW21223   1.186   1.864   3.694
 6775SOL    HW121224   1.239   1.818   3.764
 6775SOL    HW221225   1.248   1.897   3.622
 6776SOL     OW21226   3.464   3.358   1.810
 6776SOL    HW121227   3.389   3.419   1.784
 6776SOL    HW221228   3.455   3.335   1.906
 6777SOL     OW21229   4.134   5.216   1.279
 6777SOL    HW121230   4.175   5.159   1.208
 6777SOL    HW221231   4.206   5.258   1.334
 6778SOL     OW21232   5.492   3.833   2.426
 6778SOL    HW121233   5.399   3.809   2.400
 6778SOL    HW221234   5.531   3.896   2.359
 6779SOL     OW21235   6.580   4.366   6.181
 6779SOL    HW121236   6.504   4.325   6.232
 6779SOL    HW221237   6.548   4.451   6.138
 6780SOL     OW21238   2.278   2.942   2.801
 6780SOL    HW121239   2.262   3.023   2.744
 6780SOL    HW221240   2.261   2.965   2.897
 6781SOL     OW21241   6.667   1.096   4.113
 6781SOL    HW121242   6.724   1.024   4.073
 6781SOL    HW221243   6.601   1.127   4.044
 6782SOL     OW21244   0.196   1.351   3.524
 6782SOL    HW121245   0.158   1.347   3.432
 6782SOL    HW221246   0.292   1.323   3.522
 6783SOL     OW21247   1.306   4.162   5.086
 6783SOL    HW121248   1.254   4.181   5.003
 6783SOL    HW221249   1.368   4.085   5.070
 6784SOL     OW21250   2.227   3.207   1.809
 6784SOL    HW121251   2.148   3.207   1.870
 6784SOL    HW221252   2.281   3.289   1.825
 6785SOL     OW21253   6.016   4.495   5.299
 6785SOL    HW121254   6.004   4.583   5.344
 6785SOL    HW221255   5.983   4.501   5.205
 6786SOL     OW21256   6.351   3.018   0.300
 6786SOL    HW121257   6.278   2.951   0.305
 6786SOL    HW221258   6.353   3.072   0.385
 6787SOL     OW21259   3.383   2.297   0.715
 6787SOL    HW121260   3.299   2.290   0.660
 6787SOL    HW221261   3.400   2.392   0.739
 6788SOL     OW21262   0.728   3.642   2.253
 6788SOL    HW121263   0.661   3.567   2.246
 6788SOL    HW221264   0.746   3.678   2.162
 6789SOL     OW21265   6.558   4.302   4.069
 6789SOL    HW121266   6.559   4.375   4.137
 6789SOL    HW221267   6.630   4.236   4.090
 6790SOL     OW21268   0.810   4.871   5.752
 6790SOL    HW121269   0.888   4.823   5.711
 6790SOL    HW221270   0.775   4.818   5.829
 6791SOL     OW21271   4.647   1.496   3.401
 6791SOL    HW121272   4.718   1.555   3.363
 6791SOL    HW221273   4.652   1.497   3.501
 6792SOL     OW21274   4.010   6.655   5.128
 6792SOL    HW121275   4.064   6.591   5.183
 6792SOL    HW221276   3.970   6.606   5.050
 6793SOL     OW21277   2.739   2.244   6.788
 6793SOL    HW121278   2.815   2.185   6.816
 6793SOL    HW221279   2.748   2.265   6.690
 6794SOL     OW21280   4.515   1.195   5.980
 6794SOL    HW121281   4.580   1.259   6.020
 6794SOL    HW221282   4.463   1.241   5.908
 6795SOL     OW21283   1.256   0.738   1.353
 6795SOL    HW121284   1.267   0.665   1.420
 6795SOL    HW221285   1.162   0.738   1.319
 6796SOL     OW21286   6.180   0.897   1.907
 6796SOL    HW121287   6.137   0.840   1.976
 6796SOL    HW221288   6.280   0.892   1.916
 6797SOL     OW21289   6.676   2.697   2.093
 6797SOL    HW121290   6.772   2.694   2.064
 6797SOL    HW221291   6.646   2.605   2.115
 6798SOL     OW21292   5.187   0.373   1.371
 6798SOL    HW121293   5.234   0.373   1.283
 6798SOL    HW221294   5.254   0.379   1.445
 6799SOL     OW21295   5.682   6.629   3.251
 6799SOL    HW121296   5.707   6.708   3.194
 6799SOL    HW221297   5.644   6.557   3.193
 6800SOL     OW21298   1.104   1.170   1.145
 6800SOL    HW121299   1.197   1.200   1.162
 6800SOL    HW221300   1.079   1.099   1.211
 6801SOL     OW21301   1.263   6.504   4.579
 6801SOL    HW121302   1.356   6.530   4.553
 6801SOL    HW221303   1.217   6.463   4.500
 6802SOL     OW21304   2.910   6.507   1.033
 6802SOL    HW121305   2.988   6.543   1.085
 6802SOL    HW221306   2.837   6.575   1.032
 6803SOL     OW21307   4.890   4.391   0.053
 6803SOL    HW121308   4.847   4.317   0.104
 6803SOL    HW221309   4.989   4.378   0.053
 6804SOL     OW21310   2.929   5.080   2.642
 6804SOL    HW121311   2.940   5.179   2.655
 6804SOL    HW221312   2.845   5.050   2.686
 6805SOL     OW21313   0.360   5.018   5.517
 6805SOL    HW121314   0.424   4.994   5.445
 6805SOL    HW221315   0.366   4.950   5.591
 6806SOL     OW21316   6.916   0.696   3.840
 6806SOL    HW121317   7.010   0.671   3.860
 6806SOL    HW221318   6.854   0.644   3.898
 6807SOL     OW21319   3.438   3.833   3.462
 6807SOL    HW121320   3.494   3.914   3.478
 6807SOL    HW221321   3.346   3.860   3.434
 6808SOL     OW21322   4.973   1.209   5.117
 6808SOL    HW121323   5.072   1.196   5.119
 6808SOL    HW221324   4.948   1.271   5.043
 6809SOL     OW21325   5.976   4.564   1.772
 6809SOL    HW121326   6.040   4.508   1.826
 6809SOL    HW221327   5.910   4.504   1.726
 6810SOL     OW21328   3.325   0.938   3.291
 6810SOL    HW121329   3.342   0.915   3.387
 6810SOL    HW221330   3.410   0.932   3.239
 6811SOL     OW21331   6.594   1.913   2.707
 6811SOL    HW121332   6.562   1.876   2.794
 6811SOL    HW221333   6.693   1.928   2.711
 6812SOL     OW21334   3.558   3.529   4.822
 6812SOL    HW121335   3.562   3.430   4.816
 6812SOL    HW221336   3.479   3.563   4.771
 6813SOL     OW21337   4.990   3.378   1.382
 6813SOL    HW121338   5.066   3.325   1.419
 6813SOL    HW221339   4.932   3.319   1.327
 6814SOL     OW21340   4.059   1.558   6.179
 6814SOL    HW121341   4.123   1.484   6.159
 6814SOL    HW221342   4.109   1.636   6.215
 6815SOL     OW21343   2.134   4.992   6.706
 6815SOL    HW121344   2.201   5.062   6.683
 6815SOL    HW221345   2.083   4.965   6.624
 6816SOL     OW21346   6.578   1.696   4.618
 6816SOL    HW121347   6.546   1.749   4.540
 6816SOL    HW221348   6.499   1.655   4.664
 6817SOL     OW21349   2.584   2.507   3.233
 6817SOL    HW121350   2.527   2.580   3.195
 6817SOL    HW221351   2.587   2.516   3.332
 6818SOL     OW21352   1.861   6.283   6.137
 6818SOL    HW121353   1.903   6.369   6.107
 6818SOL    HW221354   1.763   6.297   6.151
 6819SOL     OW21355   4.795   5.401   2.825
 6819SOL    HW121356   4.757   5.493   2.817
 6819SOL    HW221357   4.832   5.373   2.736
 6820SOL     OW21358   1.556   6.620   1.246
 6820SOL    HW121359   1.592   6.593   1.157
 6820SOL    HW221360   1.618   6.685   1.289
 6821SOL     OW21361   4.050   2.443   5.485
 6821SOL    HW121362   4.081   2.484   5.570
 6821SOL    HW221363   4.009   2.354   5.504
 6822SOL     OW21364   0.040   2.752   5.959
 6822SOL    HW121365   0.058   2.826   6.024
 6822SOL    HW221366   0.014   2.669   6.009
 6823SOL     OW21367   5.460   3.621   6.999
 6823SOL    HW121368   5.472   3.616   6.899
 6823SOL    HW221369   5.466   3.716   0.006
 6824SOL     OW21370   1.805   1.639   6.816
 6824SOL    HW121371   1.773   1.708   6.751
 6824SOL    HW221372   1.814   1.551   6.769
 6825SOL     OW21373   6.754   6.036   1.350
 6825SOL    HW121374   6.808   6.049   1.267
 6825SOL    HW221375   6.793   5.963   1.405
 6826SOL     OW21376   0.534   3.611   2.918
 6826SOL    HW121377   0.535   3.635   3.016
 6826SOL    HW221378   0.621   3.569   2.893
 6827SOL     OW21379   4.659   5.404   5.553
 6827SOL    HW121380   4.721   5.449   5.616
 6827SOL    HW221381   4.707   5.382   5.468
 6828SOL     OW21382   3.798   1.276   2.777
 6828SOL    HW121383   3.737   1.227   2.839
 6828SOL    HW221384   3.811   1.370   2.809
 6829SOL     OW21385   5.614   0.439   5.112
 6829SOL    HW121386   5.604   0.482   5.202
 6829SOL    HW221387   5.535   0.463   5.055
 6830SOL     OW21388   6.025   1.061   3.098
 6830SOL    HW121389   6.014   1.098   3.006
 6830SOL    HW221390   5.967   1.111   3.162
 6831SOL     OW21391   1.421   1.540   5.640
 6831SOL    HW121392   1.464   1.457   5.603
 6831SOL    HW221393   1.337   1.515   5.687
 6832SOL     OW21394   2.885   2.358   0.556
 6832SOL    HW121395   2.813   2.415   0.597
 6832SOL    HW221396   2.884   2.371   0.457
 6833SOL     OW21397   3.302   5.596   6.195
 6833SOL    HW121398   3.279   5.616   6.291
 6833SOL    HW221399   3.337   5.679   6.152
 6834SOL     OW21400   5.274   0.353   0.678
 6834SOL    HW121401   5.313   0.345   0.586
 6834SOL    HW221402   5.177   0.378   0.671
 6835SOL     OW21403   3.405   1.831   3.962
 6835SOL    HW121404   3.501   1.807   3.947
 6835SOL    HW221405   3.384   1.916   3.914
 6836SOL     OW21406   1.796   4.782   6.214
 6836SOL    HW121407   1.834   4.707   6.160
 6836SOL    HW221408   1.819   4.769   6.311
 6837SOL     OW21409   1.348   0.681   2.291
 6837SOL    HW121410   1.304   0.612   2.348
 6837SOL    HW221411   1.313   0.676   2.198
 6838SOL     OW21412   2.641   4.511   5.293
 6838SOL    HW121413   2.728   4.546   5.258
 6838SOL    HW221414   2.653   4.417   5.325
 6839SOL     OW21415   4.938   1.972   4.200
 6839SOL    HW121416   4.965   1.938   4.291
 6839SOL    HW221417   4.883   2.055   4.210
 6840SOL     OW21418   2.861   6.996   4.732
 6840SOL    HW121419   2.870   0.073   4.733
 6840SOL    HW221420   2.899   6.959   4.647
 6841SOL     OW21421   3.714   5.376   1.612
 6841SOL    HW121422   3.680   5.362   1.519
 6841SOL    HW221423   3.691   5.469   1.642
 6842SOL     OW21424   0.570   2.902   6.884
 6842SOL    HW121425   0.593   2.995   6.913
 6842SOL    HW221426   0.639   2.838   6.920
 6843SOL     OW21427   4.746   1.746   2.108
 6843SOL    HW121428   4.715   1.834   2.072
 6843SOL    HW221429   4.706   1.730   2.198
 6844SOL     OW21430   4.512   5.659   4.497
 6844SOL    HW121431   4.555   5.571   4.474
 6844SOL    HW221432   4.583   5.730   4.501
 6845SOL     OW21433   4.288   4.805   2.768
 6845SOL    HW121434   4.358   4.734   2.775
 6845SOL    HW221435   4.330   4.889   2.731
 6846SOL     OW21436   3.674   3.508   1.723
 6846SOL    HW121437   3.593   3.452   1.738
 6846SOL    HW221438   3.756   3.450   1.728
 6847SOL     OW21439   4.732   3.572   1.779
 6847SOL    HW121440   4.751   3.475   1.792
 6847SOL    HW221441   4.667   3.584   1.704
 6848SOL     OW21442   0.685   4.789   4.539
 6848SOL    HW121443   0.671   4.730   4.460
 6848SOL    HW221444   0.691   4.884   4.509
 6849SOL     OW21445   3.866   5.648   4.306
 6849SOL    HW121446   3.817   5.635   4.220
 6849SOL    HW221447   3.887   5.560   4.347
 6850SOL     OW21448   6.161   1.963   3.875
 6850SOL    HW121449   6.121   2.049   3.842
 6850SOL    HW221450   6.256   1.980   3.902
 6851SOL     OW21451   0.784   4.889   5.217
 6851SOL    HW121452   0.777   4.815   5.150
 6851SOL    HW221453   0.838   4.858   5.295
 6852SOL     OW21454   0.907   4.100   1.720
 6852SOL    HW121455   0.973   4.103   1.795
 6852SOL    HW221456   0.816   4.121   1.755
 6853SOL     OW21457   0.298   5.283   5.815
 6853SOL    HW121458   0.238   5.204   5.809
 6853SOL    HW221459   0.390   5.258   5.784
 6854SOL     OW21460   6.562   1.588   5.906
 6854SOL    HW121461   6.642   1.615   5.959
 6854SOL    HW221462   6.552   1.488   5.910
 6855SOL     OW21463   3.555   6.843   2.657
 6855SOL    HW121464   3.539   6.863   2.754
 6855SOL    HW221465   3.621   6.909   2.620
 6856SOL     OW21466   6.366   4.209   5.026
 6856SOL    HW121467   6.378   4.194   5.124
 6856SOL    HW221468   6.383   4.123   4.977
 6857SOL     OW21469   3.339   1.248   6.554
 6857SOL    HW121470   3.352   1.219   6.459
 6857SOL    HW221471   3.402   1.197   6.613
 6858SOL     OW21472   3.898   3.185   3.957
 6858SOL    HW121473   3.940   3.194   4.047
 6858SOL    HW221474   3.938   3.253   3.895
 6859SOL     OW21475   2.182   6.839   0.899
 6859SOL    HW121476   2.223   6.797   0.818
 6859SOL    HW221477   2.170   6.937   0.883
 6860SOL     OW21478   5.501   4.736   1.853
 6860SOL    HW121479   5.572   4.753   1.784
 6860SOL    HW221480   5.502   4.640   1.879
 6861SOL     OW21481   5.672   4.891   0.784
 6861SOL    HW121482   5.768   4.877   0.809
 6861SOL    HW221483   5.655   4.856   0.692
 6862SOL     OW21484   2.383   4.859   4.849
 6862SOL    HW121485   2.291   4.830   4.824
 6862SOL    HW221486   2.433   4.781   4.888
 6863SOL     OW21487   6.005   1.130   4.655
 6863SOL    HW121488   5.951   1.144   4.737
 6863SOL    HW221489   6.102   1.138   4.677
 6864SOL     OW21490   3.410   5.865   3.672
 6864SOL    HW121491   3.484   5.825   3.727
 6864SOL    HW221492   3.418   5.832   3.578
 6865SOL     OW21493   6.250   4.639   4.211
 6865SOL    HW121494   6.221   4.733   4.194
 6865SOL    HW221495   6.248   4.587   4.126
 6866SOL     OW21496   6.355   4.057   2.374
 6866SOL    HW121497   6.418   4.134   2.385
 6866SOL    HW221498   6.274   4.088   2.326
 6867SOL     OW21499   1.603   4.152   1.366
 6867SOL    HW121500   1.625   4.059   1.337
 6867SOL    HW221501   1.509   4.174   1.340
 6868SOL     OW21502   1.609   6.240   4.710
 6868SOL    HW121503   1.610   6.164   4.775
 6868SOL    HW221504   1.515   6.261   4.685
 6869SOL     OW21505   6.108   3.288   4.832
 6869SOL    HW121506   6.026   3.270   4.778
 6869SOL    HW221507   6.189   3.278   4.775
 6870SOL     OW21508   5.545   3.680   3.209
 6870SOL    HW121509   5.518   3.687   3.113
 6870SOL    HW221510   5.595   3.762   3.235
 6871SOL     OW21511   6.208   4.912   1.729
 6871SOL    HW121512   6.109   4.904   1.729
 6871SOL    HW221513   6.242   4.898   1.636
 6872SOL     OW21514   1.976   3.546   0.869
 6872SOL    HW121515   1.964   3.569   0.772
 6872SOL    HW221516   1.926   3.461   0.889
 6873SOL     OW21517   5.899   3.071   6.263
 6873SOL    HW121518   5.817   3.018   6.241
 6873SOL    HW221519   5.980   3.016   6.243
 6874SOL     OW21520   0.235   4.143   3.361
 6874SOL    HW121521   0.241   4.106   3.268
 6874SOL    HW221522   0.302   4.217   3.372
 6875SOL     OW21523   1.377   1.889   3.495
 6875SOL    HW121524   1.470   1.889   3.530
 6875SOL    HW221525   1.378   1.860   3.399
 6876SOL     OW21526   3.571   5.608   6.443
 6876SOL    HW121527   3.587   5.655   6.356
 6876SOL    HW221528   3.650   5.621   6.503
 6877SOL     OW21529   2.913   4.497   6.961
 6877SOL    HW121530   2.931   4.417   7.019
 6877SOL    HW221531   2.880   4.572   7.018
 6878SOL     OW21532   2.154   1.804   6.024
 6878SOL    HW121533   2.083   1.806   6.095
 6878SOL    HW221534   2.241   1.833   6.063
 6879SOL     OW21535   0.323   2.097   0.429
 6879SOL    HW121536   0.321   2.026   0.358
 6879SOL    HW221537   0.287   2.182   0.392
 6880SOL     OW21538   2.149   3.707   5.041
 6880SOL    HW121539   2.065   3.702   5.095
 6880SOL    HW221540   2.129   3.753   4.954
 6881SOL     OW21541   6.792   4.615   1.967
 6881SOL    HW121542   6.756   4.523   1.949
 6881SOL    HW221543   6.884   4.608   2.006
 6882SOL     OW21544   2.216   0.354   5.552
 6882SOL    HW121545   2.286   0.309   5.496
 6882SOL    HW221546   2.260   0.401   5.629
 6883SOL     OW21547   3.411   0.315   1.030
 6883SOL    HW121548   3.485   0.382   1.024
 6883SOL    HW221549   3.428   0.241   0.965
 6884SOL     OW21550   2.287   4.421   3.941
 6884SOL    HW121551   2.358   4.466   3.888
 6884SOL    HW221552   2.330   4.362   4.010
 6885SOL     OW21553   2.640   5.461   3.703
 6885SOL    HW121554   2.710   5.419   3.646
 6885SOL    HW221555   2.682   5.527   3.765
 6886SOL     OW21556   5.560   1.295   1.861
 6886SOL    HW121557   5.530   1.265   1.952
 6886SOL    HW221558   5.650   1.257   1.841
 6887SOL     OW21559   5.451   0.704   5.212
 6887SOL    HW121560   5.414   0.618   5.177
 6887SOL    HW221561   5.398   0.780   5.175
 6888SOL     OW21562   5.870   0.234   5.671
 6888SOL    HW121563   5.891   0.326   5.704
 6888SOL    HW221564   5.887   0.168   5.744
 6889SOL     OW21565   1.123   3.057   5.663
 6889SOL    HW121566   1.181   2.994   5.611
 6889SOL    HW221567   1.027   3.029   5.655
 6890SOL     OW21568   2.142   0.454   0.740
 6890SOL    HW121569   2.076   0.383   0.714
 6890SOL    HW221570   2.183   0.494   0.658
 6891SOL     OW21571   2.022   3.555   4.731
 6891SOL    HW121572   2.051   3.515   4.818
 6891SOL    HW221573   2.090   3.621   4.699
 6892SOL     OW21574   4.034   0.128   4.176
 6892SOL    HW121575   3.964   0.131   4.105
 6892SOL    HW221576   4.124   0.124   4.133
 6893SOL     OW21577   5.466   6.304   2.185
 6893SOL    HW121578   5.385   6.286   2.240
 6893SOL    HW221579   5.469   6.401   2.160
 6894SOL     OW21580   6.432   5.344   0.656
 6894SOL    HW121581   6.458   5.429   0.610
 6894SOL    HW221582   6.333   5.332   0.651
 6895SOL     OW21583   3.126   4.887   6.703
 6895SOL    HW121584   3.076   4.822   6.760
 6895SOL    HW221585   3.085   4.890   6.612
 6896SOL     OW21586   4.199   0.109   3.481
 6896SOL    HW121587   4.163   0.081   3.392
 6896SOL    HW221588   4.137   0.080   3.553
 6897SOL     OW21589   2.676   3.447   0.229
 6897SOL    HW121590   2.627   3.515   0.283
 6897SOL    HW221591   2.612   3.380   0.192
 6898SOL     OW21592   4.644   1.304   2.061
 6898SOL    HW121593   4.628   1.384   2.003
 6898SOL    HW221594   4.562   1.286   2.115
 6899SOL     OW21595   5.157   6.870   6.608
 6899SOL    HW121596   5.111   6.934   6.670
 6899SOL    HW221597   5.229   6.917   6.558
 6900SOL     OW21598   6.158   0.765   6.209
 6900SOL    HW121599   6.156   0.859   6.242
 6900SOL    HW221600   6.065   0.729   6.205
 6901SOL     OW21601   0.185   0.380   6.391
 6901SOL    HW121602   0.114   0.450   6.401
 6901SOL    HW221603   0.143   0.293   6.366
 6902SOL     OW21604   0.264   6.679   0.085
 6902SOL    HW121605   0.248   6.682   0.184
 6902SOL    HW221606   0.342   6.737   0.063
 6903SOL     OW21607   3.681   3.559   0.028
 6903SOL    HW121608   3.776   3.567   0.058
 6903SOL    HW221609   3.638   3.649   0.031
 6904SOL     OW21610   6.602   1.297   3.641
 6904SOL    HW121611   6.668   1.222   3.642
 6904SOL    HW221612   6.512   1.262   3.616
 6905SOL     OW21613   6.017   6.208   0.369
 6905SOL    HW121614   6.052   6.167   0.284
 6905SOL    HW221615   6.071   6.289   0.391
 6906SOL     OW21616   3.694   1.502   4.343
 6906SOL    HW121617   3.614   1.444   4.326
 6906SOL    HW221618   3.674   1.595   4.312
 6907SOL     OW21619   3.758   2.289   1.029
 6907SOL    HW121620   3.785   2.278   0.934
 6907SOL    HW221621   3.676   2.345   1.034
 6908SOL     OW21622   1.295   0.215   5.622
 6908SOL    HW121623   1.334   0.148   5.686
 6908SOL    HW221624   1.197   0.196   5.611
 6909SOL     OW21625   4.597   4.651   0.761
 6909SOL    HW121626   4.673   4.688   0.707
 6909SOL    HW221627   4.554   4.725   0.813
 6910SOL     OW21628   6.363   1.917   2.989
 6910SOL    HW121629   6.350   1.843   3.055
 6910SOL    HW221630   6.275   1.962   2.973
 6911SOL     OW21631   4.349   0.344   3.509
 6911SOL    HW121632   4.296   0.260   3.500
 6911SOL    HW221633   4.297   0.410   3.564
 6912SOL     OW21634   4.922   4.734   1.409
 6912SOL    HW121635   4.907   4.739   1.310
 6912SOL    HW221636   4.994   4.667   1.428
 6913SOL     OW21637   5.440   4.161   5.601
 6913SOL    HW121638   5.477   4.193   5.514
 6913SOL    HW221639   5.346   4.194   5.611
 6914SOL     OW21640   5.558   5.631   6.955
 6914SOL    HW121641   5.476   5.648   6.901
 6914SOL    HW221642   5.582   5.534   6.950
 6915SOL     OW21643   0.305   4.843   1.959
 6915SOL    HW121644   0.284   4.800   1.871
 6915SOL    HW221645   0.309   4.773   2.031
 6916SOL     OW21646   6.518   4.203   6.707
 6916SOL    HW121647   6.422   4.203   6.736
 6916SOL    HW221648   6.554   4.110   6.712
 6917SOL     OW21649   4.746   5.104   6.627
 6917SOL    HW121650   4.666   5.164   6.634
 6917SOL    HW221651   4.757   5.053   6.712
 6918SOL     OW21652   0.392   4.032   4.267
 6918SOL    HW121653   0.337   4.050   4.185
 6918SOL    HW221654   0.393   4.113   4.325
 6919SOL     OW21655   1.831   5.530   2.386
 6919SOL    HW121656   1.795   5.567   2.472
 6919SOL    HW221657   1.861   5.436   2.401
 6920SOL     OW21658   5.015   5.240   5.784
 6920SOL    HW121659   4.968   5.190   5.857
 6920SOL    HW221660   5.099   5.280   5.820
 6921SOL     OW21661   5.591   5.878   3.346
 6921SOL    HW121662   5.603   5.910   3.440
 6921SOL    HW221663   5.679   5.880   3.298
 6922SOL     OW21664   1.766   5.879   0.061
 6922SOL    HW121665   1.695   5.892   7.015
 6922SOL    HW221666   1.854   5.907   0.023
 6923SOL     OW21667   4.909   6.676   3.951
 6923SOL    HW121668   4.966   6.758   3.944
 6923SOL    HW221669   4.929   6.628   4.037
 6924SOL     OW21670   0.552   3.767   0.497
 6924SOL    HW121671   0.483   3.712   0.544
 6924SOL    HW221672   0.512   3.811   0.417
 6925SOL     OW21673   3.877   6.226   3.993
 6925SOL    HW121674   3.897   6.276   3.909
 6925SOL    HW221675   3.797   6.168   3.979
 6926SOL     OW21676   3.618   3.444   2.912
 6926SOL    HW121677   3.586   3.507   2.841
 6926SOL    HW221678   3.596   3.350   2.886
 6927SOL     OW21679   5.428   3.121   5.792
 6927SOL    HW121680   5.367   3.199   5.809
 6927SOL    HW221681   5.418   3.091   5.698
 6928SOL     OW21682   4.801   7.003   6.979
 6928SOL    HW121683   4.746   0.013   0.032
 6928SOL    HW221684   4.884   6.959   7.013
 6929SOL     OW21685   4.503   6.085   0.253
 6929SOL    HW121686   4.433   6.024   0.216
 6929SOL    HW221687   4.590   6.066   0.208
 6930SOL     OW21688   0.375   6.582   1.654
 6930SOL    HW121689   0.341   6.588   1.560
 6930SOL    HW221690   0.371   6.672   1.697
 6931SOL     OW21691   1.042   0.722   1.533
 6931SOL    HW121692   0.945   0.720   1.557
 6931SOL    HW221693   1.095   0.759   1.609
 6932SOL     OW21694   3.085   1.043   0.280
 6932SOL    HW121695   3.144   0.968   0.249
 6932SOL    HW221696   3.134   1.130   0.268
 6933SOL     OW21697   3.611   5.921   4.790
 6933SOL    HW121698   3.690   5.872   4.826
 6933SOL    HW221699   3.603   6.010   4.834
 6934SOL     OW21700   5.540   3.687   6.354
 6934SOL    HW121701   5.537   3.590   6.376
 6934SOL    HW221702   5.616   3.730   6.402
 6935SOL     OW21703   4.155   6.385   2.927
 6935SOL    HW121704   4.221   6.377   2.852
 6935SOL    HW221705   4.180   6.461   2.985
 6936SOL     OW21706   6.658   2.353   2.775
 6936SOL    HW121707   6.700   2.314   2.693
 6936SOL    HW221708   6.585   2.294   2.807
 6937SOL     OW21709   5.359   6.750   6.857
 6937SOL    HW121710   5.365   6.746   6.757
 6937SOL    HW221711   5.420   6.682   6.897
 6938SOL     OW21712   4.940   3.882   5.350
 6938SOL    HW121713   5.027   3.925   5.371
 6938SOL    HW221714   4.956   3.798   5.298
 6939SOL     OW21715   6.951   4.987   3.035
 6939SOL    HW121716   6.920   4.963   3.127
 6939SOL    HW221717   7.009   5.068   3.039
 6940SOL     OW21718   4.164   1.068   0.889
 6940SOL    HW121719   4.211   1.066   0.801
 6940SOL    HW221720   4.101   0.991   0.895
 6941SOL     OW21721   4.164   3.441   2.154
 6941SOL    HW121722   4.259   3.417   2.132
 6941SOL    HW221723   4.145   3.418   2.249
 6942SOL     OW21724   0.329   2.942   1.208
 6942SOL    HW121725   0.375   2.958   1.121
 6942SOL    HW221726   0.373   2.866   1.256
 6943SOL     OW21727   4.990   6.632   6.704
 6943SOL    HW121728   4.965   6.571   6.629
 6943SOL    HW221729   5.039   6.711   6.667
 6944SOL     OW21730   1.301   5.417   5.359
 6944SOL    HW121731   1.347   5.391   5.274
 6944SOL    HW221732   1.266   5.510   5.351
 6945SOL     OW21733   6.230   2.871   7.005
 6945SOL    HW121734   6.251   2.961   6.967
 6945SOL    HW221735   6.314   2.817   7.012
 6946SOL     OW21736   6.097   5.325   2.503
 6946SOL    HW121737   6.117   5.238   2.458
 6946SOL    HW221738   6.156   5.396   2.464
 6947SOL     OW21739   4.278   0.121   4.715
 6947SOL    HW121740   4.212   0.073   4.657
 6947SOL    HW221741   4.330   0.055   4.769
 6948SOL     OW21742   5.624   0.565   0.434
 6948SOL    HW121743   5.690   0.632   0.399
 6948SOL    HW221744   5.662   0.521   0.516
 6949SOL     OW21745   4.776   6.379   3.438
 6949SOL    HW121746   4.720   6.363   3.520
 6949SOL    HW221747   4.819   6.469   3.444
 6950SOL     OW21748   2.500   0.113   3.206
 6950SOL    HW121749   2.527   0.163   3.288
 6950SOL    HW221750   2.455   0.175   3.142
 6951SOL     OW21751   6.122   6.800   5.951
 6951SOL    HW121752   6.171   6.725   5.996
 6951SOL    HW221753   6.158   6.813   5.859
 6952SOL     OW21754   6.958   5.060   3.435
 6952SOL    HW121755   6.972   5.069   3.534
 6952SOL    HW221756   6.947   5.151   3.395
 6953SOL     OW21757   5.256   0.599   5.883
 6953SOL    HW121758   5.214   0.634   5.799
 6953SOL    HW221759   5.237   0.501   5.891
 6954SOL     OW21760   1.197   3.931   4.062
 6954SOL    HW121761   1.119   3.980   4.099
 6954SOL    HW221762   1.210   3.954   3.966
 6955SOL     OW21763   0.077   0.286   1.813
 6955SOL    HW121764   0.119   0.212   1.865
 6955SOL    HW221765   7.006   0.261   1.790
 6956SOL     OW21766   3.996   5.932   2.611
 6956SOL    HW121767   4.005   6.008   2.546
 6956SOL    HW221768   4.029   5.962   2.700
 6957SOL     OW21769   0.023   4.713   1.365
 6957SOL    HW121770   6.995   4.677   1.287
 6957SOL    HW221771   0.070   4.797   1.338
 6958SOL     OW21772   2.648   3.568   5.622
 6958SOL    HW121773   2.722   3.539   5.682
 6958SOL    HW221774   2.600   3.488   5.586
 6959SOL     OW21775   1.744   1.262   4.788
 6959SOL    HW121776   1.759   1.360   4.797
 6959SOL    HW221777   1.729   1.223   4.879
 6960SOL     OW21778   0.414   5.169   0.482
 6960SOL    HW121779   0.370   5.247   0.526
 6960SOL    HW221780   0.478   5.127   0.547
 6961SOL     OW21781   0.574   2.715   4.179
 6961SOL    HW121782   0.670   2.712   4.208
 6961SOL    HW221783   0.557   2.641   4.114
 6962SOL     OW21784   5.368   5.576   2.896
 6962SOL    HW121785   5.399   5.670   2.881
 6962SOL    HW221786   5.362   5.528   2.809
 6963SOL     OW21787   0.156   5.655   1.059
 6963SOL    HW121788   0.092   5.602   1.003
 6963SOL    HW221789   0.233   5.597   1.086
 6964SOL     OW21790   4.901   4.976   5.131
 6964SOL    HW121791   4.971   5.001   5.199
 6964SOL    HW221792   4.814   5.018   5.157
 6965SOL     OW21793   0.534   3.796   6.207
 6965SOL    HW121794   0.611   3.860   6.199
 6965SOL    HW221795   0.570   3.704   6.225
 6966SOL     OW21796   5.572   2.641   2.988
 6966SOL    HW121797   5.646   2.696   3.026
 6966SOL    HW221798   5.507   2.700   2.940
 6967SOL     OW21799   1.512   1.778   5.139
 6967SOL    HW121800   1.551   1.760   5.229
 6967SOL    HW221801   1.463   1.865   5.141
 6968SOL     OW21802   3.714   6.352   1.531
 6968SOL    HW121803   3.797   6.403   1.507
 6968SOL    HW221804   3.672   6.316   1.447
 6969SOL     OW21805   4.107   1.719   1.992
 6969SOL    HW121806   4.069   1.811   2.004
 6969SOL    HW221807   4.084   1.686   1.901
 6970SOL     OW21808   4.292   3.884   0.648
 6970SOL    HW121809   4.294   3.971   0.599
 6970SOL    HW221810   4.199   3.865   0.679
 6971SOL     OW21811   6.232   3.527   2.402
 6971SOL    HW121812   6.285   3.482   2.330
 6971SOL    HW221813   6.273   3.616   2.423
 6972SOL     OW21814   5.906   4.845   4.356
 6972SOL    HW121815   5.823   4.901   4.360
 6972SOL    HW221816   5.983   4.902   4.326
 6973SOL     OW21817   1.275   4.591   4.740
 6973SOL    HW121818   1.325   4.526   4.797
 6973SOL    HW221819   1.340   4.657   4.700
 6974SOL     OW21820   3.727   2.945   3.267
 6974SOL    HW121821   3.717   2.917   3.363
 6974SOL    HW221822   3.821   2.975   3.250
 6975SOL     OW21823   3.125   6.140   5.784
 6975SOL    HW121824   3.098   6.049   5.818
 6975SOL    HW221825   3.049   6.180   5.733
 6976SOL     OW21826   3.831   4.103   5.852
 6976SOL    HW121827   3.914   4.052   5.869
 6976SOL    HW221828   3.768   4.092   5.928
 6977SOL     OW21829   5.550   2.210   1.373
 6977SOL    HW121830   5.590   2.242   1.459
 6977SOL    HW221831   5.475   2.271   1.346
 6978SOL     OW21832   6.084   1.428   1.667
 6978SOL    HW121833   6.135   1.514   1.669
 6978SOL    HW221834   6.028   1.420   1.750
 6979SOL     OW21835   1.778   5.011   1.814
 6979SOL    HW121836   1.686   5.020   1.852
 6979SOL    HW221837   1.831   5.093   1.838
 6980SOL     OW21838   1.713   0.587   4.132
 6980SOL    HW121839   1.786   0.558   4.069
 6980SOL    HW221840   1.647   0.644   4.082
 6981SOL     OW21841   2.609   3.666   6.791
 6981SOL    HW121842   2.652   3.602   6.727
 6981SOL    HW221843   2.530   3.623   6.834
 6982SOL     OW21844   1.399   1.800   3.880
 6982SOL    HW121845   1.420   1.745   3.961
 6982SOL    HW221846   1.470   1.785   3.810
 6983SOL     OW21847   6.965   1.712   3.777
 6983SOL    HW121848   6.896   1.709   3.705
 6983SOL    HW221849   0.033   1.703   3.737
 6984SOL     OW21850   2.726   1.516   5.113
 6984SOL    HW121851   2.688   1.501   5.022
 6984SOL    HW221852   2.763   1.609   5.119
 6985SOL     OW21853   3.427   5.159   2.490
 6985SOL    HW121854   3.357   5.215   2.446
 6985SOL    HW221855   3.415   5.064   2.461
 6986SOL     OW21856   1.919   6.034   6.019
 6986SOL    HW121857   1.900   6.111   6.081
 6986SOL    HW221858   1.868   6.045   5.934
 6987SOL     OW21859   1.046   1.886   6.213
 6987SOL    HW121860   1.133   1.931   6.197
 6987SOL    HW221861   0.976   1.954   6.234
 6988SOL     OW21862   5.827   1.090   5.158
 6988SOL    HW121863   5.764   1.020   5.126
 6988SOL    HW221864   5.906   1.047   5.203
 6989SOL     OW21865   1.001   2.267   3.234
 6989SOL    HW121866   1.049   2.352   3.256
 6989SOL    HW221867   1.066   2.190   3.238
 6990SOL     OW21868   5.180   1.768   0.315
 6990SOL    HW121869   5.262   1.769   0.373
 6990SOL    HW221870   5.186   1.691   0.251
 6991SOL     OW21871   2.541   4.669   4.956
 6991SOL    HW121872   2.486   4.596   4.997
 6991SOL    HW221873   2.634   4.665   4.992
 6992SOL     OW21874   5.698   6.005   5.266
 6992SOL    HW121875   5.703   6.089   5.211
 6992SOL    HW221876   5.770   6.005   5.335
 6993SOL     OW21877   6.097   6.768   2.975
 6993SOL    HW121878   6.082   6.839   2.906
 6993SOL    HW221879   6.057   6.682   2.943
 6994SOL     OW21880   0.649   2.938   4.845
 6994SOL    HW121881   0.593   2.959   4.925
 6994SOL    HW221882   0.628   3.001   4.771
 6995SOL     OW21883   6.327   5.244   4.490
 6995SOL    HW121884   6.380   5.329   4.496
 6995SOL    HW221885   6.254   5.244   4.559
 6996SOL     OW21886   2.601   1.242   5.382
 6996SOL    HW121887   2.629   1.170   5.446
 6996SOL    HW221888   2.639   1.223   5.292
 6997SOL     OW21889   4.960   6.067   5.643
 6997SOL    HW121890   4.861   6.073   5.645
 6997SOL    HW221891   4.990   5.989   5.698
 6998SOL     OW21892   1.774   2.657   1.481
 6998SOL    HW121893   1.801   2.677   1.576
 6998SOL    HW221894   1.845   2.691   1.419
 6999SOL     OW21895   2.360   1.826   6.731
 6999SOL    HW121896   2.445   1.785   6.696
 6999SOL    HW221897   2.381   1.911   6.779
 7000SOL     OW21898   0.292   6.524   2.941
 7000SOL    HW121899   0.335   6.546   2.853
 7000SOL    HW221900   0.195   6.505   2.926
 7001SOL     OW21901   2.631   2.881   5.623
 7001SOL    HW121902   2.639   2.941   5.543
 7001SOL    HW221903   2.535   2.863   5.642
 7002SOL     OW21904   2.267   4.886   2.920
 7002SOL    HW121905   2.356   4.871   2.875
 7002SOL    HW221906   2.282   4.900   3.018
 7003SOL     OW21907   3.437   6.736   0.040
 7003SOL    HW121908   3.412   6.702   0.130
 7003SOL    HW221909   3.522   6.788   0.046
 7004SOL     OW21910   2.107   5.110   1.796
 7004SOL    HW121911   2.138   5.032   1.851
 7004SOL    HW221912   2.027   5.151   1.839
 7005SOL     OW21913   0.393   6.322   5.699
 7005SOL    HW121914   0.383   6.312   5.600
 7005SOL    HW221915   0.305   6.304   5.742
 7006SOL     OW21916   5.514   5.216   4.925
 7006SOL    HW121917   5.446   5.145   4.943
 7006SOL    HW221918   5.467   5.305   4.918
 7007SOL     OW21919   5.317   6.578   3.259
 7007SOL    HW121920   5.381   6.542   3.191
 7007SOL    HW221921   5.362   6.582   3.348
 7008SOL     OW21922   2.641   5.171   4.013
 7008SOL    HW121923   2.572   5.100   4.020
 7008SOL    HW221924   2.639   5.228   4.095
 7009SOL     OW21925   6.368   5.205   2.364
 7009SOL    HW121926   6.333   5.298   2.364
 7009SOL    HW221927   6.291   5.140   2.369
 7010SOL     OW21928   4.671   4.171   6.083
 7010SOL    HW121929   4.677   4.265   6.048
 7010SOL    HW221930   4.756   4.122   6.061
 7011SOL     OW21931   1.604   0.478   6.097
 7011SOL    HW121932   1.577   0.467   6.193
 7011SOL    HW221933   1.553   0.414   6.040
 7012SOL     OW21934   2.032   0.849   2.289
 7012SOL    HW121935   2.071   0.804   2.209
 7012SOL    HW221936   2.029   0.948   2.274
 7013SOL     OW21937   0.136   0.010   0.305
 7013SOL    HW121938   0.192   6.972   0.361
 7013SOL    HW221939   0.098   0.082   0.363
 7014SOL     OW21940   4.658   3.915   1.303
 7014SOL    HW121941   4.604   3.850   1.248
 7014SOL    HW221942   4.611   3.932   1.389
 7015SOL     OW21943   5.298   4.460   1.995
 7015SOL    HW121944   5.362   4.510   2.054
 7015SOL    HW221945   5.208   4.505   1.998
 7016SOL     OW21946   3.460   4.975   2.030
 7016SOL    HW121947   3.414   4.989   2.118
 7016SOL    HW221948   3.493   4.880   2.025
 7017SOL     OW21949   2.773   0.395   2.064
 7017SOL    HW121950   2.758   0.493   2.072
 7017SOL    HW221951   2.867   0.373   2.090
 7018SOL     OW21952   6.488   4.833   4.452
 7018SOL    HW121953   6.506   4.930   4.464
 7018SOL    HW221954   6.556   4.794   4.389
 7019SOL     OW21955   3.164   4.263   6.316
 7019SOL    HW121956   3.171   4.261   6.416
 7019SOL    HW221957   3.189   4.173   6.279
 7020SOL     OW21958   6.301   6.694   6.924
 7020SOL    HW121959   6.305   6.681   0.000
 7020SOL    HW221960   6.216   6.654   6.889
 7021SOL     OW21961   2.631   0.800   5.698
 7021SOL    HW121962   2.600   0.841   5.612
 7021SOL    HW221963   2.730   0.788   5.696
 7022SOL     OW21964   5.030   4.400   0.318
 7022SOL    HW121965   4.962   4.333   0.289
 7022SOL    HW221966   5.107   4.399   0.253
 7023SOL     OW21967   0.246   2.240   3.354
 7023SOL    HW121968   0.199   2.252   3.267
 7023SOL    HW221969   0.244   2.143   3.381
 7024SOL     OW21970   1.144   5.857   5.946
 7024SOL    HW121971   1.231   5.813   5.924
 7024SOL    HW221972   1.152   5.904   6.034
 7025SOL     OW21973   3.697   1.503   0.319
 7025SOL    HW121974   3.615   1.540   0.275
 7025SOL    HW221975   3.683   1.501   0.418
 7026SOL     OW21976   2.901   1.403   2.272
 7026SOL    HW121977   2.868   1.314   2.303
 7026SOL    HW221978   2.873   1.418   2.177
 7027SOL     OW21979   2.878   5.727   2.449
 7027SOL    HW121980   2.839   5.685   2.367
 7027SOL    HW221981   2.805   5.748   2.514
 7028SOL     OW21982   5.492   6.301   4.630
 7028SOL    HW121983   5.560   6.238   4.591
 7028SOL    HW221984   5.505   6.392   4.592
 7029SOL     OW21985   3.691   6.902   0.020
 7029SOL    HW121986   3.699   6.995   0.057
 7029SOL    HW221987   3.782   6.860   0.016
 7030SOL     OW21988   0.108   2.685   5.537
 7030SOL    HW121989   0.124   2.777   5.501
 7030SOL    HW221990   0.055   2.632   5.471
 7031SOL     OW21991   1.854   5.954   3.428
 7031SOL    HW121992   1.853   5.892   3.506
 7031SOL    HW221993   1.768   5.945   3.377
 7032SOL     OW21994   3.608   6.798   3.999
 7032SOL    HW121995   3.571   6.733   4.066
 7032SOL    HW221996   3.678   6.855   4.043
 7033SOL     OW21997   6.802   1.647   4.269
 7033SOL    HW121998   6.800   1.746   4.261
 7033SOL    HW221999   6.709   1.613   4.282
 7034SOL     OW22000   6.096   0.797   3.114
 7034SOL    HW122001   6.024   0.739   3.075
 7034SOL    HW222002   6.066   0.892   3.114
 7035SOL     OW22003   0.810   6.780   2.028
 7035SOL    HW122004   0.855   6.845   2.089
 7035SOL    HW222005   0.877   6.742   1.964
 7036SOL     OW22006   6.503   6.432   1.806
 7036SOL    HW122007   6.449   6.501   1.855
 7036SOL    HW222008   6.445   6.387   1.738
 7037SOL     OW22009   0.154   6.925   6.213
 7037SOL    HW122010   0.235   6.938   6.271
 7037SOL    HW222011   0.183   6.903   6.120
 7038SOL     OW22012   2.144   3.758   4.626
 7038SOL    HW122013   2.165   3.821   4.701
 7038SOL    HW222014   2.057   3.784   4.584
 7039SOL     OW22015   2.620   6.245   0.372
 7039SOL    HW122016   2.618   6.146   0.387
 7039SOL    HW222017   2.556   6.270   0.300
 7040SOL     OW22018   4.660   2.523   5.289
 7040SOL    HW122019   4.577   2.468   5.294
 7040SOL    HW222020   4.736   2.473   5.329
 7041SOL     OW22021   0.803   1.920   3.385
 7041SOL    HW122022   0.757   1.876   3.462
 7041SOL    HW222023   0.845   2.005   3.415
 7042SOL     OW22024   5.390   5.211   6.622
 7042SOL    HW122025   5.362   5.169   6.535
 7042SOL    HW222026   5.488   5.229   6.620
 7043SOL     OW22027   2.030   2.692   2.795
 7043SOL    HW122028   2.077   2.778   2.817
 7043SOL    HW222029   1.947   2.711   2.744
 7044SOL     OW22030   4.828   4.264   2.818
 7044SOL    HW122031   4.852   4.251   2.914
 7044SOL    HW222032   4.849   4.181   2.767
 7045SOL     OW22033   4.427   6.311   1.802
 7045SOL    HW122034   4.408   6.394   1.854
 7045SOL    HW222035   4.354   6.244   1.817
 7046SOL     OW22036   3.477   2.141   3.693
 7046SOL    HW122037   3.408   2.152   3.764
 7046SOL    HW222038   3.450   2.066   3.632
 7047SOL     OW22039   0.945   2.583   2.904
 7047SOL    HW122040   1.041   2.570   2.881
 7047SOL    HW222041   0.938   2.626   2.994
 7048SOL     OW22042   0.564   6.140   1.451
 7048SOL    HW122043   0.538   6.117   1.358
 7048SOL    HW222044   0.652   6.097   1.472
 7049SOL     OW22045   2.109   0.998   0.416
 7049SOL    HW122046   2.017   1.032   0.436
 7049SOL    HW222047   2.170   1.019   0.492
 7050SOL     OW22048   3.719   4.116   3.781
 7050SOL    HW122049   3.809   4.078   3.760
 7050SOL    HW222050   3.719   4.151   3.875
 7051SOL     OW22051   0.600   0.488   1.173
 7051SOL    HW122052   0.549   0.466   1.090
 7051SOL    HW222053   0.698   0.487   1.152
 7052SOL     OW22054   6.459   2.871   4.520
 7052SOL    HW122055   6.481   2.965   4.546
 7052SOL    HW222056   6.376   2.842   4.568
 7053SOL     OW22057   0.722   2.960   5.237
 7053SOL    HW122058   0.637   2.927   5.196
 7053SOL    HW222059   0.772   2.883   5.277
 7054SOL     OW22060   1.090   6.372   1.417
 7054SOL    HW122061   1.158   6.338   1.483
 7054SOL    HW222062   1.000   6.336   1.441
 7055SOL     OW22063   3.531   6.379   5.174
 7055SOL    HW122064   3.611   6.327   5.145
 7055SOL    HW222065   3.512   6.362   5.270
 7056SOL     OW22066   5.676   5.113   3.600
 7056SOL    HW122067   5.705   5.144   3.509
 7056SOL    HW222068   5.674   5.013   3.602
 7057SOL     OW22069   1.319   4.468   4.493
 7057SOL    HW122070   1.374   4.386   4.505
 7057SOL    HW222071   1.311   4.516   4.581
 7058SOL     OW22072   6.479   5.457   5.980
 7058SOL    HW122073   6.387   5.451   6.019
 7058SOL    HW222074   6.476   5.434   5.883
 7059SOL     OW22075   0.528   6.798   2.810
 7059SOL    HW122076   0.479   6.751   2.736
 7059SOL    HW222077   0.585   6.732   2.859
 7060SOL     OW22078   3.184   0.332   1.751
 7060SOL    HW122079   3.247   0.401   1.715
 7060SOL    HW222080   3.155   0.271   1.677
 7061SOL     OW22081   0.243   2.343   3.624
 7061SOL    HW122082   0.165   2.324   3.684
 7061SOL    HW222083   0.227   2.301   3.535
 7062SOL     OW22084   5.624   1.355   6.168
 7062SOL    HW122085   5.543   1.414   6.163
 7062SOL    HW222086   5.617   1.295   6.248
 7063SOL     OW22087   0.905   0.444   1.029
 7063SOL    HW122088   0.987   0.499   1.045
 7063SOL    HW222089   0.931   0.355   0.992
 7064SOL     OW22090   4.056   2.205   1.838
 7064SOL    HW122091   3.987   2.135   1.857
 7064SOL    HW222092   4.013   2.285   1.797
 7065SOL     OW22093   4.437   3.773   0.878
 7065SOL    HW122094   4.395   3.801   0.791
 7065SOL    HW222095   4.383   3.699   0.918
 7066SOL     OW22096   3.917   0.516   0.988
 7066SOL    HW122097   3.851   0.521   1.063
 7066SOL    HW222098   3.964   0.428   0.990
 7067SOL     OW22099   1.612   1.960   5.346
 7067SOL    HW122100   1.553   1.937   5.423
 7067SOL    HW222101   1.680   2.027   5.374
 7068SOL     OW22102   0.911   4.187   3.275
 7068SOL    HW122103   0.920   4.204   3.177
 7068SOL    HW222104   0.815   4.196   3.302
 7069SOL     OW22105   6.380   2.704   4.133
 7069SOL    HW122106   6.389   2.735   4.038
 7069SOL    HW222107   6.310   2.633   4.139
 7070SOL     OW22108   6.631   6.457   4.975
 7070SOL    HW122109   6.613   6.550   5.007
 7070SOL    HW222110   6.551   6.400   4.994
 7071SOL     OW22111   0.493   6.470   5.949
 7071SOL    HW122112   0.587   6.491   5.922
 7071SOL    HW222113   0.453   6.408   5.882
 7072SOL     OW22114   6.425   6.665   6.007
 7072SOL    HW122115   6.459   6.743   6.059
 7072SOL    HW222116   6.463   6.581   6.045
 7073SOL     OW22117   6.065   0.260   4.598
 7073SOL    HW122118   5.999   0.285   4.527
 7073SOL    HW222119   6.055   0.322   4.675
 7074SOL     OW22120   4.051   3.200   1.400
 7074SOL    HW122121   4.096   3.167   1.317
 7074SOL    HW222122   3.987   3.130   1.433
 7075SOL     OW22123   0.911   6.467   4.844
 7075SOL    HW122124   0.933   6.532   4.917
 7075SOL    HW222125   0.812   6.466   4.829
 7076SOL     OW22126   4.191   2.514   7.014
 7076SOL    HW122127   4.121   2.490   6.946
 7076SOL    HW222128   4.181   2.610   0.017
 7077SOL     OW22129   1.941   5.040   5.482
 7077SOL    HW122130   1.972   5.029   5.576
 7077SOL    HW222131   1.998   5.108   5.436
 7078SOL     OW22132   6.463   0.439   1.704
 7078SOL    HW122133   6.551   0.428   1.659
 7078SOL    HW222134   6.477   0.472   1.798
 7079SOL     OW22135   0.038   6.346   5.420
 7079SOL    HW122136   6.974   6.342   5.371
 7079SOL    HW222137   0.021   6.365   5.517
 7080SOL     OW22138   3.904   2.118   4.034
 7080SOL    HW122139   3.826   2.170   3.998
 7080SOL    HW222140   3.984   2.178   4.040
 7081SOL     OW22141   3.353   0.330   5.962
 7081SOL    HW122142   3.319   0.419   5.933
 7081SOL    HW222143   3.280   0.279   6.007
 7082SOL     OW22144   5.998   6.059   6.648
 7082SOL    HW122145   6.066   6.121   6.610
 7082SOL    HW222146   5.959   6.099   6.731
 7083SOL     OW22147   3.007   1.224   6.983
 7083SOL    HW122148   3.041   1.316   7.001
 7083SOL    HW222149   3.073   1.174   6.927
 7084SOL     OW22150   6.845   0.112   5.631
 7084SOL    HW122151   6.848   0.041   5.701
 7084SOL    HW222152   6.937   0.129   5.596
 7085SOL     OW22153   2.218   0.817   3.387
 7085SOL    HW122154   2.205   0.718   3.397
 7085SOL    HW222155   2.315   0.839   3.402
 7086SOL     OW22156   4.755   0.991   5.943
 7086SOL    HW122157   4.710   0.927   6.004
 7086SOL    HW222158   4.745   1.084   5.978
 7087SOL     OW22159   6.119   4.311   3.489
 7087SOL    HW122160   6.070   4.277   3.569
 7087SOL    HW222161   6.163   4.235   3.442
 7088SOL     OW22162   5.221   2.521   3.787
 7088SOL    HW122163   5.314   2.488   3.800
 7088SOL    HW222164   5.222   2.599   3.724
 7089SOL     OW22165   2.977   2.184   5.933
 7089SOL    HW122166   3.009   2.260   5.989
 7089SOL    HW222167   2.923   2.121   5.989
 7090SOL     OW22168   3.063   1.493   6.273
 7090SOL    HW122169   3.162   1.484   6.267
 7090SOL    HW222170   3.031   1.557   6.203
 7091SOL     OW22171   6.984   2.473   6.854
 7091SOL    HW122172   6.955   2.391   6.903
 7091SOL    HW222173   6.930   2.482   6.770
 7092SOL     OW22174   4.479   2.704   6.120
 7092SOL    HW122175   4.462   2.605   6.115
 7092SOL    HW222176   4.515   2.736   6.033
 7093SOL     OW22177   3.105   3.905   3.754
 7093SOL    HW122178   3.089   3.912   3.656
 7093SOL    HW222179   3.029   3.857   3.798
 7094SOL     OW22180   0.601   5.933   6.144
 7094SOL    HW122181   0.584   6.002   6.073
 7094SOL    HW222182   0.526   5.868   6.146
 7095SOL     OW22183   2.710   2.837   0.014
 7095SOL    HW122184   2.772   2.762   0.037
 7095SOL    HW222185   2.616   2.806   0.026
 7096SOL     OW22186   6.000   0.878   4.085
 7096SOL    HW122187   5.969   0.907   3.995
 7096SOL    HW222188   6.067   0.943   4.121
 7097SOL     OW22189   6.747   0.428   1.709
 7097SOL    HW122190   6.761   0.379   1.623
 7097SOL    HW222191   6.784   0.375   1.785
 7098SOL     OW22192   0.938   6.690   4.417
 7098SOL    HW122193   0.910   6.594   4.419
 7098SOL    HW222194   0.869   6.744   4.370
 7099SOL     OW22195   2.247   0.483   4.644
 7099SOL    HW122196   2.174   0.549   4.632
 7099SOL    HW222197   2.246   0.449   4.738
 7100SOL     OW22198   5.478   3.247   1.197
 7100SOL    HW122199   5.472   3.149   1.218
 7100SOL    HW222200   5.387   3.281   1.172
 7101SOL     OW22201   2.014   6.897   4.898
 7101SOL    HW122202   2.008   6.954   4.980
 7101SOL    HW222203   1.971   6.809   4.916
 7102SOL     OW22204   4.909   0.711   1.293
 7102SOL    HW122205   4.926   0.723   1.196
 7102SOL    HW222206   4.969   0.770   1.346
 7103SOL     OW22207   4.171   5.402   0.655
 7103SOL    HW122208   4.178   5.478   0.720
 7103SOL    HW222209   4.262   5.377   0.623
 7104SOL     OW22210   1.284   2.955   4.583
 7104SOL    HW122211   1.360   3.019   4.583
 7104SOL    HW222212   1.199   3.004   4.604
 7105SOL     OW22213   2.930   2.714   5.401
 7105SOL    HW122214   2.919   2.743   5.496
 7105SOL    HW222215   2.902   2.618   5.392
 7106SOL     OW22216   3.296   3.002   3.113
 7106SOL    HW122217   3.342   2.973   3.029
 7106SOL    HW222218   3.205   3.038   3.091
 7107SOL     OW22219   2.971   1.019   0.678
 7107SOL    HW122220   2.924   1.045   0.593
 7107SOL    HW222221   3.051   0.963   0.655
 7108SOL     OW22222   4.047   6.094   1.613
 7108SOL    HW122223   4.097   6.009   1.631
 7108SOL    HW222224   4.014   6.132   1.700
 7109SOL     OW22225   3.560   6.904   6.543
 7109SOL    HW122226   3.644   6.917   6.489
 7109SOL    HW222227   3.578   6.839   6.617
 7110SOL     OW22228   4.809   5.535   3.970
 7110SOL    HW122229   4.827   5.567   4.064
 7110SOL    HW222230   4.736   5.590   3.930
 7111SOL     OW22231   1.790   2.191   4.757
 7111SOL    HW122232   1.861   2.257   4.735
 7111SOL    HW222233   1.733   2.174   4.676
 7112SOL     OW22234   2.162   5.674   3.662
 7112SOL    HW122235   2.205   5.646   3.577
 7112SOL    HW222236   2.189   5.612   3.736
 7113SOL     OW22237   2.997   3.909   4.934
 7113SOL    HW122238   2.929   3.915   5.007
 7113SOL    HW222239   3.039   3.998   4.920
 7114SOL     OW22240   4.079   7.015   2.230
 7114SOL    HW122241   4.038   6.930   2.264
 7114SOL    HW222242   4.007   0.058   2.210
 7115SOL     OW22243   5.183   2.725   1.956
 7115SOL    HW122244   5.252   2.661   1.988
 7115SOL    HW222245   5.133   2.762   2.035
 7116SOL     OW22246   5.542   3.273   3.565
 7116SOL    HW122247   5.584   3.240   3.481
 7116SOL    HW222248   5.512   3.368   3.553
 7117SOL     OW22249   0.213   6.955   4.392
 7117SOL    HW122250   0.228   6.997   4.481
 7117SOL    HW222251   0.258   6.865   4.391
 7118SOL     OW22252   3.835   3.698   0.713
 7118SOL    HW122253   3.852   3.652   0.626
 7118SOL    HW222254   3.740   3.727   0.717
 7119SOL     OW22255   5.384   1.785   3.430
 7119SOL    HW122256   5.467   1.818   3.384
 7119SOL    HW222257   5.304   1.835   3.396
 7120SOL     OW22258   4.175   1.768   3.015
 7120SOL    HW122259   4.260   1.808   2.982
 7120SOL    HW222260   4.190   1.672   3.039
 7121SOL     OW22261   3.250   6.975   2.371
 7121SOL    HW122262   3.189   6.955   2.294
 7121SOL    HW222263   3.224   0.039   2.412
 7122SOL     OW22264   6.734   1.271   6.049
 7122SOL    HW122265   6.780   1.343   5.997
 7122SOL    HW222266   6.792   1.243   6.126
 7123SOL     OW22267   2.718   4.717   1.316
 7123SOL    HW122268   2.647   4.779   1.350
 7123SOL    HW222269   2.806   4.742   1.357
 7124SOL     OW22270   0.926   3.347   0.369
 7124SOL    HW122271   0.868   3.270   0.340
 7124SOL    HW222272   0.875   3.404   0.433
 7125SOL     OW22273   6.529   6.660   1.582
 7125SOL    HW122274   6.523   6.597   1.660
 7125SOL    HW222275   6.569   6.746   1.613
 7126SOL     OW22276   3.130   4.869   6.427
 7126SOL    HW122277   3.224   4.834   6.427
 7126SOL    HW222278   3.125   4.954   6.375
 7127SOL     OW22279   2.673   5.808   4.384
 7127SOL    HW122280   2.683   5.825   4.482
 7127SOL    HW222281   2.628   5.886   4.341
 7128SOL     OW22282   2.360   5.660   0.039
 7128SOL    HW122283   2.310   5.630   0.120
 7128SOL    HW222284   2.413   5.584   0.002
 7129SOL     OW22285   3.397   0.462   0.346
 7129SOL    HW122286   3.322   0.504   0.397
 7129SOL    HW222287   3.428   0.379   0.393
 7130SOL     OW22288   3.240   4.888   5.029
 7130SOL    HW122289   3.204   4.981   5.026
 7130SOL    HW222290   3.281   4.865   4.941
 7131SOL     OW22291   3.159   1.316   0.723
 7131SOL    HW122292   3.073   1.304   0.773
 7131SOL    HW222293   3.140   1.321   0.625
 7132SOL     OW22294   2.981   4.160   0.839
 7132SOL    HW122295   2.966   4.248   0.792
 7132SOL    HW222296   2.969   4.173   0.937
 7133SOL     OW22297   4.711   5.261   3.907
 7133SOL    HW122298   4.698   5.254   3.808
 7133SOL    HW222299   4.752   5.350   3.929
 7134SOL     OW22300   6.383   5.754   2.448
 7134SOL    HW122301   6.337   5.806   2.376
 7134SOL    HW222302   6.417   5.817   2.518
 7135SOL     OW22303   1.762   1.808   3.144
 7135SOL    HW122304   1.671   1.782   3.111
 7135SOL    HW222305   1.831   1.781   3.077
 7136SOL     OW22306   1.646   2.918   1.026
 7136SOL    HW122307   1.558   2.873   1.012
 7136SOL    HW222308   1.720   2.853   1.008
 7137SOL     OW22309   4.916   0.274   6.258
 7137SOL    HW122310   4.841   0.314   6.206
 7137SOL    HW222311   4.984   0.236   6.195
 7138SOL     OW22312   2.164   2.652   0.609
 7138SOL    HW122313   2.171   2.601   0.695
 7138SOL    HW222314   2.255   2.679   0.579
 7139SOL     OW22315   4.947   3.795   2.486
 7139SOL    HW122316   4.899   3.882   2.474
 7139SOL    HW222317   4.951   3.747   2.399
 7140SOL     OW22318   6.250   3.146   4.442
 7140SOL    HW122319   6.267   3.050   4.423
 7140SOL    HW222320   6.208   3.190   4.363
 7141SOL     OW22321   2.861   6.353   0.667
 7141SOL    HW122322   2.913   6.295   0.730
 7141SOL    HW222323   2.887   6.332   0.573
 7142SOL     OW22324   4.415   6.712   3.263
 7142SOL    HW122325   4.474   6.793   3.257
 7142SOL    HW222326   4.407   6.685   3.359
 7143SOL     OW22327   1.646   2.489   5.978
 7143SOL    HW122328   1.722   2.548   5.949
 7143SOL    HW222329   1.559   2.533   5.956
 7144SOL     OW22330   1.939   1.637   3.882
 7144SOL    HW122331   1.935   1.576   3.961
 7144SOL    HW222332   1.875   1.606   3.812
 7145SOL     OW22333   4.536   6.162   5.885
 7145SOL    HW122334   4.511   6.208   5.800
 7145SOL    HW222335   4.578   6.227   5.947
 7146SOL     OW22336   2.120   0.402   6.962
 7146SOL    HW122337   2.145   0.499   6.954
 7146SOL    HW222338   2.198   0.345   6.940
 7147SOL     OW22339   6.318   6.050   3.094
 7147SOL    HW122340   6.256   6.128   3.107
 7147SOL    HW222341   6.395   6.058   3.157
 7148SOL     OW22342   6.779   6.159   1.605
 7148SOL    HW122343   6.715   6.126   1.674
 7148SOL    HW222344   6.748   6.131   1.514
 7149SOL     OW22345   6.425   6.807   3.660
 7149SOL    HW122346   6.489   6.875   3.624
 7149SOL    HW222347   6.471   6.754   3.731
 7150SOL     OW22348   4.561   2.295   1.575
 7150SOL    HW122349   4.628   2.358   1.613
 7150SOL    HW222350   4.469   2.326   1.599
 7151SOL     OW22351   1.128   5.950   0.639
 7151SOL    HW122352   1.045   5.909   0.601
 7151SOL    HW222353   1.183   5.879   0.683
 7152SOL     OW22354   0.743   2.383   5.241
 7152SOL    HW122355   0.725   2.285   5.250
 7152SOL    HW222356   0.841   2.400   5.254
 7153SOL     OW22357   3.514   6.191   3.362
 7153SOL    HW122358   3.480   6.243   3.441
 7153SOL    HW222359   3.441   6.132   3.328
 7154SOL     OW22360   3.870   6.485   4.940
 7154SOL    HW122361   3.797   6.553   4.940
 7154SOL    HW222362   3.832   6.395   4.964
 7155SOL     OW22363   2.295   5.689   1.820
 7155SOL    HW122364   2.245   5.630   1.756
 7155SOL    HW222365   2.270   5.665   1.914
 7156SOL     OW22366   0.536   4.495   4.577
 7156SOL    HW122367   0.582   4.566   4.630
 7156SOL    HW222368   0.604   4.429   4.544
 7157SOL     OW22369   6.450   4.239   1.126
 7157SOL    HW122370   6.396   4.156   1.115
 7157SOL    HW222371   6.432   4.301   1.051
 7158SOL     OW22372   0.857   0.200   3.056
 7158SOL    HW122373   0.827   0.122   3.001
 7158SOL    HW222374   0.868   0.172   3.151
 7159SOL     OW22375   0.011   4.309   2.577
 7159SOL    HW122376   6.943   4.274   2.552
 7159SOL    HW222377   0.038   4.273   2.666
 7160SOL     OW22378   6.019   0.062   3.003
 7160SOL    HW122379   5.936   0.084   3.055
 7160SOL    HW222380   6.097   0.056   3.066
 7161SOL     OW22381   3.119   4.136   4.919
 7161SOL    HW122382   3.205   4.106   4.960
 7161SOL    HW222383   3.080   4.210   4.975
 7162SOL     OW22384   2.768   6.252   5.993
 7162SOL    HW122385   2.713   6.318   6.044
 7162SOL    HW222386   2.801   6.294   5.908
 7163SOL     OW22387   2.764   6.493   3.797
 7163SOL    HW122388   2.674   6.450   3.790
 7163SOL    HW222389   2.771   6.565   3.728
 7164SOL     OW22390   2.092   1.868   3.488
 7164SOL    HW122391   2.137   1.883   3.400
 7164SOL    HW222392   2.093   1.771   3.510
 7165SOL     OW22393   6.731   1.389   1.305
 7165SOL    HW122394   6.706   1.486   1.310
 7165SOL    HW222395   6.718   1.347   1.395
 7166SOL     OW22396   5.179   3.146   0.364
 7166SOL    HW122397   5.271   3.108   0.359
 7166SOL    HW222398   5.119   3.083   0.413
 7167SOL     OW22399   5.246   3.680   5.094
 7167SOL    HW122400   5.256   3.582   5.078
 7167SOL    HW222401   5.315   3.710   5.160
 7168SOL     OW22402   1.053   2.457   4.016
 7168SOL    HW122403   1.024   2.449   4.111
 7168SOL    HW222404   0.980   2.500   3.963
 7169SOL     OW22405   0.756   3.444   5.251
 7169SOL    HW122406   0.664   3.481   5.265
 7169SOL    HW222407   0.813   3.513   5.206
 7170SOL     OW22408   4.825   6.269   4.062
 7170SOL    HW122409   4.840   6.256   4.160
 7170SOL    HW222410   4.892   6.215   4.011
 7171SOL     OW22411   5.692   4.049   6.434
 7171SOL    HW122412   5.749   4.113   6.487
 7171SOL    HW222413   5.677   4.087   6.343
 7172SOL     OW22414   1.514   0.414   5.802
 7172SOL    HW122415   1.438   0.478   5.810
 7172SOL    HW222416   1.480   0.323   5.780
 7173SOL     OW22417   6.751   4.954   5.293
 7173SOL    HW122418   6.787   4.907   5.374
 7173SOL    HW222419   6.790   5.046   5.288
 7174SOL     OW22420   0.836   5.198   6.525
 7174SOL    HW122421   0.803   5.278   6.576
 7174SOL    HW222422   0.884   5.137   6.588
 7175SOL     OW22423   5.579   3.703   0.303
 7175SOL    HW122424   5.489   3.727   0.339
 7175SOL    HW222425   5.573   3.618   0.251
 7176SOL     OW22426   0.535   5.406   3.207
 7176SOL    HW122427   0.633   5.386   3.208
 7176SOL    HW222428   0.492   5.356   3.132
 7177SOL     OW22429   2.366   0.090   4.136
 7177SOL    HW122430   2.464   0.067   4.137
 7177SOL    HW222431   2.330   0.077   4.044
 7178SOL     OW22432   2.591   3.135   5.752
 7178SOL    HW122433   2.636   3.050   5.725
 7178SOL    HW222434   2.594   3.200   5.677
 7179SOL     OW22435   1.580   3.000   4.841
 7179SOL    HW122436   1.616   2.940   4.770
 7179SOL    HW222437   1.486   2.973   4.863
 7180SOL     OW22438   1.317   4.721   6.462
 7180SOL    HW122439   1.251   4.795   6.450
 7180SOL    HW222440   1.398   4.756   6.510
 7181SOL     OW22441   2.278   6.081   0.692
 7181SOL    HW122442   2.334   6.157   0.660
 7181SOL    HW222443   2.327   5.995   0.678
 7182SOL     OW22444   2.091   3.391   5.326
 7182SOL    HW122445   2.031   3.312   5.339
 7182SOL    HW222446   2.173   3.363   5.277
 7183SOL     OW22447   1.510   5.347   0.855
 7183SOL    HW122448   1.550   5.287   0.786
 7183SOL    HW222449   1.576   5.362   0.929
 7184SOL     OW22450   0.862   0.556   3.155
 7184SOL    HW122451   0.840   0.472   3.107
 7184SOL    HW222452   0.793   0.626   3.134
 7185SOL     OW22453   5.103   1.579   5.616
 7185SOL    HW122454   5.139   1.493   5.654
 7185SOL    HW222455   5.176   1.647   5.614
 7186SOL     OW22456   6.795   0.188   6.415
 7186SOL    HW122457   6.773   0.226   6.325
 7186SOL    HW222458   6.725   0.122   6.441
 7187SOL     OW22459   2.528   4.700   0.734
 7187SOL    HW122460   2.553   4.628   0.798
 7187SOL    HW222461   2.557   4.788   0.770
 7188SOL     OW22462   5.407   6.897   0.736
 7188SOL    HW122463   5.396   6.994   0.757
 7188SOL    HW222464   5.426   6.846   0.820
 7189SOL     OW22465   6.545   1.692   6.349
 7189SOL    HW122466   6.455   1.724   6.321
 7189SOL    HW222467   6.613   1.762   6.329
 7190SOL     OW22468   5.570   3.896   3.025
 7190SOL    HW122469   5.515   3.954   2.966
 7190SOL    HW222470   5.634   3.843   2.970
 7191SOL     OW22471   0.049   4.577   2.592
 7191SOL    HW122472   0.137   4.571   2.545
 7191SOL    HW222473   0.018   4.485   2.617
 7192SOL     OW22474   2.739   5.378   4.863
 7192SOL    HW122475   2.738   5.428   4.776
 7192SOL    HW222476   2.703   5.286   4.848
 7193SOL     OW22477   2.887   1.449   3.180
 7193SOL    HW122478   2.817   1.513   3.212
 7193SOL    HW222479   2.871   1.429   3.083
 7194SOL     OW22480   2.588   2.327   0.898
 7194SOL    HW122481   2.680   2.323   0.938
 7194SOL    HW222482   2.540   2.407   0.932
 7195SOL     OW22483   0.598   5.094   6.421
 7195SOL    HW122484   0.692   5.111   6.450
 7195SOL    HW222485   0.574   5.156   6.346
 7196SOL     OW22486   3.389   4.085   2.067
 7196SOL    HW122487   3.426   4.003   2.025
 7196SOL    HW222488   3.298   4.104   2.029
 7197SOL     OW22489   0.266   2.241   6.019
 7197SOL    HW122490   0.352   2.289   6.005
 7197SOL    HW222491   0.200   2.268   5.949
 7198SOL     OW22492   0.982   1.051   5.748
 7198SOL    HW122493   0.969   1.099   5.661
 7198SOL    HW222494   0.948   1.108   5.823
 7199SOL     OW22495   2.533   0.655   2.111
 7199SOL    HW122496   2.581   0.665   2.198
 7199SOL    HW222497   2.472   0.575   2.115
 7200SOL     OW22498   2.324   1.579   0.507
 7200SOL    HW122499   2.343   1.651   0.441
 7200SOL    HW222500   2.406   1.563   0.563
 7201SOL     OW22501   1.649   5.459   3.742
 7201SOL    HW122502   1.653   5.539   3.803
 7201SOL    HW222503   1.597   5.483   3.659
 7202SOL     OW22504   4.204   0.144   5.976
 7202SOL    HW122505   4.260   0.193   5.909
 7202SOL    HW222506   4.255   0.067   6.013
 7203SOL     OW22507   0.133   1.052   1.100
 7203SOL    HW122508   0.123   1.151   1.089
 7203SOL    HW222509   0.150   1.010   1.011
 7204SOL     OW22510   6.570   6.714   4.980
 7204SOL    HW122511   6.474   6.725   4.956
 7204SOL    HW222512   6.599   6.791   5.037
 7205SOL     OW22513   2.191   5.760   3.205
 7205SOL    HW122514   2.279   5.787   3.166
 7205SOL    HW222515   2.168   5.821   3.281
 7206SOL     OW22516   1.798   0.583   1.617
 7206SOL    HW122517   1.709   0.622   1.593
 7206SOL    HW222518   1.838   0.634   1.694
 7207SOL     OW22519   3.613   6.530   1.169
 7207SOL    HW122520   3.691   6.571   1.122
 7207SOL    HW222521   3.532   6.536   1.111
 7208SOL     OW22522   4.045   6.338   4.325
 7208SOL    HW122523   4.000   6.377   4.244
 7208SOL    HW222524   4.144   6.335   4.310
 7209SOL     OW22525   2.936   3.672   2.630
 7209SOL    HW122526   2.938   3.617   2.547
 7209SOL    HW222527   3.017   3.731   2.634
 7210SOL     OW22528   4.553   6.854   4.271
 7210SOL    HW122529   4.517   6.897   4.353
 7210SOL    HW222530   4.638   6.899   4.243
 7211SOL     OW22531   2.158   5.479   3.892
 7211SOL    HW122532   2.241   5.453   3.842
 7211SOL    HW222533   2.095   5.401   3.895
 7212SOL     OW22534   0.901   6.194   3.172
 7212SOL    HW122535   0.828   6.250   3.134
 7212SOL    HW222536   0.928   6.230   3.261
 7213SOL     OW22537   5.872   0.688   6.692
 7213SOL    HW122538   5.805   0.641   6.749
 7213SOL    HW222539   5.920   0.621   6.635
 7214SOL     OW22540   1.878   5.490   4.177
 7214SOL    HW122541   1.780   5.489   4.197
 7214SOL    HW222542   1.923   5.416   4.226
 7215SOL     OW22543   0.633   3.367   4.094
 7215SOL    HW122544   0.662   3.370   4.189
 7215SOL    HW222545   0.574   3.288   4.079
 7216SOL     OW22546   2.189   5.855   6.712
 7216SOL    HW122547   2.164   5.763   6.740
 7216SOL    HW222548   2.268   5.886   6.764
 7217SOL     OW22549   2.277   4.252   1.742
 7217SOL    HW122550   2.208   4.309   1.789
 7217SOL    HW222551   2.231   4.189   1.680
 7218SOL     OW22552   4.511   2.713   5.406
 7218SOL    HW122553   4.590   2.669   5.364
 7218SOL    HW222554   4.539   2.797   5.451
 7219SOL     OW22555   5.293   5.812   3.990
 7219SOL    HW122556   5.275   5.740   4.056
 7219SOL    HW222557   5.208   5.840   3.946
 7220SOL     OW22558   0.601   5.584   3.869
 7220SOL    HW122559   0.612   5.594   3.770
 7220SOL    HW222560   0.509   5.614   3.896
 7221SOL     OW22561   5.086   5.061   5.311
 7221SOL    HW122562   5.104   5.158   5.328
 7221SOL    HW222563   5.171   5.014   5.290
 7222SOL     OW22564   6.135   7.000   1.746
 7222SOL    HW122565   6.144   0.045   1.673
 7222SOL    HW222566   6.116   0.024   1.832
 7223SOL     OW22567   2.620   1.993   1.658
 7223SOL    HW122568   2.705   2.040   1.636
 7223SOL    HW222569   2.603   1.921   1.591
 7224SOL     OW22570   5.846   2.167   4.404
 7224SOL    HW122571   5.787   2.169   4.484
 7224SOL    HW222572   5.797   2.125   4.327
 7225SOL     OW22573   1.292   6.426   6.207
 7225SOL    HW122574   1.346   6.501   6.169
 7225SOL    HW222575   1.249   6.456   6.292
 7226SOL     OW22576   1.070   0.323   0.498
 7226SOL    HW122577   0.980   0.280   0.491
 7226SOL    HW222578   1.088   0.378   0.416
 7227SOL     OW22579   0.459   2.715   1.285
 7227SOL    HW122580   0.428   2.629   1.246
 7227SOL    HW222581   0.536   2.699   1.348
 7228SOL     OW22582   0.141   1.461   2.101
 7228SOL    HW122583   0.201   1.458   2.181
 7228SOL    HW222584   0.197   1.467   2.018
 7229SOL     OW22585   1.223   0.729   3.774
 7229SOL    HW122586   1.257   0.667   3.845
 7229SOL    HW222587   1.171   0.803   3.816
 7230SOL     OW22588   4.646   6.028   4.781
 7230SOL    HW122589   4.565   6.080   4.754
 7230SOL    HW222590   4.690   6.073   4.860
 7231SOL     OW22591   4.438   0.159   0.139
 7231SOL    HW122592   4.536   0.169   0.125
 7231SOL    HW222593   4.415   0.062   0.146
 7232SOL     OW22594   3.933   4.914   3.437
 7232SOL    HW122595   3.923   5.003   3.481
 7232SOL    HW222596   3.845   4.866   3.438
 7233SOL     OW22597   0.333   2.759   4.542
 7233SOL    HW122598   0.339   2.776   4.640
 7233SOL    HW222599   0.369   2.668   4.522
 7234SOL     OW22600   5.689   2.503   2.785
 7234SOL    HW122601   5.729   2.549   2.706
 7234SOL    HW222602   5.641   2.571   2.842
 7235SOL     OW22603   6.493   4.360   2.904
 7235SOL    HW122604   6.572   4.340   2.846
 7235SOL    HW222605   6.491   4.457   2.926
 7236SOL     OW22606   3.146   1.632   2.707
 7236SOL    HW122607   3.241   1.615   2.680
 7236SOL    HW222608   3.086   1.572   2.654
 7237SOL     OW22609   6.463   6.465   5.304
 7237SOL    HW122610   6.458   6.439   5.207
 7237SOL    HW222611   6.373   6.456   5.345
 7238SOL     OW22612   2.227   2.259   1.139
 7238SOL    HW122613   2.273   2.260   1.050
 7238SOL    HW222614   2.184   2.347   1.156
 7239SOL     OW22615   2.903   1.719   3.858
 7239SOL    HW122616   2.812   1.761   3.853
 7239SOL    HW222617   2.940   1.709   3.766
 7240SOL     OW22618   2.543   4.337   6.546
 7240SOL    HW122619   2.631   4.299   6.520
 7240SOL    HW222620   2.557   4.420   6.600
 7241SOL     OW22621   3.035   0.461   6.880
 7241SOL    HW122622   3.045   0.526   6.804
 7241SOL    HW222623   3.016   0.370   6.843
 7242SOL     OW22624   6.503   4.838   6.690
 7242SOL    HW122625   6.487   4.826   6.592
 7242SOL    HW222626   6.519   4.749   6.732
 7243SOL     OW22627   0.702   4.757   6.743
 7243SOL    HW122628   0.619   4.807   6.768
 7243SOL    HW222629   0.768   4.764   6.818
 7244SOL     OW22630   4.542   0.393   1.318
 7244SOL    HW122631   4.547   0.390   1.218
 7244SOL    HW222632   4.468   0.332   1.349
 7245SOL     OW22633   0.753   2.312   4.915
 7245SOL    HW122634   0.793   2.378   4.978
 7245SOL    HW222635   0.700   2.244   4.966
 7246SOL     OW22636   6.296   6.732   4.827
 7246SOL    HW122637   6.236   6.713   4.749
 7246SOL    HW222638   6.248   6.711   4.912
 7247SOL     OW22639   2.829   6.627   3.102
 7247SOL    HW122640   2.749   6.648   3.158
 7247SOL    HW222641   2.846   6.528   3.103
 7248SOL     OW22642   3.771   1.173   3.620
 7248SOL    HW122643   3.737   1.086   3.655
 7248SOL    HW222644   3.744   1.183   3.524
 7249SOL     OW22645   5.737   4.936   1.939
 7249SOL    HW122646   5.644   4.922   1.903
 7249SOL    HW222647   5.736   4.922   2.038
 7250SOL     OW22648   3.202   5.051   6.200
 7250SOL    HW122649   3.236   5.141   6.227
 7250SOL    HW222650   3.107   5.059   6.169
 7251SOL     OW22651   6.859   6.766   5.558
 7251SOL    HW122652   6.814   6.690   5.512
 7251SOL    HW222653   6.828   6.772   5.653
 7252SOL     OW22654   3.227   2.978   4.238
 7252SOL    HW122655   3.269   2.954   4.150
 7252SOL    HW222656   3.284   2.941   4.312
 7253SOL     OW22657   1.237   7.016   0.202
 7253SOL    HW122658   1.188   0.065   0.153
 7253SOL    HW222659   1.209   7.015   0.298
 7254SOL     OW22660   4.145   5.303   5.045
 7254SOL    HW122661   4.216   5.334   4.982
 7254SOL    HW222662   4.187   5.282   5.134
 7255SOL     OW22663   3.481   3.844   1.963
 7255SOL    HW122664   3.559   3.827   1.902
 7255SOL    HW222665   3.443   3.757   1.994
 7256SOL     OW22666   4.915   4.847   4.612
 7256SOL    HW122667   4.860   4.870   4.692
 7256SOL    HW222668   5.012   4.856   4.634
 7257SOL     OW22669   5.999   3.067   3.425
 7257SOL    HW122670   5.912   3.109   3.401
 7257SOL    HW222671   6.055   3.134   3.474
 7258SOL     OW22672   4.717   0.283   4.323
 7258SOL    HW122673   4.816   0.294   4.335
 7258SOL    HW222674   4.686   0.343   4.249
 7259SOL     OW22675   2.907   3.996   1.283
 7259SOL    HW122676   2.921   3.933   1.206
 7259SOL    HW222677   2.838   3.959   1.344
 7260SOL     OW22678   3.603   2.087   2.862
 7260SOL    HW122679   3.656   2.087   2.777
 7260SOL    HW222680   3.665   2.101   2.940
 7261SOL     OW22681   3.212   2.660   1.721
 7261SOL    HW122682   3.296   2.713   1.711
 7261SOL    HW222683   3.188   2.654   1.818
 7262SOL     OW22684   6.062   2.212   3.811
 7262SOL    HW122685   5.963   2.219   3.803
 7262SOL    HW222686   6.097   2.294   3.858
 7263SOL     OW22687   0.891   5.515   2.037
 7263SOL    HW122688   0.968   5.473   1.989
 7263SOL    HW222689   0.846   5.447   2.094
 7264SOL     OW22690   0.168   2.128   6.705
 7264SOL    HW122691   0.084   2.081   6.735
 7264SOL    HW222692   0.234   2.060   6.674
 7265SOL     OW22693   5.452   5.150   6.090
 7265SOL    HW122694   5.392   5.106   6.157
 7265SOL    HW222695   5.503   5.081   6.039
 7266SOL     OW22696   4.202   0.644   1.096
 7266SOL    HW122697   4.161   0.699   1.169
 7266SOL    HW222698   4.214   0.550   1.127
 7267SOL     OW22699   6.489   4.891   5.400
 7267SOL    HW122700   6.556   4.955   5.437
 7267SOL    HW222701   6.460   4.922   5.309
 7268SOL     OW22702   4.061   4.850   2.938
 7268SOL    HW122703   4.139   4.811   2.889
 7268SOL    HW222704   4.087   4.866   3.033
 7269SOL     OW22705   0.418   6.015   1.753
 7269SOL    HW122706   0.505   5.966   1.755
 7269SOL    HW222707   0.405   6.064   1.839
 7270SOL     OW22708   2.160   1.943   3.217
 7270SOL    HW122709   2.083   1.984   3.167
 7270SOL    HW222710   2.241   2.000   3.207
 7271SOL     OW22711   0.784   4.484   3.200
 7271SOL    HW122712   0.866   4.534   3.227
 7271SOL    HW222713   0.725   4.544   3.145
 7272SOL     OW22714   5.499   2.956   2.808
 7272SOL    HW122715   5.463   2.871   2.771
 7272SOL    HW222716   5.597   2.962   2.788
 7273SOL     OW22717   5.770   4.455   1.547
 7273SOL    HW122718   5.834   4.454   1.470
 7273SOL    HW222719   5.676   4.464   1.512
 7274SOL     OW22720   6.997   5.701   6.287
 7274SOL    HW122721   6.996   5.637   6.211
 7274SOL    HW222722   0.061   5.750   6.289
 7275SOL     OW22723   5.964   0.945   0.232
 7275SOL    HW122724   6.024   0.968   0.309
 7275SOL    HW222725   6.017   0.948   0.147
 7276SOL     OW22726   3.152   1.515   3.679
 7276SOL    HW122727   3.229   1.578   3.682
 7276SOL    HW222728   3.125   1.492   3.773
 7277SOL     OW22729   5.060   0.937   5.431
 7277SOL    HW122730   5.089   0.891   5.348
 7277SOL    HW222731   4.976   0.896   5.464
 7278SOL     OW22732   3.875   2.106   2.948
 7278SOL    HW122733   3.941   2.181   2.939
 7278SOL    HW222734   3.912   2.024   2.905
 7279SOL     OW22735   4.528   4.106   0.548
 7279SOL    HW122736   4.515   4.146   0.639
 7279SOL    HW222737   4.540   4.007   0.556
 7280SOL     OW22738   5.390   2.407   5.211
 7280SOL    HW122739   5.460   2.473   5.186
 7280SOL    HW222740   5.329   2.391   5.134
 7281SOL     OW22741   3.229   7.023   0.921
 7281SOL    HW122742   3.287   6.970   0.983
 7281SOL    HW222743   3.143   0.024   0.967
 7282SOL     OW22744   6.535   5.756   1.507
 7282SOL    HW122745   6.622   5.769   1.555
 7282SOL    HW222746   6.464   5.811   1.551
 7283SOL     OW22747   3.143   6.518   1.854
 7283SOL    HW122748   3.183   6.430   1.828
 7283SOL    HW222749   3.203   6.564   1.919
 7284SOL     OW22750   6.467   2.733   3.870
 7284SOL    HW122751   6.498   2.647   3.829
 7284SOL    HW222752   6.545   2.786   3.902
 7285SOL     OW22753   4.983   2.823   1.267
 7285SOL    HW122754   4.980   2.916   1.232
 7285SOL    HW222755   5.054   2.816   1.337
 7286SOL     OW22756   1.034   1.450   0.545
 7286SOL    HW122757   1.011   1.482   0.453
 7286SOL    HW222758   0.954   1.409   0.587
 7287SOL     OW22759   6.972   2.773   3.794
 7287SOL    HW122760   6.965   2.804   3.699
 7287SOL    HW222761   0.015   2.828   3.843
 7288SOL     OW22762   2.128   2.509   2.523
 7288SOL    HW122763   2.191   2.580   2.554
 7288SOL    HW222764   2.112   2.444   2.598
 7289SOL     OW22765   5.562   2.701   2.111
 7289SOL    HW122766   5.507   2.779   2.142
 7289SOL    HW222767   5.510   2.647   2.045
 7290SOL     OW22768   3.988   1.066   5.361
 7290SOL    HW122769   3.954   1.137   5.422
 7290SOL    HW222770   3.969   0.976   5.399
 7291SOL     OW22771   3.252   6.970   0.316
 7291SOL    HW122772   3.319   0.007   0.358
 7291SOL    HW222773   3.268   6.965   0.217
 7292SOL     OW22774   1.622   6.677   3.761
 7292SOL    HW122775   1.605   6.667   3.663
 7292SOL    HW222776   1.721   6.675   3.778
 7293SOL     OW22777   1.209   1.497   5.785
 7293SOL    HW122778   1.200   1.402   5.814
 7293SOL    HW222779   1.136   1.552   5.826
 7294SOL     OW22780   3.137   4.592   1.722
 7294SOL    HW122781   3.079   4.522   1.763
 7294SOL    HW222782   3.226   4.553   1.698
 7295SOL     OW22783   6.254   4.947   1.418
 7295SOL    HW122784   6.154   4.952   1.427
 7295SOL    HW222785   6.288   5.030   1.375
 7296SOL     OW22786   3.683   5.004   2.621
 7296SOL    HW122787   3.747   4.933   2.649
 7296SOL    HW222788   3.699   5.028   2.525
 7297SOL     OW22789   3.313   6.290   1.785
 7297SOL    HW122790   3.355   6.334   1.706
 7297SOL    HW222791   3.304   6.192   1.769
 7298SOL     OW22792   4.491   6.359   6.893
 7298SOL    HW122793   4.455   6.266   6.903
 7298SOL    HW222794   4.449   6.418   6.962
 7299SOL     OW22795   1.059   2.322   0.311
 7299SOL    HW122796   1.098   2.287   0.395
 7299SOL    HW222797   0.976   2.374   0.331
 7300SOL     OW22798   0.767   5.161   1.941
 7300SOL    HW122799   0.771   5.132   2.037
 7300SOL    HW222800   0.679   5.205   1.924
 7301SOL     OW22801   6.944   0.485   5.949
 7301SOL    HW122802   6.929   0.469   5.851
 7301SOL    HW222803   0.017   0.469   5.971
 7302SOL     OW22804   5.790   2.862   6.108
 7302SOL    HW122805   5.728   2.784   6.106
 7302SOL    HW222806   5.883   2.832   6.087
 7303SOL     OW22807   3.185   1.634   0.422
 7303SOL    HW122808   3.145   1.723   0.401
 7303SOL    HW222809   3.111   1.569   0.442
 7304SOL     OW22810   2.523   5.184   1.742
 7304SOL    HW122811   2.504   5.190   1.839
 7304SOL    HW222812   2.621   5.193   1.726
 7305SOL     OW22813   5.544   2.586   0.513
 7305SOL    HW122814   5.493   2.642   0.579
 7305SOL    HW222815   5.519   2.613   0.420
 7306SOL     OW22816   3.369   1.522   1.305
 7306SOL    HW122817   3.385   1.559   1.396
 7306SOL    HW222818   3.447   1.543   1.246
 7307SOL     OW22819   3.948   6.216   1.874
 7307SOL    HW122820   3.861   6.263   1.888
 7307SOL    HW222821   3.945   6.126   1.919
 7308SOL     OW22822   6.243   1.101   2.330
 7308SOL    HW122823   6.327   1.126   2.378
 7308SOL    HW222824   6.257   1.014   2.282
 7309SOL     OW22825   2.599   5.925   3.025
 7309SOL    HW122826   2.593   5.834   3.065
 7309SOL    HW222827   2.522   5.940   2.962
 7310SOL     OW22828   1.173   2.751   0.244
 7310SOL    HW122829   1.209   2.659   0.256
 7310SOL    HW222830   1.074   2.746   0.226
 7311SOL     OW22831   1.191   0.432   0.244
 7311SOL    HW122832   1.162   0.450   0.150
 7311SOL    HW222833   1.291   0.434   0.249
 7312SOL     OW22834   0.377   1.574   5.080
 7312SOL    HW122835   0.346   1.569   5.175
 7312SOL    HW222836   0.335   1.500   5.027
 7313SOL     OW22837   2.710   0.842   0.698
 7313SOL    HW122838   2.746   0.756   0.733
 7313SOL    HW222839   2.764   0.918   0.735
 7314SOL     OW22840   0.151   4.011   0.028
 7314SOL    HW122841   0.072   4.006   6.991
 7314SOL    HW222842   0.213   3.935   0.009
 7315SOL     OW22843   6.584   5.460   2.450
 7315SOL    HW122844   6.604   5.455   2.352
 7315SOL    HW222845   6.485   5.454   2.463
 7316SOL     OW22846   3.231   1.901   6.585
 7316SOL    HW122847   3.294   1.967   6.543
 7316SOL    HW222848   3.144   1.946   6.605
 7317SOL     OW22849   3.220   1.703   2.058
 7317SOL    HW122850   3.192   1.631   2.122
 7317SOL    HW222851   3.247   1.785   2.109
 7318SOL     OW22852   3.992   6.771   2.419
 7318SOL    HW122853   3.904   6.815   2.438
 7318SOL    HW222854   4.023   6.723   2.501
 7319SOL     OW22855   6.824   3.543   6.660
 7319SOL    HW122856   6.728   3.548   6.633
 7319SOL    HW222857   6.873   3.482   6.597
 7320SOL     OW22858   6.709   3.776   1.089
 7320SOL    HW122859   6.728   3.692   1.038
 7320SOL    HW222860   6.792   3.830   1.096
 7321SOL     OW22861   1.817   6.244   6.432
 7321SOL    HW122862   1.761   6.210   6.507
 7321SOL    HW222863   1.870   6.169   6.393
 7322SOL     OW22864   0.932   1.737   3.116
 7322SOL    HW122865   0.840   1.697   3.117
 7322SOL    HW222866   0.932   1.819   3.059
 7323SOL     OW22867   2.444   1.422   2.143
 7323SOL    HW122868   2.473   1.380   2.058
 7323SOL    HW222869   2.489   1.511   2.153
 7324SOL     OW22870   5.770   4.506   2.341
 7324SOL    HW122871   5.822   4.553   2.270
 7324SOL    HW222872   5.775   4.559   2.426
 7325SOL     OW22873   3.629   0.376   5.878
 7325SOL    HW122874   3.664   0.296   5.830
 7325SOL    HW222875   3.529   0.371   5.883
 7326SOL     OW22876   3.358   0.809   6.407
 7326SOL    HW122877   3.271   0.760   6.408
 7326SOL    HW222878   3.342   0.906   6.428
 7327SOL     OW22879   5.865   3.763   3.070
 7327SOL    HW122880   5.929   3.834   3.098
 7327SOL    HW222881   5.853   3.697   3.145
 7328SOL     OW22882   4.093   5.167   5.793
 7328SOL    HW122883   4.034   5.137   5.868
 7328SOL    HW222884   4.187   5.142   5.812
 7329SOL     OW22885   0.870   2.357   7.022
 7329SOL    HW122886   0.845   2.261   0.010
 7329SOL    HW222887   0.952   2.364   6.965
 7330SOL     OW22888   2.860   2.997   1.061
 7330SOL    HW122889   2.912   3.063   1.007
 7330SOL    HW222890   2.907   2.908   1.060
 7331SOL     OW22891   4.792   0.274   2.010
 7331SOL    HW122892   4.841   0.280   2.097
 7331SOL    HW222893   4.694   0.264   2.027
 7332SOL     OW22894   3.991   4.391   0.253
 7332SOL    HW122895   4.028   4.364   0.164
 7332SOL    HW222896   3.905   4.441   0.240
 7333SOL     OW22897   5.878   3.519   3.188
 7333SOL    HW122898   5.938   3.462   3.131
 7333SOL    HW222899   5.784   3.485   3.181
 7334SOL     OW22900   2.960   6.381   6.302
 7334SOL    HW122901   2.927   6.427   6.219
 7334SOL    HW222902   3.049   6.339   6.283
 7335SOL     OW22903   6.627   3.446   2.936
 7335SOL    HW122904   6.703   3.418   2.877
 7335SOL    HW222905   6.623   3.546   2.941
 7336SOL     OW22906   1.348   6.215   1.058
 7336SOL    HW122907   1.424   6.230   0.995
 7336SOL    HW222908   1.383   6.179   1.145
 7337SOL     OW22909   3.457   2.736   1.702
 7337SOL    HW122910   3.519   2.740   1.623
 7337SOL    HW222911   3.464   2.647   1.745
 7338SOL     OW22912   5.617   2.547   1.440
 7338SOL    HW122913   5.695   2.573   1.497
 7338SOL    HW222914   5.644   2.548   1.343
 7339SOL     OW22915   7.002   6.302   5.076
 7339SOL    HW122916   0.074   6.276   5.094
 7339SOL    HW222917   6.972   6.262   4.990
 7340SOL     OW22918   3.402   1.189   6.995
 7340SOL    HW122919   3.374   1.135   6.916
 7340SOL    HW222920   3.407   1.286   6.969
 7341SOL     OW22921   0.948   5.055   4.253
 7341SOL    HW122922   1.025   5.059   4.317
 7341SOL    HW222923   0.912   5.147   4.238
 7342SOL     OW22924   6.735   0.350   0.601
 7342SOL    HW122925   6.776   0.268   0.562
 7342SOL    HW222926   6.660   0.381   0.543
 7343SOL     OW22927   5.928   3.653   1.665
 7343SOL    HW122928   5.878   3.739   1.663
 7343SOL    HW222929   5.973   3.642   1.754
 7344SOL     OW22930   1.537   6.761   6.683
 7344SOL    HW122931   1.496   6.850   6.700
 7344SOL    HW222932   1.632   6.760   6.714
 7345SOL     OW22933   4.552   4.736   5.805
 7345SOL    HW122934   4.560   4.786   5.892
 7345SOL    HW222935   4.466   4.685   5.805
 7346SOL     OW22936   3.411   3.936   1.131
 7346SOL    HW122937   3.357   3.909   1.211
 7346SOL    HW222938   3.350   3.971   1.060
 7347SOL     OW22939   6.287   2.549   2.415
 7347SOL    HW122940   6.280   2.463   2.364
 7347SOL    HW222941   6.201   2.600   2.406
 7348SOL     OW22942   1.523   3.361   4.045
 7348SOL    HW122943   1.474   3.447   4.055
 7348SOL    HW222944   1.620   3.376   4.065
 7349SOL     OW22945   3.769   1.709   1.379
 7349SOL    HW122946   3.765   1.807   1.363
 7349SOL    HW222947   3.810   1.691   1.469
 7350SOL     OW22948   0.236   2.876   3.530
 7350SOL    HW122949   0.282   2.958   3.499
 7350SOL    HW222950   0.137   2.891   3.532
 7351SOL     OW22951   4.191   4.496   6.496
 7351SOL    HW122952   4.225   4.423   6.555
 7351SOL    HW222953   4.267   4.555   6.468
 7352SOL     OW22954   1.267   1.570   3.381
 7352SOL    HW122955   1.260   1.499   3.451
 7352SOL    HW222956   1.187   1.630   3.386
 7353SOL     OW22957   0.037   1.725   5.397
 7353SOL    HW122958   0.018   1.729   5.299
 7353SOL    HW222959   0.123   1.677   5.412
 7354SOL     OW22960   6.815   1.100   5.825
 7354SOL    HW122961   6.896   1.060   5.868
 7354SOL    HW222962   6.767   1.159   5.890
 7355SOL     OW22963   1.656   5.307   1.389
 7355SOL    HW122964   1.733   5.349   1.437
 7355SOL    HW222965   1.602   5.379   1.344
 7356SOL     OW22966   5.537   2.282   6.589
 7356SOL    HW122967   5.468   2.255   6.522
 7356SOL    HW222968   5.511   2.369   6.631
 7357SOL     OW22969   5.075   0.972   1.365
 7357SOL    HW122970   4.977   0.992   1.366
 7357SOL    HW222971   5.105   0.959   1.270
 7358SOL     OW22972   2.919   1.786   2.868
 7358SOL    HW122973   2.852   1.734   2.815
 7358SOL    HW222974   3.009   1.745   2.857
 7359SOL     OW22975   3.390   2.416   1.396
 7359SOL    HW122976   3.335   2.413   1.479
 7359SOL    HW222977   3.486   2.400   1.419
 7360SOL     OW22978   1.400   2.450   5.306
 7360SOL    HW122979   1.377   2.356   5.333
 7360SOL    HW222980   1.406   2.455   5.206
 7361SOL     OW22981   5.131   0.139   1.128
 7361SOL    HW122982   5.128   0.220   1.069
 7361SOL    HW222983   5.092   0.162   1.218
 7362SOL     OW22984   0.666   0.026   5.406
 7362SOL    HW122985   0.700   0.104   5.354
 7362SOL    HW222986   0.609   6.992   5.347
 7363SOL     OW22987   5.185   2.188   0.567
 7363SOL    HW122988   5.257   2.184   0.496
 7363SOL    HW222989   5.200   2.267   0.626
 7364SOL     OW22990   3.911   6.496   1.359
 7364SOL    HW122991   4.008   6.486   1.334
 7364SOL    HW222992   3.858   6.516   1.277
 7365SOL     OW22993   3.014   6.431   2.233
 7365SOL    HW122994   2.989   6.379   2.315
 7365SOL    HW222995   3.105   6.471   2.245
 7366SOL     OW22996   1.022   5.509   0.247
 7366SOL    HW122997   1.015   5.542   0.342
 7366SOL    HW222998   0.961   5.563   0.189
 7367SOL     OW22999   4.343   4.093   1.313
 7367SOL    HW123000   4.292   4.178   1.325
 7367SOL    HW223001   4.359   4.077   1.216
 7368SOL     OW23002   3.011   3.121   4.202
 7368SOL    HW123003   2.976   3.139   4.294
 7368SOL    HW223004   3.089   3.059   4.207
 7369SOL     OW23005   4.894   3.315   1.087
 7369SOL    HW123006   4.885   3.412   1.068
 7369SOL    HW223007   4.822   3.264   1.039
 7370SOL     OW23008   1.911   0.793   6.419
 7370SOL    HW123009   1.933   0.736   6.340
 7370SOL    HW223010   1.852   0.868   6.391
 7371SOL     OW23011   2.914   5.448   4.259
 7371SOL    HW123012   3.006   5.411   4.267
 7371SOL    HW223013   2.848   5.374   4.256
 7372SOL     OW23014   3.353   0.122   5.372
 7372SOL    HW123015   3.270   0.145   5.423
 7372SOL    HW223016   3.385   0.031   5.400
 7373SOL     OW23017   4.754   1.228   3.343
 7373SOL    HW123018   4.807   1.205   3.425
 7373SOL    HW223019   4.685   1.297   3.365
 7374SOL     OW23020   2.146   2.698   5.344
 7374SOL    HW123021   2.093   2.688   5.428
 7374SOL    HW223022   2.244   2.695   5.366
 7375SOL     OW23023   1.700   1.837   3.951
 7375SOL    HW123024   1.742   1.893   4.022
 7375SOL    HW223025   1.699   1.741   3.980
 7376SOL     OW23026   3.131   2.631   6.939
 7376SOL    HW123027   3.202   2.649   7.007
 7376SOL    HW223028   3.133   2.702   6.868
 7377SOL     OW23029   4.741   5.542   2.045
 7377SOL    HW123030   4.801   5.622   2.045
 7377SOL    HW223031   4.733   5.507   1.952
 7378SOL     OW23032   6.488   1.896   4.411
 7378SOL    HW123033   6.413   1.962   4.417
 7378SOL    HW223034   6.484   1.850   4.323
 7379SOL     OW23035   4.383   1.230   2.677
 7379SOL    HW123036   4.377   1.324   2.708
 7379SOL    HW223037   4.302   1.180   2.707
 7380SOL     OW23038   0.275   3.394   5.873
 7380SOL    HW123039   0.364   3.432   5.850
 7380SOL    HW223040   0.285   3.327   5.947
 7381SOL     OW23041   4.728   2.796   2.701
 7381SOL    HW123042   4.718   2.806   2.602
 7381SOL    HW223043   4.677   2.716   2.731
 7382SOL     OW23044   0.158   4.987   4.815
 7382SOL    HW123045   0.202   4.899   4.793
 7382SOL    HW223046   0.061   4.982   4.791
 7383SOL     OW23047   6.703   6.657   2.628
 7383SOL    HW123048   6.799   6.684   2.629
 7383SOL    HW223049   6.653   6.716   2.564
 7384SOL     OW23050   5.270   1.120   1.958
 7384SOL    HW123051   5.323   1.138   1.875
 7384SOL    HW223052   5.220   1.203   1.983
 7385SOL     OW23053   4.366   5.419   2.338
 7385SOL    HW123054   4.327   5.327   2.341
 7385SOL    HW223055   4.299   5.485   2.372
 7386SOL     OW23056   0.826   2.733   5.372
 7386SOL    HW123057   0.890   2.724   5.296
 7386SOL    HW223058   0.833   2.653   5.431
 7387SOL     OW23059   4.152   6.187   4.569
 7387SOL    HW123060   4.075   6.188   4.504
 7387SOL    HW223061   4.234   6.157   4.522
 7388SOL     OW23062   6.694   5.786   4.126
 7388SOL    HW123063   6.745   5.725   4.066
 7388SOL    HW223064   6.618   5.828   4.076
 7389SOL     OW23065   1.352   4.376   6.976
 7389SOL    HW123066   1.414   4.386   0.032
 7389SOL    HW223067   1.402   4.394   6.892
 7390SOL     OW23068   1.657   1.846   6.369
 7390SOL    HW123069   1.649   1.818   6.273
 7390SOL    HW223070   1.655   1.946   6.374
 7391SOL     OW23071   4.486   4.109   5.352
 7391SOL    HW123072   4.388   4.099   5.370
 7391SOL    HW223073   4.530   4.019   5.353
 7392SOL     OW23074   2.315   5.734   5.798
 7392SOL    HW123075   2.349   5.752   5.890
 7392SOL    HW223076   2.382   5.766   5.731
 7393SOL     OW23077   5.828   5.523   1.698
 7393SOL    HW123078   5.785   5.612   1.682
 7393SOL    HW223079   5.927   5.536   1.707
 7394SOL     OW23080   3.512   2.938   5.998
 7394SOL    HW123081   3.548   2.865   5.941
 7394SOL    HW223082   3.531   3.027   5.955
 7395SOL     OW23083   0.759   0.784   6.999
 7395SOL    HW123084   0.679   0.825   0.020
 7395SOL    HW223085   0.755   0.801   6.901
 7396SOL     OW23086   1.619   0.946   6.637
 7396SOL    HW123087   1.533   0.949   6.690
 7396SOL    HW223088   1.693   0.983   6.693
 7397SOL     OW23089   6.464   4.992   4.201
 7397SOL    HW123090   6.496   5.032   4.287
 7397SOL    HW223091   6.365   4.979   4.206
 7398SOL     OW23092   3.652   5.354   4.318
 7398SOL    HW123093   3.636   5.399   4.405
 7398SOL    HW223094   3.751   5.352   4.300
 7399SOL     OW23095   0.421   4.249   5.566
 7399SOL    HW123096   0.335   4.236   5.517
 7399SOL    HW223097   0.465   4.161   5.582
 7400SOL     OW23098   3.137   4.289   6.894
 7400SOL    HW123099   3.065   4.224   6.919
 7400SOL    HW223100   3.226   4.254   6.925
 7401SOL     OW23101   0.327   1.446   3.173
 7401SOL    HW123102   0.330   1.490   3.083
 7401SOL    HW223103   0.376   1.503   3.239
 7402SOL     OW23104   1.947   6.903   4.169
 7402SOL    HW123105   1.939   6.830   4.237
 7402SOL    HW223106   2.007   6.975   4.204
 7403SOL     OW23107   2.231   2.977   3.057
 7403SOL    HW123108   2.330   2.973   3.047
 7403SOL    HW223109   2.197   2.888   3.088
 7404SOL     OW23110   2.184   0.255   1.209
 7404SOL    HW123111   2.181   0.156   1.222
 7404SOL    HW223112   2.128   0.280   1.130
 7405SOL     OW23113   0.978   4.668   4.350
 7405SOL    HW123114   1.057   4.714   4.310
 7405SOL    HW223115   0.896   4.725   4.338
 7406SOL     OW23116   1.407   3.462   2.670
 7406SOL    HW123117   1.346   3.405   2.725
 7406SOL    HW223118   1.465   3.516   2.731
 7407SOL     OW23119   0.275   6.054   4.620
 7407SOL    HW123120   0.286   6.153   4.630
 7407SOL    HW223121   0.309   6.026   4.531
 7408SOL     OW23122   1.442   4.192   5.335
 7408SOL    HW123123   1.536   4.224   5.350
 7408SOL    HW223124   1.415   4.211   5.241
 7409SOL     OW23125   0.842   1.184   4.609
 7409SOL    HW123126   0.879   1.155   4.697
 7409SOL    HW223127   0.779   1.260   4.623
 7410SOL     OW23128   6.828   4.926   1.153
 7410SOL    HW123129   6.787   5.008   1.112
 7410SOL    HW223130   6.918   4.949   1.190
 7411SOL     OW23131   2.476   0.109   4.500
 7411SOL    HW123132   2.538   0.165   4.444
 7411SOL    HW223133   2.517   0.093   4.590
 7412SOL     OW23134   3.183   1.205   1.114
 7412SOL    HW123135   3.278   1.186   1.089
 7412SOL    HW223136   3.167   1.304   1.108
 7413SOL     OW23137   0.363   4.545   3.930
 7413SOL    HW123138   0.276   4.499   3.915
 7413SOL    HW223139   0.426   4.525   3.855
 7414SOL     OW23140   6.967   0.538   2.533
 7414SOL    HW123141   6.877   0.552   2.575
 7414SOL    HW223142   0.014   0.585   2.586
 7415SOL     OW23143   0.537   3.730   3.193
 7415SOL    HW123144   0.593   3.811   3.210
 7415SOL    HW223145   0.446   3.743   3.233
 7416SOL     OW23146   3.691   0.956   3.783
 7416SOL    HW123147   3.651   0.878   3.832
 7416SOL    HW223148   3.704   1.032   3.847
 7417SOL     OW23149   0.869   0.138   6.032
 7417SOL    HW123150   0.913   0.170   5.948
 7417SOL    HW223151   0.893   0.043   6.048
 7418SOL     OW23152   3.428   4.358   1.009
 7418SOL    HW123153   3.393   4.329   1.098
 7418SOL    HW223154   3.452   4.455   1.013
 7419SOL     OW23155   6.154   2.326   4.764
 7419SOL    HW123156   6.072   2.369   4.727
 7419SOL    HW223157   6.128   2.259   4.833
 7420SOL     OW23158   6.229   6.416   2.542
 7420SOL    HW123159   6.322   6.431   2.578
 7420SOL    HW223160   6.162   6.438   2.613
 7421SOL     OW23161   2.593   2.913   1.057
 7421SOL    HW123162   2.693   2.923   1.058
 7421SOL    HW223163   2.565   2.862   1.138
 7422SOL     OW23164   0.151   3.433   2.361
 7422SOL    HW123165   0.184   3.342   2.336
 7422SOL    HW223166   0.082   3.425   2.433
 7423SOL     OW23167   0.385   4.277   6.167
 7423SOL    HW123168   0.422   4.197   6.216
 7423SOL    HW223169   0.287   4.264   6.153
 7424SOL     OW23170   6.019   1.231   4.205
 7424SOL    HW123171   6.053   1.142   4.172
 7424SOL    HW223172   5.936   1.256   4.155
 7425SOL     OW23173   4.269   5.019   6.748
 7425SOL    HW123174   4.343   5.086   6.751
 7425SOL    HW223175   4.278   4.963   6.665
 7426SOL     OW23176   0.692   2.072   6.665
 7426SOL    HW123177   0.626   2.079   6.740
 7426SOL    HW223178   0.681   2.150   6.604
 7427SOL     OW23179   3.189   5.933   4.804
 7427SOL    HW123180   3.116   6.001   4.810
 7427SOL    HW223181   3.160   5.848   4.849
 7428SOL     OW23182   3.782   1.668   5.657
 7428SOL    HW123183   3.718   1.648   5.583
 7428SOL    HW223184   3.746   1.745   5.711
 7429SOL     OW23185   6.199   0.295   2.859
 7429SOL    HW123186   6.134   0.352   2.809
 7429SOL    HW223187   6.188   0.310   2.957
 7430SOL     OW23188   0.151   4.854   5.460
 7430SOL    HW123189   0.165   4.806   5.547
 7430SOL    HW223190   0.203   4.939   5.460
 7431SOL     OW23191   0.503   4.186   2.126
 7431SOL    HW123192   0.558   4.254   2.077
 7431SOL    HW223193   0.554   4.100   2.131
 7432SOL     OW23194   0.209   6.435   3.934
 7432SOL    HW123195   0.281   6.484   3.885
 7432SOL    HW223196   0.247   6.391   4.015
 7433SOL     OW23197   6.734   5.463   0.517
 7433SOL    HW123198   6.656   5.524   0.531
 7433SOL    HW223199   6.746   5.447   0.418
 7434SOL     OW23200   3.591   0.864   6.710
 7434SOL    HW123201   3.590   0.805   6.792
 7434SOL    HW223202   3.581   0.807   6.629
 7435SOL     OW23203   3.455   6.330   6.516
 7435SOL    HW123204   3.447   6.241   6.562
 7435SOL    HW223205   3.367   6.355   6.476
 7436SOL     OW23206   6.745   3.168   6.472
 7436SOL    HW123207   6.823   3.169   6.534
 7436SOL    HW223208   6.699   3.257   6.474
 7437SOL     OW23209   6.779   5.685   6.983
 7437SOL    HW123210   6.684   5.656   6.973
 7437SOL    HW223211   6.781   5.782   7.010
 7438SOL     OW23212   1.339   4.037   1.019
 7438SOL    HW123213   1.383   4.101   0.958
 7438SOL    HW223214   1.299   3.962   0.966
 7439SOL     OW23215   2.588   6.581   4.093
 7439SOL    HW123216   2.598   6.615   4.186
 7439SOL    HW223217   2.671   6.532   4.066
 7440SOL     OW23218   0.968   2.732   4.523
 7440SOL    HW123219   0.945   2.775   4.610
 7440SOL    HW223220   1.050   2.676   4.534
 7441SOL     OW23221   5.675   6.555   4.253
 7441SOL    HW123222   5.729   6.636   4.280
 7441SOL    HW223223   5.733   6.474   4.257
 7442SOL     OW23224   1.149   0.828   6.358
 7442SOL    HW123225   1.226   0.799   6.415
 7442SOL    HW223226   1.179   0.835   6.262
 7443SOL     OW23227   0.331   1.450   1.028
 7443SOL    HW123228   0.391   1.376   0.997
 7443SOL    HW223229   0.309   1.436   1.125
 7444SOL     OW23230   0.520   3.498   5.794
 7444SOL    HW123231   0.563   3.484   5.705
 7444SOL    HW223232   0.589   3.498   5.866
 7445SOL     OW23233   4.049   1.278   1.602
 7445SOL    HW123234   4.022   1.234   1.688
 7445SOL    HW223235   4.147   1.266   1.588
 7446SOL     OW23236   5.784   4.867   0.312
 7446SOL    HW123237   5.724   4.811   0.370
 7446SOL    HW223238   5.791   4.959   0.350
 7447SOL     OW23239   2.472   3.764   6.450
 7447SOL    HW123240   2.507   3.682   6.497
 7447SOL    HW223241   2.451   3.741   6.355
 7448SOL     OW23242   5.564   6.689   5.869
 7448SOL    HW123243   5.595   6.784   5.863
 7448SOL    HW223244   5.521   6.662   5.783
 7449SOL     OW23245   4.726   2.813   2.434
 7449SOL    HW123246   4.822   2.797   2.410
 7449SOL    HW223247   4.669   2.742   2.394
 7450SOL     OW23248   5.185   2.946   4.529
 7450SOL    HW123249   5.165   2.924   4.624
 7450SOL    HW223250   5.283   2.963   4.519
 7451SOL     OW23251   1.457   0.592   3.889
 7451SOL    HW123252   1.455   0.510   3.946
 7451SOL    HW223253   1.535   0.586   3.826
 7452SOL     OW23254   1.468   0.368   4.784
 7452SOL    HW123255   1.398   0.390   4.852
 7452SOL    HW223256   1.425   0.343   4.698
 7453SOL     OW23257   5.138   5.746   5.375
 7453SOL    HW123258   5.229   5.711   5.399
 7453SOL    HW223259   5.147   5.837   5.336
 7454SOL     OW23260   1.012   3.172   2.094
 7454SOL    HW123261   0.974   3.114   2.022
 7454SOL    HW223262   1.091   3.222   2.058
 7455SOL     OW23263   0.008   1.126   1.775
 7455SOL    HW123264   6.995   1.101   1.865
 7455SOL    HW223265   6.993   1.215   1.748
 7456SOL     OW23266   1.370   2.055   4.804
 7456SOL    HW123267   1.291   2.114   4.784
 7456SOL    HW223268   1.337   1.964   4.832
 7457SOL     OW23269   4.504   0.429   6.298
 7457SOL    HW123270   4.544   0.337   6.295
 7457SOL    HW223271   4.452   0.439   6.383
 7458SOL     OW23272   1.488   0.037   6.844
 7458SOL    HW123273   1.526   0.052   6.936
 7458SOL    HW223274   1.564   0.031   6.779
 7459SOL     OW23275   4.226   0.225   0.336
 7459SOL    HW123276   4.299   0.184   0.281
 7459SOL    HW223277   4.198   0.312   0.294
 7460SOL     OW23278   2.131   4.656   6.993
 7460SOL    HW123279   2.200   4.702   6.937
 7460SOL    HW223280   2.157   4.661   0.066
 7461SOL     OW23281   5.082   1.491   5.358
 7461SOL    HW123282   5.102   1.395   5.378
 7461SOL    HW223283   5.079   1.543   5.443
 7462SOL     OW23284   1.721   2.769   2.262
 7462SOL    HW123285   1.756   2.862   2.263
 7462SOL    HW223286   1.764   2.716   2.336
 7463SOL     OW23287   3.702   3.859   1.254
 7463SOL    HW123288   3.658   3.806   1.327
 7463SOL    HW223289   3.632   3.897   1.194
 7464SOL     OW23290   4.109   6.106   6.703
 7464SOL    HW123291   4.106   6.038   6.630
 7464SOL    HW223292   4.042   6.083   6.773
 7465SOL     OW23293   1.673   0.174   0.985
 7465SOL    HW123294   1.750   0.111   0.975
 7465SOL    HW223295   1.589   0.122   1.002
 7466SOL     OW23296   0.459   0.882   6.813
 7466SOL    HW123297   0.546   0.837   6.797
 7466SOL    HW223298   0.450   0.961   6.752
 7467SOL     OW23299   6.232   2.269   1.160
 7467SOL    HW123300   6.146   2.313   1.186
 7467SOL    HW223301   6.267   2.214   1.236
 7468SOL     OW23302   5.062   2.240   2.304
 7468SOL    HW123303   5.113   2.162   2.339
 7468SOL    HW223304   5.099   2.324   2.343
 7469SOL     OW23305   0.785   0.165   0.167
 7469SOL    HW123306   0.710   0.160   0.101
 7469SOL    HW223307   0.872   0.174   0.118
 7470SOL     OW23308   0.253   3.187   3.794
 7470SOL    HW123309   0.349   3.187   3.768
 7470SOL    HW223310   0.204   3.254   3.739
 7471SOL     OW23311   6.054   6.881   4.207
 7471SOL    HW123312   6.038   6.837   4.119
 7471SOL    HW223313   6.152   6.899   4.218
 7472SOL     OW23314   5.383   6.762   4.105
 7472SOL    HW123315   5.343   6.779   4.015
 7472SOL    HW223316   5.470   6.811   4.112
 7473SOL     OW23317   0.023   4.469   3.192
 7473SOL    HW123318   0.083   4.400   3.153
 7473SOL    HW223319   0.047   4.559   3.157
 7474SOL     OW23320   2.856   0.752   4.686
 7474SOL    HW123321   2.954   0.732   4.682
 7474SOL    HW223322   2.843   0.846   4.715
 7475SOL     OW23323   4.240   1.465   2.850
 7475SOL    HW123324   4.239   1.555   2.808
 7475SOL    HW223325   4.161   1.412   2.817
 7476SOL     OW23326   3.689   6.584   4.209
 7476SOL    HW123327   3.755   6.634   4.152
 7476SOL    HW223328   3.637   6.520   4.152
 7477SOL     OW23329   4.926   1.056   3.804
 7477SOL    HW123330   4.938   1.103   3.892
 7477SOL    HW223331   4.905   0.959   3.821
 7478SOL     OW23332   3.803   3.669   6.391
 7478SOL    HW123333   3.843   3.577   6.393
 7478SOL    HW223334   3.819   3.711   6.302
 7479SOL     OW23335   3.670   2.201   0.737
 7479SOL    HW123336   3.625   2.249   0.662
 7479SOL    HW223337   3.629   2.110   0.748
 7480SOL     OW23338   6.026   5.453   1.426
 7480SOL    HW123339   6.061   5.400   1.504
 7480SOL    HW223340   6.061   5.546   1.431
 7481SOL     OW23341   5.429   5.746   1.542
 7481SOL    HW123342   5.475   5.777   1.625
 7481SOL    HW223343   5.347   5.694   1.566
 7482SOL     OW23344   4.690   1.343   2.360
 7482SOL    HW123345   4.681   1.318   2.263
 7482SOL    HW223346   4.632   1.421   2.380
 7483SOL     OW23347   4.319   1.897   4.738
 7483SOL    HW123348   4.383   1.826   4.768
 7483SOL    HW223349   4.243   1.903   4.803
 7484SOL     OW23350   6.844   0.230   1.892
 7484SOL    HW123351   6.844   0.132   1.871
 7484SOL    HW223352   6.810   0.244   1.985
 7485SOL     OW23353   2.746   6.296   5.043
 7485SOL    HW123354   2.709   6.222   4.988
 7485SOL    HW223355   2.782   6.260   5.129
 7486SOL     OW23356   2.273   6.843   5.835
 7486SOL    HW123357   2.257   6.802   5.746
 7486SOL    HW223358   2.186   6.858   5.882
 7487SOL     OW23359   2.068   6.468   2.684
 7487SOL    HW123360   2.153   6.512   2.655
 7487SOL    HW223361   2.025   6.521   2.756
 7488SOL     OW23362   1.905   6.556   5.273
 7488SOL    HW123363   1.994   6.529   5.236
 7488SOL    HW223364   1.849   6.474   5.287
 7489SOL     OW23365   5.037   2.676   4.879
 7489SOL    HW123366   4.968   2.687   4.951
 7489SOL    HW223367   5.016   2.739   4.803
 7490SOL     OW23368   0.953   1.423   1.181
 7490SOL    HW123369   1.010   1.342   1.166
 7490SOL    HW223370   0.870   1.397   1.231
 7491SOL     OW23371   0.164   5.063   6.431
 7491SOL    HW123372   0.240   5.079   6.493
 7491SOL    HW223373   0.193   5.005   6.356
 7492SOL     OW23374   2.703   1.480   4.843
 7492SOL    HW123375   2.660   1.494   4.754
 7492SOL    HW223376   2.801   1.467   4.832
 7493SOL     OW23377   6.011   4.621   6.318
 7493SOL    HW123378   6.036   4.670   6.402
 7493SOL    HW223379   6.058   4.661   6.240
 7494SOL     OW23380   5.935   1.330   2.525
 7494SOL    HW123381   5.937   1.393   2.448
 7494SOL    HW223382   5.840   1.310   2.550
 7495SOL     OW23383   2.575   1.046   1.416
 7495SOL    HW123384   2.485   1.080   1.389
 7495SOL    HW223385   2.645   1.104   1.375
 7496SOL     OW23386   0.794   3.927   6.273
 7496SOL    HW123387   0.893   3.927   6.256
 7496SOL    HW223388   0.775   3.873   6.355
 7497SOL     OW23389   3.219   4.598   1.347
 7497SOL    HW123390   3.231   4.658   1.268
 7497SOL    HW223391   3.126   4.609   1.384
 7498SOL     OW23392   2.326   0.950   3.720
 7498SOL    HW123393   2.370   0.874   3.674
 7498SOL    HW223394   2.348   0.947   3.817
 7499SOL     OW23395   5.979   1.065   3.479
 7499SOL    HW123396   5.936   1.113   3.402
 7499SOL    HW223397   6.045   0.999   3.443
 7500SOL     OW23398   4.138   6.051   2.812
 7500SOL    HW123399   4.160   6.037   2.908
 7500SOL    HW223400   4.191   6.128   2.777
 7501SOL     OW23401   6.534   4.463   4.325
 7501SOL    HW123402   6.567   4.556   4.306
 7501SOL    HW223403   6.445   4.468   4.370
 7502SOL     OW23404   1.271   1.232   5.215
 7502SOL    HW123405   1.305   1.171   5.143
 7502SOL    HW223406   1.281   1.327   5.184
 7503SOL     OW23407   2.635   1.210   6.926
 7503SOL    HW123408   2.717   1.226   6.872
 7503SOL    HW223409   2.658   1.213   0.000
 7504SOL     OW23410   3.602   6.946   3.550
 7504SOL    HW123411   3.628   6.884   3.476
 7504SOL    HW223412   3.504   6.935   3.569
 7505SOL     OW23413   2.718   0.867   5.077
 7505SOL    HW123414   2.767   0.924   5.143
 7505SOL    HW223415   2.691   0.781   5.120
 7506SOL     OW23416   3.993   0.033   2.690
 7506SOL    HW123417   3.938   0.078   2.619
 7506SOL    HW223418   4.077   7.019   2.650
 7507SOL     OW23419   0.061   6.930   0.748
 7507SOL    HW123420   6.995   6.889   0.726
 7507SOL    HW223421   0.088   6.900   0.840
 7508SOL     OW23422   5.448   6.895   2.491
 7508SOL    HW123423   5.438   6.812   2.546
 7508SOL    HW223424   5.499   6.963   2.543
 7509SOL     OW23425   5.642   4.542   1.030
 7509SOL    HW123426   5.666   4.542   0.933
 7509SOL    HW223427   5.612   4.633   1.057
 7510SOL     OW23428   2.733   4.217   5.345
 7510SOL    HW123429   2.749   4.149   5.417
 7510SOL    HW223430   2.808   4.284   5.346
 7511SOL     OW23431   1.685   0.762   2.961
 7511SOL    HW123432   1.650   0.738   3.051
 7511SOL    HW223433   1.781   0.789   2.969
 7512SOL     OW23434   2.983   4.292   1.381
 7512SOL    HW123435   2.887   4.308   1.358
 7512SOL    HW223436   3.035   4.277   1.297
 7513SOL     OW23437   1.794   2.336   0.630
 7513SOL    HW123438   1.884   2.293   0.620
 7513SOL    HW223439   1.770   2.385   0.546
 7514SOL     OW23440   3.233   5.997   2.486
 7514SOL    HW123441   3.316   6.027   2.533
 7514SOL    HW223442   3.249   5.909   2.442
 7515SOL     OW23443   1.530   6.638   2.470
 7515SOL    HW123444   1.440   6.638   2.426
 7515SOL    HW223445   1.597   6.679   2.409
 7516SOL     OW23446   6.970   5.759   4.670
 7516SOL    HW123447   6.960   5.845   4.619
 7516SOL    HW223448   0.038   5.721   4.653
 7517SOL     OW23449   6.651   3.316   2.032
 7517SOL    HW123450   6.676   3.219   2.037
 7517SOL    HW223451   6.649   3.354   2.125
 7518SOL     OW23452   3.650   5.768   3.775
 7518SOL    HW123453   3.639   5.673   3.747
 7518SOL    HW223454   3.746   5.795   3.764
 7519SOL     OW23455   0.250   6.827   3.733
 7519SOL    HW123456   0.335   6.875   3.755
 7519SOL    HW223457   0.191   6.888   3.680
 7520SOL     OW23458   3.227   0.254   2.015
 7520SOL    HW123459   3.281   0.171   2.003
 7520SOL    HW223460   3.218   0.300   1.927
 7521SOL     OW23461   4.500   4.623   5.382
 7521SOL    HW123462   4.464   4.716   5.384
 7521SOL    HW223463   4.532   4.598   5.473
 7522SOL     OW23464   2.689   0.770   6.654
 7522SOL    HW123465   2.731   0.687   6.619
 7522SOL    HW223466   2.623   0.805   6.588
 7523SOL     OW23467   5.075   1.128   5.797
 7523SOL    HW123468   5.005   1.196   5.822
 7523SOL    HW223469   5.031   1.051   5.750
 7524SOL     OW23470   0.550   2.371   5.719
 7524SOL    HW123471   0.531   2.467   5.737
 7524SOL    HW223472   0.551   2.354   5.621
 7525SOL     OW23473   2.816   6.580   6.467
 7525SOL    HW123474   2.719   6.555   6.467
 7525SOL    HW223475   2.866   6.516   6.408
 7526SOL     OW23476   3.748   2.996   2.367
 7526SOL    HW123477   3.741   2.978   2.465
 7526SOL    HW223478   3.666   2.962   2.321
 7527SOL     OW23479   4.628   5.222   3.118
 7527SOL    HW123480   4.726   5.211   3.134
 7527SOL    HW223481   4.577   5.169   3.187
 7528SOL     OW23482   4.476   2.562   6.981
 7528SOL    HW123483   4.493   2.618   0.039
 7528SOL    HW223484   4.404   2.496   7.001
 7529SOL     OW23485   5.512   1.468   4.424
 7529SOL    HW123486   5.546   1.381   4.388
 7529SOL    HW223487   5.579   1.509   4.485
 7530SOL     OW23488   6.012   3.472   2.219
 7530SOL    HW123489   6.042   3.460   2.125
 7530SOL    HW223490   6.092   3.483   2.279
 7531SOL     OW23491   4.144   2.220   4.133
 7531SOL    HW123492   4.226   2.214   4.076
 7531SOL    HW223493   4.170   2.233   4.229
 7532SOL     OW23494   5.273   5.531   1.645
 7532SOL    HW123495   5.241   5.604   1.705
 7532SOL    HW223496   5.249   5.442   1.685
 7533SOL     OW23497   2.458   0.930   3.375
 7533SOL    HW123498   2.456   0.999   3.302
 7533SOL    HW223499   2.553   0.907   3.395
 7534SOL     OW23500   3.529   6.964   4.810
 7534SOL    HW123501   3.490   7.005   4.727
 7534SOL    HW223502   3.614   7.011   4.833
 7535SOL     OW23503   2.886   0.865   5.895
 7535SOL    HW123504   2.913   0.834   5.804
 7535SOL    HW223505   2.808   0.927   5.888
 7536SOL     OW23506   5.477   4.787   4.606
 7536SOL    HW123507   5.511   4.881   4.613
 7536SOL    HW223508   5.515   4.732   4.680
 7537SOL     OW23509   2.090   4.675   5.045
 7537SOL    HW123510   2.181   4.659   5.081
 7537SOL    HW223511   2.093   4.677   4.945
 7538SOL     OW23512   3.137   3.361   2.113
 7538SOL    HW123513   3.138   3.360   2.013
 7538SOL    HW223514   3.135   3.456   2.145
 7539SOL     OW23515   2.861   2.270   4.735
 7539SOL    HW123516   2.872   2.258   4.834
 7539SOL    HW223517   2.949   2.256   4.690
 7540SOL     OW23518   3.265   0.979   5.958
 7540SOL    HW123519   3.289   1.060   5.905
 7540SOL    HW223520   3.194   1.003   6.025
 7541SOL     OW23521   6.853   3.708   5.204
 7541SOL    HW123522   6.777   3.642   5.203
 7541SOL    HW223523   6.839   3.773   5.278
 7542SOL     OW23524   0.177   6.591   6.531
 7542SOL    HW123525   0.238   6.559   6.603
 7542SOL    HW223526   0.201   6.547   6.445
 7543SOL     OW23527   4.132   1.877   0.972
 7543SOL    HW123528   4.141   1.977   0.972
 7543SOL    HW223529   4.222   1.836   0.988
 7544SOL     OW23530   0.433   2.550   3.647
 7544SOL    HW123531   0.381   2.465   3.650
 7544SOL    HW223532   0.390   2.612   3.582
 7545SOL     OW23533   5.301   6.604   2.893
 7545SOL    HW123534   5.226   6.539   2.904
 7545SOL    HW223535   5.281   6.687   2.944
 7546SOL     OW23536   4.369   0.761   1.430
 7546SOL    HW123537   4.464   0.734   1.447
 7546SOL    HW223538   4.348   0.843   1.484
 7547SOL     OW23539   3.752   6.143   0.475
 7547SOL    HW123540   3.784   6.110   0.387
 7547SOL    HW223541   3.780   6.238   0.487
 7548SOL     OW23542   2.864   1.981   0.633
 7548SOL    HW123543   2.859   1.905   0.698
 7548SOL    HW223544   2.856   2.068   0.682
 7549SOL     OW23545   5.948   1.978   1.496
 7549SOL    HW123546   5.918   1.996   1.589
 7549SOL    HW223547   5.991   2.061   1.458
 7550SOL     OW23548   2.542   4.896   1.961
 7550SOL    HW123549   2.527   4.806   2.003
 7550SOL    HW223550   2.638   4.921   1.969
 7551SOL     OW23551   4.563   4.177   6.946
 7551SOL    HW123552   4.522   4.107   7.004
 7551SOL    HW223553   4.516   4.179   6.857
 7552SOL     OW23554   1.941   5.973   4.052
 7552SOL    HW123555   2.001   6.041   4.094
 7552SOL    HW223556   1.996   5.892   4.029
 7553SOL     OW23557   3.914   4.890   5.604
 7553SOL    HW123558   4.013   4.892   5.618
 7553SOL    HW223559   3.881   4.796   5.614
 7554SOL     OW23560   5.217   0.930   0.488
 7554SOL    HW123561   5.311   0.942   0.520
 7554SOL    HW223562   5.209   0.842   0.441
 7555SOL     OW23563   1.292   5.046   4.773
 7555SOL    HW123564   1.379   5.000   4.756
 7555SOL    HW223565   1.224   4.978   4.801
 7556SOL     OW23566   0.827   1.994   5.664
 7556SOL    HW123567   0.872   1.949   5.586
 7556SOL    HW223568   0.849   1.944   5.748
 7557SOL     OW23569   5.457   3.227   6.142
 7557SOL    HW123570   5.489   3.182   6.059
 7557SOL    HW223571   5.433   3.322   6.120
 7558SOL     OW23572   2.457   2.541   3.797
 7558SOL    HW123573   2.422   2.450   3.775
 7558SOL    HW223574   2.381   2.606   3.802
 7559SOL     OW23575   6.309   5.531   1.167
 7559SOL    HW123576   6.368   5.538   1.087
 7559SOL    HW223577   6.365   5.523   1.249
 7560SOL     OW23578   5.566   6.633   6.975
 7560SOL    HW123579   5.558   6.666   0.046
 7560SOL    HW223580   5.598   6.538   6.976
 7561SOL     OW23581   0.760   3.072   0.302
 7561SOL    HW123582   0.673   3.121   0.312
 7561SOL    HW223583   0.756   2.988   0.355
 7562SOL     OW23584   4.482   6.364   4.983
 7562SOL    HW123585   4.427   6.440   4.948
 7562SOL    HW223586   4.432   6.316   5.054
 7563SOL     OW23587   2.792   0.004   0.306
 7563SOL    HW123588   2.781   0.102   0.326
 7563SOL    HW223589   2.706   6.990   0.272
 7564SOL     OW23590   4.705   1.314   2.777
 7564SOL    HW123591   4.622   1.318   2.834
 7564SOL    HW223592   4.687   1.257   2.697
 7565SOL     OW23593   4.923   4.144   6.563
 7565SOL    HW123594   4.859   4.069   6.546
 7565SOL    HW223595   4.878   4.232   6.545
 7566SOL     OW23596   0.923   4.963   3.330
 7566SOL    HW123597   0.978   5.031   3.378
 7566SOL    HW223598   0.982   4.889   3.298
 7567SOL     OW23599   1.888   2.394   5.349
 7567SOL    HW123600   1.793   2.425   5.349
 7567SOL    HW223601   1.923   2.394   5.443
 7568SOL     OW23602   5.682   5.872   4.041
 7568SOL    HW123603   5.713   5.967   4.035
 7568SOL    HW223604   5.757   5.810   4.018
 7569SOL     OW23605   4.011   4.718   5.966
 7569SOL    HW123606   3.945   4.655   5.924
 7569SOL    HW223607   4.014   4.703   6.064
 7570SOL     OW23608   5.276   4.754   5.400
 7570SOL    HW123609   5.350   4.687   5.405
 7570SOL    HW223610   5.234   4.763   5.490
 7571SOL     OW23611   5.497   4.817   2.251
 7571SOL    HW123612   5.461   4.869   2.329
 7571SOL    HW223613   5.429   4.817   2.178
 7572SOL     OW23614   4.789   0.707   3.239
 7572SOL    HW123615   4.777   0.727   3.337
 7572SOL    HW223616   4.737   0.625   3.215
 7573SOL     OW23617   5.894   5.805   4.580
 7573SOL    HW123618   5.890   5.888   4.525
 7573SOL    HW223619   5.957   5.740   4.539
 7574SOL     OW23620   6.587   0.989   4.823
 7574SOL    HW123621   6.618   0.971   4.916
 7574SOL    HW223622   6.565   1.086   4.813
 7575SOL     OW23623   4.520   0.127   5.715
 7575SOL    HW123624   4.475   0.104   5.629
 7575SOL    HW223625   4.567   0.215   5.705
 7576SOL     OW23626   6.248   5.688   0.382
 7576SOL    HW123627   6.215   5.773   0.422
 7576SOL    HW223628   6.255   5.697   0.283
 7577SOL     OW23629   6.903   6.963   5.343
 7577SOL    HW123630   6.907   6.913   5.256
 7577SOL    HW223631   6.889   6.898   5.418
 7578SOL     OW23632   1.956   6.166   3.736
 7578SOL    HW123633   1.967   6.165   3.637
 7578SOL    HW223634   2.046   6.163   3.780
 7579SOL     OW23635   4.439   1.516   2.322
 7579SOL    HW123636   4.401   1.544   2.234
 7579SOL    HW223637   4.481   1.594   2.368
 7580SOL     OW23638   1.396   4.180   4.050
 7580SOL    HW123639   1.411   4.123   3.969
 7580SOL    HW223640   1.477   4.237   4.066
 7581SOL     OW23641   4.806   1.035   1.347
 7581SOL    HW123642   4.762   1.070   1.265
 7581SOL    HW223643   4.737   1.018   1.418
 7582SOL     OW23644   3.665   0.791   0.260
 7582SOL    HW123645   3.589   0.818   0.320
 7582SOL    HW223646   3.666   0.692   0.250
 7583SOL     OW23647   5.880   3.918   1.703
 7583SOL    HW123648   5.791   3.927   1.749
 7583SOL    HW223649   5.918   4.008   1.686
 7584SOL     OW23650   3.358   6.612   1.052
 7584SOL    HW123651   3.291   6.553   1.096
 7584SOL    HW223652   3.379   6.577   0.961
 7585SOL     OW23653   1.835   2.865   5.778
 7585SOL    HW123654   1.813   2.798   5.707
 7585SOL    HW223655   1.902   2.930   5.744
 7586SOL     OW23656   3.780   0.682   3.364
 7586SOL    HW123657   3.864   0.639   3.397
 7586SOL    HW223658   3.726   0.715   3.442
 7587SOL     OW23659   3.475   1.477   6.402
 7587SOL    HW123660   3.415   1.406   6.438
 7587SOL    HW223661   3.561   1.477   6.455
 7588SOL     OW23662   0.541   3.176   2.350
 7588SOL    HW123663   0.473   3.113   2.387
 7588SOL    HW223664   0.583   3.137   2.269
 7589SOL     OW23665   6.042   0.152   0.597
 7589SOL    HW123666   5.976   0.081   0.574
 7589SOL    HW223667   5.994   0.236   0.622
 7590SOL     OW23668   2.714   1.916   6.563
 7590SOL    HW123669   2.629   1.967   6.555
 7590SOL    HW223670   2.787   1.964   6.514
 7591SOL     OW23671   0.125   4.814   0.709
 7591SOL    HW123672   0.141   4.908   0.739
 7591SOL    HW223673   0.166   4.799   0.620
 7592SOL     OW23674   0.262   4.661   6.403
 7592SOL    HW123675   0.349   4.707   6.420
 7592SOL    HW223676   0.192   4.698   6.463
 7593SOL     OW23677   5.423   2.761   0.665
 7593SOL    HW123678   5.371   2.751   0.749
 7593SOL    HW223679   5.417   2.856   0.633
 7594SOL     OW23680   6.813   4.250   2.131
 7594SOL    HW123681   6.846   4.304   2.208
 7594SOL    HW223682   6.891   4.221   2.075
 7595SOL     OW23683   0.236   2.440   5.567
 7595SOL    HW123684   0.296   2.408   5.494
 7595SOL    HW223685   0.211   2.535   5.551
 7596SOL     OW23686   4.462   5.222   2.880
 7596SOL    HW123687   4.381   5.171   2.908
 7596SOL    HW223688   4.530   5.220   2.954
 7597SOL     OW23689   2.948   5.454   1.626
 7597SOL    HW123690   2.880   5.392   1.587
 7597SOL    HW223691   3.039   5.429   1.594
 7598SOL     OW23692   6.973   1.234   2.943
 7598SOL    HW123693   6.970   1.169   2.867
 7598SOL    HW223694   6.881   1.246   2.980
 7599SOL     OW23695   5.522   1.386   3.616
 7599SOL    HW123696   5.592   1.318   3.638
 7599SOL    HW223697   5.436   1.361   3.661
 7600SOL     OW23698   1.926   0.551   2.962
 7600SOL    HW123699   2.024   0.570   2.967
 7600SOL    HW223700   1.874   0.634   2.981
 7601SOL     OW23701   2.151   5.629   2.725
 7601SOL    HW123702   2.190   5.662   2.639
 7601SOL    HW223703   2.208   5.661   2.801
 7602SOL     OW23704   2.124   3.713   5.859
 7602SOL    HW123705   2.169   3.687   5.944
 7602SOL    HW223706   2.173   3.673   5.782
 7603SOL     OW23707   1.139   5.935   6.237
 7603SOL    HW123708   1.214   5.965   6.296
 7603SOL    HW223709   1.054   5.933   6.290
 7604SOL     OW23710   2.176   5.128   4.277
 7604SOL    HW123711   2.253   5.191   4.282
 7604SOL    HW223712   2.105   5.157   4.342
 7605SOL     OW23713   1.356   6.119   0.697
 7605SOL    HW123714   1.356   6.155   0.791
 7605SOL    HW223715   1.262   6.105   0.667
 7606SOL     OW23716   6.984   2.795   2.850
 7606SOL    HW123717   6.965   2.712   2.902
 7606SOL    HW223718   6.898   2.832   2.814
 7607SOL     OW23719   4.172   6.295   0.249
 7607SOL    HW123720   4.081   6.285   0.210
 7607SOL    HW223721   4.236   6.234   0.202
 7608SOL     OW23722   3.483   3.817   3.098
 7608SOL    HW123723   3.385   3.807   3.112
 7608SOL    HW223724   3.531   3.797   3.184
 7609SOL     OW23725   6.983   4.353   3.599
 7609SOL    HW123726   6.952   4.335   3.506
 7609SOL    HW223727   6.910   4.331   3.663
 7610SOL     OW23728   6.239   0.620   6.669
 7610SOL    HW123729   6.262   0.532   6.710
 7610SOL    HW223730   6.160   0.610   6.608
 7611SOL     OW23731   1.083   2.003   6.970
 7611SOL    HW123732   1.115   2.071   0.013
 7611SOL    HW223733   1.115   1.912   6.997
 7612SOL     OW23734   4.523   2.540   4.517
 7612SOL    HW123735   4.431   2.573   4.538
 7612SOL    HW223736   4.532   2.525   4.419
 7613SOL     OW23737   5.281   2.025   2.018
 7613SOL    HW123738   5.258   2.031   1.921
 7613SOL    HW223739   5.243   1.941   2.056
 7614SOL     OW23740   4.768   2.842   1.467
 7614SOL    HW123741   4.843   2.840   1.401
 7614SOL    HW223742   4.724   2.753   1.471
 7615SOL     OW23743   5.145   4.314   5.855
 7615SOL    HW123744   5.173   4.281   5.765
 7615SOL    HW223745   5.173   4.410   5.865
 7616SOL     OW23746   6.892   4.504   4.452
 7616SOL    HW123747   6.958   4.509   4.527
 7616SOL    HW223748   6.800   4.514   4.489
 7617SOL     OW23749   3.123   5.550   2.505
 7617SOL    HW123750   3.071   5.622   2.458
 7617SOL    HW223751   3.191   5.592   2.566
 7618SOL     OW23752   0.704   2.631   6.885
 7618SOL    HW123753   0.748   2.666   6.801
 7618SOL    HW223754   0.775   2.606   6.951
 7619SOL     OW23755   5.895   3.684   4.793
 7619SOL    HW123756   5.849   3.638   4.868
 7619SOL    HW223757   5.988   3.709   4.821
 7620SOL     OW23758   4.006   5.309   0.094
 7620SOL    HW123759   4.050   5.252   0.164
 7620SOL    HW223760   3.942   5.253   0.042
 7621SOL     OW23761   0.836   1.329   0.698
 7621SOL    HW123762   0.823   1.410   0.755
 7621SOL    HW223763   0.749   1.281   0.688
 7622SOL     OW23764   5.029   4.839   1.658
 7622SOL    HW123765   5.075   4.925   1.637
 7622SOL    HW223766   4.986   4.803   1.575
 7623SOL     OW23767   4.702   4.342   6.493
 7623SOL    HW123768   4.714   4.419   6.430
 7623SOL    HW223769   4.658   4.374   6.576
 7624SOL     OW23770   0.041   3.050   4.460
 7624SOL    HW123771   0.106   3.063   4.534
 7624SOL    HW223772   7.012   3.134   4.445
 7625SOL     OW23773   4.328   0.352   1.856
 7625SOL    HW123774   4.294   0.425   1.916
 7625SOL    HW223775   4.400   0.388   1.796
 7626SOL     OW23776   6.991   6.461   4.558
 7626SOL    HW123777   6.999   6.557   4.531
 7626SOL    HW223778   6.950   6.455   4.649
 7627SOL     OW23779   5.560   3.448   0.165
 7627SOL    HW123780   5.537   3.518   0.097
 7627SOL    HW223781   5.527   3.359   0.134
 7628SOL     OW23782   3.081   0.768   1.635
 7628SOL    HW123783   3.016   0.844   1.636
 7628SOL    HW223784   3.033   0.682   1.650
 7629SOL     OW23785   6.439   6.724   2.907
 7629SOL    HW123786   6.414   6.794   2.974
 7629SOL    HW223787   6.387   6.640   2.925
 7630SOL     OW23788   5.249   6.856   2.053
 7630SOL    HW123789   5.202   6.825   2.136
 7630SOL    HW223790   5.283   6.949   2.067
 7631SOL     OW23791   0.555   0.953   5.283
 7631SOL    HW123792   0.651   0.937   5.304
 7631SOL    HW223793   0.542   1.047   5.251
 7632SOL     OW23794   3.528   2.456   1.727
 7632SOL    HW123795   3.606   2.518   1.716
 7632SOL    HW223796   3.562   2.365   1.754
 7633SOL     OW23797   4.519   2.645   0.261
 7633SOL    HW123798   4.429   2.666   0.297
 7633SOL    HW223799   4.575   2.602   0.331
 7634SOL     OW23800   1.697   1.313   2.136
 7634SOL    HW123801   1.645   1.382   2.085
 7634SOL    HW223802   1.783   1.354   2.168
 7635SOL     OW23803   2.833   5.770   5.033
 7635SOL    HW123804   2.884   5.692   4.995
 7635SOL    HW223805   2.744   5.777   4.988
 7636SOL     OW23806   1.558   1.360   3.081
 7636SOL    HW123807   1.520   1.275   3.115
 7636SOL    HW223808   1.647   1.377   3.124
 7637SOL     OW23809   2.878   6.693   2.362
 7637SOL    HW123810   2.939   6.743   2.423
 7637SOL    HW223811   2.918   6.604   2.339
 7638SOL     OW23812   4.366   6.050   2.099
 7638SOL    HW123813   4.354   6.114   2.175
 7638SOL    HW223814   4.395   5.961   2.135
 7639SOL     OW23815   1.645   2.363   0.862
 7639SOL    HW123816   1.689   2.299   0.925
 7639SOL    HW223817   1.695   2.365   0.776
 7640SOL     OW23818   3.324   2.103   0.371
 7640SOL    HW123819   3.230   2.073   0.361
 7640SOL    HW223820   3.386   2.028   0.348
 7641SOL     OW23821   0.817   4.558   1.913
 7641SOL    HW123822   0.757   4.618   1.859
 7641SOL    HW223823   0.762   4.493   1.965
 7642SOL     OW23824   2.884   1.405   2.915
 7642SOL    HW123825   2.850   1.472   2.849
 7642SOL    HW223826   2.852   1.313   2.890
 7643SOL     OW23827   4.939   2.610   4.157
 7643SOL    HW123828   4.986   2.560   4.083
 7643SOL    HW223829   5.007   2.656   4.214
 7644SOL     OW23830   6.070   2.622   2.724
 7644SOL    HW123831   6.155   2.656   2.685
 7644SOL    HW223832   6.048   2.533   2.684
 7645SOL     OW23833   4.229   4.061   5.401
 7645SOL    HW123834   4.209   3.964   5.415
 7645SOL    HW223835   4.213   4.111   5.486
 7646SOL     OW23836   2.038   2.358   2.307
 7646SOL    HW123837   2.005   2.279   2.358
 7646SOL    HW223838   2.096   2.414   2.366
 7647SOL     OW23839   0.568   3.172   1.767
 7647SOL    HW123840   0.524   3.144   1.682
 7647SOL    HW223841   0.513   3.143   1.845
 7648SOL     OW23842   3.728   1.937   3.589
 7648SOL    HW123843   3.737   1.961   3.686
 7648SOL    HW223844   3.699   2.017   3.538
 7649SOL     OW23845   1.098   1.292   3.015
 7649SOL    HW123846   1.082   1.391   3.018
 7649SOL    HW223847   1.079   1.259   2.923
 7650SOL     OW23848   5.176   2.769   1.501
 7650SOL    HW123849   5.163   2.672   1.521
 7650SOL    HW223850   5.162   2.823   1.584
 7651SOL     OW23851   2.748   6.607   4.688
 7651SOL    HW123852   2.755   6.706   4.703
 7651SOL    HW223853   2.656   6.584   4.657
 7652SOL     OW23854   0.175   4.139   4.018
 7652SOL    HW123855   0.085   4.133   3.973
 7652SOL    HW223856   0.245   4.101   3.958
 7653SOL     OW23857   2.556   1.798   0.702
 7653SOL    HW123858   2.505   1.767   0.782
 7653SOL    HW223859   2.547   1.897   0.693
 7654SOL     OW23860   4.886   3.435   3.987
 7654SOL    HW123861   4.974   3.397   3.958
 7654SOL    HW223862   4.862   3.514   3.930
 7655SOL     OW23863   3.644   0.125   3.274
 7655SOL    HW123864   3.603   0.158   3.359
 7655SOL    HW223865   3.732   0.169   3.260
 7656SOL     OW23866   1.383   5.167   6.507
 7656SOL    HW123867   1.430   5.079   6.500
 7656SOL    HW223868   1.447   5.241   6.486
 7657SOL     OW23869   2.385   2.698   3.326
 7657SOL    HW123870   2.370   2.792   3.356
 7657SOL    HW223871   2.409   2.641   3.404
 7658SOL     OW23872   3.973   6.093   5.828
 7658SOL    HW123873   3.968   6.007   5.880
 7658SOL    HW223874   4.061   6.098   5.782
 7659SOL     OW23875   5.259   5.603   6.861
 7659SOL    HW123876   5.209   5.641   6.939
 7659SOL    HW223877   5.235   5.507   6.849
 7660SOL     OW23878   6.317   6.214   4.350
 7660SOL    HW123879   6.402   6.169   4.323
 7660SOL    HW223880   6.298   6.193   4.446
 7661SOL     OW23881   5.973   2.466   4.508
 7661SOL    HW123882   5.968   2.378   4.460
 7661SOL    HW223883   6.053   2.517   4.476
 7662SOL     OW23884   0.894   2.403   2.449
 7662SOL    HW123885   0.901   2.330   2.380
 7662SOL    HW223886   0.985   2.425   2.484
 7663SOL     OW23887   6.608   7.000   6.438
 7663SOL    HW123888   6.564   6.953   6.514
 7663SOL    HW223889   6.666   6.936   6.387
 7664SOL     OW23890   3.797   1.069   2.253
 7664SOL    HW123891   3.705   1.045   2.220
 7664SOL    HW223892   3.791   1.103   2.347
 7665SOL     OW23893   4.563   7.004   4.581
 7665SOL    HW123894   4.522   6.978   4.669
 7665SOL    HW223895   4.531   0.072   4.555
 7666SOL     OW23896   0.682   6.742   1.317
 7666SOL    HW123897   0.620   6.731   1.239
 7666SOL    HW223898   0.637   6.797   1.387
 7667SOL     OW23899   4.502   6.014   1.316
 7667SOL    HW123900   4.574   5.991   1.249
 7667SOL    HW223901   4.532   5.988   1.407
 7668SOL     OW23902   2.934   4.199   1.092
 7668SOL    HW123903   2.879   4.272   1.133
 7668SOL    HW223904   2.918   4.114   1.142
 7669SOL     OW23905   5.445   2.060   5.770
 7669SOL    HW123906   5.414   2.056   5.675
 7669SOL    HW223907   5.514   2.132   5.779
 7670SOL     OW23908   1.428   5.262   6.216
 7670SOL    HW123909   1.481   5.193   6.166
 7670SOL    HW223910   1.344   5.282   6.166
 7671SOL     OW23911   4.371   0.827   4.986
 7671SOL    HW123912   4.408   0.800   4.897
 7671SOL    HW223913   4.445   0.857   5.046
 7672SOL     OW23914   5.814   6.321   3.798
 7672SOL    HW123915   5.909   6.337   3.772
 7672SOL    HW223916   5.789   6.384   3.872
 7673SOL     OW23917   2.060   5.311   0.158
 7673SOL    HW123918   1.974   5.331   0.204
 7673SOL    HW223919   2.134   5.306   0.225
 7674SOL     OW23920   6.094   2.607   3.939
 7674SOL    HW123921   6.183   2.631   3.900
 7674SOL    HW223922   6.088   2.639   4.034
 7675SOL     OW23923   4.766   1.002   2.906
 7675SOL    HW123924   4.714   0.998   2.991
 7675SOL    HW223925   4.721   1.062   2.841
 7676SOL     OW23926   1.448   2.409   0.455
 7676SOL    HW123927   1.529   2.384   0.402
 7676SOL    HW223928   1.469   2.489   0.511
 7677SOL     OW23929   0.016   4.017   2.421
 7677SOL    HW123930   0.108   4.047   2.447
 7677SOL    HW223931   0.017   3.987   2.326
 7678SOL     OW23932   2.013   1.268   5.746
 7678SOL    HW123933   2.092   1.211   5.766
 7678SOL    HW223934   2.007   1.341   5.814
 7679SOL     OW23935   1.974   6.078   5.554
 7679SOL    HW123936   1.951   5.997   5.500
 7679SOL    HW223937   2.039   6.053   5.626
 7680SOL     OW23938   2.023   2.697   0.053
 7680SOL    HW123939   2.077   2.769   0.096
 7680SOL    HW223940   1.932   2.693   0.094
 7681SOL     OW23941   3.060   6.736   0.038
 7681SOL    HW123942   3.153   6.773   0.030
 7681SOL    HW223943   3.019   6.768   0.124
 7682SOL     OW23944   3.638   0.428   1.759
 7682SOL    HW123945   3.631   0.338   1.802
 7682SOL    HW223946   3.558   0.482   1.782
 7683SOL     OW23947   6.866   1.967   4.197
 7683SOL    HW123948   6.877   2.066   4.184
 7683SOL    HW223949   6.830   1.926   4.113
 7684SOL     OW23950   4.567   1.980   0.564
 7684SOL    HW123951   4.601   2.036   0.489
 7684SOL    HW223952   4.571   1.883   0.539
 7685SOL     OW23953   3.356   3.396   6.868
 7685SOL    HW123954   3.386   3.381   6.774
 7685SOL    HW223955   3.261   3.368   6.878
 7686SOL     OW23956   5.205   0.341   3.247
 7686SOL    HW123957   5.204   0.249   3.287
 7686SOL    HW223958   5.114   0.363   3.213
 7687SOL     OW23959   5.818   5.038   5.485
 7687SOL    HW123960   5.746   5.107   5.478
 7687SOL    HW223961   5.889   5.070   5.548
 7688SOL     OW23962   0.337   0.317   5.750
 7688SOL    HW123963   0.370   0.411   5.741
 7688SOL    HW223964   0.399   0.255   5.701
 7689SOL     OW23965   5.151   5.725   3.180
 7689SOL    HW123966   5.211   5.783   3.235
 7689SOL    HW223967   5.199   5.639   3.158
 7690SOL     OW23968   6.362   5.067   0.968
 7690SOL    HW123969   6.314   4.980   0.978
 7690SOL    HW223970   6.295   5.139   0.947
 7691SOL     OW23971   5.666   3.057   4.335
 7691SOL    HW123972   5.669   3.152   4.303
 7691SOL    HW223973   5.591   3.046   4.400
 7692SOL     OW23974   1.006   6.729   1.845
 7692SOL    HW123975   1.013   6.823   1.812
 7692SOL    HW223976   1.093   6.681   1.829
 7693SOL     OW23977   3.982   6.902   1.241
 7693SOL    HW123978   4.054   6.967   1.216
 7693SOL    HW223979   4.020   6.833   1.303
 7694SOL     OW23980   6.938   4.343   4.018
 7694SOL    HW123981   6.961   4.259   3.969
 7694SOL    HW223982   6.930   4.324   4.116
 7695SOL     OW23983   3.536   6.427   0.393
 7695SOL    HW123984   3.514   6.524   0.385
 7695SOL    HW223985   3.453   6.376   0.414
 7696SOL     OW23986   6.639   1.467   4.797
 7696SOL    HW123987   6.656   1.564   4.783
 7696SOL    HW223988   6.716   1.414   4.759
 7697SOL     OW23989   3.224   0.630   2.750
 7697SOL    HW123990   3.239   0.717   2.798
 7697SOL    HW223991   3.160   0.574   2.803
 7698SOL     OW23992   0.073   2.771   4.643
 7698SOL    HW123993   0.016   2.699   4.604
 7698SOL    HW223994   0.152   2.786   4.585
 7699SOL     OW23995   4.109   5.559   6.785
 7699SOL    HW123996   4.083   5.555   6.882
 7699SOL    HW223997   4.160   5.476   6.761
 7700SOL     OW23998   4.537   6.271   5.385
 7700SOL    HW123999   4.515   6.198   5.320
 7700SOL    HW224000   4.607   6.330   5.345
 7701SOL     OW24001   6.735   1.898   6.247
 7701SOL    HW124002   6.810   1.965   6.239
 7701SOL    HW224003   6.660   1.939   6.299
 7702SOL     OW24004   3.095   6.317   5.998
 7702SOL    HW124005   3.116   6.264   5.916
 7702SOL    HW224006   2.997   6.337   6.001
 7703SOL     OW24007   6.864   0.936   4.507
 7703SOL    HW124008   6.810   0.999   4.451
 7703SOL    HW224009   6.802   0.878   4.561
 7704SOL     OW24010   5.150   4.643   5.163
 7704SOL    HW124011   5.205   4.560   5.165
 7704SOL    HW224012   5.158   4.691   5.250
 7705SOL     OW24013   3.951   5.179   6.095
 7705SOL    HW124014   3.938   5.251   6.027
 7705SOL    HW224015   3.891   5.102   6.074
 7706SOL     OW24016   4.572   1.672   5.650
 7706SOL    HW124017   4.583   1.715   5.560
 7706SOL    HW224018   4.476   1.652   5.666
 7707SOL     OW24019   1.054   6.190   6.431
 7707SOL    HW124020   1.124   6.134   6.386
 7707SOL    HW224021   1.052   6.169   6.528
 7708SOL     OW24022   4.978   6.106   5.377
 7708SOL    HW124023   5.068   6.076   5.347
 7708SOL    HW224024   4.969   6.093   5.476
 7709SOL     OW24025   5.675   3.996   1.492
 7709SOL    HW124026   5.663   4.013   1.590
 7709SOL    HW224027   5.643   3.904   1.470
 7710SOL     OW24028   3.357   0.750   1.027
 7710SOL    HW124029   3.290   0.791   0.966
 7710SOL    HW224030   3.348   0.789   1.118
 7711SOL     OW24031   5.975   6.118   5.125
 7711SOL    HW124032   5.913   6.061   5.071
 7711SOL    HW224033   5.949   6.214   5.117
 7712SOL     OW24034   5.922   4.058   1.358
 7712SOL    HW124035   5.952   4.153   1.354
 7712SOL    HW224036   5.834   4.052   1.404
 7713SOL     OW24037   1.516   4.606   0.397
 7713SOL    HW124038   1.500   4.665   0.477
 7713SOL    HW224039   1.614   4.604   0.378
 7714SOL     OW24040   6.274   5.557   5.397
 7714SOL    HW124041   6.221   5.512   5.325
 7714SOL    HW224042   6.266   5.656   5.387
 7715SOL     OW24043   4.557   1.544   0.961
 7715SOL    HW124044   4.630   1.511   0.902
 7715SOL    HW224045   4.532   1.637   0.935
 7716SOL     OW24046   6.257   4.082   3.444
 7716SOL    HW124047   6.232   3.989   3.415
 7716SOL    HW224048   6.263   4.085   3.544
 7717SOL     OW24049   2.367   1.035   5.227
 7717SOL    HW124050   2.322   1.065   5.311
 7717SOL    HW224051   2.438   1.100   5.202
 7718SOL     OW24052   1.947   1.792   2.928
 7718SOL    HW124053   1.885   1.726   2.886
 7718SOL    HW224054   2.042   1.769   2.904
 7719SOL     OW24055   0.077   4.128   4.426
 7719SOL    HW124056   0.105   4.074   4.347
 7719SOL    HW224057   0.064   4.224   4.399
 7720SOL     OW24058   6.809   0.111   0.503
 7720SOL    HW124059   6.772   0.061   0.424
 7720SOL    HW224060   6.808   0.051   0.583
 7721SOL     OW24061   1.363   4.805   2.200
 7721SOL    HW124062   1.311   4.762   2.274
 7721SOL    HW224063   1.307   4.875   2.156
 7722SOL     OW24064   0.162   5.728   2.569
 7722SOL    HW124065   0.195   5.687   2.654
 7722SOL    HW224066   0.115   5.658   2.514
 7723SOL     OW24067   6.647   3.613   6.932
 7723SOL    HW124068   6.719   3.673   6.966
 7723SOL    HW224069   6.687   3.525   6.905
 7724SOL     OW24070   2.448   4.265   1.982
 7724SOL    HW124071   2.406   4.262   1.891
 7724SOL    HW224072   2.441   4.175   2.025
 7725SOL     OW24073   5.027   2.881   3.880
 7725SOL    HW124074   4.965   2.811   3.915
 7725SOL    HW224075   5.109   2.885   3.937
 7726SOL     OW24076   0.629   5.518   4.207
 7726SOL    HW124077   0.692   5.494   4.133
 7726SOL    HW224078   0.613   5.438   4.265
 7727SOL     OW24079   6.682   0.934   3.205
 7727SOL    HW124080   6.726   0.926   3.294
 7727SOL    HW224081   6.733   0.880   3.138
 7728SOL     OW24082   1.057   4.655   3.446
 7728SOL    HW124083   1.052   4.556   3.457
 7728SOL    HW224084   1.082   4.677   3.352
 7729SOL     OW24085   5.934   3.221   1.334
 7729SOL    HW124086   5.988   3.268   1.264
 7729SOL    HW224087   5.912   3.285   1.408
 7730SOL     OW24088   6.026   5.573   1.970
 7730SOL    HW124089   5.942   5.529   2.000
 7730SOL    HW224090   6.049   5.543   1.877
 7731SOL     OW24091   6.715   0.923   0.829
 7731SOL    HW124092   6.658   0.860   0.882
 7731SOL    HW224093   6.686   1.017   0.848
 7732SOL     OW24094   4.430   6.033   0.830
 7732SOL    HW124095   4.482   6.116   0.846
 7732SOL    HW224096   4.491   5.954   0.835
 7733SOL     OW24097   4.015   6.564   2.208
 7733SOL    HW124098   4.018   6.617   2.293
 7733SOL    HW224099   4.092   6.589   2.149
 7734SOL     OW24100   2.362   4.456   3.651
 7734SOL    HW124101   2.287   4.391   3.658
 7734SOL    HW224102   2.358   4.503   3.563
 7735SOL     OW24103   4.477   5.984   6.512
 7735SOL    HW124104   4.463   6.082   6.522
 7735SOL    HW224105   4.516   5.965   6.422
 7736SOL     OW24106   4.683   3.898   6.770
 7736SOL    HW124107   4.641   3.971   6.716
 7736SOL    HW224108   4.729   3.937   6.849
 7737SOL     OW24109   4.141   0.678   1.626
 7737SOL    HW124110   4.097   0.767   1.618
 7737SOL    HW224111   4.081   0.607   1.588
 7738SOL     OW24112   1.601   5.400   6.513
 7738SOL    HW124113   1.541   5.444   6.446
 7738SOL    HW224114   1.674   5.463   6.537
 7739SOL     OW24115   0.625   1.670   1.843
 7739SOL    HW124116   0.645   1.587   1.894
 7739SOL    HW224117   0.677   1.671   1.757
 7740SOL     OW24118   1.497   0.504   3.044
 7740SOL    HW124119   1.499   0.521   2.946
 7740SOL    HW224120   1.564   0.433   3.067
 7741SOL     OW24121   1.505   6.086   4.164
 7741SOL    HW124122   1.432   6.022   4.145
 7741SOL    HW224123   1.538   6.072   4.257
 7742SOL     OW24124   6.164   1.948   3.427
 7742SOL    HW124125   6.087   1.962   3.365
 7742SOL    HW224126   6.250   1.969   3.379
 7743SOL     OW24127   4.548   2.358   6.424
 7743SOL    HW124128   4.642   2.339   6.450
 7743SOL    HW224129   4.530   2.456   6.434
 7744SOL     OW24130   0.193   6.052   3.827
 7744SOL    HW124131   0.160   6.145   3.806
 7744SOL    HW224132   0.291   6.047   3.808
 7745SOL     OW24133   3.613   1.179   5.970
 7745SOL    HW124134   3.591   1.174   6.067
 7745SOL    HW224135   3.694   1.236   5.956
 7746SOL     OW24136   2.149   6.584   6.716
 7746SOL    HW124137   2.241   6.621   6.724
 7746SOL    HW224138   2.135   6.550   6.622
 7747SOL     OW24139   4.337   5.820   1.214
 7747SOL    HW124140   4.367   5.908   1.250
 7747SOL    HW224141   4.266   5.835   1.144
 7748SOL     OW24142   3.490   4.001   6.091
 7748SOL    HW124143   3.521   3.912   6.057
 7748SOL    HW224144   3.524   4.073   6.031
 7749SOL     OW24145   3.299   3.320   5.578
 7749SOL    HW124146   3.203   3.313   5.552
 7749SOL    HW224147   3.342   3.230   5.572
 7750SOL     OW24148   6.965   5.942   1.528
 7750SOL    HW124149   6.984   6.004   1.604
 7750SOL    HW224150   6.996   5.983   1.442
 7751SOL     OW24151   1.743   0.991   2.367
 7751SOL    HW124152   1.784   1.011   2.278
 7751SOL    HW224153   1.814   0.992   2.438
 7752SOL     OW24154   5.245   0.328   5.611
 7752SOL    HW124155   5.306   0.405   5.631
 7752SOL    HW224156   5.225   0.326   5.513
 7753SOL     OW24157   2.235   2.001   4.845
 7753SOL    HW124158   2.155   2.002   4.784
 7753SOL    HW224159   2.301   1.934   4.813
 7754SOL     OW24160   3.690   5.864   1.733
 7754SOL    HW124161   3.655   5.948   1.692
 7754SOL    HW224162   3.788   5.872   1.750
 7755SOL     OW24163   1.181   3.032   6.227
 7755SOL    HW124164   1.195   2.938   6.259
 7755SOL    HW224165   1.196   3.095   6.303
 7756SOL     OW24166   3.342   6.182   1.277
 7756SOL    HW124167   3.339   6.173   1.177
 7756SOL    HW224168   3.294   6.105   1.319
 7757SOL     OW24169   6.926   4.647   1.626
 7757SOL    HW124170   6.872   4.718   1.673
 7757SOL    HW224171   6.945   4.677   1.533
 7758SOL     OW24172   1.619   6.425   6.357
 7758SOL    HW124173   1.698   6.393   6.411
 7758SOL    HW224174   1.592   6.354   6.292
 7759SOL     OW24175   2.751   1.796   5.667
 7759SOL    HW124176   2.798   1.852   5.735
 7759SOL    HW224177   2.767   1.834   5.576
 7760SOL     OW24178   4.988   2.343   2.050
 7760SOL    HW124179   5.065   2.360   1.988
 7760SOL    HW224180   5.022   2.305   2.136
 7761SOL     OW24181   6.256   6.075   4.715
 7761SOL    HW124182   6.343   6.100   4.672
 7761SOL    HW224183   6.214   6.157   4.755
 7762SOL     OW24184   1.837   0.464   3.711
 7762SOL    HW124185   1.771   0.538   3.703
 7762SOL    HW224186   1.842   0.414   3.624
 7763SOL     OW24187   2.280   6.806   6.261
 7763SOL    HW124188   2.184   6.814   6.234
 7763SOL    HW224189   2.331   6.758   6.190
 7764SOL     OW24190   2.948   4.428   6.236
 7764SOL    HW124191   3.019   4.365   6.268
 7764SOL    HW224192   2.985   4.521   6.230
 7765SOL     OW24193   6.559   3.327   4.393
 7765SOL    HW124194   6.477   3.273   4.372
 7765SOL    HW224195   6.633   3.299   4.332
 7766SOL     OW24196   0.323   4.165   0.458
 7766SOL    HW124197   0.239   4.153   0.406
 7766SOL    HW224198   0.398   4.116   0.412
 7767SOL     OW24199   4.391   6.565   2.631
 7767SOL    HW124200   4.375   6.545   2.534
 7767SOL    HW224201   4.488   6.552   2.651
 7768SOL     OW24202   4.779   4.571   3.582
 7768SOL    HW124203   4.803   4.551   3.677
 7768SOL    HW224204   4.776   4.670   3.568
 7769SOL     OW24205   3.861   1.712   5.024
 7769SOL    HW124206   3.792   1.699   5.095
 7769SOL    HW224207   3.819   1.701   4.934
 7770SOL     OW24208   0.066   3.581   4.737
 7770SOL    HW124209   0.090   3.645   4.810
 7770SOL    HW224210   0.135   3.509   4.732
 7771SOL     OW24211   2.689   1.699   6.203
 7771SOL    HW124212   2.717   1.657   6.289
 7771SOL    HW224213   2.600   1.663   6.175
 7772SOL     OW24214   5.115   0.994   0.779
 7772SOL    HW124215   5.155   0.903   0.768
 7772SOL    HW224216   5.089   1.030   0.690
 7773SOL     OW24217   2.527   5.770   6.083
 7773SOL    HW124218   2.559   5.839   6.148
 7773SOL    HW224219   2.570   5.682   6.104
 7774SOL     OW24220   4.869   2.289   4.748
 7774SOL    HW124221   4.773   2.266   4.765
 7774SOL    HW224222   4.889   2.279   4.651
 7775SOL     OW24223   3.883   6.703   0.391
 7775SOL    HW124224   3.982   6.700   0.377
 7775SOL    HW224225   3.854   6.796   0.414
 7776SOL     OW24226   0.378   6.626   6.126
 7776SOL    HW124227   0.344   6.708   6.080
 7776SOL    HW224228   0.411   6.562   6.057
 7777SOL     OW24229   6.596   5.755   4.895
 7777SOL    HW124230   6.501   5.726   4.887
 7777SOL    HW224231   6.612   5.834   4.836
 7778SOL     OW24232   5.475   4.520   2.240
 7778SOL    HW124233   5.563   4.484   2.271
 7778SOL    HW224234   5.463   4.613   2.273
 7779SOL     OW24235   3.148   0.252   2.851
 7779SOL    HW124236   3.195   0.314   2.914
 7779SOL    HW224237   3.142   0.161   2.891
 7780SOL     OW24238   6.794   6.413   5.595
 7780SOL    HW124239   6.752   6.464   5.520
 7780SOL    HW224240   6.728   6.407   5.671
 7781SOL     OW24241   1.501   4.091   0.431
 7781SOL    HW124242   1.505   4.189   0.414
 7781SOL    HW224243   1.554   4.069   0.512
 7782SOL     OW24244   5.830   5.039   3.241
 7782SOL    HW124245   5.833   4.990   3.329
 7782SOL    HW224246   5.863   4.978   3.169
 7783SOL     OW24247   0.549   0.003   6.187
 7783SOL    HW124248   0.602   6.964   6.129
 7783SOL    HW224249   0.525   0.085   6.136
 7784SOL     OW24250   2.982   2.564   1.646
 7784SOL    HW124251   3.063   2.608   1.684
 7784SOL    HW224252   2.944   2.501   1.713
 7785SOL     OW24253   1.307   6.731   3.645
 7785SOL    HW124254   1.310   6.743   3.744
 7785SOL    HW224255   1.243   6.658   3.622
 7786SOL     OW24256   4.353   0.740   0.187
 7786SOL    HW124257   4.364   0.728   0.088
 7786SOL    HW224258   4.300   0.823   0.204
 7787SOL     OW24259   2.539   3.034   0.731
 7787SOL    HW124260   2.461   3.085   0.767
 7787SOL    HW224261   2.521   3.009   0.636
 7788SOL     OW24262   1.552   6.712   2.129
 7788SOL    HW124263   1.608   6.666   2.060
 7788SOL    HW224264   1.525   6.646   2.199
 7789SOL     OW24265   3.297   0.176   6.303
 7789SOL    HW124266   3.285   0.178   6.402
 7789SOL    HW224267   3.385   0.216   6.279
 7790SOL     OW24268   6.522   4.952   2.461
 7790SOL    HW124269   6.485   4.980   2.372
 7790SOL    HW224270   6.496   5.020   2.529
 7791SOL     OW24271   2.544   5.569   1.865
 7791SOL    HW124272   2.510   5.491   1.918
 7791SOL    HW224273   2.467   5.621   1.828
 7792SOL     OW24274   0.590   0.801   2.743
 7792SOL    HW124275   0.595   0.794   2.644
 7792SOL    HW224276   0.546   0.719   2.780
 7793SOL     OW24277   4.879   0.471   6.593
 7793SOL    HW124278   4.916   0.511   6.677
 7793SOL    HW224279   4.933   0.502   6.515
 7794SOL     OW24280   0.496   5.547   2.052
 7794SOL    HW124281   0.413   5.512   2.095
 7794SOL    HW224282   0.508   5.504   1.962
 7795SOL     OW24283   3.201   5.429   5.588
 7795SOL    HW124284   3.220   5.524   5.564
 7795SOL    HW224285   3.284   5.374   5.577
 7796SOL     OW24286   3.512   2.847   5.594
 7796SOL    HW124287   3.593   2.861   5.651
 7796SOL    HW224288   3.537   2.791   5.514
 7797SOL     OW24289   1.260   4.978   1.476
 7797SOL    HW124290   1.323   5.046   1.513
 7797SOL    HW224291   1.208   5.017   1.400
 7798SOL     OW24292   1.520   1.462   2.394
 7798SOL    HW124293   1.444   1.401   2.416
 7798SOL    HW224294   1.508   1.497   2.301
 7799SOL     OW24295   2.877   5.917   2.847
 7799SOL    HW124296   2.798   5.975   2.867
 7799SOL    HW224297   2.946   5.969   2.798
 7800SOL     OW24298   0.692   5.863   2.421
 7800SOL    HW124299   0.664   5.823   2.334
 7800SOL    HW224300   0.616   5.857   2.486
 7801SOL     OW24301   1.725   1.677   2.794
 7801SOL    HW124302   1.700   1.603   2.732
 7801SOL    HW224303   1.654   1.687   2.863
 7802SOL     OW24304   6.887   4.256   6.950
 7802SOL    HW124305   6.930   4.292   0.010
 7802SOL    HW224306   6.926   4.304   6.870
 7803SOL     OW24307   4.941   2.135   0.040
 7803SOL    HW124308   5.031   2.108   0.074
 7803SOL    HW224309   4.909   2.067   6.996
 7804SOL     OW24310   3.657   1.768   4.273
 7804SOL    HW124311   3.746   1.810   4.255
 7804SOL    HW224312   3.599   1.832   4.323
 7805SOL     OW24313   4.878   3.224   2.523
 7805SOL    HW124314   4.852   3.207   2.428
 7805SOL    HW224315   4.867   3.140   2.576
 7806SOL     OW24316   6.680   2.375   6.153
 7806SOL    HW124317   6.584   2.373   6.124
 7806SOL    HW224318   6.732   2.436   6.092
 7807SOL     OW24319   1.263   4.330   5.534
 7807SOL    HW124320   1.261   4.282   5.622
 7807SOL    HW224321   1.335   4.292   5.477
 7808SOL     OW24322   4.864   4.053   2.403
 7808SOL    HW124323   4.816   4.031   2.318
 7808SOL    HW224324   4.940   4.116   2.384
 7809SOL     OW24325   5.213   4.862   4.638
 7809SOL    HW124326   5.302   4.820   4.622
 7809SOL    HW224327   5.223   4.961   4.648
 7810SOL     OW24328   3.830   6.967   4.763
 7810SOL    HW124329   3.919   7.008   4.744
 7810SOL    HW224330   3.809   6.899   4.693
 7811SOL     OW24331   1.564   5.689   3.329
 7811SOL    HW124332   1.571   5.782   3.365
 7811SOL    HW224333   1.651   5.642   3.344
 7812SOL     OW24334   2.277   3.224   5.234
 7812SOL    HW124335   2.206   3.156   5.251
 7812SOL    HW224336   2.365   3.179   5.221
 7813SOL     OW24337   4.545   2.876   1.329
 7813SOL    HW124338   4.629   2.883   1.382
 7813SOL    HW224339   4.466   2.885   1.390
 7814SOL     OW24340   6.547   3.296   2.646
 7814SOL    HW124341   6.554   3.205   2.607
 7814SOL    HW224342   6.625   3.352   2.615
 7815SOL     OW24343   5.639   2.140   5.339
 7815SOL    HW124344   5.588   2.136   5.253
 7815SOL    HW224345   5.575   2.139   5.416
 7816SOL     OW24346   0.351   1.861   6.003
 7816SOL    HW124347   0.345   1.879   5.905
 7816SOL    HW224348   0.444   1.830   6.024
 7817SOL     OW24349   4.238   3.669   5.614
 7817SOL    HW124350   4.193   3.591   5.572
 7817SOL    HW224351   4.170   3.726   5.661
 7818SOL     OW24352   5.112   1.245   2.529
 7818SOL    HW124353   5.086   1.252   2.626
 7818SOL    HW224354   5.075   1.323   2.479
 7819SOL     OW24355   0.057   3.584   4.039
 7819SOL    HW124356   7.020   3.554   4.113
 7819SOL    HW224357   0.027   3.673   4.005
 7820SOL     OW24358   1.905   1.257   5.514
 7820SOL    HW124359   1.949   1.333   5.466
 7820SOL    HW224360   1.936   1.254   5.609
 7821SOL     OW24361   5.942   5.632   0.509
 7821SOL    HW124362   5.884   5.699   0.462
 7821SOL    HW224363   6.033   5.631   0.466
 7822SOL     OW24364   1.077   1.651   6.034
 7822SOL    HW124365   1.093   1.722   5.966
 7822SOL    HW224366   1.133   1.668   6.115
 7823SOL     OW24367   1.232   4.204   6.375
 7823SOL    HW124368   1.211   4.108   6.395
 7823SOL    HW224369   1.262   4.213   6.280
 7824SOL     OW24370   6.228   0.666   4.134
 7824SOL    HW124371   6.152   0.725   4.162
 7824SOL    HW224372   6.314   0.703   4.169
 7825SOL     OW24373   2.220   2.780   1.420
 7825SOL    HW124374   2.288   2.826   1.363
 7825SOL    HW224375   2.130   2.819   1.403
 7826SOL     OW24376   5.407   2.179   6.846
 7826SOL    HW124377   5.467   2.191   6.925
 7826SOL    HW224378   5.455   2.210   6.763
 7827SOL     OW24379   3.617   4.696   1.300
 7827SOL    HW124380   3.627   4.609   1.347
 7827SOL    HW224381   3.693   4.756   1.324
 7828SOL     OW24382   0.592   5.384   0.725
 7828SOL    HW124383   0.501   5.410   0.691
 7828SOL    HW224384   0.606   5.286   0.711
 7829SOL     OW24385   2.440   3.245   1.482
 7829SOL    HW124386   2.538   3.234   1.467
 7829SOL    HW224387   2.391   3.228   1.396
 7830SOL     OW24388   5.669   4.218   6.197
 7830SOL    HW124389   5.669   4.317   6.182
 7830SOL    HW224390   5.576   4.183   6.195
 7831SOL     OW24391   0.801   4.834   7.009
 7831SOL    HW124392   0.838   4.925   0.001
 7831SOL    HW224393   0.873   4.766   0.001
 7832SOL     OW24394   3.561   1.194   4.775
 7832SOL    HW124395   3.525   1.281   4.739
 7832SOL    HW224396   3.487   1.145   4.821
 7833SOL     OW24397   0.835   0.881   0.404
 7833SOL    HW124398   0.909   0.920   0.461
 7833SOL    HW224399   0.774   0.827   0.461
 7834SOL     OW24400   0.365   1.438   1.891
 7834SOL    HW124401   0.416   1.352   1.881
 7834SOL    HW224402   0.341   1.473   1.800
 7835SOL     OW24403   2.538   2.608   4.620
 7835SOL    HW124404   2.454   2.590   4.671
 7835SOL    HW224405   2.519   2.672   4.546
 7836SOL     OW24406   3.162   0.923   6.823
 7836SOL    HW124407   3.206   0.846   6.869
 7836SOL    HW224408   3.111   0.889   6.743
 7837SOL     OW24409   5.887   6.208   1.697
 7837SOL    HW124410   5.894   6.174   1.604
 7837SOL    HW224411   5.949   6.157   1.757
 7838SOL     OW24412   4.714   6.432   6.140
 7838SOL    HW124413   4.786   6.365   6.122
 7838SOL    HW224414   4.638   6.387   6.186
 7839SOL     OW24415   6.534   4.416   4.693
 7839SOL    HW124416   6.568   4.436   4.785
 7839SOL    HW224417   6.486   4.328   4.693
 7840SOL     OW24418   5.419   3.327   3.872
 7840SOL    HW124419   5.513   3.323   3.907
 7840SOL    HW224420   5.413   3.272   3.788
 7841SOL     OW24421   5.732   1.725   6.263
 7841SOL    HW124422   5.694   1.760   6.177
 7841SOL    HW224423   5.831   1.714   6.253
 7842SOL     OW24424   1.455   0.796   3.616
 7842SOL    HW124425   1.507   0.876   3.645
 7842SOL    HW224426   1.377   0.783   3.678
 7843SOL     OW24427   5.957   4.329   1.327
 7843SOL    HW124428   5.899   4.328   1.246
 7843SOL    HW224429   6.041   4.380   1.307
 7844SOL     OW24430   4.612   0.754   3.865
 7844SOL    HW124431   4.582   0.660   3.846
 7844SOL    HW224432   4.708   0.763   3.840
 7845SOL     OW24433   0.558   0.757   3.952
 7845SOL    HW124434   0.651   0.766   3.917
 7845SOL    HW224435   0.547   0.666   3.993
 7846SOL     OW24436   2.403   0.961   1.632
 7846SOL    HW124437   2.464   0.933   1.706
 7846SOL    HW224438   2.458   0.982   1.550
 7847SOL     OW24439   0.619   1.486   1.105
 7847SOL    HW124440   0.556   1.417   1.068
 7847SOL    HW224441   0.664   1.449   1.186
 7848SOL     OW24442   3.212   4.242   1.132
 7848SOL    HW124443   3.238   4.181   1.057
 7848SOL    HW224444   3.150   4.313   1.096
 7849SOL     OW24445   5.615   4.053   4.241
 7849SOL    HW124446   5.553   4.122   4.204
 7849SOL    HW224447   5.565   3.996   4.306
 7850SOL     OW24448   0.335   0.876   3.846
 7850SOL    HW124449   0.420   0.826   3.860
 7850SOL    HW224450   0.258   0.811   3.848
 7851SOL     OW24451   6.115   6.667   0.999
 7851SOL    HW124452   6.166   6.604   0.941
 7851SOL    HW224453   6.022   6.678   0.964
 7852SOL     OW24454   3.095   6.666   6.414
 7852SOL    HW124455   3.134   6.742   6.466
 7852SOL    HW224456   2.996   6.671   6.417
 7853SOL     OW24457   3.788   1.112   0.772
 7853SOL    HW124458   3.817   1.171   0.848
 7853SOL    HW224459   3.866   1.056   0.743
 7854SOL     OW24460   3.607   4.199   0.903
 7854SOL    HW124461   3.544   4.263   0.946
 7854SOL    HW224462   3.594   4.108   0.942
 7855SOL     OW24463   4.730   5.823   6.590
 7855SOL    HW124464   4.692   5.871   6.511
 7855SOL    HW224465   4.828   5.839   6.595
 7856SOL     OW24466   6.195   4.958   4.181
 7856SOL    HW124467   6.149   5.023   4.242
 7856SOL    HW224468   6.209   5.001   4.092
 7857SOL     OW24469   6.956   2.513   5.691
 7857SOL    HW124470   6.884   2.545   5.630
 7857SOL    HW224471   0.018   2.561   5.670
 7858SOL     OW24472   5.321   4.970   3.337
 7858SOL    HW124473   5.402   4.969   3.279
 7858SOL    HW224474   5.241   4.990   3.280
 7859SOL     OW24475   0.128   4.055   6.005
 7859SOL    HW124476   0.133   3.987   5.931
 7859SOL    HW224477   0.190   4.029   6.079
 7860SOL     OW24478   3.998   6.383   2.610
 7860SOL    HW124479   4.062   6.324   2.659
 7860SOL    HW224480   3.918   6.329   2.581
 7861SOL     OW24481   4.180   5.729   1.866
 7861SOL    HW124482   4.262   5.733   1.809
 7861SOL    HW224483   4.205   5.697   1.958
 7862SOL     OW24484   2.866   4.285   1.631
 7862SOL    HW124485   2.894   4.344   1.706
 7862SOL    HW224486   2.902   4.320   1.545
 7863SOL     OW24487   6.909   6.041   3.169
 7863SOL    HW124488   6.840   6.112   3.155
 7863SOL    HW224489   6.897   6.001   3.260
 7864SOL     OW24490   6.976   5.831   5.725
 7864SOL    HW124491   6.880   5.822   5.698
 7864SOL    HW224492   0.010   5.787   5.656
 7865SOL     OW24493   4.251   6.457   3.912
 7865SOL    HW124494   4.249   6.411   3.823
 7865SOL    HW224495   4.322   6.527   3.912
 7866SOL     OW24496   2.476   1.290   1.898
 7866SOL    HW124497   2.562   1.244   1.876
 7866SOL    HW224498   2.412   1.279   1.822
 7867SOL     OW24499   5.428   5.042   2.765
 7867SOL    HW124500   5.409   4.981   2.688
 7867SOL    HW224501   5.444   5.134   2.732
 7868SOL     OW24502   5.109   6.927   2.686
 7868SOL    HW124503   5.013   6.914   2.660
 7868SOL    HW224504   5.159   6.842   2.672
 7869SOL     OW24505   6.208   3.666   0.733
 7869SOL    HW124506   6.288   3.614   0.762
 7869SOL    HW224507   6.229   3.715   0.648
 7870SOL     OW24508   5.680   5.237   3.873
 7870SOL    HW124509   5.653   5.199   3.785
 7870SOL    HW224510   5.713   5.330   3.861
 7871SOL     OW24511   5.571   4.110   3.219
 7871SOL    HW124512   5.611   4.019   3.212
 7871SOL    HW224513   5.636   4.178   3.186
 7872SOL     OW24514   0.784   4.478   2.200
 7872SOL    HW124515   0.848   4.401   2.202
 7872SOL    HW224516   0.833   4.562   2.221
 7873SOL     OW24517   6.543   0.839   5.495
 7873SOL    HW124518   6.531   0.740   5.491
 7873SOL    HW224519   6.483   0.877   5.565
 7874SOL     OW24520   6.510   1.803   6.608
 7874SOL    HW124521   6.456   1.884   6.583
 7874SOL    HW224522   6.502   1.734   6.536
 7875SOL     OW24523   4.354   3.544   6.479
 7875SOL    HW124524   4.344   3.643   6.478
 7875SOL    HW224525   4.372   3.512   6.386
 7876SOL     OW24526   0.102   6.908   4.909
 7876SOL    HW124527   0.048   6.980   4.866
 7876SOL    HW224528   0.053   6.873   4.989
 7877SOL     OW24529   0.390   2.685   2.716
 7877SOL    HW124530   0.330   2.761   2.743
 7877SOL    HW224531   0.473   2.688   2.771
 7878SOL     OW24532   5.078   5.290   3.359
 7878SOL    HW124533   5.062   5.280   3.261
 7878SOL    HW224534   5.056   5.383   3.388
 7879SOL     OW24535   4.566   5.911   3.248
 7879SOL    HW124536   4.625   5.983   3.284
 7879SOL    HW224537   4.548   5.928   3.151
 7880SOL     OW24538   0.402   6.316   0.861
 7880SOL    HW124539   0.344   6.335   0.940
 7880SOL    HW224540   0.370   6.233   0.815
 7881SOL     OW24541   6.981   4.030   4.924
 7881SOL    HW124542   6.981   3.932   4.906
 7881SOL    HW224543   0.042   4.071   4.889
 7882SOL     OW24544   1.826   2.350   2.867
 7882SOL    HW124545   1.899   2.296   2.825
 7882SOL    HW224546   1.863   2.403   2.943
 7883SOL     OW24547   1.898   0.897   1.547
 7883SOL    HW124548   1.919   0.841   1.627
 7883SOL    HW224549   1.871   0.838   1.471
 7884SOL     OW24550   1.267   3.930   2.909
 7884SOL    HW124551   1.268   4.025   2.937
 7884SOL    HW224552   1.243   3.924   2.812
 7885SOL     OW24553   5.716   5.686   2.967
 7885SOL    HW124554   5.756   5.765   2.921
 7885SOL    HW224555   5.646   5.716   3.032
 7886SOL     OW24556   5.954   4.011   1.090
 7886SOL    HW124557   5.898   4.084   1.052
 7886SOL    HW224558   5.945   4.011   1.190
 7887SOL     OW24559   3.373   2.799   5.111
 7887SOL    HW124560   3.403   2.883   5.157
 7887SOL    HW224561   3.321   2.743   5.176
 7888SOL     OW24562   0.185   0.624   4.635
 7888SOL    HW124563   0.106   0.593   4.582
 7888SOL    HW224564   0.266   0.573   4.606
 7889SOL     OW24565   0.442   5.424   6.759
 7889SOL    HW124566   0.413   5.499   6.699
 7889SOL    HW224567   0.540   5.434   6.779
 7890SOL     OW24568   1.485   2.779   4.108
 7890SOL    HW124569   1.496   2.879   4.104
 7890SOL    HW224570   1.392   2.755   4.080
 7891SOL     OW24571   0.764   3.027   4.461
 7891SOL    HW124572   0.771   2.991   4.554
 7891SOL    HW224573   0.790   2.956   4.395
 7892SOL     OW24574   1.137   2.207   3.910
 7892SOL    HW124575   1.061   2.154   3.875
 7892SOL    HW224576   1.104   2.296   3.943
 7893SOL     OW24577   5.891   6.442   2.198
 7893SOL    HW124578   5.917   6.459   2.103
 7893SOL    HW224579   5.859   6.348   2.207
 7894SOL     OW24580   2.892   1.201   0.842
 7894SOL    HW124581   2.938   1.131   0.788
 7894SOL    HW224582   2.910   1.185   0.939
 7895SOL     OW24583   3.574   6.278   4.614
 7895SOL    HW124584   3.482   6.275   4.574
 7895SOL    HW224585   3.634   6.332   4.556
 7896SOL     OW24586   5.149   2.905   1.717
 7896SOL    HW124587   5.175   2.859   1.802
 7896SOL    HW224588   5.068   2.961   1.734
 7897SOL     OW24589   3.310   3.797   6.394
 7897SOL    HW124590   3.256   3.783   6.312
 7897SOL    HW224591   3.253   3.783   6.475
 7898SOL     OW24592   4.848   0.380   3.909
 7898SOL    HW124593   4.880   0.419   3.823
 7898SOL    HW224594   4.819   0.285   3.894
 7899SOL     OW24595   5.146   6.475   2.122
 7899SOL    HW124596   5.138   6.402   2.189
 7899SOL    HW224597   5.115   6.561   2.163
 7900SOL     OW24598   0.824   3.573   0.828
 7900SOL    HW124599   0.789   3.654   0.782
 7900SOL    HW224600   0.800   3.492   0.776
 7901SOL     OW24601   5.199   1.386   6.257
 7901SOL    HW124602   5.104   1.384   6.229
 7901SOL    HW224603   5.212   1.457   6.327
 7902SOL     OW24604   6.940   6.440   3.361
 7902SOL    HW124605   6.854   6.395   3.387
 7902SOL    HW224606   7.016   6.399   3.411
 7903SOL     OW24607   4.266   1.921   3.567
 7903SOL    HW124608   4.182   1.922   3.512
 7903SOL    HW224609   4.245   1.946   3.662
 7904SOL     OW24610   5.989   6.954   3.288
 7904SOL    HW124611   6.056   0.000   3.315
 7904SOL    HW224612   5.902   6.971   3.333
 7905SOL     OW24613   5.358   1.283   0.495
 7905SOL    HW124614   5.284   1.345   0.466
 7905SOL    HW224615   5.440   1.336   0.513
 7906SOL     OW24616   1.421   5.263   0.354
 7906SOL    HW124617   1.408   5.362   0.354
 7906SOL    HW224618   1.401   5.226   0.445
 7907SOL     OW24619   6.036   1.442   2.757
 7907SOL    HW124620   6.128   1.449   2.718
 7907SOL    HW224621   5.973   1.409   2.688
 7908SOL     OW24622   1.419   2.113   6.523
 7908SOL    HW124623   1.494   2.077   6.578
 7908SOL    HW224624   1.358   2.167   6.581
 7909SOL     OW24625   5.035   4.463   3.514
 7909SOL    HW124626   5.024   4.375   3.468
 7909SOL    HW224627   4.946   4.496   3.546
 7910SOL     OW24628   1.504   3.039   1.493
 7910SOL    HW124629   1.451   2.993   1.565
 7910SOL    HW224630   1.445   3.104   1.445
 7911SOL     OW24631   0.873   4.021   1.237
 7911SOL    HW124632   0.876   4.112   1.197
 7911SOL    HW224633   0.884   3.952   1.166
 7912SOL     OW24634   5.224   4.467   0.635
 7912SOL    HW124635   5.243   4.375   0.599
 7912SOL    HW224636   5.276   4.482   0.718
 7913SOL     OW24637   1.736   4.642   0.895
 7913SOL    HW124638   1.643   4.605   0.892
 7913SOL    HW224639   1.734   4.736   0.927
 7914SOL     OW24640   0.009   4.319   0.148
 7914SOL    HW124641   0.040   4.413   0.134
 7914SOL    HW224642   0.074   4.271   0.207
 7915SOL     OW24643   4.618   1.713   2.718
 7915SOL    HW124644   4.662   1.728   2.806
 7915SOL    HW224645   4.654   1.629   2.677
 7916SOL     OW24646   0.994   0.399   4.919
 7916SOL    HW124647   1.005   0.487   4.872
 7916SOL    HW224648   0.898   0.373   4.918
 7917SOL     OW24649   3.827   2.478   5.736
 7917SOL    HW124650   3.866   2.419   5.665
 7917SOL    HW224651   3.735   2.506   5.709
 7918SOL     OW24652   0.761   1.352   5.445
 7918SOL    HW124653   0.809   1.330   5.531
 7918SOL    HW224654   0.815   1.320   5.368
 7919SOL     OW24655   1.301   5.059   2.119
 7919SOL    HW124656   1.248   5.143   2.132
 7919SOL    HW224657   1.289   5.025   2.026
 7920SOL     OW24658   5.000   1.059   2.162
 7920SOL    HW124659   5.062   1.034   2.088
 7920SOL    HW224660   4.918   1.002   2.157
 7921SOL     OW24661   5.734   0.976   1.269
 7921SOL    HW124662   5.705   0.927   1.186
 7921SOL    HW224663   5.685   1.063   1.275
 7922SOL     OW24664   0.094   5.978   6.751
 7922SOL    HW124665   0.051   6.065   6.776
 7922SOL    HW224666   0.141   5.988   6.663
 7923SOL     OW24667   3.193   1.844   6.895
 7923SOL    HW124668   3.214   1.940   6.879
 7923SOL    HW224669   3.253   1.787   6.838
 7924SOL     OW24670   4.815   0.024   1.127
 7924SOL    HW124671   4.830   0.116   1.162
 7924SOL    HW224672   4.828   0.023   1.028
 7925SOL     OW24673   1.550   6.615   0.697
 7925SOL    HW124674   1.529   6.544   0.629
 7925SOL    HW224675   1.531   6.581   0.789
 7926SOL     OW24676   5.407   1.551   6.914
 7926SOL    HW124677   5.329   1.488   6.920
 7926SOL    HW224678   5.490   1.499   6.892
 7927SOL     OW24679   5.265   0.151   1.662
 7927SOL    HW124680   5.194   0.180   1.726
 7927SOL    HW224681   5.232   0.072   1.609
 7928SOL     OW24682   6.951   1.228   3.556
 7928SOL    HW124683   7.022   1.295   3.580
 7928SOL    HW224684   6.899   1.204   3.637
 7929SOL     OW24685   4.222   3.678   6.126
 7929SOL    HW124686   4.170   3.763   6.115
 7929SOL    HW224687   4.196   3.614   6.055
 7930SOL     OW24688   3.574   5.574   6.088
 7930SOL    HW124689   3.476   5.565   6.102
 7930SOL    HW224690   3.608   5.654   6.137
 7931SOL     OW24691   4.083   2.796   0.570
 7931SOL    HW124692   4.022   2.742   0.513
 7931SOL    HW224693   4.094   2.887   0.531
 7932SOL     OW24694   0.578   4.988   1.656
 7932SOL    HW124695   0.572   5.065   1.720
 7932SOL    HW224696   0.670   4.983   1.618
 7933SOL     OW24697   7.010   0.735   5.850
 7933SOL    HW124698   0.012   0.809   5.912
 7933SOL    HW224699   6.963   0.663   5.902
 7934SOL     OW24700   1.516   4.812   0.202
 7934SOL    HW124701   1.560   4.817   0.112
 7934SOL    HW224702   1.471   4.724   0.213
 7935SOL     OW24703   5.357   5.401   2.639
 7935SOL    HW124704   5.313   5.377   2.552
 7935SOL    HW224705   5.293   5.385   2.714
 7936SOL     OW24706   3.041   5.705   3.394
 7936SOL    HW124707   3.093   5.735   3.474
 7936SOL    HW224708   3.092   5.727   3.311
 7937SOL     OW24709   2.371   5.420   3.705
 7937SOL    HW124710   2.469   5.435   3.717
 7937SOL    HW224711   2.351   5.322   3.704
 7938SOL     OW24712   5.214   6.450   5.464
 7938SOL    HW124713   5.235   6.517   5.535
 7938SOL    HW224714   5.248   6.484   5.376
 7939SOL     OW24715   0.421   1.899   5.724
 7939SOL    HW124716   0.486   1.974   5.736
 7939SOL    HW224717   0.447   1.844   5.645
 7940SOL     OW24718   3.426   1.630   2.544
 7940SOL    HW124719   3.374   1.698   2.492
 7940SOL    HW224720   3.384   1.540   2.532
 7941SOL     OW24721   4.995   6.858   3.285
 7941SOL    HW124722   5.065   6.819   3.225
 7941SOL    HW224723   4.973   6.792   3.357
 7942SOL     OW24724   0.879   2.679   3.153
 7942SOL    HW124725   0.788   2.642   3.172
 7942SOL    HW224726   0.884   2.774   3.186
 7943SOL     OW24727   0.911   4.312   5.028
 7943SOL    HW124728   0.888   4.320   4.931
 7943SOL    HW224729   0.998   4.358   5.045
 7944SOL     OW24730   0.317   2.325   1.581
 7944SOL    HW124731   0.293   2.290   1.491
 7944SOL    HW224732   0.416   2.337   1.588
 7945SOL     OW24733   6.111   5.329   2.777
 7945SOL    HW124734   6.086   5.342   2.681
 7945SOL    HW224735   6.085   5.237   2.807
 7946SOL     OW24736   3.822   6.577   5.743
 7946SOL    HW124737   3.811   6.490   5.791
 7946SOL    HW224738   3.742   6.635   5.759
 7947SOL     OW24739   2.116   1.821   5.014
 7947SOL    HW124740   2.168   1.873   4.946
 7947SOL    HW224741   2.101   1.879   5.095
 7948SOL     OW24742   1.230   4.836   1.165
 7948SOL    HW124743   1.193   4.917   1.210
 7948SOL    HW224744   1.197   4.832   1.071
 7949SOL     OW24745   4.426   3.891   6.023
 7949SOL    HW124746   4.403   3.854   5.933
 7949SOL    HW224747   4.503   3.955   6.014
 7950SOL     OW24748   4.881   6.333   5.262
 7950SOL    HW124749   4.899   6.245   5.305
 7950SOL    HW224750   4.954   6.355   5.197
 7951SOL     OW24751   2.368   5.334   2.658
 7951SOL    HW124752   2.304   5.258   2.652
 7951SOL    HW224753   2.365   5.386   2.573
 7952SOL     OW24754   6.529   3.178   6.961
 7952SOL    HW124755   6.565   3.158   6.870
 7952SOL    HW224756   6.571   3.117   0.005
 7953SOL     OW24757   4.505   1.889   1.800
 7953SOL    HW124758   4.410   1.921   1.796
 7953SOL    HW224759   4.541   1.902   1.892
 7954SOL     OW24760   3.966   3.906   6.497
 7954SOL    HW124761   3.927   3.998   6.491
 7954SOL    HW224762   3.896   3.839   6.472
 7955SOL     OW24763   2.465   1.476   6.430
 7955SOL    HW124764   2.422   1.566   6.433
 7955SOL    HW224765   2.468   1.438   6.523
 7956SOL     OW24766   5.837   1.190   1.879
 7956SOL    HW124767   5.860   1.136   1.798
 7956SOL    HW224768   5.897   1.163   1.955
 7957SOL     OW24769   2.558   0.872   6.407
 7957SOL    HW124770   2.472   0.893   6.360
 7957SOL    HW224771   2.618   0.822   6.346
 7958SOL     OW24772   5.413   4.156   6.171
 7958SOL    HW124773   5.388   4.252   6.178
 7958SOL    HW224774   5.378   4.119   6.085
 7959SOL     OW24775   5.262   0.645   6.723
 7959SOL    HW124776   5.201   0.643   6.644
 7959SOL    HW224777   5.211   0.620   6.806
 7960SOL     OW24778   0.840   1.602   6.139
 7960SOL    HW124779   0.923   1.631   6.091
 7960SOL    HW224780   0.827   1.659   6.220
 7961SOL     OW24781   6.245   0.142   0.779
 7961SOL    HW124782   6.153   0.140   0.740
 7961SOL    HW224783   6.271   0.237   0.796
 7962SOL     OW24784   0.172   1.727   5.694
 7962SOL    HW124785   0.225   1.793   5.746
 7962SOL    HW224786   0.214   1.713   5.604
 7963SOL     OW24787   6.607   5.415   4.039
 7963SOL    HW124788   6.627   5.438   4.134
 7963SOL    HW224789   6.692   5.402   3.989
 7964SOL     OW24790   5.966   2.895   2.488
 7964SOL    HW124791   6.053   2.934   2.519
 7964SOL    HW224792   5.918   2.964   2.433
 7965SOL     OW24793   3.883   2.474   6.257
 7965SOL    HW124794   3.977   2.498   6.232
 7965SOL    HW224795   3.871   2.481   6.356
 7966SOL     OW24796   3.785   3.217   5.635
 7966SOL    HW124797   3.838   3.202   5.552
 7966SOL    HW224798   3.789   3.314   5.660
 7967SOL     OW24799   2.128   4.955   2.026
 7967SOL    HW124800   2.066   4.896   1.974
 7967SOL    HW224801   2.108   4.947   2.124
 7968SOL     OW24802   6.073   2.369   5.406
 7968SOL    HW124803   5.988   2.324   5.433
 7968SOL    HW224804   6.113   2.319   5.329
 7969SOL     OW24805   5.249   6.059   0.465
 7969SOL    HW124806   5.322   6.123   0.490
 7969SOL    HW224807   5.248   5.983   0.529
 7970SOL     OW24808   5.515   3.199   2.483
 7970SOL    HW124809   5.570   3.268   2.531
 7970SOL    HW224810   5.435   3.243   2.443
 7971SOL     OW24811   2.949   0.655   1.935
 7971SOL    HW124812   3.002   0.582   1.893
 7971SOL    HW224813   2.872   0.679   1.876
 7972SOL     OW24814   3.338   3.661   1.716
 7972SOL    HW124815   3.368   3.746   1.674
 7972SOL    HW224816   3.391   3.644   1.799
 7973SOL     OW24817   5.667   4.213   4.720
 7973SOL    HW124818   5.737   4.219   4.791
 7973SOL    HW224819   5.707   4.178   4.636
 7974SOL     OW24820   6.295   1.131   5.773
 7974SOL    HW124821   6.265   1.136   5.678
 7974SOL    HW224822   6.229   1.177   5.832
 7975SOL     OW24823   4.769   0.716   0.744
 7975SOL    HW124824   4.701   0.643   0.754
 7975SOL    HW224825   4.724   0.805   0.751
 7976SOL     OW24826   0.586   6.936   5.820
 7976SOL    HW124827   0.529   7.010   5.784
 7976SOL    HW224828   0.658   6.914   5.754
 7977SOL     OW24829   4.753   6.300   1.977
 7977SOL    HW124830   4.708   6.230   1.921
 7977SOL    HW224831   4.849   6.307   1.951
 7978SOL     OW24832   0.469   2.985   6.189
 7978SOL    HW124833   0.477   3.049   6.266
 7978SOL    HW224834   0.546   3.000   6.126
 7979SOL     OW24835   1.969   4.197   5.922
 7979SOL    HW124836   2.028   4.275   5.902
 7979SOL    HW224837   2.021   4.112   5.909
 7980SOL     OW24838   2.982   5.608   6.805
 7980SOL    HW124839   2.966   5.544   6.730
 7980SOL    HW224840   2.894   5.648   6.834
 7981SOL     OW24841   0.798   5.418   1.784
 7981SOL    HW124842   0.880   5.466   1.815
 7981SOL    HW224843   0.799   5.324   1.819
 7982SOL     OW24844   1.416   1.718   5.875
 7982SOL    HW124845   1.379   1.810   5.871
 7982SOL    HW224846   1.416   1.678   5.783
 7983SOL     OW24847   6.149   1.692   1.659
 7983SOL    HW124848   6.135   1.693   1.560
 7983SOL    HW224849   6.203   1.772   1.685
 7984SOL     OW24850   0.393   1.563   0.592
 7984SOL    HW124851   0.329   1.493   0.561
 7984SOL    HW224852   0.447   1.595   0.514
 7985SOL     OW24853   2.621   2.090   4.671
 7985SOL    HW124854   2.563   2.162   4.708
 7985SOL    HW224855   2.713   2.099   4.708
 7986SOL     OW24856   3.607   0.833   5.765
 7986SOL    HW124857   3.574   0.831   5.860
 7986SOL    HW224858   3.530   0.819   5.703
 7987SOL     OW24859   2.069   3.105   0.663
 7987SOL    HW124860   1.972   3.124   0.675
 7987SOL    HW224861   2.119   3.191   0.654
 7988SOL     OW24862   1.210   1.248   2.179
 7988SOL    HW124863   1.303   1.214   2.192
 7988SOL    HW224864   1.196   1.331   2.233
 7989SOL     OW24865   2.169   4.200   0.326
 7989SOL    HW124866   2.083   4.245   0.345
 7989SOL    HW224867   2.153   4.102   0.309
 7990SOL     OW24868   2.757   4.990   4.508
 7990SOL    HW124869   2.676   4.994   4.566
 7990SOL    HW224870   2.743   4.924   4.435
 7991SOL     OW24871   5.660   1.240   4.326
 7991SOL    HW124872   5.696   1.302   4.256
 7991SOL    HW224873   5.696   1.148   4.311
 7992SOL     OW24874   1.583   0.232   0.284
 7992SOL    HW124875   1.653   0.183   0.337
 7992SOL    HW224876   1.518   0.275   0.347
 7993SOL     OW24877   0.349   6.862   1.334
 7993SOL    HW124878   0.362   6.908   1.246
 7993SOL    HW224879   0.311   6.926   1.400
 7994SOL     OW24880   5.309   0.600   3.071
 7994SOL    HW124881   5.364   0.669   3.118
 7994SOL    HW224882   5.212   0.624   3.077
 7995SOL     OW24883   5.782   5.437   3.077
 7995SOL    HW124884   5.722   5.373   3.029
 7995SOL    HW224885   5.772   5.529   3.039
 7996SOL     OW24886   3.761   6.119   4.371
 7996SOL    HW124887   3.811   6.083   4.292
 7996SOL    HW224888   3.804   6.086   4.455
 7997SOL     OW24889   0.458   1.942   0.211
 7997SOL    HW124890   0.488   2.025   0.164
 7997SOL    HW224891   0.374   1.908   0.168
 7998SOL     OW24892   3.072   6.817   6.784
 7998SOL    HW124893   3.169   6.798   6.771
 7998SOL    HW224894   3.043   6.784   6.874
 7999SOL     OW24895   1.334   1.188   5.728
 7999SOL    HW124896   1.301   1.186   5.634
 7999SOL    HW224897   1.408   1.123   5.740
 8000SOL     OW24898   5.777   0.093   6.220
 8000SOL    HW124899   5.837   0.020   6.188
 8000SOL    HW224900   5.686   0.082   6.179
 8001SOL     OW24901   4.346   6.209   1.259
 8001SOL    HW124902   4.393   6.127   1.289
 8001SOL    HW224903   4.267   6.227   1.318
 8002SOL     OW24904   0.796   0.930   5.328
 8002SOL    HW124905   0.837   0.983   5.403
 8002SOL    HW224906   0.858   0.856   5.303
 8003SOL     OW24907   2.000   5.744   1.250
 8003SOL    HW124908   2.095   5.768   1.270
 8003SOL    HW224909   1.986   5.646   1.267
 8004SOL     OW24910   2.142   3.361   3.604
 8004SOL    HW124911   2.060   3.330   3.653
 8004SOL    HW224912   2.200   3.282   3.583
 8005SOL     OW24913   2.469   0.725   3.618
 8005SOL    HW124914   2.449   0.748   3.523
 8005SOL    HW224915   2.495   0.629   3.624
 8006SOL     OW24916   2.610   5.680   5.465
 8006SOL    HW124917   2.663   5.598   5.484
 8006SOL    HW224918   2.574   5.717   5.551
 8007SOL     OW24919   5.878   2.169   6.391
 8007SOL    HW124920   5.848   2.076   6.412
 8007SOL    HW224921   5.843   2.195   6.301
 8008SOL     OW24922   3.378   5.492   6.626
 8008SOL    HW124923   3.342   5.400   6.608
 8008SOL    HW224924   3.443   5.517   6.554
 8009SOL     OW24925   4.479   1.146   0.173
 8009SOL    HW124926   4.472   1.224   0.111
 8009SOL    HW224927   4.396   1.092   0.169
 8010SOL     OW24928   2.944   2.119   5.015
 8010SOL    HW124929   2.947   2.064   4.931
 8010SOL    HW224930   3.026   2.176   5.020
 8011SOL     OW24931   3.654   1.990   1.560
 8011SOL    HW124932   3.591   2.037   1.623
 8011SOL    HW224933   3.739   2.041   1.554
 8012SOL     OW24934   1.122   2.830   6.006
 8012SOL    HW124935   1.195   2.890   6.038
 8012SOL    HW224936   1.036   2.881   6.002
 8013SOL     OW24937   1.703   3.606   3.792
 8013SOL    HW124938   1.615   3.652   3.785
 8013SOL    HW224939   1.776   3.673   3.776
 8014SOL     OW24940   1.957   0.345   4.576
 8014SOL    HW124941   1.944   0.441   4.553
 8014SOL    HW224942   1.867   0.301   4.587
 8015SOL     OW24943   1.972   0.187   5.869
 8015SOL    HW124944   1.882   0.190   5.913
 8015SOL    HW224945   1.961   0.203   5.771
 8016SOL     OW24946   4.260   1.200   4.966
 8016SOL    HW124947   4.274   1.139   5.043
 8016SOL    HW224948   4.275   1.295   4.995
 8017SOL     OW24949   6.353   0.382   6.723
 8017SOL    HW124950   6.423   0.352   6.658
 8017SOL    HW224951   6.342   0.312   6.794
 8018SOL     OW24952   3.324   2.186   6.796
 8018SOL    HW124953   3.284   2.276   6.777
 8018SOL    HW224954   3.342   2.138   6.710
 8019SOL     OW24955   2.051   3.981   1.360
 8019SOL    HW124956   2.013   4.027   1.439
 8019SOL    HW224957   2.128   4.034   1.324
 8020SOL     OW24958   6.402   0.645   6.324
 8020SOL    HW124959   6.322   0.701   6.303
 8020SOL    HW224960   6.482   0.680   6.276
 8021SOL     OW24961   1.767   2.976   1.623
 8021SOL    HW124962   1.687   2.993   1.565
 8021SOL    HW224963   1.797   3.062   1.664
 8022SOL     OW24964   6.061   0.447   1.623
 8022SOL    HW124965   6.120   0.451   1.542
 8022SOL    HW224966   6.112   0.477   1.703
 8023SOL     OW24967   5.967   4.776   2.728
 8023SOL    HW124968   6.019   4.723   2.795
 8023SOL    HW224969   5.996   4.872   2.733
 8024SOL     OW24970   1.216   5.413   6.051
 8024SOL    HW124971   1.119   5.423   6.032
 8024SOL    HW224972   1.268   5.480   5.997
 8025SOL     OW24973   1.769   5.119   0.863
 8025SOL    HW124974   1.784   5.203   0.915
 8025SOL    HW224975   1.745   5.143   0.769
 8026SOL     OW24976   6.727   4.317   0.872
 8026SOL    HW124977   6.789   4.393   0.854
 8026SOL    HW224978   6.735   4.290   0.968
 8027SOL     OW24979   3.364   6.305   5.700
 8027SOL    HW124980   3.461   6.281   5.711
 8027SOL    HW224981   3.307   6.230   5.735
 8028SOL     OW24982   3.116   5.155   5.065
 8028SOL    HW124983   3.177   5.127   5.138
 8028SOL    HW224984   3.082   5.247   5.084
 8029SOL     OW24985   4.805   2.533   2.133
 8029SOL    HW124986   4.862   2.458   2.098
 8029SOL    HW224987   4.839   2.620   2.098
 8030SOL     OW24988   6.145   5.320   0.591
 8030SOL    HW124989   6.073   5.367   0.643
 8030SOL    HW224990   6.178   5.379   0.517
 8031SOL     OW24991   6.774   6.516   2.865
 8031SOL    HW124992   6.713   6.521   2.943
 8031SOL    HW224993   6.731   6.560   2.786
 8032SOL     OW24994   5.159   3.754   1.844
 8032SOL    HW124995   5.147   3.781   1.748
 8032SOL    HW224996   5.229   3.683   1.851
 8033SOL     OW24997   4.895   3.241   0.095
 8033SOL    HW124998   4.872   3.336   0.074
 8033SOL    HW224999   4.975   3.238   0.154
 8034SOL     OW25000   5.639   6.941   5.795
 8034SOL    HW125001   5.734   6.912   5.779
 8034SOL    HW225002   5.635   0.017   5.805
 8035SOL     OW25003   5.056   1.534   1.817
 8035SOL    HW125004   5.096   1.447   1.788
 8035SOL    HW225005   4.961   1.519   1.845
 8036SOL     OW25006   7.019   3.756   3.603
 8036SOL    HW125007   0.088   3.721   3.617
 8036SOL    HW225008   7.021   3.855   3.594
 8037SOL     OW25009   2.059   3.473   7.019
 8037SOL    HW125010   2.124   3.418   6.966
 8037SOL    HW225011   1.989   3.510   6.957
 8038SOL     OW25012   4.625   6.474   2.419
 8038SOL    HW125013   4.526   6.488   2.407
 8038SOL    HW225014   4.673   6.502   2.336
 8039SOL     OW25015   6.907   2.005   4.645
 8039SOL    HW125016   7.004   1.998   4.618
 8039SOL    HW225017   6.867   1.914   4.646
 8040SOL     OW25018   1.558   6.337   6.913
 8040SOL    HW125019   1.464   6.314   6.940
 8040SOL    HW225020   1.619   6.262   6.938
 8041SOL     OW25021   3.265   0.896   2.887
 8041SOL    HW125022   3.336   0.843   2.933
 8041SOL    HW225023   3.292   0.992   2.883
 8042SOL     OW25024   4.667   4.251   5.546
 8042SOL    HW125025   4.617   4.178   5.499
 8042SOL    HW225026   4.604   4.325   5.569
 8043SOL     OW25027   3.606   4.309   0.283
 8043SOL    HW125028   3.651   4.285   0.197
 8043SOL    HW225029   3.571   4.403   0.277
 8044SOL     OW25030   3.704   3.702   0.287
 8044SOL    HW125031   3.605   3.692   0.278
 8044SOL    HW225032   3.731   3.794   0.260
 8045SOL     OW25033   6.575   2.588   2.685
 8045SOL    HW125034   6.636   2.514   2.713
 8045SOL    HW225035   6.564   2.653   2.760
 8046SOL     OW25036   0.280   4.530   2.083
 8046SOL    HW125037   0.295   4.482   1.996
 8046SOL    HW225038   0.360   4.517   2.142
 8047SOL     OW25039   3.785   6.365   6.595
 8047SOL    HW125040   3.708   6.307   6.621
 8047SOL    HW225041   3.818   6.338   6.504
 8048SOL     OW25042   3.164   2.398   6.762
 8048SOL    HW125043   3.095   2.413   6.692
 8048SOL    HW225044   3.133   2.438   6.848
 8049SOL     OW25045   0.289   6.428   6.996
 8049SOL    HW125046   0.378   6.388   7.021
 8049SOL    HW225047   0.281   6.519   0.012
 8050SOL     OW25048   2.091   3.360   4.528
 8050SOL    HW125049   2.018   3.363   4.459
 8050SOL    HW225050   2.053   3.382   4.618
 8051SOL     OW25051   4.420   6.173   4.773
 8051SOL    HW125052   4.448   6.232   4.849
 8051SOL    HW225053   4.366   6.227   4.708
 8052SOL     OW25054   2.495   2.247   1.535
 8052SOL    HW125055   2.532   2.183   1.601
 8052SOL    HW225056   2.432   2.310   1.581
 8053SOL     OW25057   3.140   2.963   5.158
 8053SOL    HW125058   3.212   2.930   5.219
 8053SOL    HW225059   3.171   2.953   5.063
 8054SOL     OW25060   6.652   4.205   4.334
 8054SOL    HW125061   6.668   4.156   4.420
 8054SOL    HW225062   6.642   4.303   4.354
 8055SOL     OW25063   0.012   0.711   5.566
 8055SOL    HW125064   6.996   0.788   5.515
 8055SOL    HW225065   0.004   0.729   5.664
 8056SOL     OW25066   3.056   0.346   4.418
 8056SOL    HW125067   3.029   0.300   4.333
 8056SOL    HW225068   3.119   0.420   4.397
 8057SOL     OW25069   2.287   2.282   2.855
 8057SOL    HW125070   2.289   2.185   2.876
 8057SOL    HW225071   2.278   2.295   2.757
 8058SOL     OW25072   3.410   6.234   2.988
 8058SOL    HW125073   3.359   6.319   2.976
 8058SOL    HW225074   3.482   6.247   3.056
 8059SOL     OW25075   3.120   0.572   5.541
 8059SOL    HW125076   3.167   0.642   5.595
 8059SOL    HW225077   3.037   0.612   5.500
 8060SOL     OW25078   0.339   2.048   6.205
 8060SOL    HW125079   0.326   2.137   6.161
 8060SOL    HW225080   0.352   1.978   6.135
 8061SOL     OW25081   0.812   0.794   2.457
 8061SOL    HW125082   0.903   0.780   2.418
 8061SOL    HW225083   0.795   0.726   2.528
 8062SOL     OW25084   4.088   5.102   4.779
 8062SOL    HW125085   4.009   5.110   4.840
 8062SOL    HW225086   4.130   5.012   4.790
 8063SOL     OW25087   2.805   1.123   3.169
 8063SOL    HW125088   2.767   1.177   3.244
 8063SOL    HW225089   2.737   1.113   3.097
 8064SOL     OW25090   6.132   2.493   0.197
 8064SOL    HW125091   6.081   2.523   0.277
 8064SOL    HW225092   6.071   2.446   0.134
 8065SOL     OW25093   3.060   6.406   4.297
 8065SOL    HW125094   3.002   6.476   4.339
 8065SOL    HW225095   3.138   6.450   4.253
 8066SOL     OW25096   6.393   0.271   4.795
 8066SOL    HW125097   6.449   0.335   4.847
 8066SOL    HW225098   6.406   0.179   4.832
 8067SOL     OW25099   5.026   2.398   3.273
 8067SOL    HW125100   5.113   2.359   3.244
 8067SOL    HW225101   4.964   2.404   3.195
 8068SOL     OW25102   0.548   4.604   1.128
 8068SOL    HW125103   0.565   4.588   1.030
 8068SOL    HW225104   0.555   4.517   1.177
 8069SOL     OW25105   2.105   4.552   1.848
 8069SOL    HW125106   2.049   4.560   1.766
 8069SOL    HW225107   2.186   4.610   1.838
 8070SOL     OW25108   4.171   2.796   0.130
 8070SOL    HW125109   4.246   2.844   0.083
 8070SOL    HW225110   4.087   2.806   0.077
 8071SOL     OW25111   3.156   6.467   5.298
 8071SOL    HW125112   3.215   6.393   5.267
 8071SOL    HW225113   3.193   6.506   5.383
 8072SOL     OW25114   3.144   2.004   0.807
 8072SOL    HW125115   3.124   1.907   0.821
 8072SOL    HW225116   3.073   2.046   0.750
 8073SOL     OW25117   2.866   5.633   5.270
 8073SOL    HW125118   2.949   5.669   5.314
 8073SOL    HW225119   2.834   5.698   5.201
 8074SOL     OW25120   2.719   1.197   1.161
 8074SOL    HW125121   2.809   1.154   1.156
 8074SOL    HW225122   2.726   1.293   1.132
 8075SOL     OW25123   0.108   1.080   0.237
 8075SOL    HW125124   0.108   0.981   0.243
 8075SOL    HW225125   0.054   1.118   0.312
 8076SOL     OW25126   6.164   0.229   5.088
 8076SOL    HW125127   6.216   0.299   5.138
 8076SOL    HW225128   6.069   0.259   5.080
 8077SOL     OW25129   3.475   6.117   2.569
 8077SOL    HW125130   3.538   6.058   2.518
 8077SOL    HW225131   3.495   6.213   2.550
 8078SOL     OW25132   0.912   1.848   1.591
 8078SOL    HW125133   0.958   1.855   1.502
 8078SOL    HW225134   0.816   1.826   1.577
 8079SOL     OW25135   6.587   1.572   3.768
 8079SOL    HW125136   6.668   1.591   3.823
 8079SOL    HW225137   6.582   1.475   3.747
 8080SOL     OW25138   1.081   2.568   2.548
 8080SOL    HW125139   1.060   2.641   2.483
 8080SOL    HW225140   1.140   2.605   2.620
 8081SOL     OW25141   6.307   5.741   6.011
 8081SOL    HW125142   6.281   5.654   6.053
 8081SOL    HW225143   6.314   5.730   5.912
 8082SOL     OW25144   3.707   0.766   2.425
 8082SOL    HW125145   3.618   0.791   2.386
 8082SOL    HW225146   3.777   0.768   2.353
 8083SOL     OW25147   5.482   2.715   3.652
 8083SOL    HW125148   5.385   2.731   3.668
 8083SOL    HW225149   5.536   2.790   3.691
 8084SOL     OW25150   2.643   0.557   0.069
 8084SOL    HW125151   2.703   0.602   0.002
 8084SOL    HW225152   2.633   0.461   0.046
 8085SOL     OW25153   6.109   5.834   2.694
 8085SOL    HW125154   6.149   5.817   2.784
 8085SOL    HW225155   6.164   5.901   2.644
 8086SOL     OW25156   0.438   0.717   1.525
 8086SOL    HW125157   0.518   0.705   1.466
 8086SOL    HW225158   0.356   0.726   1.468
 8087SOL     OW25159   1.695   0.788   6.977
 8087SOL    HW125160   1.778   0.812   0.005
 8087SOL    HW225161   1.620   0.776   0.018
 8088SOL     OW25162   5.385   0.851   0.259
 8088SOL    HW125163   5.302   0.795   0.267
 8088SOL    HW225164   5.418   0.875   0.350
 8089SOL     OW25165   5.596   3.098   6.919
 8089SOL    HW125166   5.538   3.108   7.000
 8089SOL    HW225167   5.673   3.038   6.940
 8090SOL     OW25168   3.798   1.104   6.439
 8090SOL    HW125169   3.801   1.103   6.539
 8090SOL    HW225170   3.842   1.022   6.404
 8091SOL     OW25171   1.360   3.757   5.211
 8091SOL    HW125172   1.272   3.802   5.225
 8091SOL    HW225173   1.368   3.681   5.275
 8092SOL     OW25174   4.645   2.161   5.236
 8092SOL    HW125175   4.655   2.062   5.232
 8092SOL    HW225176   4.731   2.205   5.210
 8093SOL     OW25177   2.751   5.355   3.476
 8093SOL    HW125178   2.757   5.268   3.426
 8093SOL    HW225179   2.724   5.428   3.413
 8094SOL     OW25180   0.373   2.784   4.814
 8094SOL    HW125181   0.456   2.775   4.869
 8094SOL    HW225182   0.293   2.781   4.874
 8095SOL     OW25183   1.004   3.883   5.010
 8095SOL    HW125184   1.047   3.947   4.946
 8095SOL    HW225185   1.053   3.886   5.097
 8096SOL     OW25186   2.162   0.757   2.078
 8096SOL    HW125187   2.253   0.789   2.106
 8096SOL    HW225188   2.171   0.687   2.008
 8097SOL     OW25189   4.174   6.785   4.430
 8097SOL    HW125190   4.230   6.787   4.347
 8097SOL    HW225191   4.152   6.690   4.452
 8098SOL     OW25192   2.462   6.107   3.911
 8098SOL    HW125193   2.498   6.185   3.860
 8098SOL    HW225194   2.537   6.052   3.947
 8099SOL     OW25195   4.623   6.298   4.522
 8099SOL    HW125196   4.530   6.330   4.541
 8099SOL    HW225197   4.619   6.220   4.460
 8100SOL     OW25198   6.838   1.634   6.522
 8100SOL    HW125199   6.812   1.721   6.564
 8100SOL    HW225200   6.755   1.580   6.503
 8101SOL     OW25201   1.797   5.618   0.964
 8101SOL    HW125202   1.763   5.631   0.870
 8101SOL    HW225203   1.839   5.703   0.996
 8102SOL     OW25204   0.811   3.835   2.852
 8102SOL    HW125205   0.766   3.895   2.786
 8102SOL    HW225206   0.826   3.745   2.811
 8103SOL     OW25207   3.880   0.049   1.826
 8103SOL    HW125208   3.915   6.980   1.841
 8103SOL    HW225209   3.956   0.113   1.814
 8104SOL     OW25210   1.619   0.733   6.357
 8104SOL    HW125211   1.718   0.728   6.372
 8104SOL    HW225212   1.574   0.755   6.444
 8105SOL     OW25213   6.817   2.758   2.316
 8105SOL    HW125214   6.726   2.731   2.283
 8105SOL    HW225215   6.882   2.759   2.240
 8106SOL     OW25216   2.630   6.060   3.395
 8106SOL    HW125217   2.660   6.088   3.304
 8106SOL    HW225218   2.579   5.975   3.389
 8107SOL     OW25219   0.990   5.447   3.783
 8107SOL    HW125220   0.915   5.498   3.824
 8107SOL    HW225221   1.076   5.471   3.828
 8108SOL     OW25222   6.687   2.704   6.507
 8108SOL    HW125223   6.683   2.786   6.450
 8108SOL    HW225224   6.688   2.623   6.450
 8109SOL     OW25225   0.354   3.475   6.269
 8109SOL    HW125226   0.354   3.381   6.235
 8109SOL    HW225227   0.260   3.505   6.285
 8110SOL     OW25228   4.198   5.535   2.080
 8110SOL    HW125229   4.165   5.544   2.174
 8110SOL    HW225230   4.127   5.491   2.025
 8111SOL     OW25231   4.705   1.236   4.571
 8111SOL    HW125232   4.732   1.216   4.477
 8111SOL    HW225233   4.701   1.335   4.584
 8112SOL     OW25234   2.654   2.294   4.266
 8112SOL    HW125235   2.589   2.361   4.229
 8112SOL    HW225236   2.672   2.315   4.362
 8113SOL     OW25237   0.072   3.432   0.515
 8113SOL    HW125238   0.098   3.432   0.611
 8113SOL    HW225239   0.049   3.338   0.487
 8114SOL     OW25240   1.908   3.682   2.568
 8114SOL    HW125241   2.005   3.702   2.552
 8114SOL    HW225242   1.858   3.768   2.578
 8115SOL     OW25243   3.450   6.658   6.169
 8115SOL    HW125244   3.443   6.757   6.178
 8115SOL    HW225245   3.408   6.629   6.082
 8116SOL     OW25246   3.816   4.517   0.054
 8116SOL    HW125247   3.778   4.565   6.998
 8116SOL    HW225248   3.795   4.419   0.047
 8117SOL     OW25249   2.005   0.086   3.301
 8117SOL    HW125250   1.943   0.101   3.378
 8117SOL    HW225251   1.972   0.135   3.221
 8118SOL     OW25252   5.374   3.934   5.733
 8118SOL    HW125253   5.425   4.006   5.686
 8118SOL    HW225254   5.358   3.960   5.828
 8119SOL     OW25255   5.407   6.733   6.579
 8119SOL    HW125256   5.418   6.820   6.531
 8119SOL    HW225257   5.361   6.668   6.520
 8120SOL     OW25258   3.018   4.513   1.025
 8120SOL    HW125259   3.098   4.551   0.979
 8120SOL    HW225260   2.954   4.478   0.957
 8121SOL     OW25261   0.908   4.812   1.425
 8121SOL    HW125262   0.958   4.785   1.342
 8121SOL    HW225263   0.973   4.829   1.499
 8122SOL     OW25264   0.013   4.847   2.719
 8122SOL    HW125265   6.962   4.829   2.784
 8122SOL    HW225266   0.032   4.765   2.665
 8123SOL     OW25267   0.045   2.088   0.032
 8123SOL    HW125268   6.975   2.125   0.019
 8123SOL    HW225269   0.092   2.083   6.967
 8124SOL     OW25270   5.048   5.960   2.532
 8124SOL    HW125271   5.044   5.876   2.586
 8124SOL    HW225272   5.041   5.938   2.435
 8125SOL     OW25273   1.454   1.181   3.553
 8125SOL    HW125274   1.466   1.138   3.464
 8125SOL    HW225275   1.378   1.247   3.548
 8126SOL     OW25276   5.572   5.284   3.373
 8126SOL    HW125277   5.475   5.276   3.396
 8126SOL    HW225278   5.591   5.231   3.290
 8127SOL     OW25279   2.873   3.565   6.436
 8127SOL    HW125280   2.863   3.494   6.367
 8127SOL    HW225281   2.867   3.524   6.527
 8128SOL     OW25282   2.860   2.243   2.354
 8128SOL    HW125283   2.873   2.271   2.259
 8128SOL    HW225284   2.946   2.205   2.389
 8129SOL     OW25285   3.573   1.587   6.060
 8129SOL    HW125286   3.539   1.679   6.041
 8129SOL    HW225287   3.613   1.584   6.151
 8130SOL     OW25288   0.715   5.162   6.867
 8130SOL    HW125289   0.804   5.119   6.882
 8130SOL    HW225290   0.645   5.091   6.853
 8131SOL     OW25291   2.678   1.489   1.816
 8131SOL    HW125292   2.678   1.573   1.761
 8131SOL    HW225293   2.586   1.474   1.853
 8132SOL     OW25294   5.589   6.920   5.170
 8132SOL    HW125295   5.563   6.922   5.074
 8132SOL    HW225296   5.673   6.973   5.183
 8133SOL     OW25297   2.900   5.354   2.330
 8133SOL    HW125298   2.940   5.376   2.419
 8133SOL    HW225299   2.973   5.331   2.266
 8134SOL     OW25300   0.300   1.880   6.669
 8134SOL    HW125301   0.319   1.860   6.573
 8134SOL    HW225302   0.255   1.801   6.711
 8135SOL     OW25303   2.685   0.671   1.881
 8135SOL    HW125304   2.633   0.640   1.802
 8135SOL    HW225305   2.626   0.672   1.962
 8136SOL     OW25306   4.647   5.410   2.441
 8136SOL    HW125307   4.561   5.406   2.391
 8136SOL    HW225308   4.676   5.505   2.450
 8137SOL     OW25309   3.056   0.726   4.911
 8137SOL    HW125310   3.093   0.805   4.861
 8137SOL    HW225311   3.073   0.643   4.858
 8138SOL     OW25312   5.391   1.530   1.938
 8138SOL    HW125313   5.303   1.494   1.969
 8138SOL    HW225314   5.450   1.454   1.910
 8139SOL     OW25315   0.409   0.655   2.026
 8139SOL    HW125316   0.358   0.736   1.999
 8139SOL    HW225317   0.477   0.633   1.956
 8140SOL     OW25318   6.053   0.537   5.835
 8140SOL    HW125319   6.077   0.461   5.895
 8140SOL    HW225320   6.119   0.542   5.760
 8141SOL     OW25321   4.018   5.291   5.564
 8141SOL    HW125322   3.941   5.347   5.593
 8141SOL    HW225323   4.050   5.236   5.641
 8142SOL     OW25324   6.774   5.427   0.241
 8142SOL    HW125325   6.825   5.510   0.217
 8142SOL    HW225326   6.741   5.382   0.158
 8143SOL     OW25327   6.165   4.413   0.444
 8143SOL    HW125328   6.210   4.344   0.389
 8143SOL    HW225329   6.131   4.486   0.384
 8144SOL     OW25330   5.851   6.147   6.946
 8144SOL    HW125331   5.934   6.168   6.998
 8144SOL    HW225332   5.850   6.200   6.861
 8145SOL     OW25333   4.975   5.869   1.594
 8145SOL    HW125334   4.975   5.871   1.694
 8145SOL    HW225335   5.066   5.896   1.560
 8146SOL     OW25336   3.848   1.206   4.854
 8146SOL    HW125337   3.876   1.171   4.943
 8146SOL    HW225338   3.749   1.197   4.844
 8147SOL     OW25339   5.925   2.804   2.870
 8147SOL    HW125340   5.958   2.737   2.804
 8147SOL    HW225341   5.900   2.758   2.955
 8148SOL     OW25342   5.151   4.160   1.817
 8148SOL    HW125343   5.086   4.233   1.839
 8148SOL    HW225344   5.205   4.138   1.897
 8149SOL     OW25345   2.422   6.206   1.969
 8149SOL    HW125346   2.432   6.264   1.889
 8149SOL    HW225347   2.497   6.140   1.972
 8150SOL     OW25348   0.216   4.978   6.821
 8150SOL    HW125349   0.133   4.923   6.818
 8150SOL    HW225350   0.206   5.050   6.890
 8151SOL     OW25351   6.380   2.327   1.587
 8151SOL    HW125352   6.328   2.310   1.671
 8151SOL    HW225353   6.394   2.426   1.576
 8152SOL     OW25354   0.816   2.582   2.658
 8152SOL    HW125355   0.800   2.528   2.575
 8152SOL    HW225356   0.911   2.571   2.687
 8153SOL     OW25357   3.689   0.464   2.918
 8153SOL    HW125358   3.591   0.446   2.909
 8153SOL    HW225359   3.740   0.382   2.893
 8154SOL     OW25360   2.846   5.812   3.974
 8154SOL    HW125361   2.889   5.787   4.061
 8154SOL    HW225362   2.874   5.748   3.903
 8155SOL     OW25363   2.611   3.364   1.731
 8155SOL    HW125364   2.514   3.366   1.755
 8155SOL    HW225365   2.635   3.272   1.699
 8156SOL     OW25366   5.258   6.973   6.050
 8156SOL    HW125367   5.224   6.956   5.958
 8156SOL    HW225368   5.216   6.909   6.114
 8157SOL     OW25369   5.996   5.719   6.312
 8157SOL    HW125370   5.981   5.711   6.214
 8157SOL    HW225371   6.003   5.628   6.353
 8158SOL     OW25372   0.350   5.480   1.138
 8158SOL    HW125373   0.345   5.471   1.237
 8158SOL    HW225374   0.438   5.444   1.106
 8159SOL     OW25375   2.693   6.309   2.656
 8159SOL    HW125376   2.725   6.346   2.569
 8159SOL    HW225377   2.620   6.367   2.692
 8160SOL     OW25378   4.512   1.471   1.869
 8160SOL    HW125379   4.430   1.416   1.884
 8160SOL    HW225380   4.522   1.490   1.772
 8161SOL     OW25381   5.170   1.423   0.391
 8161SOL    HW125382   5.185   1.458   0.299
 8161SOL    HW225383   5.157   1.500   0.454
 8162SOL     OW25384   6.385   6.977   6.293
 8162SOL    HW125385   6.441   6.943   6.217
 8162SOL    HW225386   6.445   7.006   6.367
 8163SOL     OW25387   2.532   3.813   5.565
 8163SOL    HW125388   2.580   3.726   5.551
 8163SOL    HW225389   2.589   3.875   5.618
 8164SOL     OW25390   5.856   3.894   0.732
 8164SOL    HW125391   5.833   3.798   0.745
 8164SOL    HW225392   5.814   3.949   0.804
 8165SOL     OW25393   1.030   4.641   6.977
 8165SOL    HW125394   1.111   4.698   6.993
 8165SOL    HW225395   1.041   4.590   6.892
 8166SOL     OW25396   2.230   0.980   2.583
 8166SOL    HW125397   2.319   0.963   2.542
 8166SOL    HW225398   2.168   0.903   2.564
 8167SOL     OW25399   5.492   1.270   3.933
 8167SOL    HW125400   5.588   1.280   3.907
 8167SOL    HW225401   5.438   1.248   3.852
 8168SOL     OW25402   3.390   0.961   2.589
 8168SOL    HW125403   3.316   0.958   2.522
 8168SOL    HW225404   3.399   1.055   2.624
 8169SOL     OW25405   5.276   3.331   1.725
 8169SOL    HW125406   5.322   3.256   1.771
 8169SOL    HW225407   5.311   3.339   1.632
 8170SOL     OW25408   1.693   6.340   2.957
 8170SOL    HW125409   1.712   6.400   2.879
 8170SOL    HW225410   1.745   6.256   2.948
 8171SOL     OW25411   1.212   1.835   6.451
 8171SOL    HW125412   1.175   1.778   6.378
 8171SOL    HW225413   1.144   1.847   6.522
 8172SOL     OW25414   0.901   0.549   1.379
 8172SOL    HW125415   0.981   0.588   1.425
 8172SOL    HW225416   0.905   0.449   1.385
 8173SOL     OW25417   3.663   1.878   0.575
 8173SOL    HW125418   3.760   1.858   0.561
 8173SOL    HW225419   3.639   1.859   0.671
 8174SOL     OW25420   4.838   1.672   1.210
 8174SOL    HW125421   4.801   1.592   1.257
 8174SOL    HW225422   4.894   1.725   1.274
 8175SOL     OW25423   0.271   2.771   6.171
 8175SOL    HW125424   0.338   2.845   6.178
 8175SOL    HW225425   0.278   2.728   6.080
 8176SOL     OW25426   2.772   5.785   1.737
 8176SOL    HW125427   2.708   5.730   1.683
 8176SOL    HW225428   2.801   5.732   1.816
 8177SOL     OW25429   2.063   6.138   4.231
 8177SOL    HW125430   2.080   6.182   4.319
 8177SOL    HW225431   1.970   6.157   4.202
 8178SOL     OW25432   1.476   6.986   6.473
 8178SOL    HW125433   1.550   0.008   6.523
 8178SOL    HW225434   1.489   6.887   6.476
 8179SOL     OW25435   3.540   3.341   0.053
 8179SOL    HW125436   3.605   3.416   0.045
 8179SOL    HW225437   3.478   3.341   6.997
 8180SOL     OW25438   6.394   0.074   4.057
 8180SOL    HW125439   6.485   0.113   4.045
 8180SOL    HW225440   6.341   0.133   4.118
 8181SOL     OW25441   1.924   1.107   2.844
 8181SOL    HW125442   1.892   1.198   2.869
 8181SOL    HW225443   2.023   1.106   2.838
 8182SOL     OW25444   3.914   1.632   6.644
 8182SOL    HW125445   3.975   1.583   6.707
 8182SOL    HW225446   3.966   1.703   6.596
 8183SOL     OW25447   0.616   2.595   4.658
 8183SOL    HW125448   0.531   2.582   4.709
 8183SOL    HW225449   0.614   2.539   4.575
 8184SOL     OW25450   5.613   1.570   5.880
 8184SOL    HW125451   5.696   1.580   5.935
 8184SOL    HW225452   5.540   1.534   5.938
 8185SOL     OW25453   3.046   0.303   0.107
 8185SOL    HW125454   3.004   0.329   0.194
 8185SOL    HW225455   3.050   0.383   0.047
 8186SOL     OW25456   2.834   6.604   6.128
 8186SOL    HW125457   2.891   6.685   6.146
 8186SOL    HW225458   2.783   6.617   6.044
 8187SOL     OW25459   1.488   2.133   5.034
 8187SOL    HW125460   1.472   2.138   4.936
 8187SOL    HW225461   1.585   2.121   5.052
 8188SOL     OW25462   5.429   1.807   2.530
 8188SOL    HW125463   5.355   1.797   2.464
 8188SOL    HW225464   5.510   1.760   2.496
 8189SOL     OW25465   4.774   4.478   1.965
 8189SOL    HW125466   4.739   4.385   1.965
 8189SOL    HW225467   4.813   4.498   1.875
 8190SOL     OW25468   4.918   5.401   4.321
 8190SOL    HW125469   4.907   5.327   4.387
 8190SOL    HW225470   4.962   5.366   4.238
 8191SOL     OW25471   2.287   5.478   3.461
 8191SOL    HW125472   2.320   5.446   3.550
 8191SOL    HW225473   2.189   5.456   3.453
 8192SOL     OW25474   2.760   6.003   0.222
 8192SOL    HW125475   2.804   5.922   0.182
 8192SOL    HW225476   2.666   5.980   0.247
 8193SOL     OW25477   5.916   6.929   4.749
 8193SOL    HW125478   5.832   6.967   4.709
 8193SOL    HW225479   5.943   6.984   4.827
 8194SOL     OW25480   6.319   2.466   6.725
 8194SOL    HW125481   6.236   2.492   6.775
 8194SOL    HW225482   6.383   2.542   6.726
 8195SOL     OW25483   0.399   0.770   0.965
 8195SOL    HW125484   0.481   0.800   1.014
 8195SOL    HW225485   0.356   0.849   0.921
 8196SOL     OW25486   3.831   6.977   5.671
 8196SOL    HW125487   3.762   0.027   5.676
 8196SOL    HW225488   3.858   6.963   5.576
 8197SOL     OW25489   5.411   1.513   6.095
 8197SOL    HW125490   5.406   1.610   6.119
 8197SOL    HW225491   5.336   1.464   6.138
 8198SOL     OW25492   3.511   6.378   2.244
 8198SOL    HW125493   3.557   6.406   2.160
 8198SOL    HW225494   3.421   6.340   2.222
 8199SOL     OW25495   6.686   3.780   0.433
 8199SOL    HW125496   6.758   3.713   0.416
 8199SOL    HW225497   6.603   3.752   0.385
 8200SOL     OW25498   4.649   4.474   1.156
 8200SOL    HW125499   4.656   4.374   1.155
 8200SOL    HW225500   4.573   4.503   1.213
 8201SOL     OW25501   5.280   0.810   4.799
 8201SOL    HW125502   5.218   0.885   4.775
 8201SOL    HW225503   5.228   0.725   4.803
 8202SOL     OW25504   1.452   5.196   4.288
 8202SOL    HW125505   1.459   5.189   4.388
 8202SOL    HW225506   1.521   5.137   4.246
 8203SOL     OW25507   4.889   3.573   1.003
 8203SOL    HW125508   4.966   3.623   0.963
 8203SOL    HW225509   4.813   3.636   1.018
 8204SOL     OW25510   3.451   6.063   0.772
 8204SOL    HW125511   3.413   6.090   0.684
 8204SOL    HW225512   3.544   6.100   0.781
 8205SOL     OW25513   5.708   4.721   1.671
 8205SOL    HW125514   5.743   4.630   1.648
 8205SOL    HW225515   5.707   4.778   1.588
 8206SOL     OW25516   3.136   2.665   5.708
 8206SOL    HW125517   3.168   2.685   5.801
 8206SOL    HW225518   3.058   2.724   5.687
 8207SOL     OW25519   3.325   4.517   5.387
 8207SOL    HW125520   3.256   4.573   5.340
 8207SOL    HW225521   3.323   4.536   5.485
 8208SOL     OW25522   2.656   6.211   1.299
 8208SOL    HW125523   2.654   6.157   1.215
 8208SOL    HW225524   2.738   6.268   1.300
 8209SOL     OW25525   1.556   1.387   5.313
 8209SOL    HW125526   1.485   1.384   5.242
 8209SOL    HW225527   1.632   1.443   5.281
 8210SOL     OW25528   3.146   0.852   0.558
 8210SOL    HW125529   3.099   0.766   0.539
 8210SOL    HW225530   3.209   0.873   0.483
 8211SOL     OW25531   3.631   4.172   4.320
 8211SOL    HW125532   3.717   4.150   4.366
 8211SOL    HW225533   3.566   4.210   4.386
 8212SOL     OW25534   2.646   0.393   0.682
 8212SOL    HW125535   2.650   0.296   0.705
 8212SOL    HW225536   2.611   0.444   0.761
 8213SOL     OW25537   4.647   5.229   3.545
 8213SOL    HW125538   4.576   5.201   3.610
 8213SOL    HW225539   4.636   5.178   3.459
 8214SOL     OW25540   2.369   5.352   4.240
 8214SOL    HW125541   2.382   5.401   4.154
 8214SOL    HW225542   2.306   5.403   4.299
 8215SOL     OW25543   4.734   6.003   0.131
 8215SOL    HW125544   4.696   5.925   0.080
 8215SOL    HW225545   4.807   6.045   0.077
 8216SOL     OW25546   5.012   6.752   2.965
 8216SOL    HW125547   5.072   6.776   3.040
 8216SOL    HW225548   4.945   6.825   2.951
 8217SOL     OW25549   2.317   4.376   2.357
 8217SOL    HW125550   2.379   4.405   2.284
 8217SOL    HW225551   2.241   4.325   2.318
 8218SOL     OW25552   2.160   6.894   5.390
 8218SOL    HW125553   2.083   6.887   5.326
 8218SOL    HW225554   2.125   6.886   5.484
 8219SOL     OW25555   2.846   4.012   1.672
 8219SOL    HW125556   2.940   4.013   1.705
 8219SOL    HW225557   2.814   4.105   1.657
 8220SOL     OW25558   3.508   4.371   5.252
 8220SOL    HW125559   3.438   4.432   5.289
 8220SOL    HW225560   3.479   4.276   5.263
 8221SOL     OW25561   5.783   4.275   3.158
 8221SOL    HW125562   5.837   4.246   3.078
 8221SOL    HW225563   5.842   4.323   3.223
 8222SOL     OW25564   6.220   3.103   1.088
 8222SOL    HW125565   6.207   3.198   1.117
 8222SOL    HW225566   6.164   3.085   1.008
 8223SOL     OW25567   6.910   5.214   5.320
 8223SOL    HW125568   6.880   5.223   5.225
 8223SOL    HW225569   6.911   5.304   5.363
 8224SOL     OW25570   4.635   1.328   0.625
 8224SOL    HW125571   4.582   1.256   0.670
 8224SOL    HW225572   4.627   1.412   0.678
 8225SOL     OW25573   3.577   7.002   0.430
 8225SOL    HW125574   3.579   6.916   0.481
 8225SOL    HW225575   3.540   0.051   0.488
 8226SOL     OW25576   3.655   0.531   0.286
 8226SOL    HW125577   3.691   0.542   0.379
 8226SOL    HW225578   3.556   0.517   0.291
 8227SOL     OW25579   5.699   1.533   2.330
 8227SOL    HW125580   5.599   1.533   2.331
 8227SOL    HW225581   5.733   1.581   2.410
 8228SOL     OW25582   0.998   1.065   5.463
 8228SOL    HW125583   1.053   0.994   5.418
 8228SOL    HW225584   0.968   1.132   5.395
 8229SOL     OW25585   3.874   4.868   0.733
 8229SOL    HW125586   3.866   4.894   0.830
 8229SOL    HW225587   3.844   4.945   0.676
 8230SOL     OW25588   4.246   6.919   5.370
 8230SOL    HW125589   4.336   6.961   5.373
 8230SOL    HW225590   4.241   6.846   5.439
 8231SOL     OW25591   3.481   1.439   2.136
 8231SOL    HW125592   3.554   1.401   2.193
 8231SOL    HW225593   3.404   1.464   2.195
 8232SOL     OW25594   4.928   1.292   2.089
 8232SOL    HW125595   4.948   1.198   2.118
 8232SOL    HW225596   4.832   1.298   2.062
 8233SOL     OW25597   0.714   0.782   5.827
 8233SOL    HW125598   0.749   0.862   5.876
 8233SOL    HW225599   0.721   0.702   5.886
 8234SOL     OW25600   3.096   3.342   6.926
 8234SOL    HW125601   3.104   3.245   6.904
 8234SOL    HW225602   3.037   3.353   7.006
 8235SOL     OW25603   6.849   5.120   6.916
 8235SOL    HW125604   6.909   5.133   6.838
 8235SOL    HW225605   6.897   5.068   6.987
 8236SOL     OW25606   7.011   6.006   5.920
 8236SOL    HW125607   6.993   5.933   5.853
 8236SOL    HW225608   0.080   5.996   5.956
 8237SOL     OW25609   4.459   5.528   6.570
 8237SOL    HW125610   4.422   5.589   6.639
 8237SOL    HW225611   4.385   5.472   6.532
 8238SOL     OW25612   1.587   5.510   6.924
 8238SOL    HW125613   1.641   5.527   7.006
 8238SOL    HW225614   1.504   5.565   6.927
 8239SOL     OW25615   0.305   1.150   4.785
 8239SOL    HW125616   0.353   1.064   4.767
 8239SOL    HW225617   0.279   1.154   4.881
 8240SOL     OW25618   3.036   3.165   3.058
 8240SOL    HW125619   3.054   3.150   2.961
 8240SOL    HW225620   2.997   3.256   3.071
 8241SOL     OW25621   1.590   3.375   0.048
 8241SOL    HW125622   1.605   3.300   7.008
 8241SOL    HW225623   1.511   3.429   0.018
 8242SOL     OW25624   1.224   3.647   4.553
 8242SOL    HW125625   1.210   3.726   4.492
 8242SOL    HW225626   1.297   3.590   4.515
 8243SOL     OW25627   0.515   4.586   5.823
 8243SOL    HW125628   0.614   4.599   5.827
 8243SOL    HW225629   0.485   4.529   5.899
 8244SOL     OW25630   0.847   0.687   3.406
 8244SOL    HW125631   0.866   0.613   3.341
 8244SOL    HW225632   0.933   0.721   3.443
 8245SOL     OW25633   4.523   1.788   3.739
 8245SOL    HW125634   4.605   1.744   3.704
 8245SOL    HW225635   4.548   1.857   3.808
 8246SOL     OW25636   1.257   4.068   6.830
 8246SOL    HW125637   1.277   3.979   6.789
 8246SOL    HW225638   1.225   4.056   6.924
 8247SOL     OW25639   2.922   4.775   3.735
 8247SOL    HW125640   2.999   4.816   3.687
 8247SOL    HW225641   2.943   4.770   3.833
 8248SOL     OW25642   0.953   5.774   3.811
 8248SOL    HW125643   0.893   5.827   3.752
 8248SOL    HW225644   1.040   5.758   3.764
 8249SOL     OW25645   2.442   2.138   5.240
 8249SOL    HW125646   2.367   2.144   5.175
 8249SOL    HW225647   2.411   2.167   5.331
 8250SOL     OW25648   3.090   1.732   0.766
 8250SOL    HW125649   3.031   1.702   0.691
 8250SOL    HW225650   3.117   1.652   0.821
 8251SOL     OW25651   6.858   2.087   4.936
 8251SOL    HW125652   6.932   2.061   4.874
 8251SOL    HW225653   6.852   2.186   4.942
 8252SOL     OW25654   2.501   2.614   6.537
 8252SOL    HW125655   2.429   2.552   6.568
 8252SOL    HW225656   2.552   2.647   6.617
 8253SOL     OW25657   3.606   5.778   6.241
 8253SOL    HW125658   3.646   5.863   6.274
 8253SOL    HW225659   3.517   5.797   6.200
 8254SOL     OW25660   6.260   5.039   6.439
 8254SOL    HW125661   6.245   4.977   6.362
 8254SOL    HW225662   6.358   5.047   6.456
 8255SOL     OW25663   0.528   6.940   6.727
 8255SOL    HW125664   0.525   6.866   6.659
 8255SOL    HW225665   0.583   7.016   6.691
 8256SOL     OW25666   1.101   6.599   2.674
 8256SOL    HW125667   1.136   6.692   2.665
 8256SOL    HW225668   1.006   6.602   2.705
 8257SOL     OW25669   5.876   4.134   3.894
 8257SOL    HW125670   5.920   4.133   3.804
 8257SOL    HW225671   5.811   4.211   3.897
 8258SOL     OW25672   5.528   2.950   1.276
 8258SOL    HW125673   5.508   2.930   1.372
 8258SOL    HW225674   5.457   2.909   1.218
 8259SOL     OW25675   4.608   2.129   4.434
 8259SOL    HW125676   4.606   2.063   4.359
 8259SOL    HW225677   4.578   2.218   4.401
 8260SOL     OW25678   2.367   6.693   0.187
 8260SOL    HW125679   2.292   6.629   0.202
 8260SOL    HW225680   2.452   6.653   0.222
 8261SOL     OW25681   5.385   6.113   3.052
 8261SOL    HW125682   5.349   6.141   3.141
 8261SOL    HW225683   5.321   6.138   2.980
 8262SOL     OW25684   0.486   4.713   0.670
 8262SOL    HW125685   0.401   4.663   0.688
 8262SOL    HW225686   0.506   4.709   0.572
 8263SOL     OW25687   6.724   2.926   6.361
 8263SOL    HW125688   6.747   3.014   6.403
 8263SOL    HW225689   6.738   2.932   6.263
 8264SOL     OW25690   2.200   0.022   1.515
 8264SOL    HW125691   2.155   7.021   1.429
 8264SOL    HW225692   2.133   0.059   1.579
 8265SOL     OW25693   4.089   0.246   1.760
 8265SOL    HW125694   4.124   0.200   1.678
 8265SOL    HW225695   4.161   0.302   1.800
 8266SOL     OW25696   2.789   0.099   4.307
 8266SOL    HW125697   2.725   0.170   4.334
 8266SOL    HW225698   2.867   0.140   4.259
 8267SOL     OW25699   1.618   5.101   2.408
 8267SOL    HW125700   1.639   5.120   2.312
 8267SOL    HW225701   1.647   5.008   2.430
 8268SOL     OW25702   2.789   4.079   6.813
 8268SOL    HW125703   2.715   4.105   6.874
 8268SOL    HW225704   2.830   4.162   6.774
 8269SOL     OW25705   4.676   2.665   3.028
 8269SOL    HW125706   4.682   2.748   3.084
 8269SOL    HW225707   4.650   2.588   3.086
 8270SOL     OW25708   3.114   0.044   5.500
 8270SOL    HW125709   3.050   0.120   5.512
 8270SOL    HW225710   3.141   0.009   5.589
 8271SOL     OW25711   5.217   6.155   4.561
 8271SOL    HW125712   5.261   6.225   4.505
 8271SOL    HW225713   5.182   6.196   4.645
 8272SOL     OW25714   0.821   0.407   2.396
 8272SOL    HW125715   0.723   0.419   2.413
 8272SOL    HW225716   0.873   0.449   2.470
 8273SOL     OW25717   2.818   6.814   6.655
 8273SOL    HW125718   2.813   6.743   6.585
 8273SOL    HW225719   2.909   6.816   6.695
 8274SOL     OW25720   4.726   4.874   6.848
 8274SOL    HW125721   4.737   4.855   6.946
 8274SOL    HW225722   4.637   4.916   6.832
 8275SOL     OW25723   6.992   0.060   4.760
 8275SOL    HW125724   6.908   0.066   4.814
 8275SOL    HW225725   7.010   0.148   4.716
 8276SOL     OW25726   6.735   2.425   5.511
 8276SOL    HW125727   6.667   2.394   5.578
 8276SOL    HW225728   6.767   2.346   5.458
 8277SOL     OW25729   1.469   6.082   5.416
 8277SOL    HW125730   1.528   6.063   5.337
 8277SOL    HW225731   1.411   6.161   5.396
 8278SOL     OW25732   3.314   1.474   6.151
 8278SOL    HW125733   3.262   1.533   6.089
 8278SOL    HW225734   3.410   1.503   6.152
 8279SOL     OW25735   4.944   6.097   6.989
 8279SOL    HW125736   5.040   6.106   7.016
 8279SOL    HW225737   4.915   6.178   6.938
 8280SOL     OW25738   4.752   2.581   0.101
 8280SOL    HW125739   4.764   2.658   0.039
 8280SOL    HW225740   4.679   2.601   0.166
 8281SOL     OW25741   1.822   4.897   0.264
 8281SOL    HW125742   1.783   4.940   0.183
 8281SOL    HW225743   1.880   4.962   0.312
 8282SOL     OW25744   2.512   2.481   1.276
 8282SOL    HW125745   2.551   2.495   1.367
 8282SOL    HW225746   2.419   2.445   1.285
 8283SOL     OW25747   0.475   5.157   3.752
 8283SOL    HW125748   0.558   5.125   3.707
 8283SOL    HW225749   0.438   5.236   3.702
 8284SOL     OW25750   1.739   2.788   2.740
 8284SOL    HW125751   1.662   2.776   2.802
 8284SOL    HW225752   1.712   2.761   2.647
 8285SOL     OW25753   3.258   4.017   5.852
 8285SOL    HW125754   3.327   4.016   5.925
 8285SOL    HW225755   3.286   4.080   5.780
 8286SOL     OW25756   5.536   0.940   4.570
 8286SOL    HW125757   5.536   0.912   4.666
 8286SOL    HW225758   5.562   0.863   4.512
 8287SOL     OW25759   1.171   6.749   4.304
 8287SOL    HW125760   1.087   6.735   4.357
 8287SOL    HW225761   1.250   6.742   4.365
 8288SOL     OW25762   2.206   2.104   2.164
 8288SOL    HW125763   2.266   2.184   2.170
 8288SOL    HW225764   2.121   2.129   2.116
 8289SOL     OW25765   6.017   1.496   5.372
 8289SOL    HW125766   6.031   1.591   5.398
 8289SOL    HW225767   5.990   1.443   5.452
 8290SOL     OW25768   3.619   2.926   1.350
 8290SOL    HW125769   3.645   2.932   1.254
 8290SOL    HW225770   3.543   2.987   1.369
 8291SOL     OW25771   5.655   6.960   6.668
 8291SOL    HW125772   5.682   6.879   6.616
 8291SOL    HW225773   5.637   0.013   6.606
 8292SOL     OW25774   0.988   5.191   5.563
 8292SOL    HW125775   0.902   5.154   5.527
 8292SOL    HW225776   0.979   5.291   5.573
 8293SOL     OW25777   1.753   4.863   2.125
 8293SOL    HW125778   1.810   4.840   2.046
 8293SOL    HW225779   1.810   4.908   2.195
 8294SOL     OW25780   0.049   3.892   5.735
 8294SOL    HW125781   7.023   3.858   5.815
 8294SOL    HW225782   0.012   3.981   5.708
 8295SOL     OW25783   4.994   3.596   3.254
 8295SOL    HW125784   5.026   3.616   3.161
 8295SOL    HW225785   4.955   3.678   3.295
 8296SOL     OW25786   3.282   5.741   6.712
 8296SOL    HW125787   3.317   5.654   6.678
 8296SOL    HW225788   3.185   5.732   6.733
 8297SOL     OW25789   6.261   4.370   2.421
 8297SOL    HW125790   6.171   4.365   2.377
 8297SOL    HW225791   6.281   4.284   2.467
 8298SOL     OW25792   0.990   0.736   6.632
 8298SOL    HW125793   1.023   0.724   6.538
 8298SOL    HW225794   1.060   0.780   6.687
 8299SOL     OW25795   6.939   3.573   2.002
 8299SOL    HW125796   7.015   3.615   2.052
 8299SOL    HW225797   6.853   3.594   2.048
 8300SOL     OW25798   5.414   5.311   4.458
 8300SOL    HW125799   5.462   5.396   4.436
 8300SOL    HW225800   5.316   5.323   4.441
 8301SOL     OW25801   4.160   6.872   0.010
 8301SOL    HW125802   4.145   6.953   6.976
 8301SOL    HW225803   4.257   6.863   0.030
 8302SOL     OW25804   3.004   6.214   4.481
 8302SOL    HW125805   3.013   6.285   4.411
 8302SOL    HW225806   3.042   6.248   4.568
 8303SOL     OW25807   6.612   0.232   2.082
 8303SOL    HW125808   6.694   0.237   2.140
 8303SOL    HW225809   6.562   0.148   2.102
 8304SOL     OW25810   5.600   4.000   3.704
 8304SOL    HW125811   5.626   3.927   3.767
 8304SOL    HW225812   5.674   4.015   3.639
 8305SOL     OW25813   4.432   5.724   4.117
 8305SOL    HW125814   4.481   5.792   4.171
 8305SOL    HW225815   4.425   5.639   4.169
 8306SOL     OW25816   6.355   1.193   2.635
 8306SOL    HW125817   6.299   1.272   2.610
 8306SOL    HW225818   6.394   1.207   2.726
 8307SOL     OW25819   1.434   4.769   1.384
 8307SOL    HW125820   1.430   4.669   1.380
 8307SOL    HW225821   1.341   4.805   1.394
 8308SOL     OW25822   1.355   4.365   0.457
 8308SOL    HW125823   1.391   4.454   0.431
 8308SOL    HW225824   1.285   4.337   0.392
 8309SOL     OW25825   6.450   4.945   4.795
 8309SOL    HW125826   6.459   4.849   4.821
 8309SOL    HW225827   6.396   4.952   4.711
 8310SOL     OW25828   0.324   6.684   0.721
 8310SOL    HW125829   0.409   6.655   0.765
 8310SOL    HW225830   0.325   6.783   0.709
 8311SOL     OW25831   5.287   6.489   4.118
 8311SOL    HW125832   5.320   6.583   4.113
 8311SOL    HW225833   5.188   6.487   4.104
 8312SOL     OW25834   5.205   0.014   0.203
 8312SOL    HW125835   5.210   0.112   0.187
 8312SOL    HW225836   5.246   7.015   0.291
 8313SOL     OW25837   3.606   6.656   5.515
 8313SOL    HW125838   3.602   6.669   5.614
 8313SOL    HW225839   3.702   6.653   5.486
 8314SOL     OW25840   5.225   6.362   6.548
 8314SOL    HW125841   5.218   6.456   6.515
 8314SOL    HW225842   5.134   6.329   6.573
 8315SOL     OW25843   3.546   3.550   3.931
 8315SOL    HW125844   3.562   3.541   3.832
 8315SOL    HW225845   3.545   3.459   3.972
 8316SOL     OW25846   1.183   3.310   6.953
 8316SOL    HW125847   1.242   3.237   6.987
 8316SOL    HW225848   1.239   3.390   6.930
 8317SOL     OW25849   1.752   2.125   5.029
 8317SOL    HW125850   1.827   2.120   5.095
 8317SOL    HW225851   1.784   2.174   4.947
 8318SOL     OW25852   4.176   0.532   6.223
 8318SOL    HW125853   4.187   0.434   6.236
 8318SOL    HW225854   4.096   0.550   6.165
 8319SOL     OW25855   0.879   0.202   6.391
 8319SOL    HW125856   0.827   0.288   6.390
 8319SOL    HW225857   0.878   0.163   6.299
 8320SOL     OW25858   3.019   3.846   4.393
 8320SOL    HW125859   2.997   3.749   4.401
 8320SOL    HW225860   3.003   3.892   4.480
 8321SOL     OW25861   7.007   0.735   6.681
 8321SOL    HW125862   0.031   0.774   6.760
 8321SOL    HW225863   6.908   0.733   6.698
 8322SOL     OW25864   0.229   1.433   0.431
 8322SOL    HW125865   0.134   1.402   0.429
 8322SOL    HW225866   0.281   1.386   0.360
 8323SOL     OW25867   4.997   4.311   1.201
 8323SOL    HW125868   5.058   4.324   1.123
 8323SOL    HW225869   4.905   4.290   1.167
 8324SOL     OW25870   6.285   1.270   6.635
 8324SOL    HW125871   6.223   1.196   6.609
 8324SOL    HW225872   6.247   1.357   6.604
 8325SOL     OW25873   1.458   5.772   4.928
 8325SOL    HW125874   1.380   5.829   4.902
 8325SOL    HW225875   1.452   5.683   4.882
 8326SOL     OW25876   2.897   4.166   0.250
 8326SOL    HW125877   2.914   4.157   0.151
 8326SOL    HW225878   2.958   4.236   0.287
 8327SOL     OW25879   0.867   0.829   5.611
 8327SOL    HW125880   0.789   0.813   5.672
 8327SOL    HW225881   0.920   0.907   5.646
 8328SOL     OW25882   0.653   6.261   5.751
 8328SOL    HW125883   0.559   6.289   5.729
 8328SOL    HW225884   0.713   6.341   5.746
 8329SOL     OW25885   0.689   2.630   5.118
 8329SOL    HW125886   0.784   2.660   5.124
 8329SOL    HW225887   0.676   2.548   5.173
 8330SOL     OW25888   4.118   1.023   6.628
 8330SOL    HW125889   4.170   0.942   6.655
 8330SOL    HW225890   4.115   1.030   6.528
 8331SOL     OW25891   2.006   2.194   0.568
 8331SOL    HW125892   2.079   2.246   0.525
 8331SOL    HW225893   1.996   2.105   0.522
 8332SOL     OW25894   4.956   4.825   1.912
 8332SOL    HW125895   4.951   4.822   1.812
 8332SOL    HW225896   4.872   4.865   1.948
 8333SOL     OW25897   1.973   4.864   0.940
 8333SOL    HW125898   1.942   4.881   1.034
 8333SOL    HW225899   1.897   4.879   0.877
 8334SOL     OW25900   3.388   1.714   6.732
 8334SOL    HW125901   3.485   1.719   6.712
 8334SOL    HW225902   3.341   1.791   6.687
 8335SOL     OW25903   4.753   2.802   6.981
 8335SOL    HW125904   4.692   2.821   6.904
 8335SOL    HW225905   4.745   2.875   0.026
 8336SOL     OW25906   1.365   3.489   2.414
 8336SOL    HW125907   1.269   3.514   2.427
 8336SOL    HW225908   1.405   3.465   2.503
 8337SOL     OW25909   1.118   0.848   5.350
 8337SOL    HW125910   1.210   0.869   5.316
 8337SOL    HW225911   1.116   0.755   5.388
 8338SOL     OW25912   3.866   4.876   1.874
 8338SOL    HW125913   3.860   4.939   1.797
 8338SOL    HW225914   3.773   4.853   1.905
 8339SOL     OW25915   0.184   0.964   0.812
 8339SOL    HW125916   0.097   1.012   0.809
 8339SOL    HW225917   0.177   0.878   0.761
 8340SOL     OW25918   5.209   2.648   1.128
 8340SOL    HW125919   5.152   2.572   1.159
 8340SOL    HW225920   5.278   2.668   1.198
 8341SOL     OW25921   3.550   0.027   6.063
 8341SOL    HW125922   3.626   0.092   6.063
 8341SOL    HW225923   3.534   7.018   6.157
 8342SOL     OW25924   3.264   6.310   0.245
 8342SOL    HW125925   3.213   6.342   0.164
 8342SOL    HW225926   3.326   6.237   0.218
 8343SOL     OW25927   6.415   5.006   3.811
 8343SOL    HW125928   6.495   4.997   3.870
 8343SOL    HW225929   6.432   5.077   3.743
 8344SOL     OW25930   0.353   4.265   4.428
 8344SOL    HW125931   0.397   4.323   4.359
 8344SOL    HW225932   0.304   4.322   4.494
 8345SOL     OW25933   5.332   1.208   3.370
 8345SOL    HW125934   5.265   1.209   3.444
 8345SOL    HW225935   5.311   1.281   3.305
 8346SOL     OW25936   4.280   3.113   6.390
 8346SOL    HW125937   4.362   3.150   6.435
 8346SOL    HW225938   4.305   3.030   6.339
 8347SOL     OW25939   2.053   0.018   6.389
 8347SOL    HW125940   2.043   0.101   6.333
 8347SOL    HW225941   2.148   0.010   6.419
 8348SOL     OW25942   3.469   6.981   1.351
 8348SOL    HW125943   3.492   6.933   1.435
 8348SOL    HW225944   3.416   0.040   1.373
 8349SOL     OW25945   0.495   7.014   2.220
 8349SOL    HW125946   0.433   6.989   2.294
 8349SOL    HW225947   0.521   0.088   2.230
 8350SOL     OW25948   3.106   0.209   6.103
 8350SOL    HW125949   3.011   0.197   6.130
 8350SOL    HW225950   3.166   0.178   6.177
 8351SOL     OW25951   6.071   5.807   4.245
 8351SOL    HW125952   6.158   5.813   4.196
 8351SOL    HW225953   6.075   5.731   4.310
 8352SOL     OW25954   2.837   6.231   2.429
 8352SOL    HW125955   2.880   6.166   2.366
 8352SOL    HW225956   2.883   6.225   2.518
 8353SOL     OW25957   1.206   3.876   1.611
 8353SOL    HW125958   1.227   3.786   1.574
 8353SOL    HW225959   1.263   3.945   1.565
 8354SOL     OW25960   3.456   6.562   3.764
 8354SOL    HW125961   3.381   6.595   3.821
 8354SOL    HW225962   3.493   6.637   3.710
 8355SOL     OW25963   1.221   0.021   6.413
 8355SOL    HW125964   1.190   0.098   6.468
 8355SOL    HW225965   1.321   0.015   6.416
 8356SOL     OW25966   1.225   5.859   2.069
 8356SOL    HW125967   1.176   5.944   2.050
 8356SOL    HW225968   1.180   5.810   2.144
 8357SOL     OW25969   3.830   5.505   6.077
 8357SOL    HW125970   3.732   5.505   6.100
 8357SOL    HW225971   3.843   5.543   5.986
 8358SOL     OW25972   1.472   2.836   5.671
 8358SOL    HW125973   1.484   2.932   5.695
 8358SOL    HW225974   1.375   2.813   5.673
 8359SOL     OW25975   2.427   0.645   4.395
 8359SOL    HW125976   2.453   0.648   4.491
 8359SOL    HW225977   2.412   0.550   4.367
 8360SOL     OW25978   4.521   6.761   0.699
 8360SOL    HW125979   4.617   6.733   0.690
 8360SOL    HW225980   4.470   6.691   0.748
 8361SOL     OW25981   2.298   0.231   6.584
 8361SOL    HW125982   2.244   0.315   6.589
 8361SOL    HW225983   2.243   0.154   6.618
 8362SOL     OW25984   6.250   2.283   0.317
 8362SOL    HW125985   6.345   2.296   0.344
 8362SOL    HW225986   6.225   2.351   0.248
 8363SOL     OW25987   4.051   2.142   0.435
 8363SOL    HW125988   4.104   2.151   0.520
 8363SOL    HW225989   3.990   2.221   0.425
 8364SOL     OW25990   0.573   2.952   3.756
 8364SOL    HW125991   0.576   2.906   3.667
 8364SOL    HW225992   0.570   3.051   3.741
 8365SOL     OW25993   1.953   2.481   2.078
 8365SOL    HW125994   1.986   2.435   2.160
 8365SOL    HW225995   1.862   2.448   2.056
 8366SOL     OW25996   4.042   5.538   1.170
 8366SOL    HW125997   4.096   5.620   1.191
 8366SOL    HW225998   4.047   5.474   1.246
 8367SOL     OW25999   2.981   5.151   4.528
 8367SOL    HW126000   2.898   5.097   4.523
 8367SOL    HW226001   2.998   5.179   4.623
 8368SOL     OW26002   0.670   6.190   6.951
 8368SOL    HW126003   0.606   6.143   6.890
 8368SOL    HW226004   0.764   6.169   6.924
 8369SOL     OW26005   0.775   2.037   1.175
 8369SOL    HW126006   0.771   1.956   1.233
 8369SOL    HW226007   0.697   2.097   1.195
 8370SOL     OW26008   2.725   1.837   7.015
 8370SOL    HW126009   2.644   1.886   6.983
 8370SOL    HW226010   2.757   1.775   6.943
 8371SOL     OW26011   1.952   3.039   5.607
 8371SOL    HW126012   1.949   3.138   5.589
 8371SOL    HW226013   1.879   2.994   5.556
 8372SOL     OW26014   2.664   6.404   1.924
 8372SOL    HW126015   2.740   6.468   1.914
 8372SOL    HW226016   2.691   6.329   1.984
 8373SOL     OW26017   0.496   1.573   4.744
 8373SOL    HW126018   0.424   1.506   4.764
 8373SOL    HW226019   0.521   1.568   4.648
 8374SOL     OW26020   1.116   0.489   4.074
 8374SOL    HW126021   1.121   0.553   4.150
 8374SOL    HW226022   1.207   0.452   4.055
 8375SOL     OW26023   3.955   0.791   5.421
 8375SOL    HW126024   3.967   0.742   5.507
 8375SOL    HW226025   3.936   0.725   5.348
 8376SOL     OW26026   1.340   1.097   3.812
 8376SOL    HW126027   1.414   1.082   3.878
 8376SOL    HW226028   1.380   1.117   3.722
 8377SOL     OW26029   5.197   5.614   0.246
 8377SOL    HW126030   5.204   5.696   0.189
 8377SOL    HW226031   5.194   5.640   0.342
 8378SOL     OW26032   5.281   5.480   3.126
 8378SOL    HW126033   5.309   5.531   3.046
 8378SOL    HW226034   5.314   5.385   3.119
 8379SOL     OW26035   4.984   2.032   1.707
 8379SOL    HW126036   4.982   1.933   1.689
 8379SOL    HW226037   4.902   2.058   1.759
 8380SOL     OW26038   6.728   6.791   0.062
 8380SOL    HW126039   6.803   6.855   0.046
 8380SOL    HW226040   6.725   6.768   0.160
 8381SOL     OW26041   0.310   2.390   2.804
 8381SOL    HW126042   0.248   2.444   2.746
 8381SOL    HW226043   0.370   2.451   2.855
 8382SOL     OW26044   2.349   0.124   0.550
 8382SOL    HW126045   2.312   0.123   0.457
 8382SOL    HW226046   2.356   0.218   0.582
 8383SOL     OW26047   2.691   0.062   5.275
 8383SOL    HW126048   2.661   6.991   5.257
 8383SOL    HW226049   2.708   0.108   5.188
 8384SOL     OW26050   6.747   1.920   1.346
 8384SOL    HW126051   6.847   1.913   1.346
 8384SOL    HW226052   6.720   2.008   1.387
 8385SOL     OW26053   4.563   2.758   0.973
 8385SOL    HW126054   4.506   2.702   0.913
 8385SOL    HW226055   4.507   2.800   1.044
 8386SOL     OW26056   1.939   5.861   1.015
 8386SOL    HW126057   1.989   5.945   0.995
 8386SOL    HW226058   1.961   5.830   1.107
 8387SOL     OW26059   2.390   1.825   1.537
 8387SOL    HW126060   2.376   1.881   1.618
 8387SOL    HW226061   2.321   1.753   1.533
 8388SOL     OW26062   1.420   6.904   0.364
 8388SOL    HW126063   1.330   6.869   0.339
 8388SOL    HW226064   1.448   6.972   0.296
 8389SOL     OW26065   1.886   3.430   4.035
 8389SOL    HW126066   1.830   3.419   3.953
 8389SOL    HW226067   1.964   3.368   4.031
 8390SOL     OW26068   3.274   0.451   6.512
 8390SOL    HW126069   3.366   0.489   6.519
 8390SOL    HW226070   3.256   0.392   6.590
 8391SOL     OW26071   5.308   5.506   1.143
 8391SOL    HW126072   5.354   5.484   1.229
 8391SOL    HW226073   5.288   5.604   1.140
 8392SOL     OW26074   6.323   5.520   5.044
 8392SOL    HW126075   6.346   5.489   5.137
 8392SOL    HW226076   6.264   5.601   5.050
 8393SOL     OW26077   0.186   0.178   3.751
 8393SOL    HW126078   0.214   0.226   3.834
 8393SOL    HW226079   0.132   0.098   3.775
 8394SOL     OW26080   0.930   1.512   2.599
 8394SOL    HW126081   1.028   1.522   2.611
 8394SOL    HW226082   0.882   1.580   2.655
 8395SOL     OW26083   0.677   6.469   4.116
 8395SOL    HW126084   0.588   6.424   4.113
 8395SOL    HW226085   0.745   6.408   4.157
 8396SOL     OW26086   4.563   4.392   2.756
 8396SOL    HW126087   4.572   4.383   2.656
 8396SOL    HW226088   4.647   4.363   2.800
 8397SOL     OW26089   2.459   6.849   2.881
 8397SOL    HW126090   2.471   6.845   2.980
 8397SOL    HW226091   2.546   6.830   2.836
 8398SOL     OW26092   3.787   1.626   0.073
 8398SOL    HW126093   3.881   1.660   0.073
 8398SOL    HW226094   3.762   1.598   0.165
 8399SOL     OW26095   6.104   6.443   0.473
 8399SOL    HW126096   6.133   6.514   0.408
 8399SOL    HW226097   6.014   6.466   0.509
 8400SOL     OW26098   0.645   0.411   2.987
 8400SOL    HW126099   0.717   0.342   2.996
 8400SOL    HW226100   0.602   0.425   3.076
 8401SOL     OW26101   4.313   3.239   5.860
 8401SOL    HW126102   4.300   3.253   5.958
 8401SOL    HW226103   4.229   3.203   5.819
 8402SOL     OW26104   3.381   1.210   5.851
 8402SOL    HW126105   3.394   1.256   5.763
 8402SOL    HW226106   3.468   1.208   5.900
 8403SOL     OW26107   0.526   1.602   3.497
 8403SOL    HW126108   0.532   1.502   3.508
 8403SOL    HW226109   0.617   1.642   3.506
 8404SOL     OW26110   5.733   6.749   6.511
 8404SOL    HW126111   5.689   6.799   6.436
 8404SOL    HW226112   5.810   6.696   6.476
 8405SOL     OW26113   1.982   1.739   0.252
 8405SOL    HW126114   1.906   1.693   0.207
 8405SOL    HW226115   2.066   1.726   0.199
 8406SOL     OW26116   4.319   1.548   0.637
 8406SOL    HW126117   4.259   1.491   0.693
 8406SOL    HW226118   4.351   1.496   0.558
 8407SOL     OW26119   5.244   5.230   4.181
 8407SOL    HW126120   5.162   5.247   4.126
 8407SOL    HW226121   5.324   5.268   4.134
 8408SOL     OW26122   5.170   0.911   3.799
 8408SOL    HW126123   5.103   0.986   3.794
 8408SOL    HW226124   5.180   0.883   3.894
 8409SOL     OW26125   0.070   2.260   3.864
 8409SOL    HW126126   0.110   2.209   3.940
 8409SOL    HW226127   7.019   2.206   3.823
 8410SOL     OW26128   4.329   0.970   1.595
 8410SOL    HW126129   4.230   0.959   1.598
 8410SOL    HW226130   4.359   1.021   1.675
 8411SOL     OW26131   1.823   5.294   3.586
 8411SOL    HW126132   1.743   5.237   3.568
 8411SOL    HW226133   1.795   5.376   3.636
 8412SOL     OW26134   4.376   1.816   1.180
 8412SOL    HW126135   4.346   1.890   1.240
 8412SOL    HW226136   4.436   1.753   1.231
 8413SOL     OW26137   4.520   4.446   0.396
 8413SOL    HW126138   4.562   4.355   0.404
 8413SOL    HW226139   4.421   4.438   0.396
 8414SOL     OW26140   3.852   0.192   2.486
 8414SOL    HW126141   3.843   0.217   2.390
 8414SOL    HW226142   3.817   0.266   2.543
 8415SOL     OW26143   0.573   4.806   3.623
 8415SOL    HW126144   0.591   4.828   3.527
 8415SOL    HW226145   0.642   4.851   3.680
 8416SOL     OW26146   4.798   4.654   2.649
 8416SOL    HW126147   4.757   4.698   2.729
 8416SOL    HW226148   4.750   4.684   2.566
 8417SOL     OW26149   1.700   6.350   5.353
 8417SOL    HW126150   1.617   6.366   5.407
 8417SOL    HW226151   1.675   6.308   5.266
 8418SOL     OW26152   5.380   5.111   1.730
 8418SOL    HW126153   5.388   5.209   1.715
 8418SOL    HW226154   5.313   5.093   1.802
 8419SOL     OW26155   4.621   0.613   1.964
 8419SOL    HW126156   4.533   0.612   1.916
 8419SOL    HW226157   4.689   0.565   1.909
 8420SOL     OW26158   3.452   6.456   0.839
 8420SOL    HW126159   3.461   6.364   0.876
 8420SOL    HW226160   3.360   6.469   0.803
 8421SOL     OW26161   3.014   6.967   1.391
 8421SOL    HW126162   3.055   6.877   1.376
 8421SOL    HW226163   2.917   6.956   1.414
 8422SOL     OW26164   5.287   6.289   1.171
 8422SOL    HW126165   5.386   6.303   1.178
 8422SOL    HW226166   5.245   6.310   1.259
 8423SOL     OW26167   4.053   4.796   6.547
 8423SOL    HW126168   4.056   4.870   6.479
 8423SOL    HW226169   4.117   4.724   6.520
 8424SOL     OW26170   2.812   2.325   2.792
 8424SOL    HW126171   2.770   2.336   2.882
 8424SOL    HW226172   2.884   2.256   2.798
 8425SOL     OW26173   6.807   5.471   1.101
 8425SOL    HW126174   6.849   5.520   1.178
 8425SOL    HW226175   6.771   5.383   1.134
 8426SOL     OW26176   3.630   3.134   3.856
 8426SOL    HW126177   3.724   3.136   3.892
 8426SOL    HW226178   3.586   3.049   3.882
 8427SOL     OW26179   1.520   4.102   6.110
 8427SOL    HW126180   1.531   4.013   6.155
 8427SOL    HW226181   1.605   4.154   6.120
 8428SOL     OW26182   6.522   4.537   2.119
 8428SOL    HW126183   6.535   4.511   2.215
 8428SOL    HW226184   6.608   4.570   2.081
 8429SOL     OW26185   2.060   4.434   4.596
 8429SOL    HW126186   2.128   4.486   4.544
 8429SOL    HW226187   2.091   4.423   4.690
 8430SOL     OW26188   3.977   5.131   2.882
 8430SOL    HW126189   4.060   5.186   2.885
 8430SOL    HW226190   4.000   5.035   2.894
 8431SOL     OW26191   2.300   4.862   1.065
 8431SOL    HW126192   2.315   4.890   0.970
 8431SOL    HW226193   2.339   4.771   1.080
 8432SOL     OW26194   4.339   5.035   5.833
 8432SOL    HW126195   4.382   4.967   5.772
 8432SOL    HW226196   4.401   5.112   5.845
 8433SOL     OW26197   0.457   2.872   6.527
 8433SOL    HW126198   0.543   2.912   6.561
 8433SOL    HW226199   0.380   2.918   6.569
 8434SOL     OW26200   3.094   0.005   5.198
 8434SOL    HW126201   3.100   0.060   5.282
 8434SOL    HW226202   3.171   0.027   5.138
 8435SOL     OW26203   5.026   1.828   1.387
 8435SOL    HW126204   5.121   1.796   1.388
 8435SOL    HW226205   4.980   1.798   1.470
 8436SOL     OW26206   3.932   6.336   3.744
 8436SOL    HW126207   3.861   6.401   3.716
 8436SOL    HW226208   4.022   6.371   3.718
 8437SOL     OW26209   1.800   0.136   2.024
 8437SOL    HW126210   1.767   0.230   2.013
 8437SOL    HW226211   1.726   0.072   2.004
 8438SOL     OW26212   2.924   4.844   2.142
 8438SOL    HW126213   3.024   4.845   2.137
 8438SOL    HW226214   2.890   4.752   2.123
 8439SOL     OW26215   6.740   5.846   1.679
 8439SOL    HW126216   6.687   5.903   1.742
 8439SOL    HW226217   6.817   5.899   1.643
 8440SOL     OW26218   0.142   0.725   2.717
 8440SOL    HW126219   0.166   0.801   2.657
 8440SOL    HW226220   0.222   0.696   2.769
 8441SOL     OW26221   6.153   5.936   0.502
 8441SOL    HW126222   6.053   5.929   0.501
 8441SOL    HW226223   6.180   6.020   0.549
 8442SOL     OW26224   4.077   3.269   6.564
 8442SOL    HW126225   4.024   3.198   6.611
 8442SOL    HW226226   4.129   3.228   6.489
 8443SOL     OW26227   1.693   7.020   3.105
 8443SOL    HW126228   1.639   6.980   3.030
 8443SOL    HW226229   1.689   0.097   3.100
 8444SOL     OW26230   3.217   6.218   3.716
 8444SOL    HW126231   3.265   6.249   3.798
 8444SOL    HW226232   3.136   6.166   3.743
 8445SOL     OW26233   3.135   5.054   1.984
 8445SOL    HW126234   3.163   4.986   2.052
 8445SOL    HW226235   3.079   5.010   1.914
 8446SOL     OW26236   4.529   5.508   1.395
 8446SOL    HW126237   4.624   5.482   1.408
 8446SOL    HW226238   4.511   5.522   1.297
 8447SOL     OW26239   6.038   2.362   2.631
 8447SOL    HW126240   6.104   2.350   2.558
 8447SOL    HW226241   5.946   2.367   2.592
 8448SOL     OW26242   0.243   3.734   5.294
 8448SOL    HW126243   0.161   3.703   5.342
 8448SOL    HW226244   0.263   3.828   5.320
 8449SOL     OW26245   0.410   3.181   4.082
 8449SOL    HW126246   0.351   3.209   4.158
 8449SOL    HW226247   0.354   3.163   4.001
 8450SOL     OW26248   2.184   6.183   2.073
 8450SOL    HW126249   2.214   6.206   2.166
 8450SOL    HW226250   2.263   6.173   2.014
 8451SOL     OW26251   4.089   2.588   0.935
 8451SOL    HW126252   4.101   2.534   0.852
 8451SOL    HW226253   4.033   2.537   1.001
 8452SOL     OW26254   7.022   0.157   0.903
 8452SOL    HW126255   0.046   0.091   0.844
 8452SOL    HW226256   6.964   0.109   0.968
 8453SOL     OW26257   6.714   4.890   6.094
 8453SOL    HW126258   6.781   4.824   6.129
 8453SOL    HW226259   6.631   4.886   6.150
 8454SOL     OW26260   1.743   5.662   1.701
 8454SOL    HW126261   1.649   5.690   1.678
 8454SOL    HW226262   1.806   5.736   1.677
 8455SOL     OW26263   4.869   1.692   0.946
 8455SOL    HW126264   4.962   1.729   0.944
 8455SOL    HW226265   4.837   1.687   1.041
 8456SOL     OW26266   5.608   5.157   3.116
 8456SOL    HW126267   5.600   5.059   3.131
 8456SOL    HW226268   5.705   5.184   3.116
 8457SOL     OW26269   6.536   6.695   5.769
 8457SOL    HW126270   6.485   6.698   5.855
 8457SOL    HW226271   6.634   6.697   5.789
 8458SOL     OW26272   1.966   1.207   6.616
 8458SOL    HW126273   2.002   1.160   6.536
 8458SOL    HW226274   1.910   1.143   6.669
 8459SOL     OW26275   3.754   6.805   1.421
 8459SOL    HW126276   3.789   6.882   1.474
 8459SOL    HW226277   3.799   6.802   1.332
 8460SOL     OW26278   4.124   2.686   5.901
 8460SOL    HW126279   4.025   2.702   5.911
 8460SOL    HW226280   4.138   2.600   5.852
 8461SOL     OW26281   1.183   3.541   1.824
 8461SOL    HW126282   1.217   3.478   1.893
 8461SOL    HW226283   1.156   3.490   1.742
 8462SOL     OW26284   3.301   2.160   0.051
 8462SOL    HW126285   3.240   2.230   0.088
 8462SOL    HW226286   3.283   2.149   6.976
 8463SOL     OW26287   0.170   1.941   0.204
 8463SOL    HW126288   0.134   2.017   0.151
 8463SOL    HW226289   0.112   1.926   0.284
 8464SOL     OW26290   0.190   4.203   5.438
 8464SOL    HW126291   0.108   4.172   5.485
 8464SOL    HW226292   0.166   4.237   5.347
 8465SOL     OW26293   2.760   1.984   0.938
 8465SOL    HW126294   2.847   2.027   0.912
 8465SOL    HW226295   2.760   1.966   1.036
 8466SOL     OW26296   6.376   0.072   5.167
 8466SOL    HW126297   6.293   0.108   5.123
 8466SOL    HW226298   6.407   0.137   5.236
 8467SOL     OW26299   3.936   1.004   1.337
 8467SOL    HW126300   3.892   1.092   1.317
 8467SOL    HW226301   4.013   0.991   1.276
 8468SOL     OW26302   6.165   2.984   6.640
 8468SOL    HW126303   6.149   2.891   6.672
 8468SOL    HW226304   6.220   3.034   6.707
 8469SOL     OW26305   2.648   2.327   5.949
 8469SOL    HW126306   2.724   2.270   5.920
 8469SOL    HW226307   2.648   2.413   5.898
 8470SOL     OW26308   1.077   4.695   0.388
 8470SOL    HW126309   1.116   4.780   0.355
 8470SOL    HW226310   1.092   4.687   0.486
 8471SOL     OW26311   3.732   0.670   5.273
 8471SOL    HW126312   3.766   0.632   5.187
 8471SOL    HW226313   3.637   0.700   5.261
 8472SOL     OW26314   5.541   1.618   5.585
 8472SOL    HW126315   5.558   1.567   5.669
 8472SOL    HW226316   5.622   1.615   5.527
 8473SOL     OW26317   5.341   5.513   0.551
 8473SOL    HW126318   5.325   5.606   0.517
 8473SOL    HW226319   5.343   5.449   0.474
 8474SOL     OW26320   3.255   4.034   2.382
 8474SOL    HW126321   3.345   4.069   2.357
 8474SOL    HW226322   3.200   4.022   2.299
 8475SOL     OW26323   6.804   2.968   2.476
 8475SOL    HW126324   6.889   3.019   2.461
 8475SOL    HW226325   6.802   2.888   2.416
 8476SOL     OW26326   6.846   1.350   1.742
 8476SOL    HW126327   6.806   1.316   1.827
 8476SOL    HW226328   6.904   1.429   1.762
 8477SOL     OW26329   4.357   6.489   2.364
 8477SOL    HW126330   4.365   6.403   2.315
 8477SOL    HW226331   4.326   6.561   2.302
 8478SOL     OW26332   0.883   1.361   5.717
 8478SOL    HW126333   0.787   1.361   5.744
 8478SOL    HW226334   0.918   1.454   5.715
 8479SOL     OW26335   1.034   3.023   1.870
 8479SOL    HW126336   0.986   2.955   1.815
 8479SOL    HW226337   1.132   3.001   1.871
 8480SOL     OW26338   5.253   3.159   6.943
 8480SOL    HW126339   5.267   3.255   6.921
 8480SOL    HW226340   5.162   3.131   6.911
 8481SOL     OW26341   4.799   2.470   4.953
 8481SOL    HW126342   4.844   2.427   4.875
 8481SOL    HW226343   4.701   2.452   4.949
 8482SOL     OW26344   4.758   0.445   1.806
 8482SOL    HW126345   4.773   0.363   1.860
 8482SOL    HW226346   4.844   0.475   1.764
 8483SOL     OW26347   2.558   5.365   3.147
 8483SOL    HW126348   2.475   5.418   3.163
 8483SOL    HW226349   2.631   5.425   3.116
 8484SOL     OW26350   6.678   6.001   4.785
 8484SOL    HW126351   6.694   6.015   4.687
 8484SOL    HW226352   6.766   5.998   4.832
 8485SOL     OW26353   3.856   2.336   0.434
 8485SOL    HW126354   3.810   2.255   0.399
 8485SOL    HW226355   3.829   2.416   0.380
 8486SOL     OW26356   1.939   0.843   2.952
 8486SOL    HW126357   1.921   0.932   2.909
 8486SOL    HW226358   2.012   0.854   3.019
 8487SOL     OW26359   5.186   2.188   5.941
 8487SOL    HW126360   5.227   2.188   6.032
 8487SOL    HW226361   5.256   2.206   5.873
 8488SOL     OW26362   5.461   5.815   2.767
 8488SOL    HW126363   5.523   5.838   2.842
 8488SOL    HW226364   5.417   5.898   2.733
 8489SOL     OW26365   0.310   0.430   1.530
 8489SOL    HW126366   0.317   0.526   1.557
 8489SOL    HW226367   0.222   0.415   1.484
 8490SOL     OW26368   3.229   6.515   5.587
 8490SOL    HW126369   3.281   6.591   5.626
 8490SOL    HW226370   3.267   6.429   5.621
 8491SOL     OW26371   1.865   6.213   2.379
 8491SOL    HW126372   1.790   6.170   2.328
 8491SOL    HW226373   1.910   6.144   2.435
 8492SOL     OW26374   5.743   5.018   4.025
 8492SOL    HW126375   5.717   4.930   3.986
 8492SOL    HW226376   5.709   5.092   3.967
 8493SOL     OW26377   2.342   1.752   0.295
 8493SOL    HW126378   2.261   1.788   0.248
 8493SOL    HW226379   2.424   1.776   0.242
 8494SOL     OW26380   4.476   4.932   2.177
 8494SOL    HW126381   4.452   4.943   2.274
 8494SOL    HW226382   4.437   5.007   2.124
 8495SOL     OW26383   0.172   5.323   0.872
 8495SOL    HW126384   0.214   5.295   0.958
 8495SOL    HW226385   0.073   5.332   0.885
 8496SOL     OW26386   6.032   1.517   2.317
 8496SOL    HW126387   5.983   1.602   2.295
 8496SOL    HW226388   6.102   1.500   2.248
 8497SOL     OW26389   0.809   0.388   3.457
 8497SOL    HW126390   0.899   0.390   3.414
 8497SOL    HW226391   0.776   0.481   3.471
 8498SOL     OW26392   6.417   6.703   3.389
 8498SOL    HW126393   6.354   6.722   3.463
 8498SOL    HW226394   6.370   6.652   3.317
 8499SOL     OW26395   0.450   4.534   0.188
 8499SOL    HW126396   0.540   4.491   0.194
 8499SOL    HW226397   0.407   4.510   0.100
 8500SOL     OW26398   1.613   6.555   5.730
 8500SOL    HW126399   1.645   6.601   5.646
 8500SOL    HW226400   1.684   6.493   5.763
 8501SOL     OW26401   0.654   2.710   6.431
 8501SOL    HW126402   0.570   2.764   6.432
 8501SOL    HW226403   0.678   2.686   6.525
 8502SOL     OW26404   0.569   3.095   1.519
 8502SOL    HW126405   0.669   3.105   1.518
 8502SOL    HW226406   0.528   3.163   1.458
 8503SOL     OW26407   0.015   5.968   5.289
 8503SOL    HW126408   0.069   5.921   5.219
 8503SOL    HW226409   6.941   5.967   5.261
 8504SOL     OW26410   1.736   5.339   2.129
 8504SOL    HW126411   1.678   5.259   2.136
 8504SOL    HW226412   1.702   5.411   2.189
 8505SOL     OW26413   5.698   3.479   2.654
 8505SOL    HW126414   5.759   3.436   2.588
 8505SOL    HW226415   5.749   3.541   2.712
 8506SOL     OW26416   1.766   0.343   6.986
 8506SOL    HW126417   1.672   0.370   7.004
 8506SOL    HW226418   1.799   0.284   0.037
 8507SOL     OW26419   3.924   0.158   5.040
 8507SOL    HW126420   4.019   0.135   5.062
 8507SOL    HW226421   3.865   0.080   5.060
 8508SOL     OW26422   4.065   1.470   5.611
 8508SOL    HW126423   4.029   1.523   5.688
 8508SOL    HW226424   4.159   1.499   5.593
 8509SOL     OW26425   5.688   6.674   3.752
 8509SOL    HW126426   5.695   6.584   3.794
 8509SOL    HW226427   5.709   6.666   3.654
 8510SOL     OW26428   5.124   3.863   3.218
 8510SOL    HW126429   5.184   3.942   3.203
 8510SOL    HW226430   5.154   3.787   3.161
 8511SOL     OW26431   6.514   3.058   2.504
 8511SOL    HW126432   6.546   2.964   2.506
 8511SOL    HW226433   6.461   3.074   2.420
 8512SOL     OW26434   2.641   6.619   2.700
 8512SOL    HW126435   2.581   6.586   2.772
 8512SOL    HW226436   2.587   6.662   2.628
 8513SOL     OW26437   0.220   5.805   1.274
 8513SOL    HW126438   0.162   5.756   1.209
 8513SOL    HW226439   0.271   5.740   1.329
 8514SOL     OW26440   3.074   0.379   3.682
 8514SOL    HW126441   3.027   0.310   3.738
 8514SOL    HW226442   3.010   0.415   3.614
 8515SOL     OW26443   4.950   2.496   0.820
 8515SOL    HW126444   4.961   2.536   0.729
 8515SOL    HW226445   4.935   2.569   0.886
 8516SOL     OW26446   6.898   1.926   2.425
 8516SOL    HW126447   6.907   1.829   2.448
 8516SOL    HW226448   6.813   1.941   2.375
 8517SOL     OW26449   0.533   2.663   5.719
 8517SOL    HW126450   0.514   2.662   5.621
 8517SOL    HW226451   0.610   2.725   5.738
 8518SOL     OW26452   4.242   4.456   0.379
 8518SOL    HW126453   4.172   4.467   0.308
 8518SOL    HW226454   4.201   4.412   0.459
 8519SOL     OW26455   1.937   5.887   1.676
 8519SOL    HW126456   1.897   5.978   1.667
 8519SOL    HW226457   2.029   5.895   1.715
 8520SOL     OW26458   3.841   1.033   0.375
 8520SOL    HW126459   3.756   0.991   0.346
 8520SOL    HW226460   3.823   1.097   0.450
 8521SOL     OW26461   1.665   5.688   5.618
 8521SOL    HW126462   1.585   5.736   5.583
 8521SOL    HW226463   1.717   5.748   5.678
 8522SOL     OW26464   1.527   5.502   1.996
 8522SOL    HW126465   1.626   5.499   1.984
 8522SOL    HW226466   1.483   5.438   1.933
 8523SOL     OW26467   2.846   0.152   6.186
 8523SOL    HW126468   2.800   0.064   6.194
 8523SOL    HW226469   2.780   0.226   6.197
 8524SOL     OW26470   1.235   2.778   4.382
 8524SOL    HW126471   1.310   2.712   4.390
 8524SOL    HW226472   1.246   2.849   4.451
 8525SOL     OW26473   6.174   4.028   2.754
 8525SOL    HW126474   6.092   4.014   2.699
 8525SOL    HW226475   6.233   3.947   2.745
 8526SOL     OW26476   2.788   3.508   1.568
 8526SOL    HW126477   2.804   3.606   1.578
 8526SOL    HW226478   2.710   3.481   1.624
 8527SOL     OW26479   4.019   0.576   4.770
 8527SOL    HW126480   3.981   0.528   4.691
 8527SOL    HW226481   4.106   0.533   4.795
 8528SOL     OW26482   4.733   3.480   6.048
 8528SOL    HW126483   4.654   3.539   6.065
 8528SOL    HW226484   4.744   3.415   6.123
 8529SOL     OW26485   1.061   6.714   0.114
 8529SOL    HW126486   1.026   6.689   0.023
 8529SOL    HW226487   1.149   6.760   0.104
 8530SOL     OW26488   0.927   5.120   5.156
 8530SOL    HW126489   1.015   5.078   5.178
 8530SOL    HW226490   0.856   5.050   5.156
 8531SOL     OW26491   5.474   4.280   3.407
 8531SOL    HW126492   5.445   4.361   3.356
 8531SOL    HW226493   5.523   4.217   3.346
 8532SOL     OW26494   4.125   4.803   4.785
 8532SOL    HW126495   4.027   4.817   4.775
 8532SOL    HW226496   4.147   4.706   4.772
 8533SOL     OW26497   1.991   0.838   5.598
 8533SOL    HW126498   1.945   0.910   5.649
 8533SOL    HW226499   1.963   0.842   5.502
 8534SOL     OW26500   0.090   5.241   2.475
 8534SOL    HW126501   7.017   5.268   2.476
 8534SOL    HW226502   0.104   5.164   2.537
 8535SOL     OW26503   0.885   2.062   4.724
 8535SOL    HW126504   0.848   1.970   4.736
 8535SOL    HW226505   0.812   2.124   4.696
 8536SOL     OW26506   6.037   2.781   4.905
 8536SOL    HW126507   6.016   2.709   4.971
 8536SOL    HW226508   6.121   2.758   4.856
 8537SOL     OW26509   6.261   1.141   1.009
 8537SOL    HW126510   6.189   1.174   1.070
 8537SOL    HW226511   6.350   1.173   1.042
 8538SOL     OW26512   0.622   0.349   5.116
 8538SOL    HW126513   0.669   0.437   5.107
 8538SOL    HW226514   0.540   0.349   5.059
 8539SOL     OW26515   6.309   2.732   2.638
 8539SOL    HW126516   6.315   2.687   2.549
 8539SOL    HW226517   6.378   2.693   2.699
 8540SOL     OW26518   3.671   1.593   0.814
 8540SOL    HW126519   3.757   1.639   0.834
 8540SOL    HW226520   3.604   1.662   0.784
 8541SOL     OW26521   2.891   0.798   5.599
 8541SOL    HW126522   2.926   0.892   5.596
 8541SOL    HW226523   2.884   0.762   5.507
 8542SOL     OW26524   3.244   4.568   6.536
 8542SOL    HW126525   3.314   4.589   6.604
 8542SOL    HW226526   3.278   4.590   6.445
 8543SOL     OW26527   3.016   1.724   5.442
 8543SOL    HW126528   3.025   1.640   5.389
 8543SOL    HW226529   2.939   1.777   5.408
 8544SOL     OW26530   5.260   3.396   5.373
 8544SOL    HW126531   5.238   3.366   5.465
 8544SOL    HW226532   5.207   3.342   5.307
 8545SOL     OW26533   3.161   6.684   4.782
 8545SOL    HW126534   3.145   6.716   4.875
 8545SOL    HW226535   3.096   6.612   4.759
 8546SOL     OW26536   5.281   0.722   1.183
 8546SOL    HW126537   5.209   0.656   1.202
 8546SOL    HW226538   5.345   0.726   1.261
 8547SOL     OW26539   6.643   0.270   5.563
 8547SOL    HW126540   6.711   0.200   5.583
 8547SOL    HW226541   6.659   0.350   5.621
 8548SOL     OW26542   0.446   3.135   5.362
 8548SOL    HW126543   0.380   3.172   5.427
 8548SOL    HW226544   0.531   3.111   5.410
 8549SOL     OW26545   0.958   2.026   3.737
 8549SOL    HW126546   1.021   1.950   3.720
 8549SOL    HW226547   0.926   2.062   3.649
 8550SOL     OW26548   0.536   4.086   6.313
 8550SOL    HW126549   0.610   4.055   6.253
 8550SOL    HW226550   0.555   4.059   6.407
 8551SOL     OW26551   2.034   2.323   6.788
 8551SOL    HW126552   2.107   2.301   6.854
 8551SOL    HW226553   1.955   2.359   6.837
 8552SOL     OW26554   3.430   0.545   2.169
 8552SOL    HW126555   3.379   0.541   2.083
 8552SOL    HW226556   3.481   0.460   2.181
 8553SOL     OW26557   3.788   4.230   0.064
 8553SOL    HW126558   3.746   4.155   0.014
 8553SOL    HW226559   3.887   4.224   0.056
 8554SOL     OW26560   0.915   6.611   1.413
 8554SOL    HW126561   0.932   6.550   1.336
 8554SOL    HW226562   0.824   6.652   1.404
 8555SOL     OW26563   4.373   2.016   3.177
 8555SOL    HW126564   4.282   1.975   3.176
 8555SOL    HW226565   4.440   1.947   3.149
 8556SOL     OW26566   1.401   6.025   6.071
 8556SOL    HW126567   1.424   5.979   5.985
 8556SOL    HW226568   1.314   6.072   6.061
 8557SOL     OW26569   6.922   0.745   0.767
 8557SOL    HW126570   6.841   0.797   0.742
 8557SOL    HW226571   6.939   0.754   0.866
 8558SOL     OW26572   1.835   4.646   3.342
 8558SOL    HW126573   1.933   4.637   3.324
 8558SOL    HW226574   1.790   4.689   3.264
 8559SOL     OW26575   0.730   6.685   2.997
 8559SOL    HW126576   0.701   6.778   3.019
 8559SOL    HW226577   0.756   6.638   3.082
 8560SOL     OW26578   1.239   5.591   1.788
 8560SOL    HW126579   1.301   5.649   1.841
 8560SOL    HW226580   1.170   5.647   1.743
 8561SOL     OW26581   3.888   0.208   3.140
 8561SOL    HW126582   3.842   0.162   3.064
 8561SOL    HW226583   3.896   0.305   3.120
 8562SOL     OW26584   4.081   0.592   6.661
 8562SOL    HW126585   4.132   0.541   6.731
 8562SOL    HW226586   4.014   0.651   6.705
 8563SOL     OW26587   1.315   5.971   2.556
 8563SOL    HW126588   1.407   5.968   2.516
 8563SOL    HW226589   1.316   5.927   2.646
 8564SOL     OW26590   3.968   5.927   6.445
 8564SOL    HW126591   3.879   5.899   6.482
 8564SOL    HW226592   4.034   5.852   6.457
 8565SOL     OW26593   3.738   5.194   1.242
 8565SOL    HW126594   3.798   5.137   1.186
 8565SOL    HW226595   3.771   5.193   1.337
 8566SOL     OW26596   2.616   0.634   2.853
 8566SOL    HW126597   2.625   0.718   2.907
 8566SOL    HW226598   2.531   0.637   2.801
 8567SOL     OW26599   1.559   2.235   1.849
 8567SOL    HW126600   1.537   2.141   1.872
 8567SOL    HW226601   1.636   2.236   1.784
 8568SOL     OW26602   6.954   1.363   0.502
 8568SOL    HW126603   6.857   1.376   0.517
 8568SOL    HW226604   7.005   1.437   0.547
 8569SOL     OW26605   4.763   1.947   6.174
 8569SOL    HW126606   4.667   1.964   6.195
 8569SOL    HW226607   4.820   2.015   6.220
 8570SOL     OW26608   1.626   1.696   4.616
 8570SOL    HW126609   1.712   1.740   4.640
 8570SOL    HW226610   1.584   1.658   4.699
 8571SOL     OW26611   1.163   0.958   4.853
 8571SOL    HW126612   1.198   0.987   4.764
 8571SOL    HW226613   1.210   0.874   4.881
 8572SOL     OW26614   2.241   4.142   6.014
 8572SOL    HW126615   2.224   4.084   5.935
 8572SOL    HW226616   2.199   4.232   6.000
 8573SOL     OW26617   2.630   6.014   6.610
 8573SOL    HW126618   2.719   6.034   6.653
 8573SOL    HW226619   2.615   6.077   6.534
 8574SOL     OW26620   6.087   6.906   6.362
 8574SOL    HW126621   6.062   6.967   6.437
 8574SOL    HW226622   6.173   6.936   6.321
 8575SOL     OW26623   3.407   0.791   2.304
 8575SOL    HW126624   3.371   0.739   2.382
 8575SOL    HW226625   3.432   0.728   2.231
 8576SOL     OW26626   1.477   4.243   4.442
 8576SOL    HW126627   1.396   4.189   4.421
 8576SOL    HW226628   1.530   4.199   4.515
 8577SOL     OW26629   1.851   0.887   5.826
 8577SOL    HW126630   1.875   0.960   5.890
 8577SOL    HW226631   1.835   0.802   5.877
 8578SOL     OW26632   6.058   6.039   5.785
 8578SOL    HW126633   6.150   6.025   5.821
 8578SOL    HW226634   5.993   6.047   5.861
 8579SOL     OW26635   1.996   6.342   2.210
 8579SOL    HW126636   2.054   6.277   2.161
 8579SOL    HW226637   1.941   6.293   2.278
 8580SOL     OW26638   1.091   6.671   0.647
 8580SOL    HW126639   1.078   6.701   0.742
 8580SOL    HW226640   1.144   6.586   0.647
 8581SOL     OW26641   3.816   4.909   1.371
 8581SOL    HW126642   3.892   4.848   1.349
 8581SOL    HW226643   3.852   4.999   1.394
 8582SOL     OW26644   4.846   4.454   5.474
 8582SOL    HW126645   4.785   4.374   5.484
 8582SOL    HW226646   4.847   4.483   5.379
 8583SOL     OW26647   4.054   6.989   3.245
 8583SOL    HW126648   4.081   6.939   3.162
 8583SOL    HW226649   3.980   0.029   3.222
 8584SOL     OW26650   0.168   0.402   4.994
 8584SOL    HW126651   0.126   0.477   5.044
 8584SOL    HW226652   0.097   0.347   4.951
 8585SOL     OW26653   5.732   1.569   1.019
 8585SOL    HW126654   5.634   1.559   1.038
 8585SOL    HW226655   5.749   1.661   0.983
 8586SOL     OW26656   4.919   6.593   1.151
 8586SOL    HW126657   4.922   6.540   1.235
 8586SOL    HW226658   4.968   6.545   1.078
 8587SOL     OW26659   0.982   1.356   4.809
 8587SOL    HW126660   0.896   1.383   4.764
 8587SOL    HW226661   0.965   1.342   4.907
 8588SOL     OW26662   4.295   1.016   6.900
 8588SOL    HW126663   4.314   1.102   6.854
 8588SOL    HW226664   4.202   1.017   6.938
 8589SOL     OW26665   6.593   2.944   5.040
 8589SOL    HW126666   6.571   2.860   4.992
 8589SOL    HW226667   6.566   3.023   4.984
 8590SOL     OW26668   0.151   0.410   2.961
 8590SOL    HW126669   0.106   0.387   3.047
 8590SOL    HW226670   0.150   0.330   2.901
 8591SOL     OW26671   6.724   4.475   0.240
 8591SOL    HW126672   6.629   4.470   0.207
 8591SOL    HW226673   6.745   4.392   0.292
 8592SOL     OW26674   0.007   3.089   6.981
 8592SOL    HW126675   0.061   3.095   0.042
 8592SOL    HW226676   0.055   3.137   6.908
 8593SOL     OW26677   3.383   1.046   6.760
 8593SOL    HW126678   3.455   0.990   6.719
 8593SOL    HW226679   3.299   0.992   6.768
 8594SOL     OW26680   6.411   3.036   5.790
 8594SOL    HW126681   6.505   3.015   5.763
 8594SOL    HW226682   6.412   3.107   5.861
 8595SOL     OW26683   6.069   0.467   3.738
 8595SOL    HW126684   5.993   0.513   3.692
 8595SOL    HW226685   6.033   0.399   3.801
 8596SOL     OW26686   1.032   3.958   3.049
 8596SOL    HW126687   1.003   4.051   3.025
 8596SOL    HW226688   1.093   3.923   2.978
 8597SOL     OW26689   5.891   2.238   0.764
 8597SOL    HW126690   5.900   2.222   0.863
 8597SOL    HW226691   5.803   2.280   0.745
 8598SOL     OW26692   5.636   0.234   5.542
 8598SOL    HW126693   5.587   0.297   5.602
 8598SOL    HW226694   5.726   0.214   5.581
 8599SOL     OW26695   1.087   2.797   3.846
 8599SOL    HW126696   1.106   2.704   3.816
 8599SOL    HW226697   1.115   2.808   3.941
 8600SOL     OW26698   5.094   4.185   0.678
 8600SOL    HW126699   5.183   4.189   0.633
 8600SOL    HW226700   5.098   4.234   0.765
 8601SOL     OW26701   0.008   1.157   3.872
 8601SOL    HW126702   0.087   1.117   3.918
 8601SOL    HW226703   0.033   1.249   3.839
 8602SOL     OW26704   2.396   6.458   3.320
 8602SOL    HW126705   2.303   6.428   3.298
 8602SOL    HW226706   2.444   6.485   3.237
 8603SOL     OW26707   5.861   1.166   6.340
 8603SOL    HW126708   5.887   1.262   6.349
 8603SOL    HW226709   5.762   1.159   6.332
 8604SOL     OW26710   0.510   2.373   6.005
 8604SOL    HW126711   0.528   2.373   5.906
 8604SOL    HW226712   0.586   2.419   6.052
 8605SOL     OW26713   0.964   4.256   4.261
 8605SOL    HW126714   0.971   4.287   4.356
 8605SOL    HW226715   1.043   4.289   4.209
 8606SOL     OW26716   2.994   1.830   0.089
 8606SOL    HW126717   2.899   1.825   0.057
 8606SOL    HW226718   3.055   1.835   0.010
 8607SOL     OW26719   2.520   4.780   0.031
 8607SOL    HW126720   2.477   4.699   7.014
 8607SOL    HW226721   2.596   4.809   6.996
 8608SOL     OW26722   2.189   5.065   2.296
 8608SOL    HW126723   2.273   5.032   2.339
 8608SOL    HW226724   2.195   5.164   2.281
 8609SOL     OW26725   4.864   0.949   4.109
 8609SOL    HW126726   4.803   0.880   4.149
 8609SOL    HW226727   4.953   0.908   4.089
 8610SOL     OW26728   6.996   6.840   3.488
 8610SOL    HW126729   6.948   6.847   3.401
 8610SOL    HW226730   0.067   6.873   3.478
 8611SOL     OW26731   2.510   1.090   4.365
 8611SOL    HW126732   2.490   1.009   4.310
 8611SOL    HW226733   2.521   1.169   4.304
 8612SOL     OW26734   2.962   3.135   1.981
 8612SOL    HW126735   2.919   3.223   1.964
 8612SOL    HW226736   2.956   3.078   1.899
 8613SOL     OW26737   2.712   2.347   1.825
 8613SOL    HW126738   2.801   2.368   1.865
 8613SOL    HW226739   2.721   2.269   1.763
 8614SOL     OW26740   1.415   2.124   3.039
 8614SOL    HW126741   1.350   2.197   3.018
 8614SOL    HW226742   1.460   2.144   3.126
 8615SOL     OW26743   4.467   1.693   5.150
 8615SOL    HW126744   4.451   1.755   5.073
 8615SOL    HW226745   4.462   1.598   5.119
 8616SOL     OW26746   2.331   4.676   1.789
 8616SOL    HW126747   2.373   4.761   1.756
 8616SOL    HW226748   2.403   4.608   1.804
 8617SOL     OW26749   5.757   0.772   4.075
 8617SOL    HW126750   5.853   0.745   4.073
 8617SOL    HW226751   5.700   0.690   4.079
 8618SOL     OW26752   6.617   4.053   0.797
 8618SOL    HW126753   6.682   4.012   0.734
 8618SOL    HW226754   6.637   4.150   0.807
 8619SOL     OW26755   4.512   5.114   3.332
 8619SOL    HW126756   4.432   5.168   3.355
 8619SOL    HW226757   4.508   5.026   3.380
 8620SOL     OW26758   1.685   0.238   4.641
 8620SOL    HW126759   1.718   0.159   4.692
 8620SOL    HW226760   1.640   0.302   4.704
 8621SOL     OW26761   4.825   3.059   2.302
 8621SOL    HW126762   4.762   2.997   2.348
 8621SOL    HW226763   4.796   3.072   2.207
 8622SOL     OW26764   5.900   5.145   1.730
 8622SOL    HW126765   5.872   5.064   1.782
 8622SOL    HW226766   5.995   5.168   1.751
 8623SOL     OW26767   0.552   3.554   4.767
 8623SOL    HW126768   0.489   3.586   4.696
 8623SOL    HW226769   0.529   3.461   4.793
 8624SOL     OW26770   3.543   3.751   6.032
 8624SOL    HW126771   3.520   3.697   5.951
 8624SOL    HW226772   3.506   3.705   6.113
 8625SOL     OW26773   4.112   0.989   6.346
 8625SOL    HW126774   4.066   0.993   6.258
 8625SOL    HW226775   4.124   0.893   6.373
 8626SOL     OW26776   3.704   3.115   6.810
 8626SOL    HW126777   3.697   3.213   6.792
 8626SOL    HW226778   3.726   3.100   6.906
 8627SOL     OW26779   2.528   1.751   2.788
 8627SOL    HW126780   2.492   1.710   2.704
 8627SOL    HW226781   2.512   1.849   2.787
 8628SOL     OW26782   6.357   0.032   0.332
 8628SOL    HW126783   6.334   0.121   0.371
 8628SOL    HW226784   6.448   0.004   0.365
 8629SOL     OW26785   1.095   6.432   5.218
 8629SOL    HW126786   1.128   6.492   5.291
 8629SOL    HW226787   1.040   6.485   5.154
 8630SOL     OW26788   4.999   3.715   4.005
 8630SOL    HW126789   4.964   3.646   3.941
 8630SOL    HW226790   4.979   3.686   4.099
 8631SOL     OW26791   1.511   6.271   6.183
 8631SOL    HW126792   1.432   6.330   6.167
 8631SOL    HW226793   1.486   6.176   6.162
 8632SOL     OW26794   3.823   4.050   5.090
 8632SOL    HW126795   3.856   4.116   5.157
 8632SOL    HW226796   3.759   4.095   5.028
 8633SOL     OW26797   5.776   3.535   5.799
 8633SOL    HW126798   5.738   3.572   5.714
 8633SOL    HW226799   5.794   3.611   5.863
 8634SOL     OW26800   5.411   4.756   0.216
 8634SOL    HW126801   5.423   4.843   0.263
 8634SOL    HW226802   5.325   4.714   0.245
 8635SOL     OW26803   6.087   2.014   6.525
 8635SOL    HW126804   6.090   1.928   6.474
 8635SOL    HW226805   6.021   2.076   6.483
 8636SOL     OW26806   4.411   5.670   0.715
 8636SOL    HW126807   4.322   5.679   0.761
 8636SOL    HW226808   4.436   5.573   0.710
 8637SOL     OW26809   2.214   1.374   6.257
 8637SOL    HW126810   2.218   1.364   6.356
 8637SOL    HW226811   2.302   1.347   6.217
 8638SOL     OW26812   3.914   2.726   5.365
 8638SOL    HW126813   3.962   2.661   5.307
 8638SOL    HW226814   3.952   2.722   5.458
 8639SOL     OW26815   4.417   3.948   0.003
 8639SOL    HW126816   4.473   3.876   0.045
 8639SOL    HW226817   4.371   3.911   6.945
 8640SOL     OW26818   4.023   3.307   0.699
 8640SOL    HW126819   4.017   3.392   0.750
 8640SOL    HW226820   4.015   3.230   0.762
 8641SOL     OW26821   4.289   4.916   4.035
 8641SOL    HW126822   4.275   4.977   4.113
 8641SOL    HW226823   4.376   4.868   4.044
 8642SOL     OW26824   0.505   0.037   3.219
 8642SOL    HW126825   0.527   0.135   3.227
 8642SOL    HW226826   0.455   0.022   3.133
 8643SOL     OW26827   2.115   0.329   0.357
 8643SOL    HW126828   2.189   0.388   0.388
 8643SOL    HW226829   2.150   0.238   0.336
 8644SOL     OW26830   6.662   2.399   6.426
 8644SOL    HW126831   6.663   2.361   6.334
 8644SOL    HW226832   6.596   2.349   6.482
 8645SOL     OW26833   4.768   5.415   1.400
 8645SOL    HW126834   4.859   5.412   1.440
 8645SOL    HW226835   4.760   5.347   1.327
 8646SOL     OW26836   0.566   2.121   0.016
 8646SOL    HW126837   0.568   2.187   6.964
 8646SOL    HW226838   0.659   2.088   0.035
 8647SOL     OW26839   2.608   5.305   0.593
 8647SOL    HW126840   2.670   5.259   0.529
 8647SOL    HW226841   2.522   5.255   0.598
 8648SOL     OW26842   6.114   6.389   0.881
 8648SOL    HW126843   6.117   6.290   0.867
 8648SOL    HW226844   6.205   6.421   0.911
 8649SOL     OW26845   5.736   6.596   0.430
 8649SOL    HW126846   5.789   6.593   0.345
 8649SOL    HW226847   5.797   6.611   0.507
 8650SOL     OW26848   1.680   6.953   4.421
 8650SOL    HW126849   1.659   6.930   4.326
 8650SOL    HW226850   1.753   6.894   4.455
 8651SOL     OW26851   2.732   1.478   1.095
 8651SOL    HW126852   2.692   1.560   1.054
 8651SOL    HW226853   2.804   1.505   1.159
 8652SOL     OW26854   1.012   4.723   3.706
 8652SOL    HW126855   1.090   4.703   3.766
 8652SOL    HW226856   1.027   4.682   3.616
 8653SOL     OW26857   6.692   1.671   5.274
 8653SOL    HW126858   6.660   1.648   5.366
 8653SOL    HW226859   6.615   1.699   5.218
 8654SOL     OW26860   1.074   5.122   0.948
 8654SOL    HW126861   1.034   5.211   0.968
 8654SOL    HW226862   1.007   5.066   0.898
 8655SOL     OW26863   6.137   1.090   5.228
 8655SOL    HW126864   6.150   1.042   5.142
 8655SOL    HW226865   6.120   1.187   5.210
 8656SOL     OW26866   5.785   0.372   2.010
 8656SOL    HW126867   5.735   0.457   1.994
 8656SOL    HW226868   5.728   0.310   2.064
 8657SOL     OW26869   5.631   5.983   0.124
 8657SOL    HW126870   5.707   6.004   0.185
 8657SOL    HW226871   5.665   5.965   0.032
 8658SOL     OW26872   6.245   5.733   0.786
 8658SOL    HW126873   6.282   5.813   0.833
 8658SOL    HW226874   6.303   5.712   0.707
 8659SOL     OW26875   4.415   2.367   2.873
 8659SOL    HW126876   4.451   2.281   2.835
 8659SOL    HW226877   4.366   2.347   2.958
 8660SOL     OW26878   7.010   2.476   2.620
 8660SOL    HW126879   0.065   2.522   2.576
 8660SOL    HW226880   6.936   2.466   2.554
 8661SOL     OW26881   5.706   3.995   2.229
 8661SOL    HW126882   5.654   3.971   2.147
 8661SOL    HW226883   5.778   3.927   2.244
 8662SOL     OW26884   3.686   6.157   2.240
 8662SOL    HW126885   3.774   6.197   2.267
 8662SOL    HW226886   3.616   6.228   2.241
 8663SOL     OW26887   2.621   5.133   2.589
 8663SOL    HW126888   2.678   5.103   2.665
 8663SOL    HW226889   2.584   5.224   2.609
 8664SOL     OW26890   2.454   5.549   2.789
 8664SOL    HW126891   2.398   5.476   2.750
 8664SOL    HW226892   2.550   5.530   2.770
 8665SOL     OW26893   6.424   5.828   4.575
 8665SOL    HW126894   6.327   5.835   4.596
 8665SOL    HW226895   6.444   5.738   4.537
 8666SOL     OW26896   5.812   0.571   4.597
 8666SOL    HW126897   5.732   0.622   4.566
 8666SOL    HW226898   5.804   0.475   4.568
 8667SOL     OW26899   5.252   1.324   4.485
 8667SOL    HW126900   5.231   1.311   4.582
 8667SOL    HW226901   5.319   1.397   4.475
 8668SOL     OW26902   5.148   2.940   4.802
 8668SOL    HW126903   5.184   3.029   4.828
 8668SOL    HW226904   5.081   2.910   4.870
 8669SOL     OW26905   6.768   6.434   6.275
 8669SOL    HW126906   6.819   6.417   6.359
 8669SOL    HW226907   6.737   6.347   6.237
 8670SOL     OW26908   4.689   5.126   5.926
 8670SOL    HW126909   4.677   5.200   5.860
 8670SOL    HW226910   4.761   5.064   5.894
 8671SOL     OW26911   0.876   1.758   2.424
 8671SOL    HW126912   0.865   1.730   2.329
 8671SOL    HW226913   0.913   1.681   2.477
 8672SOL     OW26914   0.464   0.216   3.574
 8672SOL    HW126915   0.541   0.252   3.627
 8672SOL    HW226916   0.495   0.138   3.519
 8673SOL     OW26917   6.853   1.608   6.996
 8673SOL    HW126918   6.769   1.648   6.960
 8673SOL    HW226919   6.883   1.660   0.054
 8674SOL     OW26920   6.776   4.651   3.075
 8674SOL    HW126921   6.786   4.705   2.991
 8674SOL    HW226922   6.813   4.703   3.152
 8675SOL     OW26923   3.999   1.068   5.835
 8675SOL    HW126924   4.068   1.101   5.771
 8675SOL    HW226925   4.019   0.974   5.861
 8676SOL     OW26926   5.250   1.125   1.499
 8676SOL    HW126927   5.289   1.202   1.448
 8676SOL    HW226928   5.190   1.073   1.440
 8677SOL     OW26929   1.668   5.813   6.031
 8677SOL    HW126930   1.691   5.910   6.033
 8677SOL    HW226931   1.732   5.762   6.087
 8678SOL     OW26932   0.440   6.794   0.406
 8678SOL    HW126933   0.510   6.758   0.467
 8678SOL    HW226934   0.480   6.862   0.345
 8679SOL     OW26935   1.991   0.889   4.110
 8679SOL    HW126936   2.035   0.812   4.065
 8679SOL    HW226937   1.966   0.864   4.203
 8680SOL     OW26938   6.212   2.627   6.444
 8680SOL    HW126939   6.174   2.582   6.525
 8680SOL    HW226940   6.276   2.699   6.472
 8681SOL     OW26941   4.318   5.152   1.083
 8681SOL    HW126942   4.304   5.251   1.093
 8681SOL    HW226943   4.383   5.120   1.151
 8682SOL     OW26944   6.850   7.015   1.022
 8682SOL    HW126945   6.787   0.068   1.037
 8682SOL    HW226946   6.856   6.960   1.106
 8683SOL     OW26947   1.872   2.732   4.982
 8683SOL    HW126948   1.869   2.761   4.886
 8683SOL    HW226949   1.961   2.690   5.001
 8684SOL     OW26950   7.018   3.754   4.942
 8684SOL    HW126951   0.095   3.754   4.951
 8684SOL    HW226952   6.977   3.781   5.029
 8685SOL     OW26953   5.414   2.816   6.447
 8685SOL    HW126954   5.340   2.804   6.513
 8685SOL    HW226955   5.497   2.772   6.481
 8686SOL     OW26956   5.838   6.695   2.356
 8686SOL    HW126957   5.866   6.613   2.306
 8686SOL    HW226958   5.918   6.740   2.394
 8687SOL     OW26959   6.233   4.876   3.089
 8687SOL    HW126960   6.138   4.875   3.058
 8687SOL    HW226961   6.247   4.802   3.155
 8688SOL     OW26962   1.815   3.989   0.014
 8688SOL    HW126963   1.756   4.050   6.984
 8688SOL    HW226964   1.886   3.951   6.977
 8689SOL     OW26965   5.092   3.334   0.525
 8689SOL    HW126966   5.022   3.401   0.500
 8689SOL    HW226967   5.101   3.266   0.453
 8690SOL     OW26968   0.579   3.099   2.839
 8690SOL    HW126969   0.673   3.131   2.847
 8690SOL    HW226970   0.522   3.143   2.907
 8691SOL     OW26971   3.242   1.253   5.104
 8691SOL    HW126972   3.147   1.230   5.122
 8691SOL    HW226973   3.248   1.348   5.072
 8692SOL     OW26974   3.491   1.119   5.560
 8692SOL    HW126975   3.573   1.103   5.616
 8692SOL    HW226976   3.454   1.210   5.581
 8693SOL     OW26977   6.991   1.638   6.258
 8693SOL    HW126978   6.925   1.622   6.331
 8693SOL    HW226979   0.019   1.554   6.240
 8694SOL     OW26980   5.871   2.340   4.717
 8694SOL    HW126981   5.804   2.270   4.694
 8694SOL    HW226982   5.906   2.382   4.633
 8695SOL     OW26983   3.852   2.840   5.971
 8695SOL    HW126984   3.769   2.792   6.000
 8695SOL    HW226985   3.889   2.893   6.047
 8696SOL     OW26986   2.606   5.956   5.339
 8696SOL    HW126987   2.537   5.965   5.268
 8696SOL    HW226988   2.610   5.861   5.371
 8697SOL     OW26989   0.918   4.391   6.048
 8697SOL    HW126990   0.951   4.482   6.024
 8697SOL    HW226991   0.959   4.363   6.135
 8698SOL     OW26992   5.258   5.989   5.741
 8698SOL    HW126993   5.304   6.017   5.825
 8698SOL    HW226994   5.292   6.044   5.665
 8699SOL     OW26995   1.926   3.222   5.835
 8699SOL    HW126996   2.018   3.256   5.816
 8699SOL    HW226997   1.901   3.153   5.766
 8700SOL     OW26998   1.581   1.046   5.728
 8700SOL    HW126999   1.633   1.033   5.812
 8700SOL    HW227000   1.556   0.956   5.691
 8701SOL     OW27001   2.223   1.198   6.959
 8701SOL    HW127002   2.130   1.233   6.951
 8701SOL    HW227003   2.286   1.274   6.976
 8702SOL     OW27004   5.063   5.222   2.003
 8702SOL    HW127005   4.982   5.243   1.948
 8702SOL    HW227006   5.038   5.160   2.077
 8703SOL     OW27007   3.361   4.751   6.727
 8703SOL    HW127008   3.276   4.802   6.725
 8703SOL    HW227009   3.416   4.781   6.805
 8704SOL     OW27010   6.746   3.395   3.787
 8704SOL    HW127011   6.677   3.417   3.718
 8704SOL    HW227012   6.797   3.314   3.758
 8705SOL     OW27013   4.375   2.077   6.498
 8705SOL    HW127014   4.356   2.164   6.544
 8705SOL    HW227015   4.453   2.033   6.542
 8706SOL     OW27016   5.641   2.450   0.099
 8706SOL    HW127017   5.542   2.464   0.109
 8706SOL    HW227018   5.658   2.380   0.030
 8707SOL     OW27019   0.977   2.717   3.464
 8707SOL    HW127020   1.072   2.733   3.437
 8707SOL    HW227021   0.947   2.791   3.525
 8708SOL     OW27022   4.270   1.759   4.470
 8708SOL    HW127023   4.277   1.768   4.569
 8708SOL    HW227024   4.358   1.780   4.428
 8709SOL     OW27025   6.576   0.130   0.003
 8709SOL    HW127026   6.633   0.185   6.965
 8709SOL    HW227027   6.567   0.038   6.988
 8710SOL     OW27028   1.925   2.294   3.665
 8710SOL    HW127029   1.906   2.211   3.614
 8710SOL    HW227030   1.862   2.366   3.636
 8711SOL     OW27031   1.605   0.279   1.905
 8711SOL    HW127032   1.552   0.353   1.945
 8711SOL    HW227033   1.551   0.194   1.907
 8712SOL     OW27034   2.991   1.870   4.375
 8712SOL    HW127035   3.035   1.783   4.395
 8712SOL    HW227036   3.060   1.943   4.376
 8713SOL     OW27037   0.205   4.257   1.189
 8713SOL    HW127038   0.269   4.180   1.179
 8713SOL    HW227039   0.241   4.336   1.140
 8714SOL     OW27040   0.784   6.648   6.877
 8714SOL    HW127041   0.708   6.644   6.940
 8714SOL    HW227042   0.802   6.556   6.840
 8715SOL     OW27043   3.345   1.685   0.040
 8715SOL    HW127044   3.430   1.728   0.011
 8715SOL    HW227045   3.268   1.746   0.019
 8716SOL     OW27046   6.493   6.644   0.790
 8716SOL    HW127047   6.557   6.664   0.864
 8716SOL    HW227048   6.452   6.728   0.756
 8717SOL     OW27049   2.530   3.511   5.958
 8717SOL    HW127050   2.469   3.470   5.890
 8717SOL    HW227051   2.582   3.586   5.916
 8718SOL     OW27052   1.552   2.548   6.449
 8718SOL    HW127053   1.602   2.463   6.465
 8718SOL    HW227054   1.613   2.626   6.463
 8719SOL     OW27055   4.252   1.006   0.200
 8719SOL    HW127056   4.180   0.986   0.134
 8719SOL    HW227057   4.213   1.054   0.279
 8720SOL     OW27058   6.928   5.482   5.680
 8720SOL    HW127059   7.017   5.520   5.706
 8720SOL    HW227060   6.890   5.431   5.757
 8721SOL     OW27061   6.279   0.258   0.475
 8721SOL    HW127062   6.192   0.217   0.501
 8721SOL    HW227063   6.267   0.355   0.455
 8722SOL     OW27064   3.505   0.928   0.420
 8722SOL    HW127065   3.478   0.887   0.507
 8722SOL    HW227066   3.469   1.021   0.414
 8723SOL     OW27067   5.604   6.801   2.290
 8723SOL    HW127068   5.673   6.741   2.331
 8723SOL    HW227069   5.553   6.847   2.362
 8724SOL     OW27070   5.598   0.482   4.367
 8724SOL    HW127071   5.532   0.408   4.376
 8724SOL    HW227072   5.570   0.543   4.293
 8725SOL     OW27073   0.631   6.339   4.519
 8725SOL    HW127074   0.628   6.239   4.520
 8725SOL    HW227075   0.564   6.374   4.454
 8726SOL     OW27076   6.988   1.126   0.742
 8726SOL    HW127077   6.888   1.132   0.736
 8726SOL    HW227078   7.023   1.199   0.801
 8727SOL     OW27079   5.662   0.123   0.133
 8727SOL    HW127080   5.633   0.091   0.043
 8727SOL    HW227081   5.646   0.222   0.140
 8728SOL     OW27082   5.521   1.222   2.140
 8728SOL    HW127083   5.524   1.122   2.140
 8728SOL    HW227084   5.461   1.254   2.212
 8729SOL     OW27085   2.837   5.053   5.562
 8729SOL    HW127086   2.898   5.126   5.593
 8729SOL    HW227087   2.887   4.992   5.500
 8730SOL     OW27088   4.904   4.467   3.206
 8730SOL    HW127089   4.814   4.500   3.235
 8730SOL    HW227090   4.920   4.493   3.111
 8731SOL     OW27091   0.945   2.943   3.240
 8731SOL    HW127092   0.909   2.972   3.329
 8731SOL    HW227093   0.923   3.012   3.171
 8732SOL     OW27094   5.165   4.452   1.635
 8732SOL    HW127095   5.175   4.510   1.716
 8732SOL    HW227096   5.232   4.377   1.639
 8733SOL     OW27097   0.848   5.885   1.040
 8733SOL    HW127098   0.902   5.958   0.999
 8733SOL    HW227099   0.898   5.844   1.116
 8734SOL     OW27100   6.733   3.475   2.540
 8734SOL    HW127101   6.749   3.555   2.598
 8734SOL    HW227102   6.821   3.434   2.517
 8735SOL     OW27103   1.213   3.339   5.150
 8735SOL    HW127104   1.145   3.267   5.162
 8735SOL    HW227105   1.213   3.399   5.230
 8736SOL     OW27106   0.570   5.227   2.207
 8736SOL    HW127107   0.499   5.251   2.274
 8736SOL    HW227108   0.540   5.147   2.154
 8737SOL     OW27109   2.564   6.476   6.198
 8737SOL    HW127110   2.649   6.528   6.202
 8737SOL    HW227111   2.488   6.535   6.224
 8738SOL     OW27112   1.665   4.424   3.238
 8738SOL    HW127113   1.579   4.475   3.229
 8738SOL    HW227114   1.732   4.481   3.285
 8739SOL     OW27115   5.355   4.387   5.244
 8739SOL    HW127116   5.264   4.347   5.239
 8739SOL    HW227117   5.417   4.324   5.292
 8740SOL     OW27118   3.691   2.097   2.585
 8740SOL    HW127119   3.789   2.099   2.608
 8740SOL    HW227120   3.680   2.076   2.487
 8741SOL     OW27121   2.577   0.158   2.322
 8741SOL    HW127122   2.568   0.255   2.345
 8741SOL    HW227123   2.593   0.148   2.223
 8742SOL     OW27124   3.830   0.506   2.366
 8742SOL    HW127125   3.860   0.602   2.369
 8742SOL    HW227126   3.733   0.501   2.389
 8743SOL     OW27127   1.935   1.444   2.106
 8743SOL    HW127128   2.016   1.456   2.049
 8743SOL    HW227129   1.931   1.516   2.175
 8744SOL     OW27130   4.606   2.762   0.621
 8744SOL    HW127131   4.534   2.698   0.595
 8744SOL    HW227132   4.592   2.849   0.573
 8745SOL     OW27133   0.047   2.505   6.103
 8745SOL    HW127134   0.121   2.438   6.088
 8745SOL    HW227135   0.019   2.502   6.199
 8746SOL     OW27136   4.932   5.702   4.493
 8746SOL    HW127137   5.026   5.724   4.520
 8746SOL    HW227138   4.904   5.617   4.538
 8747SOL     OW27139   6.959   1.628   2.064
 8747SOL    HW127140   0.010   1.566   2.090
 8747SOL    HW227141   6.879   1.611   2.120
 8748SOL     OW27142   0.943   1.847   4.141
 8748SOL    HW127143   0.897   1.872   4.226
 8748SOL    HW227144   0.898   1.891   4.064
 8749SOL     OW27145   1.756   1.122   5.040
 8749SOL    HW127146   1.722   1.030   5.061
 8749SOL    HW227147   1.754   1.178   5.123
 8750SOL     OW27148   4.179   3.051   5.280
 8750SOL    HW127149   4.260   3.109   5.281
 8750SOL    HW227150   4.206   2.955   5.292
 8751SOL     OW27151   6.597   0.226   0.818
 8751SOL    HW127152   6.628   0.215   0.913
 8751SOL    HW227153   6.668   0.274   0.766
 8752SOL     OW27154   5.199   2.833   6.604
 8752SOL    HW127155   5.137   2.813   6.680
 8752SOL    HW227156   5.149   2.883   6.533
 8753SOL     OW27157   2.409   4.031   6.862
 8753SOL    HW127158   2.438   3.977   6.783
 8753SOL    HW227159   2.336   3.982   6.910
 8754SOL     OW27160   3.056   4.692   6.171
 8754SOL    HW127161   3.077   4.694   6.074
 8754SOL    HW227162   3.022   4.782   6.199
 8755SOL     OW27163   1.628   0.946   1.201
 8755SOL    HW127164   1.552   0.903   1.152
 8755SOL    HW227165   1.681   0.876   1.248
 8756SOL     OW27166   1.894   2.828   3.503
 8756SOL    HW127167   1.809   2.798   3.547
 8756SOL    HW227168   1.969   2.824   3.569
 8757SOL     OW27169   5.172   5.792   6.156
 8757SOL    HW127170   5.092   5.851   6.147
 8757SOL    HW227171   5.255   5.845   6.144
 8758SOL     OW27172   4.210   6.741   3.784
 8758SOL    HW127173   4.126   6.790   3.807
 8758SOL    HW227174   4.196   6.690   3.699
 8759SOL     OW27175   6.179   1.984   7.001
 8759SOL    HW127176   6.110   1.986   6.929
 8759SOL    HW227177   6.139   2.015   0.064
 8760SOL     OW27178   2.376   2.009   4.242
 8760SOL    HW127179   2.365   2.101   4.279
 8760SOL    HW227180   2.468   1.999   4.204
 8761SOL     OW27181   6.041   2.229   1.854
 8761SOL    HW127182   6.000   2.158   1.797
 8761SOL    HW227183   6.067   2.307   1.796
 8762SOL     OW27184   1.562   5.864   3.682
 8762SOL    HW127185   1.645   5.896   3.729
 8762SOL    HW227186   1.543   5.923   3.604
 8763SOL     OW27187   6.499   0.457   4.962
 8763SOL    HW127188   6.447   0.444   5.046
 8763SOL    HW227189   6.592   0.487   4.984
 8764SOL     OW27190   4.587   5.840   6.281
 8764SOL    HW127191   4.639   5.789   6.211
 8764SOL    HW227192   4.498   5.797   6.294
 8765SOL     OW27193   5.245   1.174   5.113
 8765SOL    HW127194   5.282   1.222   5.192
 8765SOL    HW227195   5.301   1.193   5.033
 8766SOL     OW27196   4.146   4.314   5.322
 8766SOL    HW127197   4.205   4.362   5.257
 8766SOL    HW227198   4.177   4.219   5.331
 8767SOL     OW27199   3.498   0.053   3.970
 8767SOL    HW127200   3.563   0.059   3.894
 8767SOL    HW227201   3.511   6.989   4.018
 8768SOL     OW27202   1.124   2.153   0.885
 8768SOL    HW127203   1.131   2.053   0.894
 8768SOL    HW227204   1.045   2.175   0.828
 8769SOL     OW27205   0.221   1.144   2.098
 8769SOL    HW127206   0.169   1.230   2.096
 8769SOL    HW227207   0.293   1.150   2.167
 8770SOL     OW27208   5.105   4.651   2.067
 8770SOL    HW127209   5.192   4.700   2.068
 8770SOL    HW227210   5.036   4.706   2.019
 8771SOL     OW27211   0.625   3.008   5.952
 8771SOL    HW127212   0.543   3.017   5.895
 8771SOL    HW227213   0.679   3.092   5.946
 8772SOL     OW27214   5.057   0.659   5.563
 8772SOL    HW127215   5.117   0.729   5.602
 8772SOL    HW227216   4.995   0.626   5.634
 8773SOL     OW27217   5.791   2.382   3.489
 8773SOL    HW127218   5.886   2.389   3.522
 8773SOL    HW227219   5.729   2.416   3.560
 8774SOL     OW27220   0.516   6.787   6.501
 8774SOL    HW127221   0.596   6.759   6.448
 8774SOL    HW227222   0.459   6.848   6.447
 8775SOL     OW27223   5.219   1.362   5.701
 8775SOL    HW127224   5.311   1.394   5.682
 8775SOL    HW227225   5.222   1.267   5.733
 8776SOL     OW27226   5.050   3.132   1.524
 8776SOL    HW127227   4.966   3.144   1.577
 8776SOL    HW227228   5.126   3.114   1.585
 8777SOL     OW27229   0.605   3.451   3.186
 8777SOL    HW127230   0.586   3.547   3.206
 8777SOL    HW227231   0.693   3.444   3.138
 8778SOL     OW27232   4.792   3.869   6.069
 8778SOL    HW127233   4.743   3.817   6.140
 8778SOL    HW227234   4.727   3.911   6.007
 8779SOL     OW27235   2.680   5.961   2.322
 8779SOL    HW127236   2.708   5.866   2.332
 8779SOL    HW227237   2.760   6.020   2.334
 8780SOL     OW27238   0.521   6.130   2.999
 8780SOL    HW127239   0.432   6.152   2.959
 8780SOL    HW227240   0.557   6.047   2.958
 8781SOL     OW27241   4.350   6.751   2.813
 8781SOL    HW127242   4.354   6.689   2.735
 8781SOL    HW227243   4.440   6.758   2.855
 8782SOL     OW27244   6.204   1.175   1.984
 8782SOL    HW127245   6.206   1.075   1.977
 8782SOL    HW227246   6.117   1.203   2.024
 8783SOL     OW27247   6.166   3.711   4.105
 8783SOL    HW127248   6.087   3.656   4.080
 8783SOL    HW227249   6.139   3.780   4.173
 8784SOL     OW27250   6.366   6.482   0.973
 8784SOL    HW127251   6.409   6.540   0.904
 8784SOL    HW227252   6.435   6.423   1.014
 8785SOL     OW27253   0.660   5.298   5.979
 8785SOL    HW127254   0.649   5.394   5.952
 8785SOL    HW227255   0.609   5.239   5.916
 8786SOL     OW27256   3.696   1.699   2.446
 8786SOL    HW127257   3.623   1.670   2.507
 8786SOL    HW227258   3.660   1.764   2.379
 8787SOL     OW27259   3.352   0.537   1.720
 8787SOL    HW127260   3.372   0.586   1.805
 8787SOL    HW227261   3.352   0.601   1.644
 8788SOL     OW27262   6.655   1.098   5.059
 8788SOL    HW127263   6.688   1.062   5.147
 8788SOL    HW227264   6.614   1.188   5.073
 8789SOL     OW27265   6.673   4.083   5.233
 8789SOL    HW127266   6.730   4.141   5.175
 8789SOL    HW227267   6.590   4.132   5.258
 8790SOL     OW27268   6.365   1.857   0.144
 8790SOL    HW127269   6.403   1.768   0.119
 8790SOL    HW227270   6.306   1.890   0.069
 8791SOL     OW27271   4.733   6.584   4.843
 8791SOL    HW127272   4.703   6.551   4.933
 8791SOL    HW227273   4.767   6.507   4.789
 8792SOL     OW27274   3.133   4.902   2.742
 8792SOL    HW127275   3.065   4.958   2.695
 8792SOL    HW227276   3.154   4.821   2.687
 8793SOL     OW27277   0.818   4.945   4.007
 8793SOL    HW127278   0.862   4.974   4.092
 8793SOL    HW227279   0.872   4.975   3.929
 8794SOL     OW27280   6.367   1.195   3.576
 8794SOL    HW127281   6.324   1.219   3.489
 8794SOL    HW227282   6.348   1.099   3.596
 8795SOL     OW27283   1.286   5.172   5.142
 8795SOL    HW127284   1.258   5.080   5.114
 8795SOL    HW227285   1.223   5.239   5.103
 8796SOL     OW27286   5.724   3.865   3.408
 8796SOL    HW127287   5.651   3.830   3.468
 8796SOL    HW227288   5.802   3.802   3.411
 8797SOL     OW27289   6.904   0.117   4.358
 8797SOL    HW127290   6.940   0.027   4.383
 8797SOL    HW227291   6.978   0.183   4.352
 8798SOL     OW27292   4.537   6.551   5.657
 8798SOL    HW127293   4.552   6.610   5.736
 8798SOL    HW227294   4.607   6.480   5.656
 8799SOL     OW27295   2.558   4.805   2.256
 8799SOL    HW127296   2.586   4.897   2.284
 8799SOL    HW227297   2.631   4.763   2.201
 8800SOL     OW27298   5.699   5.985   5.669
 8800SOL    HW127299   5.680   6.080   5.693
 8800SOL    HW227300   5.767   5.983   5.596
 8801SOL     OW27301   5.877   2.129   5.142
 8801SOL    HW127302   5.895   2.115   5.239
 8801SOL    HW227303   5.819   2.210   5.130
 8802SOL     OW27304   1.460   5.862   5.558
 8802SOL    HW127305   1.476   5.951   5.516
 8802SOL    HW227306   1.473   5.870   5.657
 8803SOL     OW27307   0.166   1.423   0.030
 8803SOL    HW127308   0.202   1.374   0.110
 8803SOL    HW227309   0.167   1.522   0.049
 8804SOL     OW27310   1.677   6.455   1.043
 8804SOL    HW127311   1.750   6.401   1.085
 8804SOL    HW227312   1.612   6.393   0.999
 8805SOL     OW27313   4.041   5.264   3.601
 8805SOL    HW127314   4.090   5.328   3.542
 8805SOL    HW227315   4.103   5.228   3.671
 8806SOL     OW27316   2.414   5.647   0.788
 8806SOL    HW127317   2.335   5.693   0.829
 8806SOL    HW227318   2.464   5.597   0.859
 8807SOL     OW27319   4.250   2.017   0.094
 8807SOL    HW127320   4.191   1.974   0.025
 8807SOL    HW227321   4.233   1.975   0.183
 8808SOL     OW27322   0.574   2.497   6.674
 8808SOL    HW127323   0.637   2.537   6.740
 8808SOL    HW227324   0.624   2.471   6.591
 8809SOL     OW27325   2.177   3.893   3.088
 8809SOL    HW127326   2.146   3.802   3.113
 8809SOL    HW227327   2.160   3.956   3.164
 8810SOL     OW27328   5.792   1.344   5.213
 8810SOL    HW127329   5.814   1.249   5.192
 8810SOL    HW227330   5.870   1.387   5.258
 8811SOL     OW27331   4.410   0.155   2.722
 8811SOL    HW127332   4.421   0.169   2.821
 8811SOL    HW227333   4.355   0.229   2.684
 8812SOL     OW27334   2.975   0.361   6.520
 8812SOL    HW127335   3.046   0.319   6.576
 8812SOL    HW227336   3.016   0.409   6.443
 8813SOL     OW27337   2.295   4.448   2.635
 8813SOL    HW127338   2.277   4.545   2.618
 8813SOL    HW227339   2.324   4.404   2.550
 8814SOL     OW27340   5.501   6.687   0.279
 8814SOL    HW127341   5.575   6.668   0.344
 8814SOL    HW227342   5.494   6.786   0.265
 8815SOL     OW27343   5.465   0.204   1.449
 8815SOL    HW127344   5.565   0.203   1.446
 8815SOL    HW227345   5.434   0.196   1.544
 8816SOL     OW27346   0.246   7.002   6.710
 8816SOL    HW127347   0.345   6.991   6.699
 8816SOL    HW227348   0.200   6.973   6.626
 8817SOL     OW27349   0.991   3.378   4.187
 8817SOL    HW127350   0.956   3.377   4.280
 8817SOL    HW227351   0.967   3.465   4.144
 8818SOL     OW27352   1.409   6.848   2.670
 8818SOL    HW127353   1.427   6.756   2.634
 8818SOL    HW227354   1.314   6.874   2.650
 8819SOL     OW27355   5.978   4.518   5.006
 8819SOL    HW127356   5.955   4.527   4.909
 8819SOL    HW227357   6.061   4.570   5.025
 8820SOL     OW27358   3.240   1.235   4.676
 8820SOL    HW127359   3.249   1.196   4.767
 8820SOL    HW227360   3.309   1.306   4.663
 8821SOL     OW27361   1.146   5.251   0.179
 8821SOL    HW127362   1.218   5.265   0.112
 8821SOL    HW227363   1.107   5.339   0.207
 8822SOL     OW27364   0.019   0.391   3.188
 8822SOL    HW127365   7.017   0.482   3.221
 8822SOL    HW227366   0.056   0.337   3.264
 8823SOL     OW27367   2.191   0.370   2.335
 8823SOL    HW127368   2.173   0.312   2.414
 8823SOL    HW227369   2.111   0.370   2.275
 8824SOL     OW27370   1.535   0.078   1.318
 8824SOL    HW127371   1.634   0.064   1.314
 8824SOL    HW227372   1.513   0.143   1.390
 8825SOL     OW27373   0.527   0.583   1.744
 8825SOL    HW127374   0.502   0.648   1.672
 8825SOL    HW227375   0.470   0.502   1.736
 8826SOL     OW27376   1.000   3.383   1.233
 8826SOL    HW127377   1.048   3.306   1.276
 8826SOL    HW227378   0.975   3.449   1.304
 8827SOL     OW27379   3.846   0.415   2.682
 8827SOL    HW127380   3.911   0.482   2.646
 8827SOL    HW227381   3.753   0.441   2.657
 8828SOL     OW27382   3.920   4.352   6.274
 8828SOL    HW127383   4.016   4.363   6.248
 8828SOL    HW227384   3.902   4.404   6.357
 8829SOL     OW27385   6.302   1.811   1.929
 8829SOL    HW127386   6.347   1.731   1.890
 8829SOL    HW227387   6.316   1.890   1.870
 8830SOL     OW27388   1.719   1.277   2.505
 8830SOL    HW127389   1.677   1.311   2.421
 8830SOL    HW227390   1.725   1.177   2.501
 8831SOL     OW27391   6.283   3.156   2.346
 8831SOL    HW127392   6.201   3.171   2.402
 8831SOL    HW227393   6.301   3.237   2.291
 8832SOL     OW27394   6.959   6.248   4.031
 8832SOL    HW127395   0.030   6.260   4.000
 8832SOL    HW227396   6.908   6.333   4.015
 8833SOL     OW27397   3.774   3.978   0.229
 8833SOL    HW127398   3.845   3.972   0.159
 8833SOL    HW227399   3.804   4.042   0.301
 8834SOL     OW27400   6.148   3.499   5.010
 8834SOL    HW127401   6.060   3.526   5.049
 8834SOL    HW227402   6.134   3.436   4.934
 8835SOL     OW27403   5.902   1.202   5.950
 8835SOL    HW127404   6.001   1.216   5.946
 8835SOL    HW227405   5.869   1.225   6.041
 8836SOL     OW27406   6.021   2.209   0.541
 8836SOL    HW127407   5.962   2.246   0.612
 8836SOL    HW227408   6.060   2.284   0.487
 8837SOL     OW27409   0.088   0.503   1.988
 8837SOL    HW127410   0.067   0.431   1.923
 8837SOL    HW227411   0.185   0.501   2.011
 8838SOL     OW27412   0.439   4.733   2.301
 8838SOL    HW127413   0.382   4.780   2.368
 8838SOL    HW227414   0.427   4.634   2.310
 8839SOL     OW27415   4.603   5.869   2.409
 8839SOL    HW127416   4.605   5.876   2.309
 8839SOL    HW227417   4.519   5.911   2.444
 8840SOL     OW27418   6.191   0.541   1.847
 8840SOL    HW127419   6.124   0.560   1.919
 8840SOL    HW227420   6.276   0.508   1.888
 8841SOL     OW27421   4.977   1.276   2.769
 8841SOL    HW127422   4.879   1.268   2.785
 8841SOL    HW227423   5.022   1.310   2.851
 8842SOL     OW27424   3.149   4.052   3.978
 8842SOL    HW127425   3.114   4.016   3.892
 8842SOL    HW227426   3.072   4.073   4.039
 8843SOL     OW27427   1.930   3.077   4.772
 8843SOL    HW127428   2.003   3.091   4.839
 8843SOL    HW227429   1.886   2.989   4.788
 8844SOL     OW27430   0.003   2.142   5.251
 8844SOL    HW127431   6.945   2.083   5.254
 8844SOL    HW227432   7.019   2.212   5.322
 8845SOL     OW27433   2.560   4.973   0.841
 8845SOL    HW127434   2.503   4.973   0.758
 8845SOL    HW227435   2.588   5.067   0.862
 8846SOL     OW27436   5.431   5.066   4.325
 8846SOL    HW127437   5.424   5.131   4.401
 8846SOL    HW227438   5.419   5.114   4.238
 8847SOL     OW27439   1.718   0.788   2.696
 8847SOL    HW127440   1.694   0.773   2.792
 8847SOL    HW227441   1.746   0.702   2.655
 8848SOL     OW27442   3.193   2.087   2.086
 8848SOL    HW127443   3.132   2.014   2.119
 8848SOL    HW227444   3.169   2.110   1.992
 8849SOL     OW27445   3.066   4.838   3.997
 8849SOL    HW127446   3.010   4.829   4.079
 8849SOL    HW227447   3.162   4.846   4.023
 8850SOL     OW27448   2.951   1.073   1.127
 8850SOL    HW127449   2.961   1.005   1.200
 8850SOL    HW227450   3.036   1.125   1.119
 8851SOL     OW27451   1.022   4.515   2.374
 8851SOL    HW127452   0.976   4.588   2.425
 8851SOL    HW227453   1.116   4.505   2.408
 8852SOL     OW27454   4.818   3.041   6.226
 8852SOL    HW127455   4.877   3.118   6.201
 8852SOL    HW227456   4.723   3.064   6.205
 8853SOL     OW27457   3.898   0.402   4.208
 8853SOL    HW127458   3.930   0.419   4.115
 8853SOL    HW227459   3.975   0.370   4.264
 8854SOL     OW27460   2.235   0.708   6.337
 8854SOL    HW127461   2.305   0.774   6.310
 8854SOL    HW227462   2.238   0.695   6.436
 8855SOL     OW27463   6.737   5.957   0.378
 8855SOL    HW127464   6.735   5.952   0.477
 8855SOL    HW227465   6.747   6.052   0.349
 8856SOL     OW27466   6.533   6.904   5.218
 8856SOL    HW127467   6.525   6.850   5.302
 8856SOL    HW227468   6.458   6.969   5.214
 8857SOL     OW27469   6.270   1.725   3.772
 8857SOL    HW127470   6.173   1.728   3.750
 8857SOL    HW227471   6.322   1.690   3.693
 8858SOL     OW27472   2.247   3.104   5.540
 8858SOL    HW127473   2.154   3.068   5.538
 8858SOL    HW227474   2.244   3.204   5.541
 8859SOL     OW27475   0.329   6.947   5.445
 8859SOL    HW127476   0.412   6.939   5.389
 8859SOL    HW227477   0.255   6.895   5.403
 8860SOL     OW27478   1.763   3.908   2.641
 8860SOL    HW127479   1.828   3.947   2.706
 8860SOL    HW227480   1.722   3.982   2.586
 8861SOL     OW27481   3.037   2.564   6.559
 8861SOL    HW127482   3.104   2.619   6.508
 8861SOL    HW227483   2.959   2.621   6.583
 8862SOL     OW27484   5.975   1.255   3.655
 8862SOL    HW127485   5.945   1.328   3.593
 8862SOL    HW227486   6.015   1.181   3.601
 8863SOL     OW27487   1.659   5.371   4.672
 8863SOL    HW127488   1.570   5.333   4.646
 8863SOL    HW227489   1.676   5.455   4.620
 8864SOL     OW27490   2.528   3.316   6.182
 8864SOL    HW127491   2.431   3.295   6.191
 8864SOL    HW227492   2.539   3.398   6.127
 8865SOL     OW27493   3.135   0.927   4.705
 8865SOL    HW127494   3.084   1.012   4.696
 8865SOL    HW227495   3.135   0.878   4.618
 8866SOL     OW27496   4.664   6.921   3.861
 8866SOL    HW127497   4.629   7.000   3.812
 8866SOL    HW227498   4.590   6.875   3.909
 8867SOL     OW27499   5.127   2.872   3.284
 8867SOL    HW127500   5.140   2.903   3.190
 8867SOL    HW227501   5.097   2.777   3.284
 8868SOL     OW27502   5.642   3.881   0.528
 8868SOL    HW127503   5.711   3.848   0.593
 8868SOL    HW227504   5.617   3.807   0.466
 8869SOL     OW27505   4.235   5.176   3.380
 8869SOL    HW127506   4.249   5.095   3.438
 8869SOL    HW227507   4.144   5.171   3.338
 8870SOL     OW27508   3.145   0.227   0.549
 8870SOL    HW127509   3.061   0.271   0.517
 8870SOL    HW227510   3.149   0.232   0.649
 8871SOL     OW27511   3.410   1.611   3.717
 8871SOL    HW127512   3.473   1.540   3.685
 8871SOL    HW227513   3.427   1.629   3.814
 8872SOL     OW27514   1.665   3.973   4.324
 8872SOL    HW127515   1.674   4.071   4.306
 8872SOL    HW227516   1.751   3.927   4.304
 8873SOL     OW27517   6.255   5.893   2.277
 8873SOL    HW127518   6.271   5.984   2.315
 8873SOL    HW227519   6.162   5.864   2.297
 8874SOL     OW27520   2.117   6.995   1.225
 8874SOL    HW127521   2.048   6.929   1.256
 8874SOL    HW227522   2.208   6.954   1.233
 8875SOL     OW27523   0.968   2.333   4.552
 8875SOL    HW127524   0.876   2.327   4.591
 8875SOL    HW227525   1.027   2.385   4.613
 8876SOL     OW27526   0.745   0.311   4.832
 8876SOL    HW127527   0.664   0.253   4.833
 8876SOL    HW227528   0.719   0.405   4.814
 8877SOL     OW27529   2.872   0.728   4.130
 8877SOL    HW127530   2.839   0.737   4.224
 8877SOL    HW227531   2.804   0.768   4.068
 8878SOL     OW27532   0.951   4.979   0.722
 8878SOL    HW127533   0.929   5.014   0.630
 8878SOL    HW227534   0.874   4.925   0.756
 8879SOL     OW27535   5.810   5.110   1.276
 8879SOL    HW127536   5.860   5.068   1.200
 8879SOL    HW227537   5.747   5.179   1.240
 8880SOL     OW27538   0.235   5.783   4.580
 8880SOL    HW127539   0.210   5.878   4.594
 8880SOL    HW227540   0.298   5.754   4.652
 8881SOL     OW27541   5.771   6.962   3.475
 8881SOL    HW127542   5.816   7.000   3.556
 8881SOL    HW227543   5.774   6.862   3.480
 8882SOL     OW27544   5.071   1.150   0.545
 8882SOL    HW127545   5.087   1.237   0.498
 8882SOL    HW227546   5.139   1.083   0.516
 8883SOL     OW27547   0.681   1.384   6.254
 8883SOL    HW127548   0.710   1.460   6.196
 8883SOL    HW227549   0.584   1.395   6.277
 8884SOL     OW27550   6.074   6.562   6.840
 8884SOL    HW127551   5.983   6.602   6.854
 8884SOL    HW227552   6.078   6.517   6.750
 8885SOL     OW27553   6.569   3.817   1.334
 8885SOL    HW127554   6.559   3.914   1.355
 8885SOL    HW227555   6.646   3.805   1.271
 8886SOL     OW27556   3.041   5.896   5.887
 8886SOL    HW127557   3.033   5.799   5.911
 8886SOL    HW227558   2.981   5.950   5.946
 8887SOL     OW27559   3.192   1.491   1.088
 8887SOL    HW127560   3.258   1.497   1.164
 8887SOL    HW227561   3.234   1.528   1.005
 8888SOL     OW27562   1.070   2.268   1.374
 8888SOL    HW127563   0.980   2.309   1.388
 8888SOL    HW227564   1.126   2.281   1.455
 8889SOL     OW27565   5.152   6.531   5.943
 8889SOL    HW127566   5.114   6.445   5.911
 8889SOL    HW227567   5.240   6.514   5.989
 8890SOL     OW27568   6.451   6.249   4.629
 8890SOL    HW127569   6.438   6.338   4.674
 8890SOL    HW227570   6.532   6.204   4.667
 8891SOL     OW27571   6.258   3.231   6.246
 8891SOL    HW127572   6.213   3.197   6.328
 8891SOL    HW227573   6.280   3.327   6.257
 8892SOL     OW27574   2.937   6.120   3.757
 8892SOL    HW127575   2.889   6.037   3.727
 8892SOL    HW227576   2.875   6.198   3.753
 8893SOL     OW27577   0.905   0.687   1.972
 8893SOL    HW127578   0.901   0.619   1.899
 8893SOL    HW227579   0.828   0.674   2.034
 8894SOL     OW27580   3.611   3.157   5.863
 8894SOL    HW127581   3.660   3.173   5.778
 8894SOL    HW227582   3.611   3.241   5.918
 8895SOL     OW27583   0.017   0.757   1.945
 8895SOL    HW127584   6.989   0.779   1.862
 8895SOL    HW227585   0.011   0.658   1.962
 8896SOL     OW27586   1.763   3.249   4.868
 8896SOL    HW127587   1.833   3.197   4.819
 8896SOL    HW227588   1.680   3.194   4.877
 8897SOL     OW27589   1.288   1.650   2.436
 8897SOL    HW127590   1.281   1.739   2.391
 8897SOL    HW227591   1.385   1.625   2.445
 8898SOL     OW27592   5.925   3.323   4.337
 8898SOL    HW127593   5.869   3.241   4.330
 8898SOL    HW227594   5.906   3.370   4.424
 8899SOL     OW27595   1.527   4.439   0.147
 8899SOL    HW127596   1.531   4.457   0.246
 8899SOL    HW227597   1.609   4.475   0.103
 8900SOL     OW27598   5.566   3.602   2.920
 8900SOL    HW127599   5.484   3.587   2.975
 8900SOL    HW227600   5.589   3.518   2.871
 8901SOL     OW27601   2.698   0.893   3.988
 8901SOL    HW127602   2.703   0.990   4.012
 8901SOL    HW227603   2.724   0.881   3.893
 8902SOL     OW27604   3.126   6.019   6.584
 8902SOL    HW127605   3.162   5.950   6.521
 8902SOL    HW227606   3.079   5.975   6.660
 8903SOL     OW27607   2.269   0.576   4.153
 8903SOL    HW127608   2.286   0.590   4.055
 8903SOL    HW227609   2.313   0.649   4.205
 8904SOL     OW27610   7.009   5.136   3.698
 8904SOL    HW127611   6.922   5.110   3.740
 8904SOL    HW227612   0.059   5.077   3.733
 8905SOL     OW27613   2.142   4.081   4.431
 8905SOL    HW127614   2.073   4.028   4.480
 8905SOL    HW227615   2.174   4.029   4.351
 8906SOL     OW27616   6.539   6.892   6.898
 8906SOL    HW127617   6.455   6.846   6.929
 8906SOL    HW227618   6.615   6.867   6.959
 8907SOL     OW27619   3.480   2.103   5.120
 8907SOL    HW127620   3.442   2.173   5.060
 8907SOL    HW227621   3.409   2.070   5.182
 8908SOL     OW27622   1.301   2.915   6.836
 8908SOL    HW127623   1.272   2.819   6.837
 8908SOL    HW227624   1.287   2.955   6.927
 8909SOL     OW27625   2.307   0.152   5.096
 8909SOL    HW127626   2.329   0.072   5.152
 8909SOL    HW227627   2.208   0.154   5.079
 8910SOL     OW27628   2.091   3.034   6.285
 8910SOL    HW127629   2.011   2.982   6.257
 8910SOL    HW227630   2.160   2.972   6.321
 8911SOL     OW27631   4.018   2.094   4.980
 8911SOL    HW127632   4.071   2.010   4.970
 8911SOL    HW227633   4.072   2.172   4.950
 8912SOL     OW27634   4.086   1.496   6.796
 8912SOL    HW127635   4.087   1.514   6.895
 8912SOL    HW227636   4.066   1.400   6.779
 8913SOL     OW27637   4.849   5.014   0.733
 8913SOL    HW127638   4.838   4.921   0.700
 8913SOL    HW227639   4.760   5.060   0.736
 8914SOL     OW27640   4.299   0.699   5.647
 8914SOL    HW127641   4.294   0.780   5.589
 8914SOL    HW227642   4.348   0.721   5.731
 8915SOL     OW27643   0.845   2.617   3.944
 8915SOL    HW127644   0.748   2.605   3.925
 8915SOL    HW227645   0.862   2.711   3.972
 8916SOL     OW27646   0.424   3.548   2.079
 8916SOL    HW127647   0.473   3.497   2.149
 8916SOL    HW227648   0.436   3.503   1.990
 8917SOL     OW27649   5.865   5.030   6.160
 8917SOL    HW127650   5.848   5.128   6.145
 8917SOL    HW227651   5.830   5.003   6.249
 8918SOL     OW27652   6.830   6.352   0.893
 8918SOL    HW127653   6.883   6.314   0.969
 8918SOL    HW227654   6.884   6.348   0.809
 8919SOL     OW27655   4.246   3.155   0.634
 8919SOL    HW127656   4.164   3.196   0.674
 8919SOL    HW227657   4.223   3.115   0.545
 8920SOL     OW27658   6.750   6.474   6.751
 8920SOL    HW127659   6.678   6.514   6.808
 8920SOL    HW227660   6.839   6.493   6.791
 8921SOL     OW27661   2.127   1.646   3.129
 8921SOL    HW127662   2.109   1.658   3.226
 8921SOL    HW227663   2.152   1.734   3.089
 8922SOL     OW27664   2.609   5.040   1.145
 8922SOL    HW127665   2.630   5.012   1.051
 8922SOL    HW227666   2.556   4.969   1.190
 8923SOL     OW27667   1.900   3.676   6.410
 8923SOL    HW127668   1.968   3.747   6.391
 8923SOL    HW227669   1.811   3.705   6.376
 8924SOL     OW27670   3.026   5.591   5.963
 8924SOL    HW127671   2.969   5.618   6.041
 8924SOL    HW227672   2.970   5.589   5.880
 8925SOL     OW27673   1.098   0.438   1.890
 8925SOL    HW127674   1.172   0.487   1.843
 8925SOL    HW227675   1.084   0.477   1.981
 8926SOL     OW27676   5.283   2.997   0.728
 8926SOL    HW127677   5.222   2.975   0.804
 8926SOL    HW227678   5.361   3.050   0.762
 8927SOL     OW27679   1.751   1.829   4.983
 8927SOL    HW127680   1.724   1.922   4.960
 8927SOL    HW227681   1.689   1.793   5.053
 8928SOL     OW27682   0.099   0.811   5.050
 8928SOL    HW127683   0.022   0.874   5.057
 8928SOL    HW227684   0.155   0.819   5.133
 8929SOL     OW27685   0.522   3.709   3.547
 8929SOL    HW127686   0.565   3.790   3.508
 8929SOL    HW227687   0.591   3.652   3.592
 8930SOL     OW27688   1.899   4.900   4.809
 8930SOL    HW127689   1.920   4.980   4.865
 8930SOL    HW227690   1.827   4.847   4.854
 8931SOL     OW27691   3.550   2.902   0.377
 8931SOL    HW127692   3.604   2.905   0.461
 8931SOL    HW227693   3.467   2.956   0.389
 8932SOL     OW27694   5.194   0.150   6.908
 8932SOL    HW127695   5.270   0.095   6.944
 8932SOL    HW227696   5.139   0.095   6.847
 8933SOL     OW27697   0.806   2.252   5.552
 8933SOL    HW127698   0.716   2.234   5.514
 8933SOL    HW227699   0.824   2.188   5.627
 8934SOL     OW27700   2.827   5.241   3.849
 8934SOL    HW127701   2.833   5.336   3.879
 8934SOL    HW227702   2.749   5.196   3.894
 8935SOL     OW27703   5.116   4.093   2.148
 8935SOL    HW127704   5.111   4.172   2.209
 8935SOL    HW227705   5.036   4.035   2.162
 8936SOL     OW27706   0.556   3.458   0.736
 8936SOL    HW127707   0.494   3.499   0.803
 8936SOL    HW227708   0.597   3.375   0.775
 8937SOL     OW27709   0.301   1.150   3.992
 8937SOL    HW127710   0.372   1.202   3.944
 8937SOL    HW227711   0.333   1.056   4.008
 8938SOL     OW27712   6.808   1.710   0.687
 8938SOL    HW127713   6.779   1.654   0.609
 8938SOL    HW227714   6.824   1.804   0.656
 8939SOL     OW27715   6.527   2.735   4.857
 8939SOL    HW127716   6.613   2.706   4.898
 8939SOL    HW227717   6.467   2.656   4.845
 8940SOL     OW27718   5.635   2.356   0.374
 8940SOL    HW127719   5.611   2.434   0.432
 8940SOL    HW227720   5.684   2.388   0.293
 8941SOL     OW27721   4.788   2.166   1.895
 8941SOL    HW127722   4.839   2.212   1.968
 8941SOL    HW227723   4.752   2.234   1.832
 8942SOL     OW27724   0.413   5.264   4.014
 8942SOL    HW127725   0.461   5.203   4.076
 8942SOL    HW227726   0.422   5.231   3.920
 8943SOL     OW27727   4.348   4.494   0.102
 8943SOL    HW127728   4.363   4.428   0.176
 8943SOL    HW227729   4.347   4.586   0.140
 8944SOL     OW27730   4.769   4.924   4.379
 8944SOL    HW127731   4.815   4.921   4.290
 8944SOL    HW227732   4.836   4.912   4.452
 8945SOL     OW27733   6.877   3.123   5.062
 8945SOL    HW127734   6.810   3.102   4.991
 8945SOL    HW227735   6.954   3.172   5.021
 8946SOL     OW27736   3.809   0.232   4.560
 8946SOL    HW127737   3.829   0.327   4.540
 8946SOL    HW227738   3.859   0.203   4.642
 8947SOL     OW27739   1.774   3.976   6.429
 8947SOL    HW127740   1.824   3.985   6.343
 8947SOL    HW227741   1.813   4.038   6.496
 8948SOL     OW27742   6.541   6.240   3.778
 8948SOL    HW127743   6.504   6.290   3.856
 8948SOL    HW227744   6.641   6.236   3.786
 8949SOL     OW27745   3.657   5.421   6.931
 8949SOL    HW127746   3.563   5.453   6.933
 8949SOL    HW227747   3.684   5.402   6.836
 8950SOL     OW27748   4.600   3.337   1.168
 8950SOL    HW127749   4.583   3.290   1.081
 8950SOL    HW227750   4.621   3.269   1.239
 8951SOL     OW27751   2.130   1.250   4.364
 8951SOL    HW127752   2.110   1.262   4.461
 8951SOL    HW227753   2.191   1.323   4.333
 8952SOL     OW27754   1.989   4.984   3.495
 8952SOL    HW127755   2.013   5.045   3.570
 8952SOL    HW227756   1.955   4.897   3.532
 8953SOL     OW27757   2.415   5.116   1.485
 8953SOL    HW127758   2.325   5.080   1.512
 8953SOL    HW227759   2.455   5.166   1.562
 8954SOL     OW27760   0.863   5.763   4.070
 8954SOL    HW127761   0.905   5.755   3.979
 8954SOL    HW227762   0.764   5.767   4.061
 8955SOL     OW27763   0.210   2.899   2.760
 8955SOL    HW127764   0.119   2.863   2.779
 8955SOL    HW227765   0.206   2.961   2.681
 8956SOL     OW27766   0.720   0.285   6.778
 8956SOL    HW127767   0.680   0.346   6.710
 8956SOL    HW227768   0.652   0.261   6.846
 8957SOL     OW27769   1.844   5.265   1.874
 8957SOL    HW127770   1.747   5.266   1.850
 8957SOL    HW227771   1.856   5.294   1.969
 8958SOL     OW27772   1.370   2.726   5.079
 8958SOL    HW127773   1.391   2.773   4.993
 8958SOL    HW227774   1.280   2.683   5.073
 8959SOL     OW27775   1.093   3.590   2.136
 8959SOL    HW127776   1.081   3.579   2.234
 8959SOL    HW227777   1.112   3.501   2.094
 8960SOL     OW27778   7.016   5.067   4.092
 8960SOL    HW127779   6.943   5.064   4.160
 8960SOL    HW227780   7.003   4.992   4.026
 8961SOL     OW27781   3.816   0.844   4.088
 8961SOL    HW127782   3.774   0.824   4.176
 8961SOL    HW227783   3.808   0.942   4.069
 8962SOL     OW27784   0.466   6.040   2.129
 8962SOL    HW127785   0.396   6.083   2.072
 8962SOL    HW227786   0.548   6.096   2.128
 8963SOL     OW27787   3.336   6.164   4.456
 8963SOL    HW127788   3.344   6.079   4.508
 8963SOL    HW227789   3.354   6.145   4.359
 8964SOL     OW27790   5.398   3.963   2.803
 8964SOL    HW127791   5.332   4.037   2.807
 8964SOL    HW227792   5.351   3.878   2.778
 8965SOL     OW27793   3.263   4.716   0.339
 8965SOL    HW127794   3.167   4.700   0.318
 8965SOL    HW227795   3.320   4.662   0.277
 8966SOL     OW27796   6.569   5.287   6.160
 8966SOL    HW127797   6.663   5.254   6.151
 8966SOL    HW227798   6.556   5.368   6.103
 8967SOL     OW27799   4.196   0.716   3.359
 8967SOL    HW127800   4.292   0.731   3.339
 8967SOL    HW227801   4.156   0.800   3.396
 8968SOL     OW27802   2.526   4.603   1.550
 8968SOL    HW127803   2.474   4.688   1.563
 8968SOL    HW227804   2.546   4.562   1.639
 8969SOL     OW27805   0.605   0.275   3.279
 8969SOL    HW127806   0.521   0.329   3.289
 8969SOL    HW227807   0.674   0.309   3.343
 8970SOL     OW27808   1.302   2.277   6.788
 8970SOL    HW127809   1.248   2.295   6.870
 8970SOL    HW227810   1.398   2.294   6.807
 8971SOL     OW27811   4.545   6.905   1.433
 8971SOL    HW127812   4.458   6.860   1.418
 8971SOL    HW227813   4.605   6.889   1.355
 8972SOL     OW27814   5.253   4.997   0.663
 8972SOL    HW127815   5.219   5.061   0.732
 8972SOL    HW227816   5.305   4.924   0.707
 8973SOL     OW27817   0.235   2.546   2.524
 8973SOL    HW127818   0.308   2.492   2.482
 8973SOL    HW227819   0.276   2.614   2.586
 8974SOL     OW27820   2.178   3.868   3.802
 8974SOL    HW127821   2.140   3.935   3.865
 8974SOL    HW227822   2.224   3.915   3.726
 8975SOL     OW27823   0.407   6.513   6.746
 8975SOL    HW127824   0.365   6.477   6.830
 8975SOL    HW227825   0.398   6.613   6.744
 8976SOL     OW27826   6.475   6.469   0.546
 8976SOL    HW127827   6.550   6.496   0.485
 8976SOL    HW227828   6.484   6.516   0.634
 8977SOL     OW27829   0.079   4.789   6.541
 8977SOL    HW127830   0.070   4.874   6.489
 8977SOL    HW227831   0.044   4.803   6.634
 8978SOL     OW27832   5.036   6.424   5.057
 8978SOL    HW127833   5.017   6.402   4.962
 8978SOL    HW227834   5.023   6.522   5.072
 8979SOL     OW27835   1.203   5.073   6.317
 8979SOL    HW127836   1.275   5.110   6.376
 8979SOL    HW227837   1.133   5.142   6.303
 8980SOL     OW27838   4.361   2.166   5.585
 8980SOL    HW127839   4.428   2.103   5.625
 8980SOL    HW227840   4.293   2.190   5.654
 8981SOL     OW27841   4.715   2.423   5.659
 8981SOL    HW127842   4.744   2.506   5.612
 8981SOL    HW227843   4.769   2.346   5.626
 8982SOL     OW27844   6.736   1.651   1.850
 8982SOL    HW127845   6.684   1.567   1.860
 8982SOL    HW227846   6.821   1.633   1.800
 8983SOL     OW27847   1.303   5.459   1.557
 8983SOL    HW127848   1.226   5.489   1.501
 8983SOL    HW227849   1.301   5.506   1.645
 8984SOL     OW27850   6.146   0.012   4.590
 8984SOL    HW127851   6.121   0.108   4.575
 8984SOL    HW227852   6.077   6.991   4.648
 8985SOL     OW27853   4.519   2.092   0.806
 8985SOL    HW127854   4.577   2.172   0.825
 8985SOL    HW227855   4.545   2.053   0.718
 8986SOL     OW27856   5.321   4.344   2.390
 8986SOL    HW127857   5.354   4.407   2.319
 8986SOL    HW227858   5.355   4.252   2.372
 8987SOL     OW27859   3.001   0.481   1.289
 8987SOL    HW127860   3.067   0.432   1.232
 8987SOL    HW227861   2.978   0.425   1.369
 8988SOL     OW27862   2.019   5.381   0.654
 8988SOL    HW127863   2.103   5.394   0.602
 8988SOL    HW227864   2.030   5.419   0.746
 8989SOL     OW27865   5.132   2.983   3.024
 8989SOL    HW127866   5.128   3.079   2.999
 8989SOL    HW227867   5.044   2.939   3.006
 8990SOL     OW27868   2.670   6.050   1.075
 8990SOL    HW127869   2.712   6.116   1.013
 8990SOL    HW227870   2.571   6.066   1.077
 8991SOL     OW27871   2.590   2.602   1.798
 8991SOL    HW127872   2.592   2.504   1.822
 8991SOL    HW227873   2.525   2.649   1.858
 8992SOL     OW27874   0.453   2.955   0.396
 8992SOL    HW127875   0.380   2.891   0.418
 8992SOL    HW227876   0.540   2.918   0.428
 8993SOL     OW27877   4.834   2.314   3.573
 8993SOL    HW127878   4.747   2.360   3.558
 8993SOL    HW227879   4.904   2.352   3.513
 8994SOL     OW27880   1.843   4.824   4.521
 8994SOL    HW127881   1.893   4.785   4.443
 8994SOL    HW227882   1.908   4.846   4.594
 8995SOL     OW27883   1.332   2.184   5.408
 8995SOL    HW127884   1.390   2.216   5.482
 8995SOL    HW227885   1.242   2.160   5.445
 8996SOL     OW27886   0.502   3.689   1.420
 8996SOL    HW127887   0.432   3.681   1.491
 8996SOL    HW227888   0.569   3.759   1.447
 8997SOL     OW27889   5.198   0.815   6.044
 8997SOL    HW127890   5.225   0.719   6.030
 8997SOL    HW227891   5.270   0.875   6.008
 8998SOL     OW27892   6.766   2.034   5.182
 8998SOL    HW127893   6.761   1.935   5.186
 8998SOL    HW227894   6.809   2.062   5.096
 8999SOL     OW27895   4.913   0.710   6.085
 8999SOL    HW127896   4.814   0.706   6.074
 8999SOL    HW227897   4.936   0.770   6.162
 9000SOL     OW27898   2.900   4.316   6.761
 9000SOL    HW127899   2.974   4.340   6.824
 9000SOL    HW227900   2.822   4.376   6.777
 9001SOL     OW27901   1.368   4.779   2.836
 9001SOL    HW127902   1.437   4.832   2.886
 9001SOL    HW227903   1.282   4.830   2.833
 9002SOL     OW27904   6.879   5.487   5.419
 9002SOL    HW127905   6.883   5.495   5.518
 9002SOL    HW227906   6.787   5.458   5.391
 9003SOL     OW27907   6.193   2.562   0.827
 9003SOL    HW127908   6.113   2.574   0.886
 9003SOL    HW227909   6.239   2.477   0.852
 9004SOL     OW27910   5.241   6.731   1.808
 9004SOL    HW127911   5.246   6.754   1.906
 9004SOL    HW227912   5.305   6.789   1.757
 9005SOL     OW27913   5.161   2.249   3.624
 9005SOL    HW127914   5.158   2.150   3.630
 9005SOL    HW227915   5.069   2.286   3.639
 9006SOL     OW27916   1.217   5.660   1.161
 9006SOL    HW127917   1.205   5.746   1.111
 9006SOL    HW227918   1.305   5.619   1.135
 9007SOL     OW27919   3.300   5.221   3.501
 9007SOL    HW127920   3.209   5.180   3.498
 9007SOL    HW227921   3.317   5.255   3.594
 9008SOL     OW27922   6.327   4.717   2.214
 9008SOL    HW127923   6.398   4.784   2.232
 9008SOL    HW227924   6.368   4.629   2.190
 9009SOL     OW27925   2.794   6.733   1.228
 9009SOL    HW127926   2.779   6.776   1.139
 9009SOL    HW227927   2.891   6.742   1.253
 9010SOL     OW27928   1.052   6.762   4.689
 9010SOL    HW127929   1.123   6.703   4.727
 9010SOL    HW227930   0.971   6.708   4.669
 9011SOL     OW27931   3.878   2.144   1.561
 9011SOL    HW127932   3.941   2.067   1.554
 9011SOL    HW227933   3.909   2.204   1.635
 9012SOL     OW27934   2.139   5.775   0.552
 9012SOL    HW127935   2.120   5.711   0.625
 9012SOL    HW227936   2.055   5.824   0.527
 9013SOL     OW27937   6.163   5.835   4.694
 9013SOL    HW127938   6.204   5.924   4.712
 9013SOL    HW227939   6.065   5.847   4.676
 9014SOL     OW27940   1.658   1.285   0.301
 9014SOL    HW127941   1.668   1.384   0.311
 9014SOL    HW227942   1.727   1.251   0.236
 9015SOL     OW27943   6.994   1.438   6.869
 9015SOL    HW127944   0.042   1.415   6.936
 9015SOL    HW227945   6.919   1.485   6.914
 9016SOL     OW27946   6.473   6.281   5.521
 9016SOL    HW127947   6.506   6.306   5.612
 9016SOL    HW227948   6.526   6.331   5.452
 9017SOL     OW27949   6.048   2.298   3.558
 9017SOL    HW127950   6.084   2.223   3.613
 9017SOL    HW227951   6.115   2.324   3.489
 9018SOL     OW27952   3.466   1.466   5.239
 9018SOL    HW127953   3.444   1.377   5.200
 9018SOL    HW227954   3.544   1.458   5.300
 9019SOL     OW27955   1.908   6.580   6.838
 9019SOL    HW127956   1.998   6.565   6.799
 9019SOL    HW227957   1.911   6.563   6.936
 9020SOL     OW27958   1.936   3.978   2.291
 9020SOL    HW127959   1.939   4.068   2.335
 9020SOL    HW227960   1.854   3.929   2.323
 9021SOL     OW27961   6.796   6.295   3.558
 9021SOL    HW127962   6.788   6.227   3.631
 9021SOL    HW227963   6.819   6.384   3.598
 9022SOL     OW27964   2.718   0.281   0.426
 9022SOL    HW127965   2.627   0.313   0.402
 9022SOL    HW227966   2.732   0.292   0.525
 9023SOL     OW27967   3.576   3.620   3.326
 9023SOL    HW127968   3.675   3.633   3.331
 9023SOL    HW227969   3.531   3.673   3.398
 9024SOL     OW27970   1.503   5.894   6.316
 9024SOL    HW127971   1.445   5.911   6.236
 9024SOL    HW227972   1.595   5.868   6.286
 9025SOL     OW27973   6.108   5.712   1.394
 9025SOL    HW127974   6.056   5.760   1.322
 9025SOL    HW227975   6.205   5.734   1.385
 9026SOL     OW27976   3.467   3.285   4.019
 9026SOL    HW127977   3.402   3.244   4.083
 9026SOL    HW227978   3.514   3.213   3.969
 9027SOL     OW27979   2.765   1.802   3.427
 9027SOL    HW127980   2.849   1.757   3.458
 9027SOL    HW227981   2.701   1.811   3.504
 9028SOL     OW27982   1.639   4.680   6.488
 9028SOL    HW127983   1.683   4.640   6.568
 9028SOL    HW227984   1.616   4.607   6.423
 9029SOL     OW27985   3.857   4.879   4.773
 9029SOL    HW127986   3.795   4.940   4.724
 9029SOL    HW227987   3.808   4.831   4.846
 9030SOL     OW27988   2.113   0.237   2.567
 9030SOL    HW127989   2.091   0.141   2.548
 9030SOL    HW227990   2.072   0.264   2.654
 9031SOL     OW27991   3.021   5.222   5.644
 9031SOL    HW127992   3.076   5.305   5.634
 9031SOL    HW227993   3.046   5.175   5.729
 9032SOL     OW27994   3.833   2.853   1.094
 9032SOL    HW127995   3.734   2.843   1.081
 9032SOL    HW227996   3.881   2.802   1.023
 9033SOL     OW27997   2.227   3.055   4.083
 9033SOL    HW127998   2.213   3.142   4.036
 9033SOL    HW227999   2.148   2.996   4.067
 9034SOL     OW28000   2.641   6.853   5.117
 9034SOL    HW128001   2.630   6.764   5.160
 9034SOL    HW228002   2.730   6.859   5.073
 9035SOL     OW28003   0.714   6.686   5.248
 9035SOL    HW128004   0.810   6.703   5.269
 9035SOL    HW228005   0.704   6.664   5.151
 9036SOL     OW28006   2.281   2.324   5.397
 9036SOL    HW128007   2.209   2.353   5.335
 9036SOL    HW228008   2.365   2.375   5.378
 9037SOL     OW28009   2.160   3.800   6.383
 9037SOL    HW128010   2.199   3.712   6.411
 9037SOL    HW228011   2.233   3.858   6.345
 9038SOL     OW28012   5.832   0.955   5.848
 9038SOL    HW128013   5.823   1.043   5.895
 9038SOL    HW228014   5.919   0.913   5.873
 9039SOL     OW28015   1.916   4.121   5.056
 9039SOL    HW128016   1.996   4.179   5.071
 9039SOL    HW228017   1.929   4.033   5.102
 9040SOL     OW28018   2.863   0.468   3.512
 9040SOL    HW128019   2.887   0.555   3.470
 9040SOL    HW228020   2.810   0.485   3.596
 9041SOL     OW28021   0.726   1.809   2.047
 9041SOL    HW128022   0.679   1.758   1.975
 9041SOL    HW228023   0.660   1.857   2.104
 9042SOL     OW28024   2.291   6.517   3.719
 9042SOL    HW128025   2.227   6.516   3.643
 9042SOL    HW228026   2.256   6.575   3.792
 9043SOL     OW28027   2.076   1.957   5.824
 9043SOL    HW128028   2.118   1.910   5.902
 9043SOL    HW228029   2.060   2.053   5.847
 9044SOL     OW28030   6.319   1.390   0.443
 9044SOL    HW128031   6.275   1.341   0.368
 9044SOL    HW228032   6.371   1.326   0.499
 9045SOL     OW28033   4.166   0.820   2.894
 9045SOL    HW128034   4.084   0.785   2.848
 9045SOL    HW228035   4.142   0.847   2.988
 9046SOL     OW28036   3.529   3.917   5.315
 9046SOL    HW128037   3.621   3.884   5.296
 9046SOL    HW228038   3.463   3.866   5.260
 9047SOL     OW28039   2.246   4.070   5.538
 9047SOL    HW128040   2.221   3.996   5.476
 9047SOL    HW228041   2.321   4.123   5.497
 9048SOL     OW28042   1.711   3.688   6.154
 9048SOL    HW128043   1.790   3.734   6.114
 9048SOL    HW228044   1.641   3.675   6.084
 9049SOL     OW28045   4.683   6.244   6.711
 9049SOL    HW128046   4.660   6.154   6.749
 9049SOL    HW228047   4.608   6.276   6.653
 9050SOL     OW28048   0.992   5.102   6.785
 9050SOL    HW128049   0.955   5.034   6.723
 9050SOL    HW228050   1.090   5.085   6.799
 9051SOL     OW28051   4.146   6.252   1.049
 9051SOL    HW128052   4.214   6.215   1.112
 9051SOL    HW228053   4.056   6.255   1.093
 9052SOL     OW28054   2.635   4.729   4.627
 9052SOL    HW128055   2.582   4.805   4.664
 9052SOL    HW228056   2.685   4.759   4.545
 9053SOL     OW28057   2.316   2.271   4.212
 9053SOL    HW128058   2.336   2.239   4.119
 9053SOL    HW228059   2.387   2.334   4.241
 9054SOL     OW28060   1.861   0.536   2.613
 9054SOL    HW128061   1.790   0.470   2.637
 9054SOL    HW228062   1.861   0.550   2.514
 9055SOL     OW28063   0.746   3.911   3.442
 9055SOL    HW128064   0.701   3.989   3.485
 9055SOL    HW228065   0.784   3.939   3.354
 9056SOL     OW28066   4.799   0.516   1.427
 9056SOL    HW128067   4.714   0.484   1.385
 9056SOL    HW228068   4.835   0.593   1.375
 9057SOL     OW28069   6.295   4.838   6.199
 9057SOL    HW128070   6.201   4.855   6.170
 9057SOL    HW228071   6.331   4.758   6.151
 9058SOL     OW28072   2.202   2.179   5.074
 9058SOL    HW128073   2.105   2.196   5.092
 9058SOL    HW228074   2.212   2.124   4.991
 9059SOL     OW28075   6.490   0.751   3.282
 9059SOL    HW128076   6.402   0.737   3.236
 9059SOL    HW228077   6.538   0.828   3.240
 9060SOL     OW28078   6.509   3.696   2.418
 9060SOL    HW128079   6.519   3.601   2.386
 9060SOL    HW228080   6.544   3.758   2.348
 9061SOL     OW28081   4.802   5.616   3.036
 9061SOL    HW128082   4.847   5.527   3.024
 9061SOL    HW228083   4.796   5.662   2.948
 9062SOL     OW28084   1.220   4.887   1.909
 9062SOL    HW128085   1.181   4.795   1.913
 9062SOL    HW228086   1.307   4.884   1.858
 9063SOL     OW28087   2.943   1.137   2.603
 9063SOL    HW128088   2.939   1.093   2.513
 9063SOL    HW228089   2.921   1.069   2.674
 9064SOL     OW28090   6.281   4.236   4.065
 9064SOL    HW128091   6.375   4.263   4.044
 9064SOL    HW228092   6.274   4.214   4.162
 9065SOL     OW28093   2.688   5.678   5.832
 9065SOL    HW128094   2.710   5.583   5.813
 9065SOL    HW228095   2.640   5.685   5.919
 9066SOL     OW28096   6.205   0.122   6.121
 9066SOL    HW128097   6.259   0.088   6.198
 9066SOL    HW228098   6.246   0.092   6.035
 9067SOL     OW28099   6.566   6.099   4.340
 9067SOL    HW128100   6.635   6.168   4.362
 9067SOL    HW228101   6.591   6.012   4.383
 9068SOL     OW28102   3.598   6.905   5.116
 9068SOL    HW128103   3.689   6.909   5.076
 9068SOL    HW228104   3.598   6.840   5.192
 9069SOL     OW28105   4.924   2.120   2.990
 9069SOL    HW128106   4.825   2.115   3.001
 9069SOL    HW228107   4.951   2.216   2.975
 9070SOL     OW28108   1.579   2.292   6.163
 9070SOL    HW128109   1.502   2.317   6.222
 9070SOL    HW228110   1.610   2.372   6.112
 9071SOL     OW28111   5.333   0.496   6.401
 9071SOL    HW128112   5.240   0.526   6.380
 9071SOL    HW228113   5.381   0.475   6.316
 9072SOL     OW28114   4.909   6.471   1.404
 9072SOL    HW128115   4.813   6.498   1.409
 9072SOL    HW228116   4.963   6.526   1.468
 9073SOL     OW28117   3.683   6.253   0.763
 9073SOL    HW128118   3.781   6.265   0.781
 9073SOL    HW228119   3.645   6.338   0.727
 9074SOL     OW28120   1.658   0.998   1.697
 9074SOL    HW128121   1.598   1.068   1.658
 9074SOL    HW228122   1.739   0.987   1.639
 9075SOL     OW28123   0.557   0.243   2.241
 9075SOL    HW128124   0.544   0.298   2.323
 9075SOL    HW228125   0.507   0.285   2.165
 9076SOL     OW28126   4.577   1.435   3.689
 9076SOL    HW128127   4.478   1.446   3.702
 9076SOL    HW228128   4.613   1.376   3.761
 9077SOL     OW28129   4.482   1.626   6.294
 9077SOL    HW128130   4.494   1.602   6.197
 9077SOL    HW228131   4.400   1.581   6.329
 9078SOL     OW28132   5.624   5.171   6.336
 9078SOL    HW128133   5.648   5.268   6.342
 9078SOL    HW228134   5.596   5.149   6.242
 9079SOL     OW28135   1.807   0.038   4.830
 9079SOL    HW128136   1.827   0.118   4.887
 9079SOL    HW228137   1.886   6.999   4.830
 9080SOL     OW28138   6.488   2.765   6.977
 9080SOL    HW128139   6.497   2.729   6.884
 9080SOL    HW228140   6.568   2.820   6.999
 9081SOL     OW28141   3.287   1.561   1.831
 9081SOL    HW128142   3.201   1.517   1.803
 9081SOL    HW228143   3.268   1.626   1.905
 9082SOL     OW28144   2.441   6.783   4.690
 9082SOL    HW128145   2.398   6.823   4.608
 9082SOL    HW228146   2.482   6.856   4.745
 9083SOL     OW28147   4.690   4.123   6.336
 9083SOL    HW128148   4.685   4.204   6.394
 9083SOL    HW228149   4.686   4.150   6.240
 9084SOL     OW28150   0.916   2.403   6.173
 9084SOL    HW128151   0.819   2.424   6.169
 9084SOL    HW228152   0.968   2.487   6.190
 9085SOL     OW28153   2.521   5.869   1.371
 9085SOL    HW128154   2.541   5.950   1.427
 9085SOL    HW228155   2.536   5.786   1.426
 9086SOL     OW28156   6.059   4.051   0.842
 9086SOL    HW128157   6.035   4.024   0.936
 9086SOL    HW228158   6.003   4.001   0.777
 9087SOL     OW28159   5.442   2.941   2.229
 9087SOL    HW128160   5.505   3.010   2.266
 9087SOL    HW228161   5.363   2.986   2.188
 9088SOL     OW28162   5.796   0.072   1.884
 9088SOL    HW128163   5.887   0.076   1.924
 9088SOL    HW228164   5.728   0.062   1.957
 9089SOL     OW28165   4.217   5.700   5.092
 9089SOL    HW128166   4.281   5.626   5.112
 9089SOL    HW228167   4.204   5.707   4.993
 9090SOL     OW28168   5.015   0.429   4.530
 9090SOL    HW128169   5.032   0.340   4.486
 9090SOL    HW228170   4.928   0.466   4.497
 9091SOL     OW28171   3.130   3.180   0.675
 9091SOL    HW128172   3.185   3.112   0.723
 9091SOL    HW228173   3.057   3.213   0.734
 9092SOL     OW28174   1.015   1.261   6.917
 9092SOL    HW128175   1.073   1.295   6.843
 9092SOL    HW228176   0.968   1.339   6.961
 9093SOL     OW28177   1.142   6.224   6.693
 9093SOL    HW128178   1.146   6.318   6.660
 9093SOL    HW228179   1.234   6.183   6.690
 9094SOL     OW28180   0.839   5.165   2.521
 9094SOL    HW128181   0.831   5.263   2.538
 9094SOL    HW228182   0.924   5.130   2.560
 9095SOL     OW28183   5.265   4.031   5.986
 9095SOL    HW128184   5.196   4.092   5.946
 9095SOL    HW228185   5.219   3.965   6.046
 9096SOL     OW28186   5.281   3.551   3.001
 9096SOL    HW128187   5.302   3.507   2.914
 9096SOL    HW228188   5.191   3.592   2.997
 9097SOL     OW28189   0.403   3.227   0.061
 9097SOL    HW128190   0.378   3.156   7.018
 9097SOL    HW228191   0.320   3.259   0.108
 9098SOL     OW28192   3.662   3.216   0.284
 9098SOL    HW128193   3.623   3.243   0.196
 9098SOL    HW228194   3.597   3.238   0.357
 9099SOL     OW28195   3.410   3.639   0.345
 9099SOL    HW128196   3.456   3.550   0.341
 9099SOL    HW228197   3.348   3.641   0.423
 9100SOL     OW28198   1.215   3.298   2.804
 9100SOL    HW128199   1.165   3.212   2.809
 9100SOL    HW228200   1.249   3.322   2.895
 9101SOL     OW28201   1.929   2.999   3.082
 9101SOL    HW128202   2.023   3.013   3.051
 9101SOL    HW228203   1.924   2.914   3.136
 9102SOL     OW28204   3.685   6.305   1.837
 9102SOL    HW128205   3.609   6.240   1.839
 9102SOL    HW228206   3.689   6.349   1.748
 9103SOL     OW28207   6.460   3.775   6.689
 9103SOL    HW128208   6.408   3.758   6.773
 9103SOL    HW228209   6.473   3.688   6.640
 9104SOL     OW28210   4.370   6.195   2.356
 9104SOL    HW128211   4.362   6.101   2.390
 9104SOL    HW228212   4.461   6.208   2.316
 9105SOL     OW28213   1.418   1.094   0.810
 9105SOL    HW128214   1.405   1.013   0.754
 9105SOL    HW228215   1.513   1.126   0.801
 9106SOL     OW28216   5.711   3.687   6.715
 9106SOL    HW128217   5.749   3.725   6.631
 9106SOL    HW228218   5.785   3.650   6.771
 9107SOL     OW28219   3.987   0.614   5.671
 9107SOL    HW128220   4.003   0.518   5.651
 9107SOL    HW228221   3.929   0.623   5.752
 9108SOL     OW28222   4.658   3.982   5.807
 9108SOL    HW128223   4.754   4.005   5.794
 9108SOL    HW228224   4.629   3.919   5.735
 9109SOL     OW28225   1.539   2.596   3.062
 9109SOL    HW128226   1.589   2.652   3.128
 9109SOL    HW228227   1.536   2.501   3.094
 9110SOL     OW28228   1.903   4.289   4.060
 9110SOL    HW128229   1.969   4.235   4.112
 9110SOL    HW228230   1.939   4.381   4.044
 9111SOL     OW28231   4.581   3.447   0.100
 9111SOL    HW128232   4.679   3.431   0.085
 9111SOL    HW228233   4.552   3.398   0.183
 9112SOL     OW28234   0.643   4.205   4.834
 9112SOL    HW128235   0.614   4.150   4.912
 9112SOL    HW228236   0.591   4.179   4.753
 9113SOL     OW28237   4.379   6.588   0.832
 9113SOL    HW128238   4.304   6.523   0.845
 9113SOL    HW228239   4.436   6.589   0.915
 9114SOL     OW28240   1.806   5.059   1.352
 9114SOL    HW128241   1.897   5.088   1.381
 9114SOL    HW228242   1.743   5.137   1.358
 9115SOL     OW28243   0.817   5.827   6.250
 9115SOL    HW128244   0.873   5.811   6.169
 9115SOL    HW228245   0.727   5.862   6.222
 9116SOL     OW28246   6.693   2.004   0.677
 9116SOL    HW128247   6.661   1.920   0.721
 9116SOL    HW228248   6.642   2.082   0.713
 9117SOL     OW28249   6.098   2.921   0.201
 9117SOL    HW128250   6.000   2.939   0.188
 9117SOL    HW228251   6.140   2.904   0.112
 9118SOL     OW28252   6.503   5.820   0.690
 9118SOL    HW128253   6.517   5.790   0.784
 9118SOL    HW228254   6.532   5.915   0.681
 9119SOL     OW28255   5.936   1.741   1.803
 9119SOL    HW128256   6.023   1.740   1.754
 9119SOL    HW228257   5.939   1.675   1.878
 9120SOL     OW28258   5.465   2.942   6.006
 9120SOL    HW128259   5.436   3.019   5.949
 9120SOL    HW228260   5.550   2.965   6.054
 9121SOL     OW28261   2.304   2.367   6.199
 9121SOL    HW128262   2.355   2.295   6.152
 9121SOL    HW228263   2.235   2.327   6.258
 9122SOL     OW28264   1.855   3.745   2.105
 9122SOL    HW128265   1.921   3.805   2.149
 9122SOL    HW228266   1.846   3.660   2.158
 9123SOL     OW28267   3.545   0.264   4.735
 9123SOL    HW128268   3.633   0.265   4.689
 9123SOL    HW228269   3.482   0.205   4.685
 9124SOL     OW28270   5.571   0.399   5.747
 9124SOL    HW128271   5.610   0.323   5.798
 9124SOL    HW228272   5.572   0.481   5.804
 9125SOL     OW28273   5.331   4.197   2.026
 9125SOL    HW128274   5.334   4.297   2.027
 9125SOL    HW228275   5.238   4.167   2.046
 9126SOL     OW28276   5.667   2.519   1.857
 9126SOL    HW128277   5.731   2.593   1.839
 9126SOL    HW228278   5.582   2.535   1.806
 9127SOL     OW28279   6.851   1.462   5.924
 9127SOL    HW128280   6.835   1.549   5.970
 9127SOL    HW228281   6.857   1.476   5.826
 9128SOL     OW28282   4.333   1.503   4.979
 9128SOL    HW128283   4.371   1.482   4.889
 9128SOL    HW228284   4.249   1.557   4.969
 9129SOL     OW28285   0.037   2.910   1.264
 9129SOL    HW128286   0.015   3.005   1.288
 9129SOL    HW228287   0.133   2.905   1.237
 9130SOL     OW28288   7.015   3.175   0.444
 9130SOL    HW128289   0.035   3.098   0.491
 9130SOL    HW228290   6.923   3.149   0.415
 9131SOL     OW28291   7.019   3.248   5.770
 9131SOL    HW128292   0.047   3.161   5.764
 9131SOL    HW228293   0.036   3.314   5.707
 9132SOL     OW28294   0.046   4.887   4.395
 9132SOL    HW128295   6.988   4.838   4.365
 9132SOL    HW228296   0.126   4.856   4.344
 9133SOL     OW28297   4.101   6.255   1.387
 9133SOL    HW128298   4.074   6.186   1.454
 9133SOL    HW228299   4.019   6.290   1.340
 9134SOL     OW28300   4.287   5.980   0.430
 9134SOL    HW128301   4.366   6.039   0.414
 9134SOL    HW228302   4.318   5.886   0.443
 9135SOL     OW28303   6.216   6.457   1.911
 9135SOL    HW128304   6.127   6.446   1.956
 9135SOL    HW228305   6.212   6.534   1.847
 9136SOL     OW28306   5.454   5.425   6.163
 9136SOL    HW128307   5.544   5.467   6.151
 9136SOL    HW228308   5.452   5.338   6.113
 9137SOL     OW28309   5.223   2.020   1.299
 9137SOL    HW128310   5.263   1.959   1.367
 9137SOL    HW228311   5.152   2.076   1.342
 9138SOL     OW28312   6.766   5.840   5.534
 9138SOL    HW128313   6.776   5.857   5.436
 9138SOL    HW228314   6.688   5.891   5.569
 9139SOL     OW28315   2.399   1.646   5.073
 9139SOL    HW128316   2.450   1.715   5.022
 9139SOL    HW228317   2.316   1.687   5.110
 9140SOL     OW28318   6.068   3.361   3.070
 9140SOL    HW128319   6.096   3.283   3.126
 9140SOL    HW228320   6.071   3.335   2.973
 9141SOL     OW28321   5.845   0.899   6.924
 9141SOL    HW128322   5.841   0.872   6.828
 9141SOL    HW228323   5.937   0.884   6.960
 9142SOL     OW28324   0.771   2.318   1.410
 9142SOL    HW128325   0.746   2.250   1.478
 9142SOL    HW228326   0.720   2.302   1.326
 9143SOL     OW28327   5.799   2.980   1.200
 9143SOL    HW128328   5.705   2.965   1.229
 9143SOL    HW228329   5.830   3.070   1.233
 9144SOL     OW28330   2.330   5.279   5.760
 9144SOL    HW128331   2.289   5.231   5.683
 9144SOL    HW228332   2.349   5.214   5.834
 9145SOL     OW28333   0.083   5.900   0.386
 9145SOL    HW128334   0.136   5.913   0.302
 9145SOL    HW228335   0.119   5.822   0.437
 9146SOL     OW28336   5.393   3.007   3.043
 9146SOL    HW128337   5.440   2.976   2.960
 9146SOL    HW228338   5.294   2.999   3.030
 9147SOL     OW28339   5.913   0.367   4.415
 9147SOL    HW128340   5.995   0.383   4.359
 9147SOL    HW228341   5.837   0.420   4.378
 9148SOL     OW28342   5.308   6.454   0.589
 9148SOL    HW128343   5.279   6.532   0.645
 9148SOL    HW228344   5.261   6.457   0.501
 9149SOL     OW28345   5.896   3.665   3.440
 9149SOL    HW128346   5.926   3.624   3.354
 9149SOL    HW228347   5.885   3.593   3.509
 9150SOL     OW28348   2.806   4.973   1.941
 9150SOL    HW128349   2.855   4.928   2.015
 9150SOL    HW228350   2.813   5.072   1.952
 9151SOL     OW28351   1.556   4.095   3.540
 9151SOL    HW128352   1.544   4.007   3.494
 9151SOL    HW228353   1.652   4.122   3.537
 9152SOL     OW28354   2.340   4.422   4.785
 9152SOL    HW128355   2.329   4.324   4.768
 9152SOL    HW228356   2.360   4.437   4.882
 9153SOL     OW28357   1.396   3.419   0.442
 9153SOL    HW128358   1.370   3.501   0.492
 9153SOL    HW228359   1.323   3.396   0.376
 9154SOL     OW28360   4.429   4.486   6.075
 9154SOL    HW128361   4.520   4.451   6.055
 9154SOL    HW228362   4.432   4.584   6.090
 9155SOL     OW28363   1.872   3.794   1.278
 9155SOL    HW128364   1.787   3.845   1.290
 9155SOL    HW228365   1.945   3.840   1.329
 9156SOL     OW28366   0.971   2.505   0.956
 9156SOL    HW128367   1.017   2.445   1.022
 9156SOL    HW228368   0.880   2.528   0.990
 9157SOL     OW28369   6.358   4.415   5.651
 9157SOL    HW128370   6.273   4.404   5.599
 9157SOL    HW228371   6.420   4.339   5.630
 9158SOL     OW28372   6.389   3.679   4.790
 9158SOL    HW128373   6.467   3.638   4.837
 9158SOL    HW228374   6.304   3.651   4.835
 9159SOL     OW28375   2.059   7.002   2.510
 9159SOL    HW128376   2.076   6.904   2.511
 9159SOL    HW228377   2.039   0.008   2.416
 9160SOL     OW28378   6.289   0.691   5.330
 9160SOL    HW128379   6.261   0.747   5.252
 9160SOL    HW228380   6.321   0.751   5.404
 9161SOL     OW28381   4.782   4.186   4.698
 9161SOL    HW128382   4.779   4.279   4.735
 9161SOL    HW228383   4.737   4.184   4.609
 9162SOL     OW28384   4.470   0.686   4.754
 9162SOL    HW128385   4.450   0.588   4.763
 9162SOL    HW228386   4.484   0.708   4.657
 9163SOL     OW28387   1.628   2.867   4.555
 9163SOL    HW128388   1.590   2.959   4.558
 9163SOL    HW228389   1.561   2.804   4.516
 9164SOL     OW28390   2.727   0.835   6.189
 9164SOL    HW128391   2.801   0.900   6.203
 9164SOL    HW228392   2.688   0.848   6.098
 9165SOL     OW28393   6.220   2.166   5.804
 9165SOL    HW128394   6.315   2.153   5.833
 9165SOL    HW228395   6.216   2.235   5.731
 9166SOL     OW28396   4.105   5.876   0.956
 9166SOL    HW128397   4.122   5.798   0.895
 9166SOL    HW228398   4.112   5.961   0.904
 9167SOL     OW28399   2.223   2.562   6.939
 9167SOL    HW128400   2.154   2.598   7.001
 9167SOL    HW228401   2.195   2.578   6.844
 9168SOL     OW28402   6.932   0.196   6.762
 9168SOL    HW128403   6.974   0.286   6.748
 9168SOL    HW228404   6.834   0.208   6.777
 9169SOL     OW28405   5.694   0.916   5.041
 9169SOL    HW128406   5.628   0.898   5.114
 9169SOL    HW228407   5.647   0.919   4.953
 9170SOL     OW28408   1.575   5.902   6.878
 9170SOL    HW128409   1.481   5.882   6.908
 9170SOL    HW228410   1.575   5.921   6.780
 9171SOL     OW28411   4.438   4.913   0.749
 9171SOL    HW128412   4.473   4.927   0.657
 9171SOL    HW228413   4.345   4.949   0.755
 9172SOL     OW28414   4.054   1.126   3.306
 9172SOL    HW128415   3.990   1.051   3.289
 9172SOL    HW228416   4.089   1.161   3.220
 9173SOL     OW28417   6.675   3.480   5.145
 9173SOL    HW128418   6.579   3.473   5.120
 9173SOL    HW228419   6.717   3.389   5.141
 9174SOL     OW28420   5.268   3.964   1.681
 9174SOL    HW128421   5.316   3.894   1.734
 9174SOL    HW228422   5.204   4.013   1.740
 9175SOL     OW28423   0.788   0.277   5.335
 9175SOL    HW128424   0.873   0.305   5.379
 9175SOL    HW228425   0.781   0.318   5.244
 9176SOL     OW28426   2.908   1.230   5.060
 9176SOL    HW128427   2.921   1.285   5.143
 9176SOL    HW228428   2.942   1.280   4.981
 9177SOL     OW28429   0.684   5.026   4.923
 9177SOL    HW128430   0.685   5.117   4.963
 9177SOL    HW228431   0.590   4.995   4.912
 9178SOL     OW28432   1.705   5.136   0.072
 9178SOL    HW128433   1.607   5.140   0.093
 9178SOL    HW228434   1.719   5.081   7.013
 9179SOL     OW28435   2.744   4.765   4.361
 9179SOL    HW128436   2.841   4.760   4.382
 9179SOL    HW228437   2.733   4.790   4.264
 9180SOL     OW28438   6.144   2.735   3.261
 9180SOL    HW128439   6.048   2.747   3.286
 9180SOL    HW228440   6.153   2.733   3.162
 9181SOL     OW28441   4.316   1.939   5.391
 9181SOL    HW128442   4.282   1.980   5.475
 9181SOL    HW228443   4.243   1.885   5.348
 9182SOL     OW28444   3.139   6.724   1.677
 9182SOL    HW128445   3.066   6.706   1.610
 9182SOL    HW228446   3.145   6.647   1.741
 9183SOL     OW28447   4.993   5.761   0.458
 9183SOL    HW128448   5.028   5.729   0.546
 9183SOL    HW228449   4.918   5.826   0.473
 9184SOL     OW28450   4.561   1.717   0.706
 9184SOL    HW128451   4.559   1.793   0.771
 9184SOL    HW228452   4.473   1.669   0.707
 9185SOL     OW28453   4.466   6.533   4.463
 9185SOL    HW128454   4.546   6.539   4.404
 9185SOL    HW228455   4.483   6.581   4.549
 9186SOL     OW28456   5.243   6.093   4.908
 9186SOL    HW128457   5.287   6.150   4.838
 9186SOL    HW228458   5.247   6.139   4.996
 9187SOL     OW28459   2.336   2.174   0.596
 9187SOL    HW128460   2.301   2.096   0.544
 9187SOL    HW228461   2.400   2.142   0.665
 9188SOL     OW28462   1.438   6.381   0.563
 9188SOL    HW128463   1.457   6.292   0.604
 9188SOL    HW228464   1.424   6.370   0.464
 9189SOL     OW28465   3.490   5.719   2.187
 9189SOL    HW128466   3.532   5.633   2.158
 9189SOL    HW228467   3.547   5.796   2.156
 9190SOL     OW28468   2.763   4.450   6.028
 9190SOL    HW128469   2.826   4.436   6.104
 9190SOL    HW228470   2.781   4.384   5.956
 9191SOL     OW28471   6.213   2.131   6.302
 9191SOL    HW128472   6.201   2.127   6.401
 9191SOL    HW228473   6.163   2.210   6.266
 9192SOL     OW28474   1.047   3.248   5.824
 9192SOL    HW128475   1.085   3.338   5.805
 9192SOL    HW228476   1.096   3.179   5.771
 9193SOL     OW28477   4.266   4.311   6.702
 9193SOL    HW128478   4.225   4.370   6.771
 9193SOL    HW228479   4.253   4.215   6.727
 9194SOL     OW28480   3.308   0.858   3.574
 9194SOL    HW128481   3.223   0.906   3.596
 9194SOL    HW228482   3.316   0.776   3.631
 9195SOL     OW28483   1.493   1.586   3.645
 9195SOL    HW128484   1.477   1.646   3.567
 9195SOL    HW228485   1.406   1.557   3.684
 9196SOL     OW28486   5.392   0.559   2.619
 9196SOL    HW128487   5.449   0.626   2.572
 9196SOL    HW228488   5.312   0.604   2.658
 9197SOL     OW28489   1.990   5.472   1.321
 9197SOL    HW128490   1.959   5.439   1.410
 9197SOL    HW228491   2.031   5.396   1.270
 9198SOL     OW28492   6.164   4.929   6.688
 9198SOL    HW128493   6.179   4.979   6.602
 9198SOL    HW228494   6.188   4.988   6.765
 9199SOL     OW28495   0.923   3.790   5.487
 9199SOL    HW128496   0.945   3.871   5.541
 9199SOL    HW228497   0.840   3.807   5.434
 9200SOL     OW28498   2.872   6.374   6.707
 9200SOL    HW128499   2.866   6.298   6.642
 9200SOL    HW228500   2.948   6.434   6.682
 9201SOL     OW28501   6.766   2.666   0.187
 9201SOL    HW128502   6.772   2.575   0.229
 9201SOL    HW228503   6.742   2.734   0.256
 9202SOL     OW28504   1.097   6.674   2.147
 9202SOL    HW128505   1.128   6.732   2.072
 9202SOL    HW228506   1.114   6.578   2.124
 9203SOL     OW28507   0.378   3.812   5.938
 9203SOL    HW128508   0.429   3.818   6.024
 9203SOL    HW228509   0.431   3.856   5.865
 9204SOL     OW28510   4.964   3.274   6.198
 9204SOL    HW128511   4.958   3.372   6.215
 9204SOL    HW228512   5.043   3.236   6.245
 9205SOL     OW28513   5.830   5.364   3.399
 9205SOL    HW128514   5.734   5.346   3.380
 9205SOL    HW228515   5.883   5.353   3.314
 9206SOL     OW28516   4.018   5.555   3.250
 9206SOL    HW128517   4.061   5.644   3.266
 9206SOL    HW228518   3.946   5.540   3.318
 9207SOL     OW28519   5.189   4.255   5.582
 9207SOL    HW128520   5.158   4.182   5.521
 9207SOL    HW228521   5.166   4.344   5.542
 9208SOL     OW28522   5.685   4.813   3.621
 9208SOL    HW128523   5.644   4.737   3.570
 9208SOL    HW228524   5.651   4.812   3.715
 9209SOL     OW28525   3.878   0.214   6.809
 9209SOL    HW128526   3.937   0.247   6.882
 9209SOL    HW228527   3.783   0.210   6.842
 9210SOL     OW28528   0.277   0.956   2.567
 9210SOL    HW128529   0.292   1.032   2.630
 9210SOL    HW228530   0.363   0.933   2.521
 9211SOL     OW28531   0.740   2.817   5.771
 9211SOL    HW128532   0.792   2.748   5.821
 9211SOL    HW228533   0.712   2.889   5.835
 9212SOL     OW28534   4.194   5.982   4.288
 9212SOL    HW128535   4.183   5.890   4.325
 9212SOL    HW228536   4.105   6.019   4.261
 9213SOL     OW28537   5.490   3.213   5.046
 9213SOL    HW128538   5.505   3.248   5.138
 9213SOL    HW228539   5.576   3.216   4.995
 9214SOL     OW28540   6.873   3.850   6.576
 9214SOL    HW128541   6.795   3.832   6.516
 9214SOL    HW228542   6.902   3.765   6.620
 9215SOL     OW28543   0.654   2.627   1.555
 9215SOL    HW128544   0.673   2.567   1.477
 9215SOL    HW228545   0.731   2.690   1.567
 9216SOL     OW28546   3.265   6.571   2.290
 9216SOL    HW128547   3.205   6.626   2.348
 9216SOL    HW228548   3.361   6.595   2.307
 9217SOL     OW28549   0.103   2.922   6.530
 9217SOL    HW128550   0.161   2.846   6.499
 9217SOL    HW228551   0.035   2.887   6.595
 9218SOL     OW28552   1.570   0.054   0.085
 9218SOL    HW128553   1.643   0.005   0.131
 9218SOL    HW228554   1.552   0.140   0.132
 9219SOL     OW28555   6.118   3.010   1.314
 9219SOL    HW128556   6.147   3.022   1.219
 9219SOL    HW228557   6.041   3.071   1.332
 9220SOL     OW28558   1.670   6.204   1.319
 9220SOL    HW128559   1.679   6.217   1.221
 9220SOL    HW228560   1.617   6.280   1.359
 9221SOL     OW28561   3.375   0.553   3.232
 9221SOL    HW128562   3.350   0.484   3.301
 9221SOL    HW228563   3.472   0.545   3.210
 9222SOL     OW28564   1.986   6.059   6.339
 9222SOL    HW128565   2.021   6.003   6.414
 9222SOL    HW228566   2.048   6.052   6.261
 9223SOL     OW28567   0.807   1.665   3.883
 9223SOL    HW128568   0.877   1.735   3.898
 9223SOL    HW228569   0.724   1.708   3.847
 9224SOL     OW28570   1.246   4.854   4.531
 9224SOL    HW128571   1.198   4.921   4.474
 9224SOL    HW228572   1.188   4.827   4.607
 9225SOL     OW28573   3.031   6.820   6.127
 9225SOL    HW128574   3.085   6.736   6.118
 9225SOL    HW228575   3.092   6.898   6.136
 9226SOL     OW28576   6.005   6.955   1.395
 9226SOL    HW128577   5.998   6.900   1.479
 9226SOL    HW228578   5.915   6.960   1.351
 9227SOL     OW28579   1.336   5.771   0.720
 9227SOL    HW128580   1.434   5.774   0.703
 9227SOL    HW228581   1.310   5.680   0.752
 9228SOL     OW28582   1.704   1.781   5.815
 9228SOL    HW128583   1.741   1.704   5.763
 9228SOL    HW228584   1.604   1.774   5.820
 9229SOL     OW28585   1.031   5.955   5.384
 9229SOL    HW128586   1.035   6.044   5.430
 9229SOL    HW228587   0.950   5.952   5.326
 9230SOL     OW28588   4.572   2.010   3.918
 9230SOL    HW128589   4.585   1.942   3.990
 9230SOL    HW228590   4.661   2.047   3.892
 9231SOL     OW28591   0.487   4.123   4.638
 9231SOL    HW128592   0.436   4.173   4.568
 9231SOL    HW228593   0.436   4.041   4.664
 9232SOL     OW28594   3.746   4.973   0.184
 9232SOL    HW128595   3.824   5.026   0.219
 9232SOL    HW228596   3.757   4.877   0.208
 9233SOL     OW28597   5.613   5.333   1.941
 9233SOL    HW128598   5.675   5.397   1.988
 9233SOL    HW228599   5.640   5.239   1.960
 9234SOL     OW28600   3.463   6.091   5.901
 9234SOL    HW128601   3.436   6.181   5.933
 9234SOL    HW228602   3.555   6.070   5.934
 9235SOL     OW28603   1.641   3.335   3.504
 9235SOL    HW128604   1.659   3.380   3.417
 9235SOL    HW228605   1.558   3.372   3.545
 9236SOL     OW28606   1.994   4.509   5.795
 9236SOL    HW128607   2.011   4.468   5.705
 9236SOL    HW228608   2.013   4.607   5.791
 9237SOL     OW28609   1.735   5.626   4.586
 9237SOL    HW128610   1.738   5.681   4.670
 9237SOL    HW228611   1.821   5.635   4.536
 9238SOL     OW28612   3.781   0.898   0.016
 9238SOL    HW128613   3.741   0.989   0.024
 9238SOL    HW228614   3.759   0.844   0.097
 9239SOL     OW28615   6.520   4.149   0.414
 9239SOL    HW128616   6.499   4.085   0.487
 9239SOL    HW228617   6.602   4.119   0.364
 9240SOL     OW28618   5.377   1.343   1.398
 9240SOL    HW128619   5.315   1.399   1.343
 9240SOL    HW228620   5.400   1.392   1.483
 9241SOL     OW28621   0.733   5.455   5.632
 9241SOL    HW128622   0.719   5.492   5.724
 9241SOL    HW228623   0.830   5.454   5.611
 9242SOL     OW28624   0.898   5.111   0.084
 9242SOL    HW128625   0.992   5.144   0.091
 9242SOL    HW228626   0.847   5.139   0.165
 9243SOL     OW28627   5.776   6.901   1.248
 9243SOL    HW128628   5.697   6.900   1.309
 9243SOL    HW228629   5.747   6.871   1.157
 9244SOL     OW28630   4.655   5.472   6.264
 9244SOL    HW128631   4.602   5.390   6.280
 9244SOL    HW228632   4.658   5.527   6.347
 9245SOL     OW28633   1.533   4.876   3.430
 9245SOL    HW128634   1.434   4.875   3.439
 9245SOL    HW228635   1.571   4.789   3.462
 9246SOL     OW28636   0.090   5.936   2.368
 9246SOL    HW128637   0.133   5.888   2.445
 9246SOL    HW228638   0.008   5.885   2.339
 9247SOL     OW28639   1.530   6.988   2.472
 9247SOL    HW128640   1.486   6.936   2.545
 9247SOL    HW228641   1.606   6.935   2.434
 9248SOL     OW28642   1.876   1.759   4.760
 9248SOL    HW128643   1.848   1.777   4.855
 9248SOL    HW228644   1.958   1.811   4.739
 9249SOL     OW28645   4.333   4.181   0.205
 9249SOL    HW128646   4.354   4.099   0.153
 9249SOL    HW228647   4.291   4.156   0.292
 9250SOL     OW28648   5.660   3.328   4.257
 9250SOL    HW128649   5.666   3.426   4.277
 9250SOL    HW228650   5.565   3.302   4.243
 9251SOL     OW28651   4.420   1.864   2.915
 9251SOL    HW128652   4.457   1.900   2.830
 9251SOL    HW228653   4.495   1.836   2.975
 9252SOL     OW28654   5.681   0.451   4.845
 9252SOL    HW128655   5.759   0.503   4.809
 9252SOL    HW228656   5.687   0.447   4.945
 9253SOL     OW28657   5.581   6.389   5.302
 9253SOL    HW128658   5.540   6.472   5.263
 9253SOL    HW228659   5.582   6.396   5.401
 9254SOL     OW28660   6.181   4.661   2.901
 9254SOL    HW128661   6.110   4.661   2.972
 9254SOL    HW228662   6.268   4.688   2.941
 9255SOL     OW28663   4.604   3.386   6.806
 9255SOL    HW128664   4.594   3.390   6.905
 9255SOL    HW228665   4.514   3.396   6.763
 9256SOL     OW28666   4.598   6.798   2.938
 9256SOL    HW128667   4.588   6.777   3.035
 9256SOL    HW228668   4.661   6.875   2.926
 9257SOL     OW28669   0.077   3.908   2.907
 9257SOL    HW128670   0.148   3.889   2.839
 9257SOL    HW228671   0.000   3.955   2.864
 9258SOL     OW28672   3.090   3.258   3.370
 9258SOL    HW128673   3.056   3.189   3.306
 9258SOL    HW228674   3.189   3.249   3.380
 9259SOL     OW28675   0.990   2.689   6.252
 9259SOL    HW128676   1.013   2.751   6.326
 9259SOL    HW228677   1.049   2.707   6.173
 9260SOL     OW28678   5.171   1.883   4.916
 9260SOL    HW128679   5.148   1.806   4.857
 9260SOL    HW228680   5.159   1.968   4.865
 9261SOL     OW28681   4.363   0.758   6.957
 9261SOL    HW128682   4.317   0.846   6.939
 9261SOL    HW228683   4.380   0.711   6.871
 9262SOL     OW28684   0.155   3.639   5.979
 9262SOL    HW128685   0.226   3.708   5.969
 9262SOL    HW228686   0.171   3.565   5.913
 9263SOL     OW28687   5.250   5.712   1.849
 9263SOL    HW128688   5.334   5.683   1.896
 9263SOL    HW228689   5.227   5.806   1.875
 9264SOL     OW28690   5.745   4.429   0.400
 9264SOL    HW128691   5.800   4.484   0.462
 9264SOL    HW228692   5.782   4.336   0.397
 9265SOL     OW28693   3.591   1.783   7.002
 9265SOL    HW128694   3.654   1.716   0.018
 9265SOL    HW228695   3.602   1.871   0.025
 9266SOL     OW28696   2.553   0.050   1.830
 9266SOL    HW128697   2.572   0.147   1.840
 9266SOL    HW228698   2.572   0.022   1.735
 9267SOL     OW28699   0.563   3.623   5.317
 9267SOL    HW128700   0.464   3.622   5.329
 9267SOL    HW228701   0.605   3.670   5.395
 9268SOL     OW28702   1.419   5.752   1.917
 9268SOL    HW128703   1.350   5.789   1.978
 9268SOL    HW228704   1.451   5.664   1.952
 9269SOL     OW28705   2.845   1.460   5.892
 9269SOL    HW128706   2.943   1.436   5.891
 9269SOL    HW228707   2.831   1.537   5.955
 9270SOL     OW28708   4.306   6.601   6.208
 9270SOL    HW128709   4.242   6.525   6.199
 9270SOL    HW228710   4.380   6.575   6.270
 9271SOL     OW28711   0.702   6.916   0.064
 9271SOL    HW128712   0.694   6.995   0.124
 9271SOL    HW228713   0.775   6.932   7.020
 9272SOL     OW28714   1.804   5.179   4.161
 9272SOL    HW128715   1.732   5.111   4.177
 9272SOL    HW228716   1.779   5.236   4.083
 9273SOL     OW28717   5.830   6.117   3.548
 9273SOL    HW128718   5.807   6.022   3.569
 9273SOL    HW228719   5.806   6.175   3.626
 9274SOL     OW28720   6.424   2.563   0.181
 9274SOL    HW128721   6.326   2.582   0.185
 9274SOL    HW228722   6.471   2.637   0.133
 9275SOL     OW28723   6.943   2.006   6.801
 9275SOL    HW128724   6.946   1.927   6.739
 9275SOL    HW228725   6.853   2.010   6.845
 9276SOL     OW28726   2.063   4.259   2.520
 9276SOL    HW128727   2.040   4.285   2.427
 9276SOL    HW228728   2.056   4.339   2.580
 9277SOL     OW28729   5.229   2.877   0.012
 9277SOL    HW128730   5.231   2.973   7.007
 9277SOL    HW228731   5.259   2.819   6.959
 9278SOL     OW28732   1.117   0.394   6.048
 9278SOL    HW128733   1.064   0.478   6.061
 9278SOL    HW228734   1.065   0.330   5.992
 9279SOL     OW28735   5.369   0.847   1.653
 9279SOL    HW128736   5.400   0.942   1.646
 9279SOL    HW228737   5.441   0.793   1.696
 9280SOL     OW28738   1.840   1.661   3.358
 9280SOL    HW128739   1.824   1.735   3.294
 9280SOL    HW228740   1.938   1.640   3.362
 9281SOL     OW28741   2.622   4.545   0.926
 9281SOL    HW128742   2.689   4.593   0.983
 9281SOL    HW228743   2.549   4.508   0.985
 9282SOL     OW28744   5.152   0.639   4.433
 9282SOL    HW128745   5.108   0.561   4.477
 9282SOL    HW228746   5.095   0.720   4.443
 9283SOL     OW28747   5.620   0.529   3.932
 9283SOL    HW128748   5.697   0.523   3.997
 9283SOL    HW228749   5.653   0.505   3.841
 9284SOL     OW28750   3.026   4.133   5.980
 9284SOL    HW128751   3.086   4.103   6.054
 9284SOL    HW228752   2.932   4.107   6.001
 9285SOL     OW28753   4.866   2.564   1.336
 9285SOL    HW128754   4.902   2.645   1.289
 9285SOL    HW228755   4.929   2.488   1.324
 9286SOL     OW28756   5.187   6.146   0.077
 9286SOL    HW128757   5.215   6.240   0.060
 9286SOL    HW228758   5.264   6.085   0.057
 9287SOL     OW28759   3.317   5.295   6.200
 9287SOL    HW128760   3.413   5.274   6.222
 9287SOL    HW228761   3.305   5.395   6.197
 9288SOL     OW28762   4.323   1.548   3.708
 9288SOL    HW128763   4.375   1.631   3.727
 9288SOL    HW228764   4.286   1.551   3.615
 9289SOL     OW28765   4.062   1.601   2.421
 9289SOL    HW128766   4.015   1.527   2.470
 9289SOL    HW228767   4.078   1.573   2.327
 9290SOL     OW28768   5.317   1.098   3.082
 9290SOL    HW128769   5.257   1.018   3.088
 9290SOL    HW228770   5.331   1.136   3.174
 9291SOL     OW28771   1.666   6.932   4.128
 9291SOL    HW128772   1.764   6.949   4.117
 9291SOL    HW228773   1.627   6.902   4.041
 9292SOL     OW28774   0.701   3.351   6.991
 9292SOL    HW128775   0.639   3.392   0.035
 9292SOL    HW228776   0.696   3.252   6.996
 9293SOL     OW28777   5.722   3.913   6.909
 9293SOL    HW128778   5.702   3.867   6.996
 9293SOL    HW228779   5.712   3.847   6.834
 9294SOL     OW28780   3.310   0.455   4.801
 9294SOL    HW128781   3.358   0.379   4.759
 9294SOL    HW228782   3.369   0.498   4.869
 9295SOL     OW28783   5.528   2.136   4.256
 9295SOL    HW128784   5.564   2.068   4.192
 9295SOL    HW228785   5.431   2.152   4.238
 9296SOL     OW28786   7.013   6.207   6.533
 9296SOL    HW128787   6.964   6.292   6.513
 9296SOL    HW228788   0.058   6.190   6.461
 9297SOL     OW28789   6.686   1.208   0.448
 9297SOL    HW128790   6.654   1.294   0.486
 9297SOL    HW228791   6.721   1.223   0.355
 9298SOL     OW28792   1.262   0.420   4.945
 9298SOL    HW128793   1.308   0.378   5.023
 9298SOL    HW228794   1.165   0.400   4.948
 9299SOL     OW28795   0.822   2.670   4.275
 9299SOL    HW128796   0.875   2.693   4.356
 9299SOL    HW228797   0.850   2.730   4.199
 9300SOL     OW28798   0.387   4.684   5.343
 9300SOL    HW128799   0.390   4.603   5.285
 9300SOL    HW228800   0.349   4.660   5.432
 9301SOL     OW28801   4.599   4.291   3.667
 9301SOL    HW128802   4.672   4.319   3.730
 9301SOL    HW228803   4.611   4.195   3.643
 9302SOL     OW28804   2.290   2.759   3.888
 9302SOL    HW128805   2.341   2.842   3.909
 9302SOL    HW228806   2.268   2.710   3.972
 9303SOL     OW28807   3.169   4.966   0.745
 9303SOL    HW128808   3.094   4.957   0.811
 9303SOL    HW228809   3.255   4.940   0.789
 9304SOL     OW28810   4.658   4.256   2.212
 9304SOL    HW128811   4.578   4.284   2.160
 9304SOL    HW228812   4.689   4.166   2.180
 9305SOL     OW28813   3.018   1.095   1.427
 9305SOL    HW128814   2.996   0.999   1.410
 9305SOL    HW228815   3.114   1.111   1.406
 9306SOL     OW28816   0.060   4.461   4.648
 9306SOL    HW128817   7.022   4.460   4.727
 9306SOL    HW228818   0.148   4.420   4.673
 9307SOL     OW28819   1.794   3.621   1.869
 9307SOL    HW128820   1.865   3.554   1.851
 9307SOL    HW228821   1.821   3.680   1.945
 9308SOL     OW28822   2.052   4.422   0.446
 9308SOL    HW128823   2.103   4.470   0.375
 9308SOL    HW228824   2.114   4.396   0.520
 9309SOL     OW28825   3.685   5.050   5.694
 9309SOL    HW128826   3.671   5.048   5.595
 9309SOL    HW228827   3.738   4.970   5.721
 9310SOL     OW28828   4.924   5.352   6.625
 9310SOL    HW128829   4.858   5.277   6.620
 9310SOL    HW228830   4.875   5.439   6.635
 9311SOL     OW28831   4.046   4.876   2.099
 9311SOL    HW128832   4.121   4.816   2.070
 9311SOL    HW228833   3.977   4.881   2.027
 9312SOL     OW28834   1.322   3.631   1.530
 9312SOL    HW128835   1.417   3.651   1.552
 9312SOL    HW228836   1.301   3.537   1.556
 9313SOL     OW28837   0.591   0.124   1.192
 9313SOL    HW128838   0.687   0.129   1.164
 9313SOL    HW228839   0.575   0.187   1.267
 9314SOL     OW28840   5.030   5.585   5.994
 9314SOL    HW128841   5.065   5.661   6.048
 9314SOL    HW228842   4.959   5.537   6.046
 9315SOL     OW28843   6.532   0.769   5.114
 9315SOL    HW128844   6.439   0.776   5.150
 9315SOL    HW228845   6.589   0.840   5.156
 9316SOL     OW28846   4.100   5.566   5.591
 9316SOL    HW128847   4.110   5.636   5.662
 9316SOL    HW228848   4.051   5.488   5.629
 9317SOL     OW28849   6.241   5.366   3.210
 9317SOL    HW128850   6.227   5.388   3.306
 9317SOL    HW228851   6.160   5.319   3.174
 9318SOL     OW28852   6.360   0.350   5.751
 9318SOL    HW128853   6.352   0.332   5.849
 9318SOL    HW228854   6.341   0.447   5.733
 9319SOL     OW28855   1.615   3.125   6.943
 9319SOL    HW128856   1.584   3.072   6.864
 9319SOL    HW228857   1.705   3.092   6.972
 9320SOL     OW28858   3.955   0.419   5.205
 9320SOL    HW128859   3.881   0.394   5.143
 9320SOL    HW228860   3.988   0.510   5.181
 9321SOL     OW28861   6.722   0.524   3.953
 9321SOL    HW128862   6.630   0.544   3.919
 9321SOL    HW228863   6.717   0.454   4.024
 9322SOL     OW28864   0.943   4.043   0.018
 9322SOL    HW128865   1.033   4.081   0.038
 9322SOL    HW228866   0.916   4.070   6.948
 9323SOL     OW28867   1.433   0.807   5.615
 9323SOL    HW128868   1.414   0.801   5.517
 9323SOL    HW228869   1.489   0.729   5.643
 9324SOL     OW28870   1.750   4.852   0.614
 9324SOL    HW128871   1.787   4.761   0.631
 9324SOL    HW228872   1.705   4.886   0.696
 9325SOL     OW28873   4.769   0.726   0.037
 9325SOL    HW128874   4.720   0.674   0.107
 9325SOL    HW228875   4.717   0.808   0.013
 9326SOL     OW28876   2.302   5.456   0.582
 9326SOL    HW128877   2.322   5.547   0.619
 9326SOL    HW228878   2.387   5.404   0.575
 9327SOL     OW28879   5.402   0.540   3.356
 9327SOL    HW128880   5.357   0.483   3.287
 9327SOL    HW228881   5.415   0.632   3.320
 9328SOL     OW28882   2.530   0.515   5.670
 9328SOL    HW128883   2.445   0.518   5.722
 9328SOL    HW228884   2.569   0.607   5.666
 9329SOL     OW28885   5.603   4.186   1.741
 9329SOL    HW128886   5.574   4.240   1.662
 9329SOL    HW228887   5.600   4.243   1.823
 9330SOL     OW28888   6.054   6.882   6.712
 9330SOL    HW128889   5.983   6.843   6.772
 9330SOL    HW228890   6.123   6.812   6.692
 9331SOL     OW28891   2.315   0.989   6.809
 9331SOL    HW128892   2.280   1.057   6.873
 9331SOL    HW228893   2.403   0.955   6.842
 9332SOL     OW28894   3.957   4.094   1.747
 9332SOL    HW128895   3.927   4.189   1.742
 9332SOL    HW228896   3.896   4.043   1.807
 9333SOL     OW28897   3.725   3.376   0.692
 9333SOL    HW128898   3.775   3.463   0.689
 9333SOL    HW228899   3.758   3.316   0.618
 9334SOL     OW28900   5.781   5.848   3.613
 9334SOL    HW128901   5.832   5.786   3.553
 9334SOL    HW228902   5.698   5.802   3.645
 9335SOL     OW28903   0.929   1.321   6.355
 9335SOL    HW128904   0.981   1.294   6.273
 9335SOL    HW228905   0.831   1.318   6.335
 9336SOL     OW28906   2.961   5.547   5.675
 9336SOL    HW128907   3.058   5.530   5.657
 9336SOL    HW228908   2.907   5.471   5.640
 9337SOL     OW28909   4.630   1.800   4.570
 9337SOL    HW128910   4.609   1.795   4.472
 9337SOL    HW228911   4.691   1.877   4.587
 9338SOL     OW28912   5.128   0.701   2.159
 9338SOL    HW128913   5.194   0.645   2.109
 9338SOL    HW228914   5.088   0.769   2.098
 9339SOL     OW28915   5.657   7.012   1.666
 9339SOL    HW128916   5.651   0.072   1.609
 9339SOL    HW228917   5.721   0.005   1.741
 9340SOL     OW28918   5.784   4.018   4.478
 9340SOL    HW128919   5.836   4.062   4.405
 9340SOL    HW228920   5.701   3.978   4.440
 9341SOL     OW28921   6.915   5.920   0.837
 9341SOL    HW128922   6.892   5.904   0.741
 9341SOL    HW228923   6.831   5.914   0.892
 9342SOL     OW28924   1.954   6.384   4.018
 9342SOL    HW128925   1.999   6.455   4.072
 9342SOL    HW228926   1.901   6.325   4.078
 9343SOL     OW28927   5.924   4.186   2.489
 9343SOL    HW128928   5.832   4.199   2.525
 9343SOL    HW228929   5.953   4.091   2.505
 9344SOL     OW28930   4.698   6.276   2.610
 9344SOL    HW128931   4.637   6.337   2.561
 9344SOL    HW228932   4.669   6.269   2.706
 9345SOL     OW28933   6.134   5.077   2.422
 9345SOL    HW128934   6.090   5.029   2.347
 9345SOL    HW228935   6.165   5.012   2.491
 9346SOL     OW28936   6.491   0.945   1.020
 9346SOL    HW128937   6.392   0.937   1.022
 9346SOL    HW228938   6.524   0.977   1.109
 9347SOL     OW28939   2.007   3.823   0.816
 9347SOL    HW128940   2.055   3.761   0.877
 9347SOL    HW228941   1.996   3.912   0.860
 9348SOL     OW28942   3.638   5.934   2.105
 9348SOL    HW128943   3.723   5.894   2.069
 9348SOL    HW228944   3.660   6.017   2.156
 9349SOL     OW28945   6.508   5.446   3.782
 9349SOL    HW128946   6.557   5.422   3.866
 9349SOL    HW228947   6.548   5.528   3.742
 9350SOL     OW28948   0.493   3.285   5.125
 9350SOL    HW128949   0.418   3.351   5.137
 9350SOL    HW228950   0.502   3.230   5.208
 9351SOL     OW28951   2.615   0.322   6.943
 9351SOL    HW128952   2.650   0.229   6.949
 9351SOL    HW228953   2.656   0.369   6.864
 9352SOL     OW28954   3.757   1.918   6.526
 9352SOL    HW128955   3.695   1.863   6.582
 9352SOL    HW228956   3.822   1.858   6.479
 9353SOL     OW28957   0.448   4.321   0.788
 9353SOL    HW128958   0.494   4.275   0.712
 9353SOL    HW228959   0.392   4.255   0.838
 9354SOL     OW28960   0.050   1.984   6.406
 9354SOL    HW128961   0.145   2.015   6.416
 9354SOL    HW228962   0.030   1.970   6.309
 9355SOL     OW28963   0.255   2.251   4.467
 9355SOL    HW128964   0.174   2.300   4.433
 9355SOL    HW228965   0.286   2.186   4.397
 9356SOL     OW28966   4.861   0.870   1.599
 9356SOL    HW128967   4.953   0.837   1.581
 9356SOL    HW228968   4.843   0.866   1.697
 9357SOL     OW28969   1.705   2.669   5.599
 9357SOL    HW128970   1.614   2.710   5.603
 9357SOL    HW228971   1.696   2.573   5.572
 9358SOL     OW28972   6.210   3.799   2.087
 9358SOL    HW128973   6.163   3.873   2.039
 9358SOL    HW228974   6.180   3.797   2.183
 9359SOL     OW28975   1.300   4.609   6.077
 9359SOL    HW128976   1.271   4.705   6.084
 9359SOL    HW228977   1.301   4.568   6.168
 9360SOL     OW28978   0.997   4.689   6.167
 9360SOL    HW128979   1.017   4.778   6.126
 9360SOL    HW228980   1.081   4.636   6.177
 9361SOL     OW28981   1.508   4.502   3.779
 9361SOL    HW128982   1.557   4.526   3.695
 9361SOL    HW228983   1.512   4.578   3.843
 9362SOL     OW28984   1.086   1.219   2.707
 9362SOL    HW128985   1.078   1.305   2.657
 9362SOL    HW228986   1.179   1.182   2.695
 9363SOL     OW28987   2.844   5.532   1.890
 9363SOL    HW128988   2.748   5.554   1.878
 9363SOL    HW228989   2.885   5.510   1.802
 9364SOL     OW28990   2.556   2.047   6.869
 9364SOL    HW128991   2.598   2.134   6.842
 9364SOL    HW228992   2.481   2.065   6.932
 9365SOL     OW28993   2.689   2.131   3.206
 9365SOL    HW128994   2.739   2.071   3.143
 9365SOL    HW228995   2.734   2.130   3.296
 9366SOL     OW28996   2.897   5.403   6.656
 9366SOL    HW128997   2.930   5.308   6.654
 9366SOL    HW228998   2.893   5.438   6.563
 9367SOL     OW28999   6.690   6.498   2.213
 9367SOL    HW129000   6.745   6.429   2.261
 9367SOL    HW229001   6.751   6.565   2.171
 9368SOL     OW29002   3.516   0.146   2.463
 9368SOL    HW129003   3.436   0.206   2.456
 9368SOL    HW229004   3.560   0.158   2.552
 9369SOL     OW29005   6.627   6.538   3.494
 9369SOL    HW129006   6.559   6.604   3.462
 9369SOL    HW229007   6.583   6.448   3.506
 9370SOL     OW29008   5.557   0.176   4.599
 9370SOL    HW129009   5.648   0.194   4.636
 9370SOL    HW229010   5.489   0.221   4.658
 9371SOL     OW29011   2.527   5.953   0.383
 9371SOL    HW129012   2.430   5.971   0.368
 9371SOL    HW229013   2.538   5.869   0.435
 9372SOL     OW29014   5.451   6.822   1.628
 9372SOL    HW129015   5.417   6.840   1.535
 9372SOL    HW229016   5.527   6.884   1.648
 9373SOL     OW29017   4.699   2.403   1.159
 9373SOL    HW129018   4.746   2.491   1.153
 9373SOL    HW229019   4.710   2.353   1.073
 9374SOL     OW29020   0.733   3.383   6.449
 9374SOL    HW129021   0.807   3.336   6.400
 9374SOL    HW229022   0.692   3.321   6.516
 9375SOL     OW29023   0.834   2.241   0.980
 9375SOL    HW129024   0.790   2.203   0.899
 9375SOL    HW229025   0.841   2.171   1.051
 9376SOL     OW29026   2.120   3.641   1.544
 9376SOL    HW129027   2.168   3.556   1.566
 9376SOL    HW229028   2.177   3.697   1.483
 9377SOL     OW29029   1.766   5.054   3.368
 9377SOL    HW129030   1.686   5.008   3.407
 9377SOL    HW229031   1.849   5.021   3.414
 9378SOL     OW29032   3.475   1.156   3.564
 9378SOL    HW129033   3.394   1.097   3.565
 9378SOL    HW229034   3.525   1.143   3.478
 9379SOL     OW29035   5.223   0.274   4.843
 9379SOL    HW129036   5.300   0.316   4.795
 9379SOL    HW229037   5.190   0.196   4.790
 9380SOL     OW29038   3.902   5.835   5.383
 9380SOL    HW129039   3.944   5.908   5.329
 9380SOL    HW229040   3.926   5.747   5.343
 9381SOL     OW29041   5.608   2.683   5.858
 9381SOL    HW129042   5.583   2.776   5.884
 9381SOL    HW229043   5.528   2.636   5.820
 9382SOL     OW29044   4.273   1.331   3.928
 9382SOL    HW129045   4.210   1.366   3.997
 9382SOL    HW229046   4.308   1.407   3.873
 9383SOL     OW29047   5.687   5.010   4.297
 9383SOL    HW129048   5.713   5.009   4.201
 9383SOL    HW229049   5.588   5.017   4.305
 9384SOL     OW29050   3.514   6.968   2.299
 9384SOL    HW129051   3.419   6.940   2.313
 9384SOL    HW229052   3.536   0.022   2.360
 9385SOL     OW29053   4.704   1.273   3.871
 9385SOL    HW129054   4.678   1.181   3.901
 9385SOL    HW229055   4.760   1.316   3.942
 9386SOL     OW29056   3.147   5.734   4.981
 9386SOL    HW129057   3.098   5.647   4.969
 9386SOL    HW229058   3.182   5.740   5.075
 9387SOL     OW29059   3.295   2.368   0.346
 9387SOL    HW129060   3.222   2.366   0.415
 9387SOL    HW229061   3.347   2.283   0.350
 9388SOL     OW29062   1.933   6.219   3.424
 9388SOL    HW129063   1.861   6.281   3.455
 9388SOL    HW229064   1.898   6.126   3.422
 9389SOL     OW29065   3.130   6.471   2.672
 9389SOL    HW129066   3.114   6.418   2.589
 9389SOL    HW229067   3.211   6.435   2.719
 9390SOL     OW29068   5.979   5.694   6.055
 9390SOL    HW129069   5.986   5.719   5.958
 9390SOL    HW229070   6.035   5.613   6.072
 9391SOL     OW29071   0.060   0.140   5.893
 9391SOL    HW129072   0.132   0.084   5.933
 9391SOL    HW229073   0.071   0.235   5.924
 9392SOL     OW29074   5.180   4.365   4.968
 9392SOL    HW129075   5.156   4.306   4.891
 9392SOL    HW229076   5.196   4.458   4.934
 9393SOL     OW29077   3.009   6.703   5.603
 9393SOL    HW129078   2.987   6.747   5.690
 9393SOL    HW229079   3.093   6.650   5.613
 9394SOL     OW29080   6.169   0.597   1.201
 9394SOL    HW129081   6.144   0.528   1.133
 9394SOL    HW229082   6.088   0.652   1.223
 9395SOL     OW29083   1.970   1.356   0.820
 9395SOL    HW129084   1.946   1.269   0.862
 9395SOL    HW229085   1.932   1.360   0.728
 9396SOL     OW29086   1.434   4.330   4.775
 9396SOL    HW129087   1.357   4.268   4.792
 9396SOL    HW229088   1.511   4.278   4.737
 9397SOL     OW29089   2.421   6.440   5.597
 9397SOL    HW129090   2.494   6.381   5.632
 9397SOL    HW229091   2.456   6.498   5.524
 9398SOL     OW29092   6.164   1.309   5.936
 9398SOL    HW129093   6.219   1.297   6.019
 9398SOL    HW229094   6.171   1.405   5.906
 9399SOL     OW29095   0.916   3.149   3.994
 9399SOL    HW129096   0.820   3.123   3.996
 9399SOL    HW229097   0.928   3.237   4.040
 9400SOL     OW29098   4.573   0.538   0.814
 9400SOL    HW129099   4.519   0.581   0.888
 9400SOL    HW229100   4.511   0.496   0.748
 9401SOL     OW29101   0.119   1.953   2.517
 9401SOL    HW129102   0.133   1.867   2.567
 9401SOL    HW229103   0.044   1.942   2.452
 9402SOL     OW29104   1.193   4.197   2.879
 9402SOL    HW129105   1.165   4.148   2.796
 9402SOL    HW229106   1.283   4.239   2.864
 9403SOL     OW29107   6.486   1.526   2.114
 9403SOL    HW129108   6.495   1.560   2.020
 9403SOL    HW229109   6.488   1.426   2.113
 9404SOL     OW29110   0.107   1.659   1.040
 9404SOL    HW129111   0.149   1.654   0.949
 9404SOL    HW229112   0.017   1.617   1.037
 9405SOL     OW29113   1.374   3.946   4.308
 9405SOL    HW129114   1.471   3.960   4.327
 9405SOL    HW229115   1.358   3.942   4.210
 9406SOL     OW29116   1.197   3.392   0.249
 9406SOL    HW129117   1.178   3.329   0.174
 9406SOL    HW229118   1.120   3.394   0.312
 9407SOL     OW29119   2.443   4.950   4.366
 9407SOL    HW129120   2.449   4.969   4.464
 9407SOL    HW229121   2.349   4.965   4.336
 9408SOL     OW29122   0.864   2.113   6.217
 9408SOL    HW129123   0.887   2.210   6.206
 9408SOL    HW229124   0.764   2.103   6.219
 9409SOL     OW29125   6.346   5.561   1.626
 9409SOL    HW129126   6.412   5.557   1.550
 9409SOL    HW229127   6.341   5.654   1.661
 9410SOL     OW29128   3.981   1.181   1.846
 9410SOL    HW129129   3.929   1.103   1.811
 9410SOL    HW229130   3.919   1.257   1.863
 9411SOL     OW29131   3.915   3.500   2.985
 9411SOL    HW129132   3.816   3.509   2.978
 9411SOL    HW229133   3.953   3.578   3.035
 9412SOL     OW29134   1.681   0.331   2.223
 9412SOL    HW129135   1.650   0.407   2.280
 9412SOL    HW229136   1.623   0.251   2.239
 9413SOL     OW29137   4.653   5.398   4.318
 9413SOL    HW129138   4.621   5.393   4.413
 9413SOL    HW229139   4.753   5.410   4.318
 9414SOL     OW29140   3.344   1.997   4.206
 9414SOL    HW129141   3.264   2.050   4.235
 9414SOL    HW229142   3.314   1.925   4.143
 9415SOL     OW29143   2.571   0.252   1.556
 9415SOL    HW129144   2.662   0.224   1.587
 9415SOL    HW229145   2.579   0.307   1.473
 9416SOL     OW29146   0.168   0.628   5.343
 9416SOL    HW129147   0.180   0.683   5.426
 9416SOL    HW229148   0.257   0.611   5.302
 9417SOL     OW29149   3.903   6.658   1.608
 9417SOL    HW129150   3.886   6.614   1.520
 9417SOL    HW229151   3.821   6.708   1.637
 9418SOL     OW29152   2.369   1.363   2.719
 9418SOL    HW129153   2.357   1.363   2.620
 9418SOL    HW229154   2.464   1.387   2.741
 9419SOL     OW29155   1.931   3.471   6.592
 9419SOL    HW129156   1.965   3.388   6.550
 9419SOL    HW229157   1.923   3.543   6.523
 9420SOL     OW29158   5.218   4.448   0.127
 9420SOL    HW129159   5.222   4.535   0.076
 9420SOL    HW229160   5.302   4.397   0.110
 9421SOL     OW29161   3.051   5.122   3.959
 9421SOL    HW129162   3.029   5.025   3.968
 9421SOL    HW229163   2.974   5.169   3.916
 9422SOL     OW29164   2.796   6.378   4.145
 9422SOL    HW129165   2.770   6.323   4.066
 9422SOL    HW229166   2.888   6.353   4.174
 9423SOL     OW29167   3.884   6.015   3.043
 9423SOL    HW129168   3.869   6.092   3.105
 9423SOL    HW229169   3.967   5.966   3.070
 9424SOL     OW29170   5.486   1.809   4.610
 9424SOL    HW129171   5.432   1.740   4.658
 9424SOL    HW229172   5.513   1.881   4.674
 9425SOL     OW29173   5.688   5.332   1.136
 9425SOL    HW129174   5.686   5.280   1.051
 9425SOL    HW229175   5.645   5.421   1.121
 9426SOL     OW29176   2.460   1.585   6.150
 9426SOL    HW129177   2.410   1.582   6.064
 9426SOL    HW229178   2.396   1.569   6.226
 9427SOL     OW29179   2.206   5.936   3.665
 9427SOL    HW129180   2.185   5.975   3.755
 9427SOL    HW229181   2.184   5.838   3.665
 9428SOL     OW29182   6.623   7.006   0.701
 9428SOL    HW129183   6.531   6.969   0.691
 9428SOL    HW229184   6.618   0.078   0.732
 9429SOL     OW29185   1.898   2.268   4.122
 9429SOL    HW129186   1.853   2.179   4.116
 9429SOL    HW229187   1.911   2.305   4.030
 9430SOL     OW29188   0.136   2.609   4.276
 9430SOL    HW129189   0.175   2.578   4.189
 9430SOL    HW229190   0.064   2.676   4.257
 9431SOL     OW29191   6.516   4.714   1.015
 9431SOL    HW129192   6.476   4.737   0.927
 9431SOL    HW229193   6.500   4.788   1.080
 9432SOL     OW29194   5.892   1.433   4.800
 9432SOL    HW129195   5.892   1.339   4.834
 9432SOL    HW229196   5.873   1.434   4.702
 9433SOL     OW29197   3.949   6.240   3.270
 9433SOL    HW129198   3.965   6.338   3.287
 9433SOL    HW229199   3.857   6.228   3.233
 9434SOL     OW29200   5.890   5.683   3.433
 9434SOL    HW129201   5.889   5.584   3.423
 9434SOL    HW229202   5.868   5.727   3.346
 9435SOL     OW29203   0.170   1.852   2.778
 9435SOL    HW129204   0.123   1.831   2.864
 9435SOL    HW229205   0.203   1.946   2.782
 9436SOL     OW29206   1.190   1.550   2.683
 9436SOL    HW129207   1.241   1.466   2.703
 9436SOL    HW229208   1.224   1.590   2.598
 9437SOL     OW29209   0.743   5.101   3.668
 9437SOL    HW129210   0.772   5.152   3.587
 9437SOL    HW229211   0.823   5.068   3.717
 9438SOL     OW29212   1.439   0.441   2.047
 9438SOL    HW129213   1.360   0.408   2.100
 9438SOL    HW229214   1.514   0.464   2.109
 9439SOL     OW29215   0.736   3.429   1.490
 9439SOL    HW129216   0.669   3.431   1.564
 9439SOL    HW229217   0.775   3.521   1.479
 9440SOL     OW29218   3.583   4.861   3.706
 9440SOL    HW129219   3.578   4.845   3.607
 9440SOL    HW229220   3.520   4.799   3.753
 9441SOL     OW29221   6.362   6.061   5.404
 9441SOL    HW129222   6.396   6.151   5.433
 9441SOL    HW229223   6.363   5.998   5.482
 9442SOL     OW29224   4.768   3.315   1.814
 9442SOL    HW129225   4.754   3.246   1.743
 9442SOL    HW229226   4.819   3.275   1.890
 9443SOL     OW29227   2.826   5.914   1.248
 9443SOL    HW129228   2.745   5.960   1.214
 9443SOL    HW229229   2.829   5.921   1.348
 9444SOL     OW29230   1.888   4.583   0.584
 9444SOL    HW129231   1.871   4.524   0.662
 9444SOL    HW229232   1.950   4.538   0.520
 9445SOL     OW29233   6.782   2.609   3.186
 9445SOL    HW129234   6.693   2.647   3.160
 9445SOL    HW229235   6.786   2.513   3.160
 9446SOL     OW29236   0.592   5.135   4.163
 9446SOL    HW129237   0.681   5.179   4.153
 9446SOL    HW229238   0.603   5.051   4.215
 9447SOL     OW29239   5.443   4.696   3.466
 9447SOL    HW129240   5.398   4.785   3.450
 9447SOL    HW229241   5.409   4.657   3.551
 9448SOL     OW29242   6.700   6.723   6.615
 9448SOL    HW129243   6.737   6.637   6.649
 9448SOL    HW229244   6.749   6.799   6.658
 9449SOL     OW29245   5.787   6.872   0.189
 9449SOL    HW129246   5.775   6.947   0.124
 9449SOL    HW229247   5.750   6.898   0.278
 9450SOL     OW29248   2.082   5.329   3.557
 9450SOL    HW129249   2.125   5.284   3.635
 9450SOL    HW229250   1.982   5.319   3.563
 9451SOL     OW29251   4.314   5.847   6.265
 9451SOL    HW129252   4.241   5.783   6.241
 9451SOL    HW229253   4.308   5.928   6.207
 9452SOL     OW29254   0.523   3.839   6.865
 9452SOL    HW129255   0.547   3.771   6.796
 9452SOL    HW229256   0.569   3.925   6.844
 9453SOL     OW29257   2.694   5.064   2.313
 9453SOL    HW129258   2.777   5.010   2.299
 9453SOL    HW229259   2.693   5.100   2.406
 9454SOL     OW29260   4.040   3.488   6.780
 9454SOL    HW129261   3.947   3.456   6.796
 9454SOL    HW229262   4.038   3.575   6.730
 9455SOL     OW29263   2.529   2.019   2.810
 9455SOL    HW129264   2.571   2.021   2.720
 9455SOL    HW229265   2.551   2.103   2.860
 9456SOL     OW29266   5.925   4.260   1.948
 9456SOL    HW129267   5.855   4.265   2.019
 9456SOL    HW229268   5.883   4.238   1.861
 9457SOL     OW29269   0.147   4.418   4.170
 9457SOL    HW129270   0.123   4.348   4.103
 9457SOL    HW229271   0.177   4.374   4.255
 9458SOL     OW29272   6.933   3.870   0.273
 9458SOL    HW129273   6.923   3.827   0.183
 9458SOL    HW229274   6.843   3.895   0.308
 9459SOL     OW29275   5.419   4.627   3.724
 9459SOL    HW129276   5.326   4.599   3.749
 9459SOL    HW229277   5.436   4.720   3.756
 9460SOL     OW29278   2.263   2.976   4.374
 9460SOL    HW129279   2.267   3.030   4.290
 9460SOL    HW229280   2.280   3.034   4.453
 9461SOL     OW29281   0.696   1.385   1.602
 9461SOL    HW129282   0.778   1.427   1.641
 9461SOL    HW229283   0.687   1.291   1.635
 9462SOL     OW29284   2.011   3.108   3.791
 9462SOL    HW129285   1.975   3.138   3.702
 9462SOL    HW229286   1.937   3.105   3.858
 9463SOL     OW29287   5.289   6.918   1.409
 9463SOL    HW129288   5.203   6.884   1.371
 9463SOL    HW229289   5.339   6.970   1.339
 9464SOL     OW29290   5.672   0.165   0.630
 9464SOL    HW129291   5.653   0.177   0.728
 9464SOL    HW229292   5.724   0.244   0.598
 9465SOL     OW29293   6.846   4.178   1.389
 9465SOL    HW129294   6.832   4.247   1.460
 9465SOL    HW229295   6.818   4.214   1.300
 9466SOL     OW29296   3.519   4.254   5.922
 9466SOL    HW129297   3.438   4.296   5.960
 9466SOL    HW229298   3.598   4.272   5.982
 9467SOL     OW29299   0.721   2.594   1.286
 9467SOL    HW129300   0.701   2.542   1.203
 9467SOL    HW229301   0.820   2.604   1.297
 9468SOL     OW29302   6.649   3.963   6.731
 9468SOL    HW129303   6.712   3.916   6.669
 9468SOL    HW229304   6.563   3.912   6.736
 9469SOL     OW29305   0.306   6.091   1.516
 9469SOL    HW129306   0.332   6.062   1.608
 9469SOL    HW229307   0.388   6.120   1.467
 9470SOL     OW29308   4.708   3.632   6.863
 9470SOL    HW129309   4.641   3.568   6.826
 9470SOL    HW229310   4.689   3.724   6.830
 9471SOL     OW29311   5.925   2.086   5.694
 9471SOL    HW129312   5.863   2.039   5.757
 9471SOL    HW229313   6.019   2.078   5.728
 9472SOL     OW29314   0.892   4.168   5.563
 9472SOL    HW129315   0.803   4.126   5.581
 9472SOL    HW229316   0.914   4.233   5.636
 9473SOL     OW29317   2.778   4.198   6.481
 9473SOL    HW129318   2.845   4.129   6.453
 9473SOL    HW229319   2.825   4.284   6.500
 9474SOL     OW29320   6.008   3.324   1.962
 9474SOL    HW129321   6.015   3.248   2.026
 9474SOL    HW229322   6.096   3.336   1.916
 9475SOL     OW29323   4.851   3.488   0.052
 9475SOL    HW129324   4.944   3.516   0.075
 9475SOL    HW229325   4.816   3.544   7.000
 9476SOL     OW29326   4.191   3.743   5.161
 9476SOL    HW129327   4.190   3.696   5.073
 9476SOL    HW229328   4.265   3.707   5.217
 9477SOL     OW29329   1.368   3.095   0.813
 9477SOL    HW129330   1.355   3.127   0.719
 9477SOL    HW229331   1.374   2.995   0.814
 9478SOL     OW29332   4.845   2.654   1.027
 9478SOL    HW129333   4.752   2.688   1.011
 9478SOL    HW229334   4.899   2.726   1.071
 9479SOL     OW29335   4.039   6.713   0.760
 9479SOL    HW129336   4.049   6.764   0.845
 9479SOL    HW229337   4.026   6.616   0.781
 9480SOL     OW29338   5.713   5.321   0.614
 9480SOL    HW129339   5.707   5.404   0.558
 9480SOL    HW229340   5.800   5.319   0.663
 9481SOL     OW29341   5.444   2.120   2.910
 9481SOL    HW129342   5.476   2.172   2.990
 9481SOL    HW229343   5.346   2.135   2.898
 9482SOL     OW29344   6.376   0.386   2.489
 9482SOL    HW129345   6.331   0.444   2.557
 9482SOL    HW229346   6.346   0.291   2.502
 9483SOL     OW29347   1.414   1.186   0.356
 9483SOL    HW129348   1.374   1.241   0.429
 9483SOL    HW229349   1.505   1.221   0.333
 9484SOL     OW29350   2.596   0.185   4.756
 9484SOL    HW129351   2.536   0.245   4.809
 9484SOL    HW229352   2.686   0.228   4.746
 9485SOL     OW29353   0.181   1.786   0.615
 9485SOL    HW129354   0.196   1.733   0.698
 9485SOL    HW229355   0.170   1.724   0.537
 9486SOL     OW29356   4.915   6.176   1.101
 9486SOL    HW129357   4.838   6.231   1.135
 9486SOL    HW229358   4.908   6.168   1.002
 9487SOL     OW29359   3.280   4.029   4.401
 9487SOL    HW129360   3.211   4.088   4.442
 9487SOL    HW229361   3.284   3.942   4.451
 9488SOL     OW29362   2.462   0.296   0.994
 9488SOL    HW129363   2.411   0.210   0.985
 9488SOL    HW229364   2.490   0.308   1.089
 9489SOL     OW29365   5.127   4.382   0.945
 9489SOL    HW129366   5.201   4.448   0.952
 9489SOL    HW229367   5.065   4.409   0.870
 9490SOL     OW29368   0.058   6.292   3.739
 9490SOL    HW129369   0.063   6.310   3.641
 9490SOL    HW229370   0.114   6.359   3.787
 9491SOL     OW29371   6.069   5.611   4.438
 9491SOL    HW129372   6.091   5.569   4.526
 9491SOL    HW229373   6.103   5.552   4.364
 9492SOL     OW29374   3.980   3.220   5.430
 9492SOL    HW129375   3.941   3.258   5.346
 9492SOL    HW229376   4.061   3.166   5.406
 9493SOL     OW29377   3.464   5.452   4.165
 9493SOL    HW129378   3.408   5.370   4.176
 9493SOL    HW229379   3.547   5.444   4.219
 9494SOL     OW29380   5.773   3.099   2.398
 9494SOL    HW129381   5.686   3.147   2.391
 9494SOL    HW229382   5.847   3.159   2.368
 9495SOL     OW29383   6.966   1.635   2.464
 9495SOL    HW129384   0.039   1.624   2.492
 9495SOL    HW229385   6.907   1.589   2.530
 9496SOL     OW29386   4.728   2.414   1.740
 9496SOL    HW129387   4.810   2.466   1.764
 9496SOL    HW229388   4.652   2.442   1.800
 9497SOL     OW29389   5.097   6.302   5.745
 9497SOL    HW129390   5.051   6.373   5.692
 9497SOL    HW229391   5.116   6.223   5.686
 9498SOL     OW29392   6.640   4.499   5.209
 9498SOL    HW129393   6.712   4.430   5.205
 9498SOL    HW229394   6.681   4.590   5.222
 9499SOL     OW29395   0.565   5.746   5.128
 9499SOL    HW129396   0.502   5.679   5.166
 9499SOL    HW229397   0.581   5.726   5.031
 9500SOL     OW29398   3.967   6.359   0.676
 9500SOL    HW129399   4.010   6.284   0.627
 9500SOL    HW229400   3.883   6.386   0.629
 9501SOL     OW29401   1.861   1.192   4.365
 9501SOL    HW129402   1.849   1.121   4.435
 9501SOL    HW229403   1.958   1.203   4.346
 9502SOL     OW29404   6.341   4.155   4.336
 9502SOL    HW129405   6.333   4.071   4.389
 9502SOL    HW229406   6.438   4.175   4.319
 9503SOL     OW29407   6.900   2.433   0.302
 9503SOL    HW129408   6.881   2.465   0.395
 9503SOL    HW229409   6.998   2.421   0.291
 9504SOL     OW29410   6.488   3.941   1.643
 9504SOL    HW129411   6.585   3.966   1.640
 9504SOL    HW229412   6.444   3.970   1.558
 9505SOL     OW29413   5.472   4.549   5.477
 9505SOL    HW129414   5.411   4.475   5.449
 9505SOL    HW229415   5.463   4.564   5.575
 9506SOL     OW29416   1.788   2.796   0.632
 9506SOL    HW129417   1.852   2.807   0.556
 9506SOL    HW229418   1.722   2.871   0.631
 9507SOL     OW29419   6.894   0.458   1.280
 9507SOL    HW129420   6.936   0.522   1.215
 9507SOL    HW229421   6.796   0.453   1.264
 9508SOL     OW29422   5.794   2.108   3.050
 9508SOL    HW129423   5.763   2.117   2.955
 9508SOL    HW229424   5.725   2.145   3.111
 9509SOL     OW29425   0.029   0.430   3.681
 9509SOL    HW129426   7.012   0.338   3.673
 9509SOL    HW229427   7.014   0.489   3.610
 9510SOL     OW29428   1.301   3.442   3.349
 9510SOL    HW129429   1.346   3.464   3.436
 9510SOL    HW229430   1.212   3.488   3.345
 9511SOL     OW29431   1.970   0.954   1.979
 9511SOL    HW129432   2.063   0.991   1.980
 9511SOL    HW229433   1.970   0.864   2.023
 9512SOL     OW29434   6.644   2.253   1.162
 9512SOL    HW129435   6.699   2.269   1.244
 9512SOL    HW229436   6.575   2.325   1.155
 9513SOL     OW29437   2.945   4.925   6.045
 9513SOL    HW129438   2.846   4.915   6.048
 9513SOL    HW229439   2.975   4.930   5.950
 9514SOL     OW29440   2.625   4.596   6.639
 9514SOL    HW129441   2.694   4.609   6.569
 9514SOL    HW229442   2.666   4.557   6.721
 9515SOL     OW29443   2.000   5.987   2.478
 9515SOL    HW129444   2.081   6.036   2.446
 9515SOL    HW229445   2.018   5.889   2.479
 9516SOL     OW29446   5.794   4.536   0.017
 9516SOL    HW129447   5.717   4.564   0.074
 9516SOL    HW229448   5.788   4.583   6.951
 9517SOL     OW29449   1.584   3.551   1.658
 9517SOL    HW129450   1.633   3.584   1.738
 9517SOL    HW229451   1.649   3.536   1.583
 9518SOL     OW29452   2.376   1.723   0.886
 9518SOL    HW129453   2.337   1.672   0.963
 9518SOL    HW229454   2.311   1.793   0.856
 9519SOL     OW29455   2.919   2.980   5.320
 9519SOL    HW129456   2.905   2.883   5.338
 9519SOL    HW229457   2.999   2.992   5.261
 9520SOL     OW29458   2.883   0.344   3.069
 9520SOL    HW129459   2.924   0.367   3.157
 9520SOL    HW229460   2.886   0.245   3.055
 9521SOL     OW29461   5.801   5.238   2.478
 9521SOL    HW129462   5.886   5.290   2.470
 9521SOL    HW229463   5.769   5.241   2.573
 9522SOL     OW29464   3.438   5.466   0.733
 9522SOL    HW129465   3.495   5.503   0.660
 9522SOL    HW229466   3.405   5.375   0.707
 9523SOL     OW29467   3.278   5.325   4.644
 9523SOL    HW129468   3.214   5.400   4.627
 9523SOL    HW229469   3.264   5.289   4.736
 9524SOL     OW29470   3.766   2.619   1.658
 9524SOL    HW129471   3.785   2.702   1.710
 9524SOL    HW229472   3.705   2.641   1.582
 9525SOL     OW29473   2.418   2.624   6.281
 9525SOL    HW129474   2.374   2.538   6.255
 9525SOL    HW229475   2.446   2.619   6.377
 9526SOL     OW29476   5.470   5.589   1.948
 9526SOL    HW129477   5.522   5.504   1.937
 9526SOL    HW229478   5.439   5.597   2.042
 9527SOL     OW29479   0.925   0.268   1.356
 9527SOL    HW129480   0.890   0.208   1.428
 9527SOL    HW229481   0.937   0.216   1.271
 9528SOL     OW29482   0.134   1.117   6.899
 9528SOL    HW129483   0.219   1.169   6.889
 9528SOL    HW229484   0.096   1.131   6.990
 9529SOL     OW29485   0.099   3.315   4.966
 9529SOL    HW129486   0.080   3.390   5.030
 9529SOL    HW229487   0.130   3.352   4.879
 9530SOL     OW29488   1.781   3.071   3.950
 9530SOL    HW129489   1.728   2.986   3.957
 9530SOL    HW229490   1.751   3.135   4.021
 9531SOL     OW29491   3.555   5.135   3.425
 9531SOL    HW129492   3.634   5.144   3.486
 9531SOL    HW229493   3.474   5.172   3.470
 9532SOL     OW29494   0.618   5.768   2.181
 9532SOL    HW129495   0.710   5.782   2.145
 9532SOL    HW229496   0.565   5.714   2.116
 9533SOL     OW29497   6.931   0.743   5.279
 9533SOL    HW129498   0.008   0.744   5.281
 9533SOL    HW229499   6.897   0.654   5.310
 9534SOL     OW29500   6.131   3.239   5.538
 9534SOL    HW129501   6.133   3.144   5.568
 9534SOL    HW229502   6.036   3.268   5.524
 9535SOL     OW29503   2.386   1.271   5.920
 9535SOL    HW129504   2.455   1.267   5.848
 9535SOL    HW229505   2.431   1.272   6.010
 9536SOL     OW29506   2.097   4.965   5.152
 9536SOL    HW129507   2.094   5.039   5.220
 9536SOL    HW229508   2.003   4.939   5.128
 9537SOL     OW29509   3.057   0.298   2.612
 9537SOL    HW129510   2.958   0.299   2.617
 9537SOL    HW229511   3.096   0.288   2.703
 9538SOL     OW29512   6.572   1.429   4.245
 9538SOL    HW129513   6.522   1.391   4.167
 9538SOL    HW229514   6.666   1.395   4.243
 9539SOL     OW29515   2.072   4.657   6.301
 9539SOL    HW129516   2.104   4.595   6.373
 9539SOL    HW229517   1.994   4.616   6.254
 9540SOL     OW29518   4.590   4.325   5.190
 9540SOL    HW129519   4.661   4.288   5.129
 9540SOL    HW229520   4.547   4.249   5.240
 9541SOL     OW29521   2.091   2.148   5.495
 9541SOL    HW129522   2.164   2.216   5.494
 9541SOL    HW229523   2.128   2.058   5.471
 9542SOL     OW29524   4.644   3.869   5.325
 9542SOL    HW129525   4.645   3.786   5.270
 9542SOL    HW229526   4.737   3.905   5.333
 9543SOL     OW29527   5.013   0.909   4.422
 9543SOL    HW129528   4.976   0.902   4.329
 9543SOL    HW229529   4.943   0.884   4.488
 9544SOL     OW29530   5.603   0.519   1.716
 9544SOL    HW129531   5.645   0.606   1.690
 9544SOL    HW229532   5.670   0.446   1.710
 9545SOL     OW29533   6.665   5.419   2.985
 9545SOL    HW129534   6.727   5.407   2.908
 9545SOL    HW229535   6.695   5.497   3.040
 9546SOL     OW29536   2.409   3.986   6.579
 9546SOL    HW129537   2.442   3.909   6.525
 9546SOL    HW229538   2.480   4.055   6.586
 9547SOL     OW29539   2.124   6.183   4.487
 9547SOL    HW129540   2.206   6.208   4.539
 9547SOL    HW229541   2.044   6.194   4.546
 9548SOL     OW29542   6.827   5.205   5.059
 9548SOL    HW129543   6.727   5.208   5.050
 9548SOL    HW229544   6.868   5.278   5.004
 9549SOL     OW29545   3.235   4.636   0.894
 9549SOL    HW129546   3.174   4.699   0.847
 9549SOL    HW229547   3.307   4.687   0.941
 9550SOL     OW29548   6.893   1.307   6.275
 9550SOL    HW129549   6.931   1.251   6.348
 9550SOL    HW229550   6.818   1.363   6.311
 9551SOL     OW29551   0.124   6.378   4.259
 9551SOL    HW129552   0.049   6.325   4.297
 9551SOL    HW229553   0.089   6.463   4.219
 9552SOL     OW29554   1.881   6.153   2.926
 9552SOL    HW129555   1.881   6.086   2.852
 9552SOL    HW229556   1.968   6.202   2.928
 9553SOL     OW29557   6.029   5.175   6.499
 9553SOL    HW129558   6.098   5.119   6.452
 9553SOL    HW229559   5.940   5.128   6.496
 9554SOL     OW29560   2.873   1.181   1.623
 9554SOL    HW129561   2.949   1.213   1.680
 9554SOL    HW229562   2.909   1.149   1.535
 9555SOL     OW29563   6.408   2.673   0.966
 9555SOL    HW129564   6.433   2.580   0.993
 9555SOL    HW229565   6.319   2.672   0.922
 9556SOL     OW29566   2.435   1.613   1.716
 9556SOL    HW129567   2.387   1.691   1.756
 9556SOL    HW229568   2.504   1.645   1.651
 9557SOL     OW29569   6.020   0.472   2.697
 9557SOL    HW129570   5.944   0.535   2.680
 9557SOL    HW229571   6.104   0.511   2.661
 9558SOL     OW29572   6.932   5.373   3.412
 9558SOL    HW129573   6.850   5.321   3.436
 9558SOL    HW229574   6.915   5.471   3.422
 9559SOL     OW29575   6.719   4.358   2.588
 9559SOL    HW129576   6.739   4.442   2.537
 9559SOL    HW229577   6.677   4.291   2.527
 9560SOL     OW29578   2.064   1.487   2.750
 9560SOL    HW129579   2.099   1.580   2.762
 9560SOL    HW229580   2.140   1.423   2.751
 9561SOL     OW29581   2.583   6.761   0.591
 9561SOL    HW129582   2.547   6.852   0.612
 9561SOL    HW229583   2.681   6.758   0.611
 9562SOL     OW29584   3.488   5.690   4.479
 9562SOL    HW129585   3.474   5.782   4.516
 9562SOL    HW229586   3.474   5.692   4.380
 9563SOL     OW29587   6.530   6.557   6.865
 9563SOL    HW129588   6.465   6.603   6.925
 9563SOL    HW229589   6.483   6.484   6.815
 9564SOL     OW29590   2.668   0.393   6.658
 9564SOL    HW129591   2.693   0.461   6.589
 9564SOL    HW229592   2.652   0.305   6.614
 9565SOL     OW29593   4.509   5.874   5.658
 9565SOL    HW129594   4.455   5.833   5.732
 9565SOL    HW229595   4.455   5.873   5.574
 9566SOL     OW29596   3.668   4.537   6.725
 9566SOL    HW129597   3.601   4.602   6.689
 9566SOL    HW229598   3.716   4.493   6.650
 9567SOL     OW29599   6.416   5.651   6.423
 9567SOL    HW129600   6.375   5.562   6.404
 9567SOL    HW229601   6.362   5.722   6.378
 9568SOL     OW29602   4.802   3.495   6.418
 9568SOL    HW129603   4.787   3.423   6.485
 9568SOL    HW229604   4.806   3.583   6.464
 9569SOL     OW29605   6.342   0.949   0.297
 9569SOL    HW129606   6.297   0.933   0.385
 9569SOL    HW229607   6.339   1.047   0.275
 9570SOL     OW29608   0.650   1.666   1.566
 9570SOL    HW129609   0.581   1.682   1.495
 9570SOL    HW229610   0.656   1.568   1.585
 9571SOL     OW29611   2.932   3.400   0.127
 9571SOL    HW129612   3.006   3.431   0.187
 9571SOL    HW229613   2.844   3.424   0.169
 9572SOL     OW29614   1.395   4.671   0.959
 9572SOL    HW129615   1.355   4.580   0.956
 9572SOL    HW229616   1.324   4.740   0.945
 9573SOL     OW29617   0.743   0.809   6.728
 9573SOL    HW129618   0.724   0.895   6.681
 9573SOL    HW229619   0.837   0.781   6.711
 9574SOL     OW29620   3.414   3.445   5.119
 9574SOL    HW129621   3.418   3.517   5.051
 9574SOL    HW229622   3.401   3.357   5.073
 9575SOL     OW29623   6.001   0.930   1.017
 9575SOL    HW129624   5.969   0.852   1.071
 9575SOL    HW229625   6.004   1.012   1.074
 9576SOL     OW29626   3.996   1.314   3.698
 9576SOL    HW129627   3.912   1.263   3.682
 9576SOL    HW229628   4.066   1.251   3.734
 9577SOL     OW29629   1.098   0.497   2.165
 9577SOL    HW129630   1.113   0.434   2.241
 9577SOL    HW229631   1.059   0.583   2.199
 9578SOL     OW29632   6.107   3.096   3.126
 9578SOL    HW129633   6.177   3.058   3.187
 9578SOL    HW229634   6.117   3.054   3.035
 9579SOL     OW29635   1.154   6.932   2.324
 9579SOL    HW129636   1.196   6.958   2.237
 9579SOL    HW229637   1.086   6.860   2.308
 9580SOL     OW29638   4.967   3.606   6.815
 9580SOL    HW129639   4.973   3.509   6.790
 9580SOL    HW229640   4.871   3.635   6.812
 9581SOL     OW29641   1.735   5.093   6.118
 9581SOL    HW129642   1.678   5.141   6.051
 9581SOL    HW229643   1.702   4.999   6.129
 9582SOL     OW29644   4.415   4.524   3.771
 9582SOL    HW129645   4.473   4.454   3.729
 9582SOL    HW229646   4.426   4.521   3.870
 9583SOL     OW29647   1.979   3.436   1.832
 9583SOL    HW129648   1.958   3.368   1.762
 9583SOL    HW229649   2.069   3.416   1.872
 9584SOL     OW29650   5.897   5.440   0.162
 9584SOL    HW129651   5.906   5.341   0.167
 9584SOL    HW229652   5.830   5.471   0.231
 9585SOL     OW29653   5.593   0.073   2.640
 9585SOL    HW129654   5.553   0.142   2.579
 9585SOL    HW229655   5.610   0.114   2.729
 9586SOL     OW29656   5.153   3.643   3.642
 9586SOL    HW129657   5.186   3.632   3.549
 9586SOL    HW229658   5.230   3.640   3.706
 9587SOL     OW29659   6.437   0.592   1.383
 9587SOL    HW129660   6.409   0.560   1.474
 9587SOL    HW229661   6.364   0.574   1.317
 9588SOL     OW29662   0.231   0.712   1.351
 9588SOL    HW129663   0.236   0.705   1.252
 9588SOL    HW229664   0.137   0.694   1.381
 9589SOL     OW29665   2.073   6.433   6.359
 9589SOL    HW129666   2.081   6.452   6.262
 9589SOL    HW229667   1.997   6.369   6.375
 9590SOL     OW29668   0.317   3.952   2.387
 9590SOL    HW129669   0.405   3.907   2.370
 9590SOL    HW229670   0.249   3.919   2.321
 9591SOL     OW29671   1.882   6.720   0.732
 9591SOL    HW129672   1.790   6.738   0.766
 9591SOL    HW229673   1.878   6.703   0.633
 9592SOL     OW29674   3.991   5.249   3.302
 9592SOL    HW129675   4.016   5.339   3.266
 9592SOL    HW229676   3.892   5.237   3.295
 9593SOL     OW29677   5.359   2.598   4.304
 9593SOL    HW129678   5.413   2.552   4.233
 9593SOL    HW229679   5.420   2.648   4.365
 9594SOL     OW29680   6.769   6.634   3.151
 9594SOL    HW129681   6.689   6.580   3.126
 9594SOL    HW229682   6.831   6.578   3.206
 9595SOL     OW29683   2.056   5.794   4.799
 9595SOL    HW129684   2.081   5.776   4.894
 9595SOL    HW229685   2.007   5.880   4.792
 9596SOL     OW29686   0.049   5.672   5.333
 9596SOL    HW129687   0.092   5.710   5.415
 9596SOL    HW229688   7.003   5.605   5.360
 9597SOL     OW29689   7.018   4.168   1.992
 9597SOL    HW129690   0.093   4.161   2.011
 9597SOL    HW229691   7.005   4.181   1.894
 9598SOL     OW29692   0.425   4.531   5.571
 9598SOL    HW129693   0.447   4.567   5.662
 9598SOL    HW229694   0.425   4.431   5.573
 9599SOL     OW29695   3.680   0.186   5.625
 9599SOL    HW129696   3.723   0.179   5.535
 9599SOL    HW229697   3.584   0.212   5.615
 9600SOL     OW29698   1.295   0.549   5.887
 9600SOL    HW129699   1.324   0.634   5.930
 9600SOL    HW229700   1.263   0.486   5.958
 9601SOL     OW29701   0.318   4.382   6.407
 9601SOL    HW129702   0.308   4.476   6.439
 9601SOL    HW229703   0.351   4.382   6.313
 9602SOL     OW29704   6.823   4.649   6.175
 9602SOL    HW129705   6.781   4.648   6.266
 9602SOL    HW229706   6.917   4.616   6.181
 9603SOL     OW29707   2.599   6.108   4.888
 9603SOL    HW129708   2.514   6.128   4.936
 9603SOL    HW229709   2.590   6.133   4.792
 9604SOL     OW29710   5.001   0.968   0.124
 9604SOL    HW129711   4.952   1.006   0.203
 9604SOL    HW229712   4.935   0.928   0.061
 9605SOL     OW29713   1.481   5.115   5.403
 9605SOL    HW129714   1.399   5.151   5.358
 9605SOL    HW229715   1.496   5.020   5.374
 9606SOL     OW29716   0.735   6.658   3.533
 9606SOL    HW129717   0.678   6.684   3.455
 9606SOL    HW229718   0.829   6.686   3.517
 9607SOL     OW29719   1.269   0.967   1.497
 9607SOL    HW129720   1.278   0.899   1.425
 9607SOL    HW229721   1.262   0.921   1.586
 9608SOL     OW29722   6.824   6.964   2.364
 9608SOL    HW129723   6.788   0.006   2.431
 9608SOL    HW229724   6.922   6.981   2.351
 9609SOL     OW29725   1.965   4.092   4.775
 9609SOL    HW129726   1.920   4.107   4.687
 9609SOL    HW229727   1.904   4.120   4.849
 9610SOL     OW29728   1.807   2.271   5.825
 9610SOL    HW129729   1.764   2.186   5.797
 9610SOL    HW229730   1.739   2.330   5.869
 9611SOL     OW29731   6.356   0.383   0.822
 9611SOL    HW129732   6.339   0.479   0.797
 9611SOL    HW229733   6.454   0.369   0.838
 9612SOL     OW29734   0.060   2.989   0.636
 9612SOL    HW129735   0.030   3.066   0.692
 9612SOL    HW229736   0.155   2.967   0.659
 9613SOL     OW29737   5.696   7.013   4.327
 9613SOL    HW129738   5.771   6.960   4.365
 9613SOL    HW229739   5.609   6.981   4.366
 9614SOL     OW29740   3.908   3.923   2.448
 9614SOL    HW129741   3.880   4.019   2.447
 9614SOL    HW229742   3.888   3.884   2.538
 9615SOL     OW29743   1.901   5.609   2.870
 9615SOL    HW129744   1.822   5.653   2.827
 9615SOL    HW229745   1.962   5.574   2.798
 9616SOL     OW29746   3.455   2.461   1.007
 9616SOL    HW129747   3.534   2.515   0.978
 9616SOL    HW229748   3.403   2.512   1.075
 9617SOL     OW29749   1.019   3.413   3.602
 9617SOL    HW129750   1.024   3.422   3.701
 9617SOL    HW229751   0.933   3.453   3.569
 9618SOL     OW29752   3.917   6.832   6.731
 9618SOL    HW129753   3.952   6.788   6.814
 9618SOL    HW229754   3.817   6.837   6.735
 9619SOL     OW29755   1.681   5.628   0.165
 9619SOL    HW129756   1.744   5.560   0.202
 9619SOL    HW229757   1.721   5.720   0.176
 9620SOL     OW29758   3.454   0.174   6.590
 9620SOL    HW129759   3.535   0.219   6.550
 9620SOL    HW229760   3.468   0.075   6.590
 9621SOL     OW29761   0.919   0.563   2.588
 9621SOL    HW129762   1.004   0.607   2.560
 9621SOL    HW229763   0.913   0.563   2.688
 9622SOL     OW29764   6.829   1.291   6.635
 9622SOL    HW129765   6.730   1.305   6.622
 9622SOL    HW229766   6.860   1.346   6.712
 9623SOL     OW29767   4.990   5.807   6.609
 9623SOL    HW129768   5.040   5.722   6.599
 9623SOL    HW229769   4.999   5.861   6.526
 9624SOL     OW29770   5.622   5.297   5.180
 9624SOL    HW129771   5.524   5.280   5.176
 9624SOL    HW229772   5.670   5.210   5.194
 9625SOL     OW29773   5.614   4.774   6.480
 9625SOL    HW129774   5.542   4.789   6.548
 9625SOL    HW229775   5.666   4.693   6.503
 9626SOL     OW29776   1.573   4.427   5.045
 9626SOL    HW129777   1.479   4.424   5.009
 9626SOL    HW229778   1.632   4.370   4.988
 9627SOL     OW29779   1.555   4.564   5.740
 9627SOL    HW129780   1.525   4.597   5.651
 9627SOL    HW229781   1.584   4.641   5.797
 9628SOL     OW29782   5.928   4.276   6.940
 9628SOL    HW129783   5.858   4.250   6.873
 9628SOL    HW229784   5.901   4.362   6.985
 9629SOL     OW29785   6.478   6.223   2.863
 9629SOL    HW129786   6.385   6.187   2.857
 9629SOL    HW229787   6.533   6.164   2.922
 9630SOL     OW29788   5.946   6.430   5.738
 9630SOL    HW129789   5.999   6.355   5.700
 9630SOL    HW229790   5.896   6.476   5.665
 9631SOL     OW29791   4.522   1.024   1.426
 9631SOL    HW129792   4.500   0.949   1.364
 9631SOL    HW229793   4.455   1.027   1.500
 9632SOL     OW29794   2.171   4.964   1.531
 9632SOL    HW129795   2.161   4.993   1.626
 9632SOL    HW229796   2.198   4.867   1.529
 9633SOL     OW29797   3.935   3.358   1.771
 9633SOL    HW129798   3.953   3.432   1.706
 9633SOL    HW229799   4.020   3.312   1.794
 9634SOL     OW29800   5.247   4.652   2.445
 9634SOL    HW129801   5.258   4.561   2.405
 9634SOL    HW229802   5.173   4.651   2.512
 9635SOL     OW29803   0.458   3.779   4.309
 9635SOL    HW129804   0.386   3.713   4.286
 9635SOL    HW229805   0.423   3.872   4.296
 9636SOL     OW29806   3.979   1.563   5.869
 9636SOL    HW129807   3.977   1.590   5.965
 9636SOL    HW229808   3.922   1.626   5.816
 9637SOL     OW29809   2.496   2.794   1.267
 9637SOL    HW129810   2.541   2.807   1.356
 9637SOL    HW229811   2.492   2.697   1.245
 9638SOL     OW29812   0.184   4.497   5.983
 9638SOL    HW129813   0.179   4.499   5.883
 9638SOL    HW229814   0.278   4.516   6.011
 9639SOL     OW29815   4.508   2.472   1.879
 9639SOL    HW129816   4.446   2.400   1.849
 9639SOL    HW229817   4.513   2.473   1.979
 9640SOL     OW29818   4.074   1.446   2.071
 9640SOL    HW129819   3.991   1.490   2.104
 9640SOL    HW229820   4.151   1.509   2.079
 9641SOL     OW29821   5.541   4.728   2.944
 9641SOL    HW129822   5.488   4.734   2.860
 9641SOL    HW229823   5.545   4.633   2.975
 9642SOL     OW29824   1.502   0.020   4.592
 9642SOL    HW129825   1.508   0.120   4.584
 9642SOL    HW229826   1.575   7.001   4.538
 9643SOL     OW29827   5.034   4.179   4.363
 9643SOL    HW129828   5.021   4.103   4.298
 9643SOL    HW229829   5.130   4.184   4.389
 9644SOL     OW29830   2.527   6.281   5.230
 9644SOL    HW129831   2.533   6.327   5.142
 9644SOL    HW229832   2.444   6.226   5.235
 9645SOL     OW29833   0.866   4.821   4.900
 9645SOL    HW129834   0.817   4.908   4.890
 9645SOL    HW229835   0.807   4.753   4.942
 9646SOL     OW29836   2.938   6.926   4.472
 9646SOL    HW129837   2.871   6.999   4.453
 9646SOL    HW229838   2.956   6.874   4.389
 9647SOL     OW29839   6.337   5.903   2.855
 9647SOL    HW129840   6.355   5.806   2.843
 9647SOL    HW229841   6.342   5.927   2.952
 9648SOL     OW29842   5.118   2.532   1.598
 9648SOL    HW129843   5.049   2.571   1.660
 9648SOL    HW229844   5.072   2.485   1.523
 9649SOL     OW29845   2.272   3.274   6.210
 9649SOL    HW129846   2.214   3.296   6.131
 9649SOL    HW229847   2.244   3.186   6.248
 9650SOL     OW29848   6.368   4.755   3.713
 9650SOL    HW129849   6.395   4.776   3.619
 9650SOL    HW229850   6.394   4.830   3.773
 9651SOL     OW29851   3.258   1.250   0.220
 9651SOL    HW129852   3.309   1.203   0.148
 9651SOL    HW229853   3.211   1.330   0.181
 9652SOL     OW29854   0.580   4.361   1.250
 9652SOL    HW129855   0.678   4.341   1.248
 9652SOL    HW229856   0.539   4.316   1.329
 9653SOL     OW29857   4.502   4.437   5.623
 9653SOL    HW129858   4.489   4.382   5.705
 9653SOL    HW229859   4.415   4.479   5.597
 9654SOL     OW29860   3.666   2.910   2.992
 9654SOL    HW129861   3.581   2.860   2.972
 9654SOL    HW229862   3.680   2.912   3.091
 9655SOL     OW29863   6.507   1.316   1.048
 9655SOL    HW129864   6.582   1.359   1.098
 9655SOL    HW229865   6.444   1.386   1.016
 9656SOL     OW29866   4.820   3.155   0.698
 9656SOL    HW129867   4.911   3.189   0.673
 9656SOL    HW229868   4.820   3.055   0.696
 9657SOL     OW29869   5.037   4.238   4.036
 9657SOL    HW129870   5.100   4.223   3.960
 9657SOL    HW229871   5.043   4.332   4.067
 9658SOL     OW29872   5.175   1.977   2.445
 9658SOL    HW129873   5.173   1.881   2.418
 9658SOL    HW229874   5.129   1.988   2.534
 9659SOL     OW29875   2.920   1.684   0.567
 9659SOL    HW129876   2.952   1.770   0.527
 9659SOL    HW229877   2.871   1.631   0.498
 9660SOL     OW29878   0.706   6.229   0.838
 9660SOL    HW129879   0.630   6.277   0.793
 9660SOL    HW229880   0.678   6.200   0.929
 9661SOL     OW29881   4.422   5.519   1.128
 9661SOL    HW129882   4.412   5.615   1.101
 9661SOL    HW229883   4.337   5.470   1.107
 9662SOL     OW29884   5.703   4.184   6.827
 9662SOL    HW129885   5.612   4.214   6.857
 9662SOL    HW229886   5.717   4.089   6.854
 9663SOL     OW29887   0.252   4.972   2.746
 9663SOL    HW129888   0.162   4.928   2.751
 9663SOL    HW229889   0.321   4.913   2.787
 9664SOL     OW29890   5.259   4.145   3.875
 9664SOL    HW129891   5.231   4.051   3.893
 9664SOL    HW229892   5.285   4.155   3.779
 9665SOL     OW29893   6.229   6.415   5.500
 9665SOL    HW129894   6.166   6.344   5.530
 9665SOL    HW229895   6.323   6.382   5.508
 9666SOL     OW29896   6.390   4.723   1.372
 9666SOL    HW129897   6.386   4.674   1.459
 9666SOL    HW229898   6.340   4.810   1.381
 9667SOL     OW29899   4.910   4.411   0.722
 9667SOL    HW129900   4.878   4.436   0.631
 9667SOL    HW229901   4.833   4.375   0.775
 9668SOL     OW29902   1.313   0.343   6.205
 9668SOL    HW129903   1.228   0.347   6.153
 9668SOL    HW229904   1.292   0.343   6.303
 9669SOL     OW29905   2.718   0.143   0.764
 9669SOL    HW129906   2.778   0.092   0.702
 9669SOL    HW229907   2.767   0.163   0.849
 9670SOL     OW29908   0.405   6.329   5.149
 9670SOL    HW129909   0.485   6.283   5.189
 9670SOL    HW229910   0.333   6.262   5.133
 9671SOL     OW29911   0.497   4.703   0.407
 9671SOL    HW129912   0.505   4.629   0.341
 9671SOL    HW229913   0.579   4.760   0.403
 9672SOL     OW29914   1.103   5.081   2.658
 9672SOL    HW129915   1.098   4.986   2.687
 9672SOL    HW229916   1.168   5.090   2.583
 9673SOL     OW29917   3.454   4.071   1.677
 9673SOL    HW129918   3.359   4.091   1.700
 9673SOL    HW229919   3.502   4.040   1.758
 9674SOL     OW29920   3.900   6.455   2.878
 9674SOL    HW129921   3.872   6.433   2.784
 9674SOL    HW229922   3.996   6.431   2.891
 9675SOL     OW29923   5.313   3.838   0.380
 9675SOL    HW129924   5.316   3.938   0.375
 9675SOL    HW229925   5.289   3.801   0.290
 9676SOL     OW29926   1.548   2.910   6.708
 9676SOL    HW129927   1.583   2.818   6.725
 9676SOL    HW229928   1.452   2.914   6.736
 9677SOL     OW29929   6.534   5.094   6.507
 9677SOL    HW129930   6.537   5.193   6.495
 9677SOL    HW229931   6.621   5.054   6.479
 9678SOL     OW29932   3.313   3.595   4.716
 9678SOL    HW129933   3.222   3.580   4.754
 9678SOL    HW229934   3.306   3.655   4.637
 9679SOL     OW29935   2.813   1.848   4.585
 9679SOL    HW129936   2.862   1.853   4.498
 9679SOL    HW229937   2.720   1.882   4.573
 9680SOL     OW29938   5.237   6.828   4.630
 9680SOL    HW129939   5.302   6.846   4.556
 9680SOL    HW229940   5.177   6.752   4.604
 9681SOL     OW29941   2.971   1.284   1.890
 9681SOL    HW129942   2.941   1.203   1.940
 9681SOL    HW229943   2.949   1.366   1.943
 9682SOL     OW29944   5.159   4.576   3.733
 9682SOL    HW129945   5.087   4.600   3.799
 9682SOL    HW229946   5.121   4.515   3.664
 9683SOL     OW29947   1.703   6.393   0.311
 9683SOL    HW129948   1.604   6.378   0.315
 9683SOL    HW229949   1.722   6.489   0.293
 9684SOL     OW29950   0.906   3.182   4.884
 9684SOL    HW129951   0.937   3.277   4.892
 9684SOL    HW229952   0.853   3.157   4.965
 9685SOL     OW29953   4.520   3.789   0.500
 9685SOL    HW129954   4.514   3.689   0.491
 9685SOL    HW229955   4.439   3.823   0.548
 9686SOL     OW29956   0.345   2.447   0.086
 9686SOL    HW129957   0.324   2.386   0.010
 9686SOL    HW229958   0.405   2.520   0.055
 9687SOL     OW29959   6.482   6.759   1.919
 9687SOL    HW129960   6.463   6.857   1.931
 9687SOL    HW229961   6.481   6.714   2.009
 9688SOL     OW29962   0.856   3.808   1.047
 9688SOL    HW129963   0.899   3.762   0.969
 9688SOL    HW229964   0.782   3.751   1.082
 9689SOL     OW29965   0.799   4.690   5.950
 9689SOL    HW129966   0.829   4.620   5.885
 9689SOL    HW229967   0.875   4.712   6.011
 9690SOL     OW29968   4.457   5.781   5.937
 9690SOL    HW129969   4.555   5.793   5.925
 9690SOL    HW229970   4.420   5.859   5.987
 9691SOL     OW29971   3.568   3.379   2.554
 9691SOL    HW129972   3.547   3.456   2.494
 9691SOL    HW229973   3.483   3.331   2.577
 9692SOL     OW29974   5.229   5.273   0.468
 9692SOL    HW129975   5.162   5.199   0.480
 9692SOL    HW229976   5.205   5.349   0.528
 9693SOL     OW29977   5.827   4.372   4.100
 9693SOL    HW129978   5.792   4.400   4.011
 9693SOL    HW229979   5.847   4.453   4.156
 9694SOL     OW29980   3.737   0.602   1.403
 9694SOL    HW129981   3.766   0.692   1.433
 9694SOL    HW229982   3.637   0.598   1.402
 9695SOL     OW29983   0.034   3.761   2.584
 9695SOL    HW129984   0.116   3.816   2.593
 9695SOL    HW229985   6.984   3.816   2.543
 9696SOL     OW29986   5.856   1.978   2.549
 9696SOL    HW129987   5.828   2.072   2.528
 9696SOL    HW229988   5.939   1.980   2.604
 9697SOL     OW29989   0.199   6.628   0.379
 9697SOL    HW129990   0.276   6.685   0.410
 9697SOL    HW229991   0.187   6.552   0.442
 9698SOL     OW29992   5.566   3.056   6.350
 9698SOL    HW129993   5.503   3.099   6.286
 9698SOL    HW229994   5.541   2.960   6.362
 9699SOL     OW29995   0.954   5.850   0.251
 9699SOL    HW129996   0.922   5.801   0.170
 9699SOL    HW229997   0.880   5.852   0.319
 9700SOL     OW29998   6.632   5.719   3.687
 9700SOL    HW129999   6.612   5.688   3.594
 9700SOL    HW230000   6.582   5.804   3.705
 9701SOL     OW30001   4.147   3.420   6.253
 9701SOL    HW130002   4.049   3.418   6.272
 9701SOL    HW230003   4.174   3.512   6.225
 9702SOL     OW30004   3.822   2.600   0.591
 9702SOL    HW130005   3.748   2.654   0.631
 9702SOL    HW230006   3.815   2.601   0.492
 9703SOL     OW30007   5.523   3.888   4.453
 9703SOL    HW130008   5.489   3.921   4.541
 9703SOL    HW230009   5.517   3.788   4.451
 9704SOL     OW30010   3.438   4.882   2.386
 9704SOL    HW130011   3.437   4.876   2.486
 9704SOL    HW230012   3.533   4.891   2.355
 9705SOL     OW30013   6.126   3.902   5.871
 9705SOL    HW130014   6.158   3.995   5.887
 9705SOL    HW230015   6.193   3.837   5.906
 9706SOL     OW30016   2.160   2.084   1.353
 9706SOL    HW130017   2.245   2.040   1.384
 9706SOL    HW230018   2.178   2.136   1.270
 9707SOL     OW30019   5.709   5.100   2.258
 9707SOL    HW130020   5.726   5.003   2.274
 9707SOL    HW230021   5.747   5.153   2.334
 9708SOL     OW30022   1.557   1.596   2.009
 9708SOL    HW130023   1.603   1.677   1.972
 9708SOL    HW230024   1.500   1.555   1.938
 9709SOL     OW30025   4.864   4.443   1.707
 9709SOL    HW130026   4.799   4.505   1.662
 9709SOL    HW230027   4.950   4.443   1.657
 9710SOL     OW30028   6.598   0.605   0.113
 9710SOL    HW130029   6.676   0.550   0.142
 9710SOL    HW230030   6.576   0.672   0.184
 9711SOL     OW30031   3.713   5.962   5.992
 9711SOL    HW130032   3.646   5.897   5.956
 9711SOL    HW230033   3.805   5.935   5.962
 9712SOL     OW30034   6.245   3.281   0.251
 9712SOL    HW130035   6.304   3.326   0.184
 9712SOL    HW230036   6.273   3.185   0.261
 9713SOL     OW30037   2.457   5.840   3.470
 9713SOL    HW130038   2.454   5.855   3.569
 9713SOL    HW230039   2.370   5.871   3.429
 9714SOL     OW30040   4.207   6.040   5.640
 9714SOL    HW130041   4.179   6.077   5.551
 9714SOL    HW230042   4.253   5.952   5.626
 9715SOL     OW30043   6.145   5.047   6.944
 9715SOL    HW130044   6.074   5.095   6.995
 9715SOL    HW230045   6.235   5.070   6.982
 9716SOL     OW30046   3.767   4.014   6.903
 9716SOL    HW130047   3.690   3.969   6.858
 9716SOL    HW230048   3.848   3.958   6.895
 9717SOL     OW30049   4.555   6.391   0.248
 9717SOL    HW130050   4.530   6.301   0.283
 9717SOL    HW230051   4.534   6.397   0.150
 9718SOL     OW30052   3.969   2.731   0.325
 9718SOL    HW130053   4.053   2.720   0.272
 9718SOL    HW230054   3.891   2.745   0.264
 9719SOL     OW30055   5.232   6.887   5.495
 9719SOL    HW130056   5.162   6.954   5.520
 9719SOL    HW230057   5.318   6.912   5.539
 9720SOL     OW30058   0.645   3.504   2.638
 9720SOL    HW130059   0.670   3.410   2.615
 9720SOL    HW230060   0.546   3.515   2.629
 9721SOL     OW30061   0.565   1.827   6.956
 9721SOL    HW130062   0.533   1.921   6.969
 9721SOL    HW230063   0.645   1.827   6.896
 9722SOL     OW30064   3.418   1.687   5.014
 9722SOL    HW130065   3.433   1.691   5.112
 9722SOL    HW230066   3.477   1.617   4.973
 9723SOL     OW30067   5.500   5.295   4.092
 9723SOL    HW130068   5.530   5.387   4.118
 9723SOL    HW230069   5.552   5.263   4.013
 9724SOL     OW30070   2.284   4.836   6.867
 9724SOL    HW130071   2.368   4.810   6.820
 9724SOL    HW230072   2.226   4.889   6.806
 9725SOL     OW30073   4.680   6.103   5.559
 9725SOL    HW130074   4.641   6.012   5.555
 9725SOL    HW230075   4.634   6.162   5.493
 9726SOL     OW30076   4.792   1.249   4.279
 9726SOL    HW130077   4.872   1.229   4.334
 9726SOL    HW230078   4.814   1.319   4.211
 9727SOL     OW30079   0.465   2.487   0.466
 9727SOL    HW130080   0.394   2.554   0.445
 9727SOL    HW230081   0.438   2.433   0.545
 9728SOL     OW30082   0.123   2.022   5.906
 9728SOL    HW130083   0.174   2.081   5.968
 9728SOL    HW230084   0.094   1.939   5.954
 9729SOL     OW30085   1.585   3.638   4.247
 9729SOL    HW130086   1.587   3.684   4.158
 9729SOL    HW230087   1.579   3.706   4.320
 9730SOL     OW30088   1.053   4.604   2.887
 9730SOL    HW130089   1.082   4.541   2.815
 9730SOL    HW230090   1.046   4.554   2.974
 9731SOL     OW30091   4.775   5.442   1.765
 9731SOL    HW130092   4.792   5.361   1.709
 9731SOL    HW230093   4.780   5.523   1.707
 9732SOL     OW30094   6.837   3.044   1.997
 9732SOL    HW130095   6.900   3.022   1.923
 9732SOL    HW230096   6.885   3.041   2.084
 9733SOL     OW30097   5.639   5.618   1.121
 9733SOL    HW130098   5.582   5.679   1.176
 9733SOL    HW230099   5.687   5.672   1.052
 9734SOL     OW30100   6.468   0.454   0.513
 9734SOL    HW130101   6.424   0.377   0.558
 9734SOL    HW230102   6.515   0.422   0.430
 9735SOL     OW30103   1.627   2.809   3.576
 9735SOL    HW130104   1.630   2.898   3.623
 9735SOL    HW230105   1.535   2.770   3.587
 9736SOL     OW30106   4.878   1.795   5.961
 9736SOL    HW130107   4.857   1.860   6.033
 9736SOL    HW230108   4.915   1.843   5.882
 9737SOL     OW30109   5.762   2.098   3.442
 9737SOL    HW130110   5.835   2.057   3.388
 9737SOL    HW230111   5.780   2.196   3.452
 9738SOL     OW30112   1.594   6.710   0.429
 9738SOL    HW130113   1.592   6.677   0.524
 9738SOL    HW230114   1.503   6.741   0.402
 9739SOL     OW30115   4.917   6.312   0.189
 9739SOL    HW130116   4.914   6.341   0.093
 9739SOL    HW230117   4.825   6.311   0.227
 9740SOL     OW30118   5.638   1.364   2.865
 9740SOL    HW130119   5.625   1.355   2.766
 9740SOL    HW230120   5.622   1.276   2.909
 9741SOL     OW30121   2.362   0.604   3.875
 9741SOL    HW130122   2.364   0.646   3.784
 9741SOL    HW230123   2.453   0.609   3.916
 9742SOL     OW30124   4.079   0.800   0.488
 9742SOL    HW130125   4.052   0.769   0.579
 9742SOL    HW230126   3.999   0.831   0.438
 9743SOL     OW30127   6.873   4.296   3.327
 9743SOL    HW130128   6.778   4.308   3.298
 9743SOL    HW230129   6.933   4.349   3.267
 9744SOL     OW30130   2.625   6.721   3.305
 9744SOL    HW130131   2.575   6.795   3.258
 9744SOL    HW230132   2.596   6.717   3.400
 9745SOL     OW30133   5.327   2.713   6.208
 9745SOL    HW130134   5.249   2.746   6.156
 9745SOL    HW230135   5.338   2.768   6.291
 9746SOL     OW30136   5.542   6.549   6.227
 9746SOL    HW130137   5.591   6.636   6.213
 9746SOL    HW230138   5.494   6.524   6.142
 9747SOL     OW30139   2.866   2.119   1.630
 9747SOL    HW130140   2.949   2.130   1.684
 9747SOL    HW230141   2.890   2.091   1.537
 9748SOL     OW30142   0.410   6.769   3.069
 9748SOL    HW130143   0.441   6.812   2.984
 9748SOL    HW230144   0.383   6.674   3.051
 9749SOL     OW30145   0.886   1.065   2.801
 9749SOL    HW130146   0.961   1.122   2.767
 9749SOL    HW230147   0.843   1.017   2.725
 9750SOL     OW30148   6.279   5.453   3.940
 9750SOL    HW130149   6.284   5.363   3.984
 9750SOL    HW230150   6.355   5.462   3.875
 9751SOL     OW30151   1.587   0.294   0.761
 9751SOL    HW130152   1.596   0.236   0.841
 9751SOL    HW230153   1.526   0.370   0.781
 9752SOL     OW30154   3.609   2.074   6.325
 9752SOL    HW130155   3.675   2.011   6.364
 9752SOL    HW230156   3.656   2.140   6.266
 9753SOL     OW30157   1.316   6.058   6.396
 9753SOL    HW130158   1.339   6.155   6.387
 9753SOL    HW230159   1.395   6.002   6.370
 9754SOL     OW30160   2.847   6.728   0.644
 9754SOL    HW130161   2.860   6.650   0.583
 9754SOL    HW230162   2.913   6.800   0.620
 9755SOL     OW30163   3.551   3.808   4.914
 9755SOL    HW130164   3.511   3.758   4.837
 9755SOL    HW230165   3.617   3.750   4.961
 9756SOL     OW30166   5.912   1.836   6.060
 9756SOL    HW130167   5.868   1.921   6.033
 9756SOL    HW230168   5.992   1.821   6.002
 9757SOL     OW30169   5.866   4.356   4.500
 9757SOL    HW130170   5.800   4.302   4.449
 9757SOL    HW230171   5.957   4.346   4.460
 9758SOL     OW30172   1.863   1.200   0.124
 9758SOL    HW130173   1.908   1.118   0.088
 9758SOL    HW230174   1.925   1.246   0.189
 9759SOL     OW30175   1.175   1.811   0.561
 9759SOL    HW130176   1.150   1.745   0.633
 9759SOL    HW230177   1.092   1.847   0.519
 9760SOL     OW30178   5.122   3.391   6.680
 9760SOL    HW130179   5.054   3.330   6.639
 9760SOL    HW230180   5.152   3.457   6.612
 9761SOL     OW30181   1.251   2.436   2.351
 9761SOL    HW130182   1.227   2.454   2.256
 9761SOL    HW230183   1.196   2.495   2.411
 9762SOL     OW30184   3.349   1.654   4.532
 9762SOL    HW130185   3.255   1.658   4.500
 9762SOL    HW230186   3.403   1.726   4.488
 9763SOL     OW30187   5.714   0.907   3.110
 9763SOL    HW130188   5.768   0.890   3.192
 9763SOL    HW230189   5.690   1.004   3.105
 9764SOL     OW30190   6.623   2.285   2.333
 9764SOL    HW130191   6.533   2.280   2.376
 9764SOL    HW230192   6.648   2.195   2.297
 9765SOL     OW30193   6.665   0.089   3.197
 9765SOL    HW130194   6.659   7.013   3.210
 9765SOL    HW230195   6.757   0.113   3.167
 9766SOL     OW30196   2.310   7.022   2.752
 9766SOL    HW130197   2.356   7.021   2.663
 9766SOL    HW230198   2.353   6.955   2.812
 9767SOL     OW30199   2.424   2.815   5.328
 9767SOL    HW130200   2.425   2.857   5.418
 9767SOL    HW230201   2.433   2.886   5.258
 9768SOL     OW30202   4.268   1.505   1.331
 9768SOL    HW130203   4.189   1.556   1.295
 9768SOL    HW230204   4.350   1.531   1.281
 9769SOL     OW30205   3.673   0.960   4.654
 9769SOL    HW130206   3.676   1.046   4.704
 9769SOL    HW230207   3.734   0.894   4.698
 9770SOL     OW30208   4.292   1.623   5.346
 9770SOL    HW130209   4.199   1.658   5.336
 9770SOL    HW230210   4.350   1.663   5.276
 9771SOL     OW30211   2.096   6.094   0.931
 9771SOL    HW130212   2.147   6.059   0.852
 9771SOL    HW230213   2.062   6.186   0.910
 9772SOL     OW30214   2.230   6.020   1.555
 9772SOL    HW130215   2.201   6.000   1.648
 9772SOL    HW230216   2.294   6.097   1.555
 9773SOL     OW30217   5.504   5.589   3.356
 9773SOL    HW130218   5.561   5.507   3.350
 9773SOL    HW230219   5.551   5.666   3.314
 9774SOL     OW30220   0.611   4.873   3.048
 9774SOL    HW130221   0.661   4.957   3.025
 9774SOL    HW230222   0.592   4.871   3.146
 9775SOL     OW30223   2.688   6.895   3.690
 9775SOL    HW130224   2.660   6.850   3.775
 9775SOL    HW230225   2.609   6.900   3.628
 9776SOL     OW30226   1.383   4.427   5.911
 9776SOL    HW130227   1.364   4.491   5.985
 9776SOL    HW230228   1.431   4.475   5.837
 9777SOL     OW30229   5.609   5.911   0.701
 9777SOL    HW130230   5.521   5.927   0.745
 9777SOL    HW230231   5.638   5.816   0.717
 9778SOL     OW30232   0.338   1.768   4.633
 9778SOL    HW130233   0.339   1.747   4.535
 9778SOL    HW230234   0.417   1.725   4.677
 9779SOL     OW30235   0.062   2.433   3.407
 9779SOL    HW130236   6.990   2.404   3.392
 9779SOL    HW230237   0.123   2.355   3.396
 9780SOL     OW30238   1.949   1.859   1.108
 9780SOL    HW130239   1.896   1.781   1.073
 9780SOL    HW230240   2.044   1.850   1.080
 9781SOL     OW30241   2.134   3.084   4.597
 9781SOL    HW130242   2.074   3.065   4.675
 9781SOL    HW230243   2.110   3.173   4.559
 9782SOL     OW30244   0.753   1.760   0.152
 9782SOL    HW130245   0.767   1.663   0.169
 9782SOL    HW230246   0.679   1.772   0.086
 9783SOL     OW30247   4.352   2.209   3.853
 9783SOL    HW130248   4.421   2.139   3.874
 9783SOL    HW230249   4.270   2.164   3.816
 9784SOL     OW30250   3.750   0.922   6.047
 9784SOL    HW130251   3.710   1.011   6.024
 9784SOL    HW230252   3.683   0.850   6.030
 9785SOL     OW30253   6.123   2.647   5.298
 9785SOL    HW130254   6.063   2.720   5.331
 9785SOL    HW230255   6.107   2.564   5.351
 9786SOL     OW30256   2.551   3.624   0.410
 9786SOL    HW130257   2.575   3.703   0.354
 9786SOL    HW230258   2.460   3.637   0.448
 9787SOL     OW30259   2.901   3.467   3.088
 9787SOL    HW130260   3.000   3.453   3.079
 9787SOL    HW230261   2.878   3.472   3.185
 9788SOL     OW30262   0.482   0.019   1.929
 9788SOL    HW130263   0.435   0.089   1.875
 9788SOL    HW230264   0.484   0.046   2.025
 9789SOL     OW30265   1.996   6.366   0.095
 9789SOL    HW130266   2.025   6.345   0.002
 9789SOL    HW230267   2.051   6.442   0.131
 9790SOL     OW30268   6.372   4.618   6.079
 9790SOL    HW130269   6.438   4.659   6.015
 9790SOL    HW230270   6.305   4.564   6.028
 9791SOL     OW30271   0.497   0.454   0.025
 9791SOL    HW130272   0.583   0.459   0.075
 9791SOL    HW230273   0.421   0.477   0.087
 9792SOL     OW30274   3.328   5.185   0.687
 9792SOL    HW130275   3.399   5.119   0.661
 9792SOL    HW230276   3.249   5.136   0.724
 9793SOL     OW30277   4.237   6.956   2.646
 9793SOL    HW130278   4.249   6.879   2.708
 9793SOL    HW230279   4.298   0.007   2.672
 9794SOL     OW30280   6.127   4.319   5.540
 9794SOL    HW130281   6.052   4.363   5.591
 9794SOL    HW230282   6.136   4.362   5.450
 9795SOL     OW30283   1.127   2.897   4.152
 9795SOL    HW130284   1.169   2.985   4.172
 9795SOL    HW230285   1.148   2.832   4.225
 9796SOL     OW30286   3.862   3.889   3.150
 9796SOL    HW130287   3.864   3.965   3.085
 9796SOL    HW230288   3.916   3.813   3.113
 9797SOL     OW30289   2.102   5.601   6.790
 9797SOL    HW130290   2.119   5.519   6.844
 9797SOL    HW230291   2.003   5.613   6.777
 9798SOL     OW30292   2.446   0.967   2.370
 9798SOL    HW130293   2.448   1.047   2.309
 9798SOL    HW230294   2.497   0.892   2.329
 9799SOL     OW30295   3.169   3.751   5.897
 9799SOL    HW130296   3.222   3.716   5.819
 9799SOL    HW230297   3.185   3.849   5.906
 9800SOL     OW30298   5.554   4.719   4.128
 9800SOL    HW130299   5.497   4.730   4.210
 9800SOL    HW230300   5.650   4.716   4.156
 9801SOL     OW30301   5.123   4.678   0.341
 9801SOL    HW130302   5.089   4.585   0.323
 9801SOL    HW230303   5.136   4.691   0.439
 9802SOL     OW30304   4.775   5.123   0.418
 9802SOL    HW130305   4.855   5.175   0.449
 9802SOL    HW230306   4.782   5.106   0.320
 9803SOL     OW30307   2.172   3.635   6.100
 9803SOL    HW130308   2.156   3.711   6.163
 9803SOL    HW230309   2.209   3.557   6.151
 9804SOL     OW30310   0.251   6.086   3.183
 9804SOL    HW130311   0.195   6.146   3.127
 9804SOL    HW230312   0.269   6.000   3.134
 9805SOL     OW30313   0.556   6.723   3.313
 9805SOL    HW130314   0.518   6.759   3.228
 9805SOL    HW230315   0.482   6.707   3.379
 9806SOL     OW30316   1.678   1.266   6.919
 9806SOL    HW130317   1.709   1.327   6.847
 9806SOL    HW230318   1.754   1.207   6.948
 9807SOL     OW30319   3.075   3.603   1.627
 9807SOL    HW130320   3.174   3.615   1.622
 9807SOL    HW230321   3.042   3.558   1.544
 9808SOL     OW30322   3.439   5.768   4.187
 9808SOL    HW130323   3.479   5.859   4.185
 9808SOL    HW230324   3.491   5.707   4.127
 9809SOL     OW30325   0.742   3.515   0.552
 9809SOL    HW130326   0.669   3.505   0.619
 9809SOL    HW230327   0.740   3.608   0.515
 9810SOL     OW30328   3.323   2.132   4.874
 9810SOL    HW130329   3.315   2.041   4.916
 9810SOL    HW230330   3.248   2.189   4.906
 9811SOL     OW30331   5.907   4.938   3.505
 9811SOL    HW130332   5.985   4.880   3.481
 9811SOL    HW230333   5.829   4.879   3.530
 9812SOL     OW30334   3.200   1.505   5.024
 9812SOL    HW130335   3.247   1.565   4.960
 9812SOL    HW230336   3.165   1.558   5.101
 9813SOL     OW30337   5.193   2.056   1.048
 9813SOL    HW130338   5.114   2.117   1.042
 9813SOL    HW230339   5.211   2.034   1.144
 9814SOL     OW30340   6.068   1.405   0.008
 9814SOL    HW130341   6.050   1.400   0.106
 9814SOL    HW230342   6.054   1.314   6.990
 9815SOL     OW30343   4.610   2.630   4.240
 9815SOL    HW130344   4.531   2.587   4.198
 9815SOL    HW230345   4.679   2.651   4.170
 9816SOL     OW30346   0.681   1.050   6.600
 9816SOL    HW130347   0.758   1.030   6.539
 9816SOL    HW230348   0.598   1.066   6.546
 9817SOL     OW30349   1.207   0.320   3.783
 9817SOL    HW130350   1.158   0.250   3.835
 9817SOL    HW230351   1.141   0.379   3.736
 9818SOL     OW30352   6.572   2.409   4.608
 9818SOL    HW130353   6.624   2.328   4.580
 9818SOL    HW230354   6.635   2.482   4.633
 9819SOL     OW30355   4.923   3.032   3.637
 9819SOL    HW130356   4.921   3.069   3.729
 9819SOL    HW230357   4.857   2.957   3.630
 9820SOL     OW30358   4.011   3.176   6.946
 9820SOL    HW130359   3.998   3.147   6.851
 9820SOL    HW230360   4.060   3.263   6.948
 9821SOL     OW30361   5.861   1.331   6.709
 9821SOL    HW130362   5.775   1.372   6.737
 9821SOL    HW230363   5.906   1.290   6.789
 9822SOL     OW30364   1.587   6.691   3.494
 9822SOL    HW130365   1.514   6.758   3.503
 9822SOL    HW230366   1.666   6.733   3.449
 9823SOL     OW30367   3.597   7.017   0.916
 9823SOL    HW130368   3.520   6.961   0.945
 9823SOL    HW230369   3.653   0.019   0.995
 9824SOL     OW30370   1.668   4.582   5.460
 9824SOL    HW130371   1.725   4.654   5.422
 9824SOL    HW230372   1.715   4.494   5.452
 9825SOL     OW30373   3.633   5.270   5.849
 9825SOL    HW130374   3.605   5.240   5.940
 9825SOL    HW230375   3.656   5.190   5.793
 9826SOL     OW30376   5.184   5.078   6.216
 9826SOL    HW130377   5.170   5.004   6.281
 9826SOL    HW230378   5.178   5.166   6.264
 9827SOL     OW30379   2.107   3.293   3.946
 9827SOL    HW130380   2.123   3.378   3.896
 9827SOL    HW230381   2.068   3.224   3.883
 9828SOL     OW30382   2.658   3.090   6.319
 9828SOL    HW130383   2.620   3.175   6.281
 9828SOL    HW230384   2.713   3.112   6.400
 9829SOL     OW30385   2.911   6.301   0.394
 9829SOL    HW130386   2.994   6.297   0.339
 9829SOL    HW230387   2.834   6.265   0.341
 9830SOL     OW30388   5.279   2.390   1.777
 9830SOL    HW130389   5.199   2.389   1.718
 9830SOL    HW230390   5.307   2.296   1.797
 9831SOL     OW30391   1.705   6.043   1.069
 9831SOL    HW130392   1.697   6.005   1.161
 9831SOL    HW230393   1.795   6.023   1.031
 9832SOL     OW30394   5.045   5.647   2.492
 9832SOL    HW130395   5.055   5.595   2.577
 9832SOL    HW230396   4.951   5.640   2.459
 9833SOL     OW30397   3.677   2.855   4.800
 9833SOL    HW130398   3.710   2.898   4.885
 9833SOL    HW230399   3.697   2.757   4.803
 9834SOL     OW30400   3.172   4.424   5.615
 9834SOL    HW130401   3.113   4.479   5.674
 9834SOL    HW230402   3.128   4.414   5.525
 9835SOL     OW30403   3.371   2.476   6.206
 9835SOL    HW130404   3.362   2.390   6.155
 9835SOL    HW230405   3.460   2.478   6.253
 9836SOL     OW30406   6.014   4.612   3.564
 9836SOL    HW130407   6.112   4.632   3.557
 9836SOL    HW230408   5.994   4.573   3.654
 9837SOL     OW30409   3.214   6.911   2.740
 9837SOL    HW130410   3.311   6.928   2.719
 9837SOL    HW230411   3.199   6.923   2.838
 9838SOL     OW30412   0.269   6.860   5.975
 9838SOL    HW130413   0.295   6.953   5.949
 9838SOL    HW230414   0.253   6.806   5.893
 9839SOL     OW30415   5.606   1.167   3.047
 9839SOL    HW130416   5.597   1.229   3.125
 9839SOL    HW230417   5.519   1.121   3.031
 9840SOL     OW30418   0.727   1.352   1.322
 9840SOL    HW130419   0.714   1.376   1.418
 9840SOL    HW230420   0.745   1.254   1.315
 9841SOL     OW30421   1.489   3.952   5.015
 9841SOL    HW130422   1.532   3.908   4.935
 9841SOL    HW230423   1.452   3.882   5.075
 9842SOL     OW30424   4.059   3.706   3.085
 9842SOL    HW130425   4.062   3.696   3.184
 9842SOL    HW230426   4.113   3.785   3.057
 9843SOL     OW30427   6.022   1.182   1.153
 9843SOL    HW130428   5.934   1.227   1.134
 9843SOL    HW230429   6.016   1.136   1.242
 9844SOL     OW30430   5.825   0.689   2.699
 9844SOL    HW130431   5.799   0.745   2.778
 9844SOL    HW230432   5.866   0.748   2.629
 9845SOL     OW30433   3.099   1.119   3.509
 9845SOL    HW130434   3.002   1.103   3.526
 9845SOL    HW230435   3.116   1.118   3.410
 9846SOL     OW30436   4.005   3.554   1.571
 9846SOL    HW130437   4.089   3.597   1.538
 9846SOL    HW230438   3.963   3.502   1.496
 9847SOL     OW30439   3.200   3.000   4.866
 9847SOL    HW130440   3.125   2.952   4.819
 9847SOL    HW230441   3.286   2.954   4.845
 9848SOL     OW30442   3.190   2.663   6.139
 9848SOL    HW130443   3.262   2.595   6.153
 9848SOL    HW230444   3.227   2.742   6.091
 9849SOL     OW30445   6.626   0.319   0.319
 9849SOL    HW130446   6.705   0.380   0.308
 9849SOL    HW230447   6.652   0.226   0.294
 9850SOL     OW30448   6.157   6.273   3.185
 9850SOL    HW130449   6.154   6.266   3.285
 9850SOL    HW230450   6.088   6.212   3.145
 9851SOL     OW30451   4.577   1.866   5.955
 9851SOL    HW130452   4.671   1.870   5.989
 9851SOL    HW230453   4.569   1.920   5.871
 9852SOL     OW30454   4.445   1.945   2.383
 9852SOL    HW130455   4.432   2.043   2.367
 9852SOL    HW230456   4.360   1.896   2.366
 9853SOL     OW30457   4.762   4.435   3.842
 9853SOL    HW130458   4.696   4.460   3.912
 9853SOL    HW230459   4.853   4.427   3.883
 9854SOL     OW30460   0.632   5.422   4.582
 9854SOL    HW130461   0.590   5.380   4.502
 9854SOL    HW230462   0.713   5.369   4.609
 9855SOL     OW30463   2.339   3.859   1.255
 9855SOL    HW130464   2.413   3.792   1.258
 9855SOL    HW230465   2.298   3.859   1.164
 9856SOL     OW30466   4.974   4.180   6.016
 9856SOL    HW130467   5.007   4.153   6.107
 9856SOL    HW230468   5.036   4.248   5.977
 9857SOL     OW30469   4.604   2.170   4.718
 9857SOL    HW130470   4.514   2.182   4.761
 9857SOL    HW230471   4.592   2.143   4.623
 9858SOL     OW30472   0.652   0.668   1.382
 9858SOL    HW130473   0.605   0.634   1.301
 9858SOL    HW230474   0.740   0.621   1.391
 9859SOL     OW30475   5.947   6.499   1.932
 9859SOL    HW130476   5.936   6.598   1.925
 9859SOL    HW230477   5.907   6.455   1.852
 9860SOL     OW30478   0.018   1.343   3.213
 9860SOL    HW130479   0.043   1.246   3.207
 9860SOL    HW230480   0.051   1.390   3.131
 9861SOL     OW30481   3.491   6.987   2.906
 9861SOL    HW130482   3.545   6.911   2.944
 9861SOL    HW230483   3.472   0.030   2.978
 9862SOL     OW30484   3.133   4.360   0.584
 9862SOL    HW130485   3.222   4.371   0.628
 9862SOL    HW230486   3.078   4.441   0.600
 9863SOL     OW30487   3.622   0.398   3.707
 9863SOL    HW130488   3.707   0.414   3.656
 9863SOL    HW230489   3.643   0.394   3.805
 9864SOL     OW30490   3.640   6.065   3.955
 9864SOL    HW130491   3.691   5.979   3.948
 9864SOL    HW230492   3.582   6.076   3.874
 9865SOL     OW30493   1.880   0.798   4.353
 9865SOL    HW130494   1.783   0.822   4.366
 9865SOL    HW230495   1.886   0.713   4.302
 9866SOL     OW30496   5.549   5.018   5.734
 9866SOL    HW130497   5.599   5.024   5.821
 9866SOL    HW230498   5.601   4.963   5.669
 9867SOL     OW30499   5.665   0.825   1.051
 9867SOL    HW130500   5.678   0.727   1.065
 9867SOL    HW230501   5.575   0.841   1.011
 9868SOL     OW30502   1.100   4.101   5.370
 9868SOL    HW130503   1.134   4.176   5.314
 9868SOL    HW230504   1.033   4.137   5.436
 9869SOL     OW30505   1.620   3.300   2.447
 9869SOL    HW130506   1.583   3.360   2.377
 9869SOL    HW230507   1.718   3.285   2.431
 9870SOL     OW30508   4.098   5.540   2.413
 9870SOL    HW130509   4.120   5.581   2.501
 9870SOL    HW230510   4.010   5.574   2.382
 9871SOL     OW30511   0.428   6.083   6.391
 9871SOL    HW130512   0.410   6.103   6.294
 9871SOL    HW230513   0.438   6.169   6.441
 9872SOL     OW30514   2.432   4.653   4.278
 9872SOL    HW130515   2.481   4.604   4.206
 9872SOL    HW230516   2.497   4.679   4.350
 9873SOL     OW30517   2.987   2.268   1.039
 9873SOL    HW130518   3.036   2.199   1.092
 9873SOL    HW230519   2.901   2.290   1.084
 9874SOL     OW30520   1.203   3.164   4.193
 9874SOL    HW130521   1.208   3.207   4.283
 9874SOL    HW230522   1.134   3.211   4.138
 9875SOL     OW30523   6.840   6.644   2.054
 9875SOL    HW130524   6.936   6.622   2.037
 9875SOL    HW230525   6.789   6.639   1.968
 9876SOL     OW30526   6.459   1.116   2.913
 9876SOL    HW130527   6.389   1.118   2.984
 9876SOL    HW230528   6.534   1.176   2.939
 9877SOL     OW30529   0.406   6.401   3.391
 9877SOL    HW130530   0.480   6.354   3.342
 9877SOL    HW230531   0.405   6.497   3.364
 9878SOL     OW30532   2.709   5.054   4.855
 9878SOL    HW130533   2.669   5.043   4.946
 9878SOL    HW230534   2.723   4.964   4.814
 9879SOL     OW30535   5.301   5.713   4.250
 9879SOL    HW130536   5.323   5.793   4.305
 9879SOL    HW230537   5.263   5.641   4.309
 9880SOL     OW30538   2.975   1.087   5.554
 9880SOL    HW130539   2.969   1.175   5.602
 9880SOL    HW230540   3.047   1.092   5.486
 9881SOL     OW30541   0.849   1.190   5.056
 9881SOL    HW130542   0.846   1.096   5.024
 9881SOL    HW230543   0.892   1.192   5.146
 9882SOL     OW30544   0.850   2.923   3.649
 9882SOL    HW130545   0.786   2.906   3.723
 9882SOL    HW230546   0.925   2.981   3.681
 9883SOL     OW30547   1.370   5.811   0.378
 9883SOL    HW130548   1.373   5.848   0.470
 9883SOL    HW230549   1.300   5.859   0.325
 9884SOL     OW30550   4.832   1.905   2.417
 9884SOL    HW130551   4.920   1.918   2.373
 9884SOL    HW230552   4.769   1.978   2.389
 9885SOL     OW30553   0.103   2.385   5.159
 9885SOL    HW130554   0.070   2.291   5.163
 9885SOL    HW230555   0.126   2.408   5.064
 9886SOL     OW30556   1.190   4.157   2.381
 9886SOL    HW130557   1.265   4.101   2.347
 9886SOL    HW230558   1.225   4.243   2.418
 9887SOL     OW30559   3.704   0.480   5.485
 9887SOL    HW130560   3.778   0.423   5.450
 9887SOL    HW230561   3.703   0.567   5.435
 9888SOL     OW30562   6.183   4.606   2.617
 9888SOL    HW130563   6.210   4.512   2.596
 9888SOL    HW230564   6.153   4.612   2.712
 9889SOL     OW30565   6.986   5.011   1.644
 9889SOL    HW130566   7.001   4.935   1.707
 9889SOL    HW230567   7.021   5.095   1.685
 9890SOL     OW30568   1.616   2.003   0.528
 9890SOL    HW130569   1.546   1.946   0.570
 9890SOL    HW230570   1.622   2.090   0.577
 9891SOL     OW30571   5.043   3.511   2.087
 9891SOL    HW130572   5.022   3.517   1.989
 9891SOL    HW230573   5.122   3.451   2.101
 9892SOL     OW30574   0.289   4.891   1.007
 9892SOL    HW130575   0.232   4.810   1.008
 9892SOL    HW230576   0.371   4.876   1.062
 9893SOL     OW30577   1.165   0.559   1.024
 9893SOL    HW130578   1.181   0.464   0.997
 9893SOL    HW230579   1.210   0.619   0.958
 9894SOL     OW30580   2.715   2.318   1.140
 9894SOL    HW130581   2.625   2.279   1.124
 9894SOL    HW230582   2.709   2.388   1.211
 9895SOL     OW30583   5.943   4.821   4.631
 9895SOL    HW130584   5.957   4.816   4.532
 9895SOL    HW230585   5.880   4.749   4.659
 9896SOL     OW30586   6.858   0.845   6.441
 9896SOL    HW130587   6.901   0.793   6.515
 9896SOL    HW230588   6.810   0.924   6.479
 9897SOL     OW30589   5.683   6.095   2.830
 9897SOL    HW130590   5.702   6.150   2.748
 9897SOL    HW230591   5.675   6.156   2.909
 9898SOL     OW30592   1.767   6.190   4.227
 9898SOL    HW130593   1.676   6.179   4.187
 9898SOL    HW230594   1.781   6.119   4.296
 9899SOL     OW30595   0.635   5.955   0.770
 9899SOL    HW130596   0.667   5.862   0.791
 9899SOL    HW230597   0.707   6.020   0.791
 9900SOL     OW30598   1.915   3.243   3.280
 9900SOL    HW130599   1.893   3.160   3.229
 9900SOL    HW230600   1.990   3.292   3.235
 9901SOL     OW30601   2.718   0.923   0.090
 9901SOL    HW130602   2.676   0.931   7.022
 9901SOL    HW230603   2.768   0.836   0.096
 9902SOL     OW30604   3.213   4.709   0.587
 9902SOL    HW130605   3.254   4.717   0.496
 9902SOL    HW230606   3.193   4.800   0.622
 9903SOL     OW30607   5.644   2.188   2.158
 9903SOL    HW130608   5.565   2.248   2.162
 9903SOL    HW230609   5.652   2.136   2.244
 9904SOL     OW30610   1.064   3.800   6.628
 9904SOL    HW130611   1.078   3.736   6.553
 9904SOL    HW230612   1.150   3.847   6.648
 9905SOL     OW30613   1.960   0.332   6.145
 9905SOL    HW130614   1.882   0.312   6.086
 9905SOL    HW230615   2.043   0.336   6.089
 9906SOL     OW30616   2.315   3.462   1.582
 9906SOL    HW130617   2.325   3.446   1.681
 9906SOL    HW230618   2.348   3.382   1.532
 9907SOL     OW30619   0.103   0.287   1.319
 9907SOL    HW130620   0.127   0.283   1.222
 9907SOL    HW230621   0.024   0.347   1.331
 9908SOL     OW30622   5.894   1.863   4.677
 9908SOL    HW130623   5.908   1.816   4.590
 9908SOL    HW230624   5.950   1.947   4.678
 9909SOL     OW30625   4.420   0.904   2.870
 9909SOL    HW130626   4.391   0.972   2.803
 9909SOL    HW230627   4.341   0.850   2.899
 9910SOL     OW30628   1.577   4.694   2.252
 9910SOL    HW130629   1.493   4.747   2.241
 9910SOL    HW230630   1.655   4.748   2.220
 9911SOL     OW30631   2.516   5.866   1.912
 9911SOL    HW130632   2.604   5.835   1.875
 9911SOL    HW230633   2.447   5.796   1.896
 9912SOL     OW30634   3.822   0.626   1.701
 9912SOL    HW130635   3.793   0.700   1.761
 9912SOL    HW230636   3.769   0.544   1.722
 9913SOL     OW30637   5.961   3.684   1.171
 9913SOL    HW130638   6.031   3.755   1.173
 9913SOL    HW230639   5.946   3.649   1.263
 9914SOL     OW30640   5.638   1.460   5.009
 9914SOL    HW130641   5.686   1.423   5.089
 9914SOL    HW230642   5.704   1.479   4.936
 9915SOL     OW30643   5.644   0.503   3.655
 9915SOL    HW130644   5.740   0.485   3.634
 9915SOL    HW230645   5.589   0.424   3.631
 9916SOL     OW30646   2.206   1.982   2.696
 9916SOL    HW130647   2.168   1.998   2.605
 9916SOL    HW230648   2.302   1.956   2.688
 9917SOL     OW30649   5.227   4.450   6.826
 9917SOL    HW130650   5.170   4.431   6.746
 9917SOL    HW230651   5.220   4.547   6.849
 9918SOL     OW30652   3.301   1.810   2.975
 9918SOL    HW130653   3.233   1.766   3.032
 9918SOL    HW230654   3.368   1.857   3.032
 9919SOL     OW30655   1.128   5.093   1.239
 9919SOL    HW130656   1.119   5.087   1.140
 9919SOL    HW230657   1.067   5.164   1.274
 9920SOL     OW30658   5.264   1.230   2.305
 9920SOL    HW130659   5.289   1.264   2.396
 9920SOL    HW230660   5.202   1.152   2.315
 9921SOL     OW30661   4.236   6.895   5.091
 9921SOL    HW130662   4.223   6.885   5.190
 9921SOL    HW230663   4.184   6.824   5.043
 9922SOL     OW30664   2.544   4.273   1.086
 9922SOL    HW130665   2.561   4.214   1.007
 9922SOL    HW230666   2.476   4.343   1.061
 9923SOL     OW30667   5.629   4.791   7.016
 9923SOL    HW130668   5.559   4.747   0.050
 9923SOL    HW230669   5.618   4.890   7.020
 9924SOL     OW30670   6.426   1.316   4.052
 9924SOL    HW130671   6.401   1.231   4.006
 9924SOL    HW230672   6.357   1.386   4.031
 9925SOL     OW30673   0.095   3.934   4.183
 9925SOL    HW130674   0.153   3.994   4.129
 9925SOL    HW230675   0.004   3.929   4.141
 9926SOL     OW30676   4.354   2.877   1.506
 9926SOL    HW130677   4.254   2.875   1.501
 9926SOL    HW230678   4.384   2.832   1.591
 9927SOL     OW30679   0.472   6.975   1.029
 9927SOL    HW130680   0.522   0.001   1.101
 9927SOL    HW230681   0.502   7.008   0.940
 9928SOL     OW30682   4.958   4.517   2.944
 9928SOL    HW130683   4.894   4.458   2.896
 9928SOL    HW230684   5.050   4.502   2.909
 9929SOL     OW30685   3.368   4.150   5.257
 9929SOL    HW130686   3.358   4.132   5.160
 9929SOL    HW230687   3.413   4.072   5.302
 9930SOL     OW30688   6.456   6.525   4.696
 9930SOL    HW130689   6.404   6.584   4.758
 9930SOL    HW230690   6.533   6.576   4.658
 9931SOL     OW30691   0.980   5.593   4.246
 9931SOL    HW130692   0.969   5.621   4.341
 9931SOL    HW230693   0.925   5.653   4.187
 9932SOL     OW30694   3.567   2.872   6.751
 9932SOL    HW130695   3.644   2.808   6.754
 9932SOL    HW230696   3.602   2.966   6.753
 9933SOL     OW30697   0.314   5.786   3.405
 9933SOL    HW130698   0.317   5.720   3.329
 9933SOL    HW230699   0.312   5.737   3.492
 9934SOL     OW30700   6.515   2.366   5.662
 9934SOL    HW130701   6.417   2.366   5.647
 9934SOL    HW230702   6.539   2.294   5.727
 9935SOL     OW30703   2.811   6.174   6.878
 9935SOL    HW130704   2.833   6.251   6.818
 9935SOL    HW230705   2.715   6.180   6.905
 9936SOL     OW30706   0.092   4.573   0.031
 9936SOL    HW130707   0.154   4.650   0.045
 9936SOL    HW230708   0.121   4.521   6.974
 9937SOL     OW30709   0.418   1.700   1.440
 9937SOL    HW130710   0.381   1.703   1.347
 9937SOL    HW230711   0.372   1.769   1.497
 9938SOL     OW30712   6.626   5.002   3.497
 9938SOL    HW130713   6.526   5.012   3.496
 9938SOL    HW230714   6.650   4.910   3.525
 9939SOL     OW30715   4.024   1.954   1.430
 9939SOL    HW130716   4.007   1.867   1.384
 9939SOL    HW230717   4.026   2.028   1.363
 9940SOL     OW30718   1.274   0.203   1.202
 9940SOL    HW130719   1.237   0.241   1.117
 9940SOL    HW230720   1.342   0.266   1.240
 9941SOL     OW30721   3.581   3.262   4.777
 9941SOL    HW130722   3.650   3.202   4.818
 9941SOL    HW230723   3.543   3.218   4.695
 9942SOL     OW30724   2.389   5.835   2.596
 9942SOL    HW130725   2.472   5.890   2.594
 9942SOL    HW230726   2.386   5.782   2.681
 9943SOL     OW30727   0.120   4.438   5.711
 9943SOL    HW130728   0.172   4.410   5.630
 9943SOL    HW230729   0.060   4.363   5.739
 9944SOL     OW30730   0.914   4.162   6.793
 9944SOL    HW130731   0.974   4.239   6.815
 9944SOL    HW230732   0.910   4.150   6.694
 9945SOL     OW30733   5.030   5.395   6.871
 9945SOL    HW130734   4.979   5.350   6.798
 9945SOL    HW230735   5.128   5.378   6.859
 9946SOL     OW30736   6.122   0.866   3.371
 9946SOL    HW130737   6.169   0.790   3.416
 9946SOL    HW230738   6.114   0.846   3.273
 9947SOL     OW30739   2.335   2.473   4.729
 9947SOL    HW130740   2.261   2.536   4.753
 9947SOL    HW230741   2.376   2.437   4.812
 9948SOL     OW30742   5.959   3.821   5.679
 9948SOL    HW130743   6.019   3.848   5.755
 9948SOL    HW230744   5.878   3.878   5.680
 9949SOL     OW30745   6.451   5.604   4.444
 9949SOL    HW130746   6.524   5.562   4.390
 9949SOL    HW230747   6.437   5.551   4.527
 9950SOL     OW30748   5.619   6.222   5.904
 9950SOL    HW130749   5.572   6.209   5.991
 9950SOL    HW230750   5.717   6.233   5.920
 9951SOL     OW30751   0.033   1.446   3.761
 9951SOL    HW130752   0.095   1.422   3.687
 9951SOL    HW230753   0.075   1.515   3.819
 9952SOL     OW30754   1.485   4.716   0.677
 9952SOL    HW130755   1.392   4.699   0.710
 9952SOL    HW230756   1.530   4.782   0.737
 9953SOL     OW30757   5.115   2.724   4.353
 9953SOL    HW130758   5.122   2.802   4.415
 9953SOL    HW230759   5.205   2.680   4.345
 9954SOL     OW30760   7.007   0.844   6.198
 9954SOL    HW130761   6.949   0.817   6.275
 9954SOL    HW230762   0.080   0.835   6.225
 9955SOL     OW30763   5.859   3.327   5.496
 9955SOL    HW130764   5.779   3.270   5.475
 9955SOL    HW230765   5.829   3.413   5.537
 9956SOL     OW30766   1.476   6.924   1.604
 9956SOL    HW130767   1.423   6.974   1.535
 9956SOL    HW230768   1.558   6.977   1.628
 9957SOL     OW30769   5.176   5.802   2.247
 9957SOL    HW130770   5.137   5.711   2.233
 9957SOL    HW230771   5.274   5.794   2.268
 9958SOL     OW30772   2.755   5.343   6.886
 9958SOL    HW130773   2.787   5.398   6.808
 9958SOL    HW230774   2.777   5.246   6.869
 9959SOL     OW30775   4.076   3.705   4.708
 9959SOL    HW130776   4.067   3.771   4.783
 9959SOL    HW230777   4.114   3.620   4.743
 9960SOL     OW30778   0.367   0.613   2.294
 9960SOL    HW130779   0.280   0.655   2.316
 9960SOL    HW230780   0.392   0.636   2.200
 9961SOL     OW30781   1.523   4.883   4.426
 9961SOL    HW130782   1.430   4.880   4.463
 9961SOL    HW230783   1.588   4.864   4.500
 9962SOL     OW30784   5.604   5.753   1.779
 9962SOL    HW130785   5.563   5.678   1.830
 9962SOL    HW230786   5.593   5.838   1.829
 9963SOL     OW30787   2.879   3.850   6.718
 9963SOL    HW130788   2.860   3.933   6.769
 9963SOL    HW230789   2.799   3.825   6.664
 9964SOL     OW30790   5.552   4.561   5.742
 9964SOL    HW130791   5.486   4.557   5.817
 9964SOL    HW230792   5.600   4.473   5.734
 9965SOL     OW30793   3.785   6.292   6.266
 9965SOL    HW130794   3.840   6.327   6.190
 9965SOL    HW230795   3.694   6.334   6.263
 9966SOL     OW30796   1.805   5.684   1.963
 9966SOL    HW130797   1.783   5.649   1.872
 9966SOL    HW230798   1.879   5.752   1.956
 9967SOL     OW30799   6.398   0.074   2.311
 9967SOL    HW130800   6.332   0.067   2.386
 9967SOL    HW230801   6.490   0.078   2.348
 9968SOL     OW30802   3.063   3.807   0.060
 9968SOL    HW130803   3.108   3.723   0.031
 9968SOL    HW230804   2.998   3.787   0.134
 9969SOL     OW30805   1.491   2.789   2.861
 9969SOL    HW130806   1.508   2.723   2.934
 9969SOL    HW230807   1.438   2.866   2.897
 9970SOL     OW30808   5.251   3.778   2.670
 9970SOL    HW130809   5.282   3.743   2.581
 9970SOL    HW230810   5.168   3.729   2.697
 9971SOL     OW30811   2.472   5.276   1.271
 9971SOL    HW130812   2.516   5.232   1.193
 9971SOL    HW230813   2.461   5.209   1.345
 9972SOL     OW30814   3.926   4.666   1.298
 9972SOL    HW130815   4.008   4.655   1.354
 9972SOL    HW230816   3.901   4.578   1.257
 9973SOL     OW30817   4.431   2.185   4.196
 9973SOL    HW130818   4.394   2.092   4.202
 9973SOL    HW230819   4.493   2.191   4.117
 9974SOL     OW30820   6.794   3.085   3.588
 9974SOL    HW130821   6.821   3.122   3.500
 9974SOL    HW230822   6.694   3.081   3.595
 9975SOL     OW30823   6.271   4.740   6.902
 9975SOL    HW130824   6.286   4.810   6.972
 9975SOL    HW230825   6.249   4.783   6.815
 9976SOL     OW30826   0.485   6.531   5.374
 9976SOL    HW130827   0.563   6.567   5.322
 9976SOL    HW230828   0.477   6.581   5.460
 9977SOL     OW30829   0.208   5.426   5.057
 9977SOL    HW130830   0.277   5.474   5.111
 9977SOL    HW230831   0.227   5.327   5.059
 9978SOL     OW30832   6.753   3.276   3.097
 9978SOL    HW130833   6.714   3.189   3.070
 9978SOL    HW230834   6.727   3.347   3.032
 9979SOL     OW30835   5.902   4.671   5.572
 9979SOL    HW130836   5.837   4.704   5.503
 9979SOL    HW230837   5.951   4.748   5.611
 9980SOL     OW30838   2.064   1.612   5.844
 9980SOL    HW130839   2.084   1.688   5.906
 9980SOL    HW230840   2.091   1.526   5.886
 9981SOL     OW30841   2.281   1.950   1.748
 9981SOL    HW130842   2.237   1.871   1.790
 9981SOL    HW230843   2.334   1.999   1.816
 9982SOL     OW30844   6.852   0.031   3.735
 9982SOL    HW130845   6.877   6.962   3.707
 9982SOL    HW230846   6.778   0.027   3.802
 9983SOL     OW30847   0.128   2.696   3.140
 9983SOL    HW130848   0.195   2.654   3.201
 9983SOL    HW230849   0.118   2.640   3.057
 9984SOL     OW30850   2.106   1.019   0.134
 9984SOL    HW130851   2.119   0.995   0.230
 9984SOL    HW230852   2.176   1.086   0.107
 9985SOL     OW30853   1.972   1.163   1.579
 9985SOL    HW130854   1.945   1.068   1.563
 9985SOL    HW230855   1.919   1.201   1.654
 9986SOL     OW30856   5.650   4.315   5.735
 9986SOL    HW130857   5.730   4.257   5.749
 9986SOL    HW230858   5.573   4.259   5.703
 9987SOL     OW30859   6.710   2.855   3.887
 9987SOL    HW130860   6.718   2.920   3.963
 9987SOL    HW230861   6.800   2.837   3.848
 9988SOL     OW30862   0.240   5.852   5.105
 9988SOL    HW130863   0.289   5.768   5.124
 9988SOL    HW230864   0.238   5.869   5.006
 9989SOL     OW30865   6.405   4.206   3.234
 9989SOL    HW130866   6.341   4.171   3.303
 9989SOL    HW230867   6.388   4.159   3.147
 9990SOL     OW30868   2.576   5.663   1.601
 9990SOL    HW130869   2.521   5.632   1.523
 9990SOL    HW230870   2.565   5.599   1.677
 9991SOL     OW30871   1.919   2.709   3.922
 9991SOL    HW130872   1.979   2.781   3.958
 9991SOL    HW230873   1.830   2.749   3.899
 9992SOL     OW30874   5.596   4.771   0.513
 9992SOL    HW130875   5.563   4.677   0.505
 9992SOL    HW230876   5.525   4.834   0.481
 9993SOL     OW30877   3.217   0.268   0.817
 9993SOL    HW130878   3.208   0.189   0.877
 9993SOL    HW230879   3.301   0.318   0.839
 9994SOL     OW30880   0.113   4.919   3.284
 9994SOL    HW130881   0.159   4.864   3.353
 9994SOL    HW230882   0.035   4.966   3.326
 9995SOL     OW30883   4.395   1.093   3.075
 9995SOL    HW130884   4.390   1.027   3.000
 9995SOL    HW230885   4.307   1.139   3.085
 9996SOL     OW30886   2.670   2.889   1.452
 9996SOL    HW130887   2.608   2.914   1.527
 9996SOL    HW230888   2.691   2.970   1.398
 9997SOL     OW30889   3.621   1.486   0.565
 9997SOL    HW130890   3.635   1.476   0.664
 9997SOL    HW230891   3.528   1.517   0.548
 9998SOL     OW30892   5.453   4.561   6.712
 9998SOL    HW130893   5.388   4.522   6.778
 9998SOL    HW230894   5.537   4.586   6.760
 9999SOL     OW30895   0.162   3.084   5.229
 9999SOL    HW130896   0.253   3.125   5.223
 9999SOL    HW230897   0.093   3.154   5.210
10000SOL     OW30898   0.122   4.125   0.283
10000SOL    HW130899   0.132   4.068   0.202
10000SOL    HW230900   0.038   4.100   0.331
10001SOL     OW30901   4.829   0.099   2.463
10001SOL    HW130902   4.901   0.063   2.403
10001SOL    HW230903   4.740   0.087   2.419
10002SOL     OW30904   2.191   6.758   2.468
10002SOL    HW130905   2.264   6.811   2.425
10002SOL    HW230906   2.143   6.705   2.398
10003SOL     OW30907   3.999   1.530   3.534
10003SOL    HW130908   3.905   1.565   3.527
10003SOL    HW230909   4.004   1.465   3.610
10004SOL     OW30910   6.115   2.123   4.356
10004SOL    HW130911   6.015   2.123   4.363
10004SOL    HW230912   6.146   2.035   4.323
10005SOL     OW30913   4.810   0.586   4.442
10005SOL    HW130914   4.720   0.547   4.425
10005SOL    HW230915   4.806   0.652   4.517
10006SOL     OW30916   5.301   6.275   4.296
10006SOL    HW130917   5.253   6.192   4.267
10006SOL    HW230918   5.303   6.341   4.221
10007SOL     OW30919   6.654   4.755   5.811
10007SOL    HW130920   6.697   4.810   5.883
10007SOL    HW230921   6.555   4.767   5.815
10008SOL     OW30922   4.268   1.130   4.367
10008SOL    HW130923   4.359   1.161   4.342
10008SOL    HW230924   4.240   1.054   4.308
10009SOL     OW30925   1.864   3.520   1.529
10009SOL    HW130926   1.949   3.558   1.566
10009SOL    HW230927   1.832   3.578   1.454
10010SOL     OW30928   2.201   0.811   5.772
10010SOL    HW130929   2.148   0.822   5.856
10010SOL    HW230930   2.139   0.806   5.693
10011SOL     OW30931   5.083   1.223   5.472
10011SOL    HW130932   5.035   1.255   5.555
10011SOL    HW230933   5.061   1.127   5.457
10012SOL     OW30934   5.934   1.402   3.013
10012SOL    HW130935   5.836   1.383   3.021
10012SOL    HW230936   5.957   1.424   2.918
10013SOL     OW30937   0.510   1.115   3.319
10013SOL    HW130938   0.561   1.031   3.299
10013SOL    HW230939   0.419   1.109   3.279
10014SOL     OW30940   6.922   3.653   0.673
10014SOL    HW130941   6.977   3.633   0.592
10014SOL    HW230942   6.959   3.733   0.719
10015SOL     OW30943   2.286   4.801   0.283
10015SOL    HW130944   2.216   4.808   0.354
10015SOL    HW230945   2.289   4.887   0.231
10016SOL     OW30946   1.314   0.503   6.929
10016SOL    HW130947   1.353   0.449   6.855
10016SOL    HW230948   1.373   0.496   7.010
10017SOL     OW30949   2.661   1.282   3.363
10017SOL    HW130950   2.685   1.353   3.429
10017SOL    HW230951   2.607   1.322   3.289
10018SOL     OW30952   4.309   0.443   5.604
10018SOL    HW130953   4.228   0.403   5.560
10018SOL    HW230954   4.296   0.541   5.615
10019SOL     OW30955   0.475   1.868   2.815
10019SOL    HW130956   0.395   1.924   2.795
10019SOL    HW230957   0.558   1.917   2.791
10020SOL     OW30958   1.390   2.828   1.117
10020SOL    HW130959   1.327   2.750   1.126
10020SOL    HW230960   1.443   2.838   1.201
10021SOL     OW30961   0.065   2.734   1.680
10021SOL    HW130962   0.023   2.650   1.714
10021SOL    HW230963   0.131   2.712   1.609
10022SOL     OW30964   2.656   1.005   5.946
10022SOL    HW130965   2.626   1.085   5.894
10022SOL    HW230966   2.583   0.936   5.946
10023SOL     OW30967   0.773   5.322   0.280
10023SOL    HW130968   0.722   5.374   0.349
10023SOL    HW230969   0.846   5.380   0.242
10024SOL     OW30970   2.409   6.269   2.244
10024SOL    HW130971   2.437   6.236   2.154
10024SOL    HW230972   2.444   6.362   2.257
10025SOL     OW30973   1.299   2.571   1.153
10025SOL    HW130974   1.390   2.531   1.141
10025SOL    HW230975   1.229   2.503   1.129
10026SOL     OW30976   5.522   6.346   3.673
10026SOL    HW130977   5.608   6.328   3.721
10026SOL    HW230978   5.445   6.321   3.732
10027SOL     OW30979   6.258   4.736   4.629
10027SOL    HW130980   6.199   4.802   4.675
10027SOL    HW230981   6.322   4.784   4.569
10028SOL     OW30982   1.476   1.149   2.154
10028SOL    HW130983   1.495   1.052   2.137
10028SOL    HW230984   1.562   1.200   2.151
10029SOL     OW30985   5.089   1.561   4.924
10029SOL    HW130986   5.107   1.624   4.999
10029SOL    HW230987   5.041   1.481   4.960
10030SOL     OW30988   1.992   6.962   3.890
10030SOL    HW130989   1.974   6.940   3.986
10030SOL    HW230990   1.931   0.013   3.860
10031SOL     OW30991   5.318   5.020   4.859
10031SOL    HW130992   5.269   4.942   4.900
10031SOL    HW230993   5.253   5.094   4.841
10032SOL     OW30994   3.022   1.369   4.842
10032SOL    HW130995   3.018   1.401   4.747
10032SOL    HW230996   3.087   1.426   4.893
10033SOL     OW30997   6.871   3.013   4.663
10033SOL    HW130998   6.930   3.006   4.583
10033SOL    HW230999   6.909   2.958   4.738
10034SOL     OW31000   3.574   0.721   4.239
10034SOL    HW131001   3.608   0.801   4.290
10034SOL    HW231002   3.589   0.639   4.294
10035SOL     OW31003   6.775   4.883   1.471
10035SOL    HW131004   6.835   4.930   1.536
10035SOL    HW231005   6.828   4.859   1.389
10036SOL     OW31006   6.463   2.458   1.172
10036SOL    HW131007   6.437   2.548   1.208
10036SOL    HW231008   6.383   2.397   1.177
10037SOL     OW31009   0.449   1.585   6.944
10037SOL    HW131010   0.516   1.521   6.907
10037SOL    HW231011   0.494   1.672   6.963
10038SOL     OW31012   5.597   0.718   7.016
10038SOL    HW131013   5.589   0.753   0.086
10038SOL    HW231014   5.666   0.772   6.966
10039SOL     OW31015   3.911   0.750   3.651
10039SOL    HW131016   3.816   0.736   3.624
10039SOL    HW231017   3.917   0.758   3.751
10040SOL     OW31018   5.733   5.426   6.341
10040SOL    HW131019   5.819   5.420   6.391
10040SOL    HW231020   5.695   5.518   6.350
10041SOL     OW31021   4.290   5.746   6.969
10041SOL    HW131022   4.310   5.747   6.871
10041SOL    HW231023   4.220   5.677   6.988
10042SOL     OW31024   0.558   1.793   3.798
10042SOL    HW131025   0.516   1.844   3.723
10042SOL    HW231026   0.498   1.797   3.878
10043SOL     OW31027   5.953   2.113   4.871
10043SOL    HW131028   5.916   2.184   4.811
10043SOL    HW231029   5.910   2.120   4.961
10044SOL     OW31030   2.578   2.561   4.935
10044SOL    HW131031   2.607   2.607   4.851
10044SOL    HW231032   2.502   2.611   4.976
10045SOL     OW31033   3.534   1.002   1.642
10045SOL    HW131034   3.564   1.088   1.684
10045SOL    HW231035   3.446   0.974   1.682
10046SOL     OW31036   1.798   3.167   0.721
10046SOL    HW131037   1.762   3.200   0.633
10046SOL    HW231038   1.722   3.144   0.782
10047SOL     OW31039   1.068   2.982   5.118
10047SOL    HW131040   0.992   3.041   5.144
10047SOL    HW231041   1.151   3.036   5.111
10048SOL     OW31042   6.676   6.869   2.848
10048SOL    HW131043   6.707   6.846   2.756
10048SOL    HW231044   6.584   6.832   2.862
10049SOL     OW31045   1.839   1.570   5.692
10049SOL    HW131046   1.936   1.585   5.711
10049SOL    HW231047   1.806   1.494   5.748
10050SOL     OW31048   5.436   3.544   4.804
10050SOL    HW131049   5.367   3.616   4.809
10050SOL    HW231050   5.494   3.559   4.724
10051SOL     OW31051   0.946   4.303   4.727
10051SOL    HW131052   0.988   4.359   4.656
10051SOL    HW231053   0.856   4.271   4.696
10052SOL     OW31054   1.932   0.997   3.278
10052SOL    HW131055   1.974   0.907   3.265
10052SOL    HW231056   2.003   1.067   3.285
10053SOL     OW31057   4.294   6.020   4.007
10053SOL    HW131058   4.250   5.987   4.091
10053SOL    HW231059   4.391   6.038   4.025
10054SOL     OW31060   5.560   4.238   5.331
10054SOL    HW131061   5.552   4.160   5.270
10054SOL    HW231062   5.656   4.267   5.335
10055SOL     OW31063   6.321   2.794   5.853
10055SOL    HW131064   6.375   2.792   5.938
10055SOL    HW231065   6.335   2.881   5.807
10056SOL     OW31066   5.148   4.379   3.180
10056SOL    HW131067   5.161   4.281   3.170
10056SOL    HW231068   5.057   4.397   3.217
10057SOL     OW31069   5.767   3.623   5.542
10057SOL    HW131070   5.673   3.651   5.561
10057SOL    HW231071   5.829   3.700   5.561
10058SOL     OW31072   6.517   3.777   4.374
10058SOL    HW131073   6.479   3.736   4.291
10058SOL    HW231074   6.444   3.790   4.441
10059SOL     OW31075   6.908   1.943   0.953
10059SOL    HW131076   6.828   1.997   0.979
10059SOL    HW231077   6.884   1.846   0.952
10060SOL     OW31078   2.277   2.282   2.591
10060SOL    HW131079   2.242   2.213   2.527
10060SOL    HW231080   2.340   2.343   2.543
10061SOL     OW31081   4.383   1.099   4.015
10061SOL    HW131082   4.357   1.193   3.992
10061SOL    HW231083   4.482   1.088   4.006
10062SOL     OW31084   6.290   6.974   4.371
10062SOL    HW131085   6.380   6.998   4.406
10062SOL    HW231086   6.221   6.994   4.441
10063SOL     OW31087   2.453   1.741   4.316
10063SOL    HW131088   2.391   1.665   4.297
10063SOL    HW231089   2.401   1.826   4.318
10064SOL     OW31090   4.374   5.794   6.685
10064SOL    HW131091   4.410   5.874   6.636
10064SOL    HW231092   4.288   5.765   6.643
10065SOL     OW31093   1.540   0.889   2.192
10065SOL    HW131094   1.482   0.814   2.223
10065SOL    HW231095   1.591   0.926   2.270
10066SOL     OW31096   0.864   3.208   5.157
10066SOL    HW131097   0.808   3.126   5.173
10066SOL    HW231098   0.818   3.287   5.198
10067SOL     OW31099   0.875   2.970   6.123
10067SOL    HW131100   0.849   2.976   6.220
10067SOL    HW231101   0.803   2.921   6.073
10068SOL     OW31102   1.581   3.426   3.038
10068SOL    HW131103   1.661   3.388   2.991
10068SOL    HW231104   1.573   3.524   3.016
10069SOL     OW31105   3.625   4.978   1.582
10069SOL    HW131106   3.684   4.930   1.516
10069SOL    HW231107   3.587   5.059   1.539
10070SOL     OW31108   1.399   5.240   4.571
10070SOL    HW131109   1.366   5.191   4.652
10070SOL    HW231110   1.386   5.338   4.583
10071SOL     OW31111   0.541   0.205   3.890
10071SOL    HW131112   0.477   0.142   3.847
10071SOL    HW231113   0.596   0.250   3.820
10072SOL     OW31114   0.489   1.340   2.524
10072SOL    HW131115   0.478   1.400   2.603
10072SOL    HW231116   0.586   1.328   2.505
10073SOL     OW31117   6.153   3.225   3.575
10073SOL    HW131118   6.176   3.173   3.657
10073SOL    HW231119   6.234   3.236   3.517
10074SOL     OW31120   0.963   5.528   0.511
10074SOL    HW131121   0.865   5.514   0.502
10074SOL    HW231122   0.999   5.472   0.586
10075SOL     OW31123   2.248   0.643   2.446
10075SOL    HW131124   2.229   0.559   2.395
10075SOL    HW231125   2.164   0.676   2.488
10076SOL     OW31126   5.038   5.585   3.379
10076SOL    HW131127   5.054   5.649   3.305
10076SOL    HW231128   4.946   5.600   3.416
10077SOL     OW31129   5.800   2.917   0.204
10077SOL    HW131130   5.822   2.987   0.136
10077SOL    HW231131   5.748   2.958   0.279
10078SOL     OW31132   0.223   6.330   4.676
10078SOL    HW131133   0.175   6.386   4.610
10078SOL    HW231134   0.208   6.366   4.768
10079SOL     OW31135   5.625   2.469   3.695
10079SOL    HW131136   5.552   2.420   3.648
10079SOL    HW231137   5.605   2.567   3.695
10080SOL     OW31138   5.566   0.900   5.976
10080SOL    HW131139   5.634   0.955   5.926
10080SOL    HW231140   5.477   0.945   5.971
10081SOL     OW31141   1.378   1.854   6.903
10081SOL    HW131142   1.388   1.770   6.850
10081SOL    HW231143   1.378   1.832   7.001
10082SOL     OW31144   1.148   5.196   3.169
10082SOL    HW131145   1.082   5.270   3.159
10082SOL    HW231146   1.241   5.233   3.160
10083SOL     OW31147   3.672   5.954   3.392
10083SOL    HW131148   3.630   6.043   3.407
10083SOL    HW231149   3.655   5.924   3.298
10084SOL     OW31150   0.266   6.486   4.905
10084SOL    HW131151   0.226   6.555   4.845
10084SOL    HW231152   0.269   6.520   4.999
10085SOL     OW31153   3.838   6.539   0.165
10085SOL    HW131154   3.831   6.444   0.195
10085SOL    HW231155   3.830   6.600   0.244
10086SOL     OW31156   5.652   6.442   2.432
10086SOL    HW131157   5.710   6.507   2.481
10086SOL    HW231158   5.665   6.452   2.334
10087SOL     OW31159   0.630   6.660   4.591
10087SOL    HW131160   0.683   6.575   4.591
10087SOL    HW231161   0.642   6.706   4.679
10088SOL     OW31162   6.874   1.687   0.262
10088SOL    HW131163   6.967   1.659   0.283
10088SOL    HW231164   6.876   1.773   0.210
10089SOL     OW31165   3.810   1.206   2.502
10089SOL    HW131166   3.815   1.261   2.586
10089SOL    HW231167   3.876   1.241   2.436
10090SOL     OW31168   0.640   4.794   2.107
10090SOL    HW131169   0.738   4.791   2.125
10090SOL    HW231170   0.591   4.740   2.175
10091SOL     OW31171   6.563   5.738   6.629
10091SOL    HW131172   6.555   5.658   6.687
10091SOL    HW231173   6.517   5.721   6.542
10092SOL     OW31174   1.382   3.262   5.507
10092SOL    HW131175   1.291   3.238   5.474
10092SOL    HW231176   1.452   3.226   5.445
10093SOL     OW31177   5.169   3.263   5.604
10093SOL    HW131178   5.204   3.306   5.687
10093SOL    HW231179   5.079   3.301   5.582
10094SOL     OW31180   2.712   6.735   0.897
10094SOL    HW131181   2.772   6.736   0.817
10094SOL    HW231182   2.637   6.672   0.882
10095SOL     OW31183   5.468   2.465   4.657
10095SOL    HW131184   5.369   2.456   4.668
10095SOL    HW231185   5.488   2.531   4.585
10096SOL     OW31186   4.902   0.579   2.266
10096SOL    HW131187   4.921   0.484   2.245
10096SOL    HW231188   4.984   0.634   2.250
10097SOL     OW31189   1.944   2.058   6.403
10097SOL    HW131190   1.925   2.071   6.501
10097SOL    HW231191   1.863   2.080   6.350
10098SOL     OW31192   3.104   5.521   4.603
10098SOL    HW131193   3.077   5.478   4.516
10098SOL    HW231194   3.111   5.620   4.590
10099SOL     OW31195   6.358   4.356   1.371
10099SOL    HW131196   6.437   4.402   1.412
10099SOL    HW231197   6.367   4.358   1.271
10100SOL     OW31198   5.646   5.499   5.427
10100SOL    HW131199   5.631   5.405   5.457
10100SOL    HW231200   5.653   5.502   5.327
10101SOL     OW31201   6.562   2.928   2.038
10101SOL    HW131202   6.629   2.981   1.986
10101SOL    HW231203   6.599   2.837   2.055
10102SOL     OW31204   5.381   0.645   0.501
10102SOL    HW131205   5.466   0.606   0.466
10102SOL    HW231206   5.309   0.634   0.433
10103SOL     OW31207   0.463   0.244   6.101
10103SOL    HW131208   0.560   0.268   6.093
10103SOL    HW231209   0.416   0.315   6.153
10104SOL     OW31210   2.109   1.069   6.175
10104SOL    HW131211   2.076   1.047   6.267
10104SOL    HW231212   2.134   1.166   6.172
10105SOL     OW31213   2.590   1.214   5.744
10105SOL    HW131214   2.597   1.306   5.707
10105SOL    HW231215   2.639   1.150   5.686
10106SOL     OW31216   4.813   6.223   1.424
10106SOL    HW131217   4.755   6.228   1.506
10106SOL    HW231218   4.855   6.312   1.408
10107SOL     OW31219   5.010   4.408   6.640
10107SOL    HW131220   5.008   4.309   6.630
10107SOL    HW231221   4.928   4.439   6.687
10108SOL     OW31222   1.865   3.040   0.310
10108SOL    HW131223   1.897   3.097   0.386
10108SOL    HW231224   1.919   2.956   0.308
10109SOL     OW31225   0.596   1.175   0.051
10109SOL    HW131226   0.590   1.076   0.050
10109SOL    HW231227   0.661   1.206   7.004
10110SOL     OW31228   4.712   4.662   2.187
10110SOL    HW131229   4.765   4.578   2.176
10110SOL    HW231230   4.706   4.708   2.099
10111SOL     OW31231   0.772   2.861   2.037
10111SOL    HW131232   0.800   2.819   1.950
10111SOL    HW231233   0.755   2.789   2.104
10112SOL     OW31234   6.616   3.323   3.394
10112SOL    HW131235   6.701   3.276   3.372
10112SOL    HW231236   6.563   3.337   3.311
10113SOL     OW31237   4.640   0.872   6.759
10113SOL    HW131238   4.631   0.936   6.835
10113SOL    HW231239   4.736   0.867   6.731
10114SOL     OW31240   4.112   2.260   2.894
10114SOL    HW131241   4.169   2.239   2.973
10114SOL    HW231242   4.161   2.324   2.834
10115SOL     OW31243   3.527   1.316   3.948
10115SOL    HW131244   3.530   1.352   3.855
10115SOL    HW231245   3.532   1.391   4.014
10116SOL     OW31246   5.922   0.345   5.357
10116SOL    HW131247   5.884   0.356   5.449
10116SOL    HW231248   5.932   0.434   5.314
10117SOL     OW31249   6.595   5.232   5.323
10117SOL    HW131250   6.620   5.178   5.404
10117SOL    HW231251   6.530   5.180   5.267
10118SOL     OW31252   2.500   5.003   4.634
10118SOL    HW131253   2.455   4.962   4.713
10118SOL    HW231254   2.484   5.101   4.633
10119SOL     OW31255   0.243   4.791   3.931
10119SOL    HW131256   0.229   4.872   3.875
10119SOL    HW231257   0.312   4.732   3.889
10120SOL     OW31258   1.267   2.734   3.034
10120SOL    HW131259   1.339   2.670   3.062
10120SOL    HW231260   1.223   2.772   3.115
10121SOL     OW31261   6.582   4.754   0.674
10121SOL    HW131262   6.574   4.659   0.704
10121SOL    HW231263   6.604   4.756   0.576
10122SOL     OW31264   6.778   1.856   3.986
10122SOL    HW131265   6.843   1.806   3.928
10122SOL    HW231266   6.690   1.808   3.985
10123SOL     OW31267   5.557   6.353   1.157
10123SOL    HW131268   5.573   6.415   1.233
10123SOL    HW231269   5.644   6.324   1.119
10124SOL     OW31270   1.280   5.349   2.377
10124SOL    HW131271   1.216   5.369   2.303
10124SOL    HW231272   1.371   5.384   2.354
10125SOL     OW31273   2.018   1.502   1.217
10125SOL    HW131274   2.008   1.409   1.253
10125SOL    HW231275   2.115   1.521   1.200
10126SOL     OW31276   6.200   0.895   6.779
10126SOL    HW131277   6.292   0.932   6.792
10126SOL    HW231278   6.206   0.799   6.752
10127SOL     OW31279   1.066   4.583   5.888
10127SOL    HW131280   1.155   4.619   5.917
10127SOL    HW231281   1.057   4.593   5.789
10128SOL     OW31282   3.264   0.854   0.242
10128SOL    HW131283   3.350   0.872   0.290
10128SOL    HW231284   3.256   0.756   0.224
10129SOL     OW31285   6.062   1.717   2.666
10129SOL    HW131286   6.066   1.654   2.743
10129SOL    HW231287   5.974   1.708   2.619
10130SOL     OW31288   0.835   2.534   2.210
10130SOL    HW131289   0.742   2.560   2.187
10130SOL    HW231290   0.834   2.478   2.293
10131SOL     OW31291   2.275   0.762   4.851
10131SOL    HW131292   2.364   0.774   4.808
10131SOL    HW231293   2.205   0.751   4.781
10132SOL     OW31294   6.851   0.095   2.601
10132SOL    HW131295   6.867   0.177   2.656
10132SOL    HW231296   6.924   0.029   2.618
10133SOL     OW31297   4.928   5.378   0.678
10133SOL    HW131298   4.957   5.283   0.667
10133SOL    HW231299   4.899   5.415   0.589
10134SOL     OW31300   6.047   0.686   2.058
10134SOL    HW131301   5.952   0.709   2.041
10134SOL    HW231302   6.060   0.669   2.156
10135SOL     OW31303   5.485   0.620   4.172
10135SOL    HW131304   5.408   0.679   4.196
10135SOL    HW231305   5.487   0.608   4.073
10136SOL     OW31306   5.178   2.082   2.876
10136SOL    HW131307   5.089   2.075   2.922
10136SOL    HW231308   5.211   1.990   2.854
10137SOL     OW31309   0.214   5.541   5.876
10137SOL    HW131310   0.207   5.447   5.843
10137SOL    HW231311   0.310   5.569   5.877
10138SOL     OW31312   6.000   1.679   0.337
10138SOL    HW131313   5.969   1.749   0.272
10138SOL    HW231314   6.100   1.673   0.335
10139SOL     OW31315   2.936   3.610   5.849
10139SOL    HW131316   3.016   3.670   5.860
10139SOL    HW231317   2.888   3.602   5.936
10140SOL     OW31318   0.062   6.105   6.209
10140SOL    HW131319   0.148   6.138   6.171
10140SOL    HW231320   0.033   6.023   6.160
10141SOL     OW31321   3.761   1.428   3.818
10141SOL    HW131322   3.751   1.521   3.854
10141SOL    HW231323   3.857   1.407   3.806
10142SOL     OW31324   5.612   6.357   4.887
10142SOL    HW131325   5.551   6.323   4.815
10142SOL    HW231326   5.679   6.419   4.847
10143SOL     OW31327   5.387   3.435   0.568
10143SOL    HW131328   5.384   3.535   0.579
10143SOL    HW231329   5.295   3.398   0.580
10144SOL     OW31330   3.980   6.389   5.399
10144SOL    HW131331   4.040   6.406   5.320
10144SOL    HW231332   3.905   6.455   5.399
10145SOL     OW31333   4.704   5.948   1.155
10145SOL    HW131334   4.756   5.963   1.239
10145SOL    HW231335   4.767   5.917   1.083
10146SOL     OW31336   0.253   3.705   3.640
10146SOL    HW131337   0.267   3.764   3.719
10146SOL    HW231338   0.341   3.681   3.599
10147SOL     OW31339   4.723   5.545   6.625
10147SOL    HW131340   4.628   5.521   6.610
10147SOL    HW231341   4.731   5.644   6.637
10148SOL     OW31342   0.530   4.848   0.034
10148SOL    HW131343   0.532   4.904   0.117
10148SOL    HW231344   0.616   4.798   0.026
10149SOL     OW31345   4.780   5.072   1.701
10149SOL    HW131346   4.764   5.092   1.798
10149SOL    HW231347   4.692   5.060   1.655
10150SOL     OW31348   4.891   3.782   0.646
10150SOL    HW131349   4.957   3.754   0.716
10150SOL    HW231350   4.812   3.720   0.649
10151SOL     OW31351   6.650   0.195   6.005
10151SOL    HW131352   6.577   0.258   5.978
10151SOL    HW231353   6.707   0.238   6.075
10152SOL     OW31354   5.967   6.184   2.691
10152SOL    HW131355   5.910   6.188   2.609
10152SOL    HW231356   6.010   6.273   2.706
10153SOL     OW31357   4.574   5.753   3.886
10153SOL    HW131358   4.526   5.718   3.967
10153SOL    HW231359   4.576   5.682   3.816
10154SOL     OW31360   3.831   4.936   5.993
10154SOL    HW131361   3.736   4.918   5.971
10154SOL    HW231362   3.888   4.859   5.964
10155SOL     OW31363   4.597   2.194   5.814
10155SOL    HW131364   4.604   2.109   5.761
10155SOL    HW231365   4.648   2.266   5.767
10156SOL     OW31366   5.070   0.394   1.000
10156SOL    HW131367   5.049   0.422   0.906
10156SOL    HW231368   4.988   0.403   1.057
10157SOL     OW31369   0.083   2.610   1.390
10157SOL    HW131370   0.005   2.670   1.373
10157SOL    HW231371   0.068   2.559   1.475
10158SOL     OW31372   5.053   6.690   2.528
10158SOL    HW131373   4.967   6.733   2.556
10158SOL    HW231374   5.057   6.596   2.562
10159SOL     OW31375   3.563   3.143   2.860
10159SOL    HW131376   3.598   3.133   2.953
10159SOL    HW231377   3.494   3.073   2.843
10160SOL     OW31378   2.032   4.471   2.694
10160SOL    HW131379   2.130   4.464   2.707
10160SOL    HW231380   1.989   4.504   2.778
10161SOL     OW31381   3.760   4.793   6.385
10161SOL    HW131382   3.669   4.812   6.423
10161SOL    HW231383   3.776   4.853   6.306
10162SOL     OW31384   1.821   4.203   1.767
10162SOL    HW131385   1.752   4.232   1.701
10162SOL    HW231386   1.826   4.270   1.841
10163SOL     OW31387   1.589   6.314   5.076
10163SOL    HW131388   1.631   6.385   5.019
10163SOL    HW231389   1.593   6.227   5.027
10164SOL     OW31390   6.513   3.149   3.611
10164SOL    HW131391   6.576   3.224   3.592
10164SOL    HW231392   6.504   3.138   3.710
10165SOL     OW31393   5.753   2.442   3.962
10165SOL    HW131394   5.685   2.481   3.900
10165SOL    HW231395   5.784   2.513   4.025
10166SOL     OW31396   0.599   2.774   0.989
10166SOL    HW131397   0.621   2.736   1.079
10166SOL    HW231398   0.684   2.789   0.938
10167SOL     OW31399   0.424   5.184   6.161
10167SOL    HW131400   0.511   5.200   6.113
10167SOL    HW231401   0.402   5.087   6.159
10168SOL     OW31402   5.785   1.642   6.696
10168SOL    HW131403   5.763   1.545   6.708
10168SOL    HW231404   5.768   1.691   6.782
10169SOL     OW31405   6.837   3.971   3.168
10169SOL    HW131406   6.800   3.946   3.257
10169SOL    HW231407   6.875   3.890   3.124
10170SOL     OW31408   6.473   5.947   0.186
10170SOL    HW131409   6.416   6.027   0.206
10170SOL    HW231410   6.541   5.936   0.259
10171SOL     OW31411   1.886   2.931   5.192
10171SOL    HW131412   1.976   2.895   5.215
10171SOL    HW231413   1.848   2.879   5.115
10172SOL     OW31414   6.573   0.075   2.931
10172SOL    HW131415   6.604   7.010   2.895
10172SOL    HW231416   6.592   0.079   3.030
10173SOL     OW31417   3.753   5.044   6.571
10173SOL    HW131418   3.673   4.985   6.572
10173SOL    HW231419   3.822   5.008   6.634
10174SOL     OW31420   5.215   6.800   3.133
10174SOL    HW131421   5.279   6.876   3.123
10174SOL    HW231422   5.254   6.730   3.193
10175SOL     OW31423   6.680   2.012   3.584
10175SOL    HW131424   6.589   2.015   3.624
10175SOL    HW231425   6.711   1.917   3.579
10176SOL     OW31426   6.769   3.145   5.873
10176SOL    HW131427   6.691   3.207   5.868
10176SOL    HW231428   6.849   3.188   5.831
10177SOL     OW31429   2.519   0.547   1.687
10177SOL    HW131430   2.445   0.495   1.645
10177SOL    HW231431   2.590   0.565   1.619
10178SOL     OW31432   1.976   2.009   0.307
10178SOL    HW131433   1.989   1.923   0.258
10178SOL    HW231434   1.881   2.038   0.298
10179SOL     OW31435   6.981   4.221   0.521
10179SOL    HW131436   6.950   4.137   0.563
10179SOL    HW231437   7.019   4.282   0.591
10180SOL     OW31438   4.227   6.880   6.322
10180SOL    HW131439   4.282   6.872   6.405
10180SOL    HW231440   4.194   6.790   6.294
10181SOL     OW31441   6.409   4.082   1.385
10181SOL    HW131442   6.401   4.182   1.382
10181SOL    HW231443   6.328   4.041   1.343
10182SOL     OW31444   5.626   1.728   0.162
10182SOL    HW131445   5.556   1.758   0.226
10182SOL    HW231446   5.613   1.631   0.141
10183SOL     OW31447   6.843   2.488   5.954
10183SOL    HW131448   6.927   2.494   6.009
10183SOL    HW231449   6.865   2.456   5.863
10184SOL     OW31450   6.092   3.812   6.385
10184SOL    HW131451   6.082   3.840   6.289
10184SOL    HW231452   6.172   3.857   6.425
10185SOL     OW31453   3.899   5.794   2.222
10185SOL    HW131454   3.878   5.718   2.160
10185SOL    HW231455   3.867   5.770   2.314
10186SOL     OW31456   4.925   3.888   5.612
10186SOL    HW131457   4.921   3.979   5.654
10186SOL    HW231458   4.920   3.897   5.513
10187SOL     OW31459   2.351   4.457   5.602
10187SOL    HW131460   2.427   4.392   5.611
10187SOL    HW231461   2.357   4.526   5.674
10188SOL     OW31462   2.661   6.516   6.805
10188SOL    HW131463   2.698   6.604   6.833
10188SOL    HW231464   2.735   6.460   6.767
10189SOL     OW31465   1.292   1.204   6.547
10189SOL    HW131466   1.223   1.277   6.549
10189SOL    HW231467   1.314   1.176   6.640
10190SOL     OW31468   2.789   3.711   1.252
10190SOL    HW131469   2.744   3.776   1.314
10190SOL    HW231470   2.789   3.748   1.159
10191SOL     OW31471   6.293   5.420   0.370
10191SOL    HW131472   6.275   5.381   0.280
10191SOL    HW231473   6.302   5.520   0.362
10192SOL     OW31474   2.515   1.895   5.322
10192SOL    HW131475   2.486   1.983   5.283
10192SOL    HW231476   2.444   1.861   5.383
10193SOL     OW31477   4.032   3.349   2.390
10193SOL    HW131478   3.933   3.334   2.390
10193SOL    HW231479   4.065   3.348   2.485
10194SOL     OW31480   3.982   0.188   4.771
10194SOL    HW131481   3.960   0.163   4.865
10194SOL    HW231482   4.068   0.238   4.769
10195SOL     OW31483   5.442   0.131   1.979
10195SOL    HW131484   5.516   0.067   1.962
10195SOL    HW231485   5.452   0.211   1.920
10196SOL     OW31486   5.550   2.116   3.649
10196SOL    HW131487   5.560   2.043   3.717
10196SOL    HW231488   5.604   2.095   3.568
10197SOL     OW31489   5.757   0.147   3.103
10197SOL    HW131490   5.707   0.146   3.016
10197SOL    HW231491   5.695   0.124   3.178
10198SOL     OW31492   3.187   6.408   1.111
10198SOL    HW131493   3.118   6.394   1.182
10198SOL    HW231494   3.156   6.366   1.026
10199SOL     OW31495   1.518   2.099   6.971
10199SOL    HW131496   1.457   2.022   6.987
10199SOL    HW231497   1.576   2.082   6.891
10200SOL     OW31498   5.856   4.054   6.092
10200SOL    HW131499   5.785   4.121   6.112
10200SOL    HW231500   5.939   4.076   6.144
10201SOL     OW31501   0.437   5.535   2.396
10201SOL    HW131502   0.411   5.619   2.349
10201SOL    HW231503   0.518   5.496   2.352
10202SOL     OW31504   7.002   4.233   1.038
10202SOL    HW131505   6.927   4.287   1.075
10202SOL    HW231506   0.052   4.226   1.106
10203SOL     OW31507   1.874   3.255   2.370
10203SOL    HW131508   1.892   3.177   2.430
10203SOL    HW231509   1.937   3.330   2.393
10204SOL     OW31510   3.146   4.678   5.893
10204SOL    HW131511   3.153   4.733   5.809
10204SOL    HW231512   3.219   4.610   5.894
10205SOL     OW31513   5.059   1.694   3.791
10205SOL    HW131514   5.054   1.606   3.839
10205SOL    HW231515   5.144   1.699   3.739
10206SOL     OW31516   5.730   6.733   6.150
10206SOL    HW131517   5.803   6.801   6.160
10206SOL    HW231518   5.755   6.667   6.079
10207SOL     OW31519   2.328   1.189   2.212
10207SOL    HW131520   2.371   1.277   2.197
10207SOL    HW231521   2.291   1.186   2.305
10208SOL     OW31522   6.146   5.784   5.032
10208SOL    HW131523   6.184   5.821   4.947
10208SOL    HW231524   6.048   5.803   5.036
10209SOL     OW31525   0.315   1.124   6.181
10209SOL    HW131526   0.310   1.199   6.115
10209SOL    HW231527   0.360   1.045   6.139
10210SOL     OW31528   5.597   6.961   2.066
10210SOL    HW131529   5.691   6.940   2.091
10210SOL    HW231530   5.535   6.899   2.115
10211SOL     OW31531   3.496   6.364   5.438
10211SOL    HW131532   3.552   6.379   5.520
10211SOL    HW231533   3.405   6.332   5.466
10212SOL     OW31534   0.482   1.125   4.378
10212SOL    HW131535   0.558   1.179   4.342
10212SOL    HW231536   0.399   1.146   4.326
10213SOL     OW31537   5.350   1.890   2.776
10213SOL    HW131538   5.408   1.965   2.808
10213SOL    HW231539   5.391   1.849   2.694
10214SOL     OW31540   6.442   0.879   1.908
10214SOL    HW131541   6.515   0.902   1.972
10214SOL    HW231542   6.480   0.825   1.832
10215SOL     OW31543   2.918   3.436   5.603
10215SOL    HW131544   2.919   3.476   5.695
10215SOL    HW231545   2.991   3.477   5.548
10216SOL     OW31546   6.442   6.998   0.952
10216SOL    HW131547   6.380   0.046   0.918
10216SOL    HW231548   6.525   0.018   0.988
10217SOL     OW31549   2.468   1.453   4.664
10217SOL    HW131550   2.416   1.395   4.727
10217SOL    HW231551   2.418   1.538   4.649
10218SOL     OW31552   1.048   1.870   1.367
10218SOL    HW131553   1.071   1.795   1.306
10218SOL    HW231554   1.054   1.957   1.318
10219SOL     OW31555   0.326   2.221   2.057
10219SOL    HW131556   0.277   2.195   2.140
10219SOL    HW231557   0.418   2.251   2.080
10220SOL     OW31558   4.184   1.538   1.600
10220SOL    HW131559   4.115   1.467   1.586
10220SOL    HW231560   4.258   1.526   1.534
10221SOL     OW31561   2.503   1.146   4.885
10221SOL    HW131562   2.456   1.230   4.912
10221SOL    HW231563   2.464   1.112   4.799
10222SOL     OW31564   1.105   3.843   5.269
10222SOL    HW131565   1.127   3.936   5.300
10222SOL    HW231566   1.059   3.794   5.343
10223SOL     OW31567   1.265   4.966   6.790
10223SOL    HW131568   1.360   4.997   6.795
10223SOL    HW231569   1.244   4.935   6.697
10224SOL     OW31570   1.582   0.982   4.709
10224SOL    HW131571   1.618   1.075   4.715
10224SOL    HW231572   1.622   0.926   4.782
10225SOL     OW31573   0.622   6.064   4.501
10225SOL    HW131574   0.605   6.014   4.586
10225SOL    HW231575   0.682   6.011   4.442
10226SOL     OW31576   3.074   1.139   6.621
10226SOL    HW131577   3.064   1.048   6.582
10226SOL    HW231578   3.170   1.165   6.622
10227SOL     OW31579   4.816   4.510   0.432
10227SOL    HW131580   4.783   4.564   0.355
10227SOL    HW231581   4.887   4.447   0.401
10228SOL     OW31582   0.686   5.468   2.270
10228SOL    HW131583   0.643   5.518   2.194
10228SOL    HW231584   0.658   5.372   2.266
10229SOL     OW31585   1.071   1.091   3.604
10229SOL    HW131586   1.097   1.051   3.692
10229SOL    HW231587   0.982   1.135   3.612
10230SOL     OW31588   0.143   0.264   3.407
10230SOL    HW131589   0.193   0.327   3.467
10230SOL    HW231590   0.048   0.258   3.437
10231SOL     OW31591   6.919   6.822   5.093
10231SOL    HW131592   6.961   6.750   5.147
10231SOL    HW231593   6.883   6.784   5.008
10232SOL     OW31594   4.013   1.164   4.472
10232SOL    HW131595   4.049   1.154   4.565
10232SOL    HW231596   4.090   1.169   4.407
10233SOL     OW31597   4.558   2.988   5.493
10233SOL    HW131598   4.491   3.030   5.431
10233SOL    HW231599   4.526   2.998   5.587
10234SOL     OW31600   4.818   0.739   0.483
10234SOL    HW131601   4.730   0.758   0.441
10234SOL    HW231602   4.805   0.726   0.582
10235SOL     OW31603   4.437   0.813   0.612
10235SOL    HW131604   4.511   0.807   0.546
10235SOL    HW231605   4.372   0.739   0.597
10236SOL     OW31606   1.946   6.889   1.782
10236SOL    HW131607   1.934   6.799   1.740
10236SOL    HW231608   1.881   6.899   1.857
10237SOL     OW31609   6.160   4.221   1.571
10237SOL    HW131610   6.169   4.129   1.532
10237SOL    HW231611   6.208   4.286   1.512
10238SOL     OW31612   3.754   3.790   5.195
10238SOL    HW131613   3.738   3.739   5.110
10238SOL    HW231614   3.788   3.881   5.173
10239SOL     OW31615   1.016   4.441   5.615
10239SOL    HW131616   1.102   4.391   5.604
10239SOL    HW231617   0.980   4.464   5.525
10240SOL     OW31618   1.030   4.363   2.677
10240SOL    HW131619   1.090   4.329   2.750
10240SOL    HW231620   1.086   4.400   2.603
10241SOL     OW31621   0.465   1.091   1.938
10241SOL    HW131622   0.409   1.127   1.863
10241SOL    HW231623   0.410   1.029   1.994
10242SOL     OW31624   0.662   1.831   6.060
10242SOL    HW131625   0.698   1.744   6.027
10242SOL    HW231626   0.671   1.835   6.160
10243SOL     OW31627   0.135   5.394   1.329
10243SOL    HW131628   0.096   5.350   1.248
10243SOL    HW231629   0.164   5.324   1.395
10244SOL     OW31630   1.980   4.513   6.820
10244SOL    HW131631   2.027   4.571   6.886
10244SOL    HW231632   1.958   4.425   6.863
10245SOL     OW31633   2.404   3.498   6.854
10245SOL    HW131634   2.318   3.541   6.826
10245SOL    HW231635   2.421   3.417   6.798
10246SOL     OW31636   2.992   3.849   4.671
10246SOL    HW131637   3.002   3.843   4.770
10246SOL    HW231638   2.929   3.778   4.640
10247SOL     OW31639   0.579   5.314   5.456
10247SOL    HW131640   0.480   5.321   5.471
10247SOL    HW231641   0.627   5.367   5.525
10248SOL     OW31642   3.283   0.301   2.441
10248SOL    HW131643   3.317   0.395   2.439
10248SOL    HW231644   3.189   0.301   2.476
10249SOL     OW31645   3.473   0.718   5.252
10249SOL    HW131646   3.462   0.760   5.162
10249SOL    HW231647   3.405   0.646   5.265
10250SOL     OW31648   6.870   1.465   1.065
10250SOL    HW131649   6.877   1.452   1.163
10250SOL    HW231650   6.809   1.542   1.045
10251SOL     OW31651   2.263   2.825   5.898
10251SOL    HW131652   2.338   2.770   5.935
10251SOL    HW231653   2.277   2.921   5.922
10252SOL     OW31654   6.053   6.844   0.633
10252SOL    HW131655   6.011   6.916   0.690
10252SOL    HW231656   6.013   6.756   0.656
10253SOL     OW31657   5.026   5.301   0.101
10253SOL    HW131658   5.005   5.357   0.021
10253SOL    HW231659   5.123   5.275   0.099
10254SOL     OW31660   3.483   1.884   4.448
10254SOL    HW131661   3.430   1.926   4.374
10254SOL    HW231662   3.504   1.954   4.516
10255SOL     OW31663   1.905   6.335   1.154
10255SOL    HW131664   1.975   6.272   1.189
10255SOL    HW231665   1.917   6.425   1.196
10256SOL     OW31666   5.474   0.519   0.789
10256SOL    HW131667   5.414   0.441   0.775
10256SOL    HW231668   5.448   0.593   0.727
10257SOL     OW31669   0.664   4.682   5.112
10257SOL    HW131670   0.650   4.616   5.038
10257SOL    HW231671   0.631   4.643   5.198
10258SOL     OW31672   5.240   6.694   3.612
10258SOL    HW131673   5.311   6.630   3.584
10258SOL    HW231674   5.156   6.644   3.633
10259SOL     OW31675   1.065   5.150   3.446
10259SOL    HW131676   1.103   5.221   3.505
10259SOL    HW231677   1.109   5.154   3.356
10260SOL     OW31678   6.867   6.870   3.042
10260SOL    HW131679   6.856   6.779   3.081
10260SOL    HW231680   6.796   6.886   2.974
10261SOL     OW31681   0.222   6.407   2.204
10261SOL    HW131682   0.303   6.466   2.212
10261SOL    HW231683   0.147   6.460   2.165
10262SOL     OW31684   3.522   5.433   4.542
10262SOL    HW131685   3.509   5.531   4.527
10262SOL    HW231686   3.433   5.389   4.557
10263SOL     OW31687   4.854   1.516   6.609
10263SOL    HW131688   4.906   1.452   6.552
10263SOL    HW231689   4.832   1.472   6.696
10264SOL     OW31690   6.091   1.732   6.768
10264SOL    HW131691   6.091   1.806   6.836
10264SOL    HW231692   5.997   1.704   6.750
10265SOL     OW31693   3.112   1.591   3.010
10265SOL    HW131694   3.121   1.585   2.911
10265SOL    HW231695   3.020   1.563   3.037
10266SOL     OW31696   3.825   3.461   5.730
10266SOL    HW131697   3.868   3.548   5.704
10266SOL    HW231698   3.881   3.415   5.798
10267SOL     OW31699   6.669   2.001   6.930
10267SOL    HW131700   6.574   2.018   6.901
10267SOL    HW231701   6.675   2.004   0.007
10268SOL     OW31702   5.202   6.401   1.414
10268SOL    HW131703   5.104   6.397   1.432
10268SOL    HW231704   5.246   6.458   1.483
10269SOL     OW31705   2.388   1.377   5.618
10269SOL    HW131706   2.462   1.372   5.551
10269SOL    HW231707   2.329   1.297   5.609
10270SOL     OW31708   2.230   5.893   1.314
10270SOL    HW131709   2.329   5.896   1.298
10270SOL    HW231710   2.207   5.948   1.394
10271SOL     OW31711   3.138   3.513   0.245
10271SOL    HW131712   3.116   3.588   0.307
10271SOL    HW231713   3.223   3.533   0.196
10272SOL     OW31714   0.832   0.822   4.232
10272SOL    HW131715   0.787   0.856   4.150
10272SOL    HW231716   0.883   0.897   4.275
10273SOL     OW31717   3.929   5.849   3.974
10273SOL    HW131718   3.972   5.864   3.885
10273SOL    HW231719   3.975   5.773   4.021
10274SOL     OW31720   1.268   4.890   5.528
10274SOL    HW131721   1.243   4.968   5.470
10274SOL    HW231722   1.368   4.881   5.530
10275SOL     OW31723   1.222   0.173   2.803
10275SOL    HW131724   1.158   0.188   2.728
10275SOL    HW231725   1.177   0.194   2.890
10276SOL     OW31726   6.836   5.418   5.950
10276SOL    HW131727   6.905   5.468   6.001
10276SOL    HW231728   6.820   5.329   5.993
10277SOL     OW31729   2.912   6.095   4.245
10277SOL    HW131730   2.957   6.075   4.158
10277SOL    HW231731   2.980   6.094   4.318
10278SOL     OW31732   6.452   1.383   5.608
10278SOL    HW131733   6.505   1.309   5.649
10278SOL    HW231734   6.395   1.426   5.678
10279SOL     OW31735   3.705   0.388   3.964
10279SOL    HW131736   3.805   0.381   3.974
10279SOL    HW231737   3.661   0.334   4.036
10280SOL     OW31738   2.155   4.608   1.040
10280SOL    HW131739   2.124   4.679   0.977
10280SOL    HW231740   2.107   4.618   1.127
10281SOL     OW31741   5.185   2.302   2.702
10281SOL    HW131742   5.167   2.204   2.708
10281SOL    HW231743   5.279   2.321   2.734
10282SOL     OW31744   6.677   3.247   4.141
10282SOL    HW131745   6.626   3.310   4.081
10282SOL    HW231746   6.648   3.154   4.122
10283SOL     OW31747   1.280   3.248   1.044
10283SOL    HW131748   1.248   3.192   1.121
10283SOL    HW231749   1.287   3.191   0.962
10284SOL     OW31750   5.822   4.285   5.265
10284SOL    HW131751   5.829   4.226   5.185
10284SOL    HW231752   5.902   4.345   5.269
10285SOL     OW31753   4.510   0.387   1.593
10285SOL    HW131754   4.538   0.405   1.499
10285SOL    HW231755   4.586   0.407   1.655
10286SOL     OW31756   3.483   1.700   2.800
10286SOL    HW131757   3.403   1.744   2.840
10286SOL    HW231758   3.475   1.701   2.700
10287SOL     OW31759   2.179   0.021   1.844
10287SOL    HW131760   2.262   7.013   1.797
10287SOL    HW231761   2.103   6.984   1.819
10288SOL     OW31762   5.473   5.852   2.222
10288SOL    HW131763   5.465   5.887   2.129
10288SOL    HW231764   5.459   5.753   2.221
10289SOL     OW31765   3.302   1.119   1.376
10289SOL    HW131766   3.263   1.144   1.287
10289SOL    HW231767   3.370   1.048   1.363
10290SOL     OW31768   3.474   4.150   2.856
10290SOL    HW131769   3.379   4.151   2.825
10290SOL    HW231770   3.522   4.230   2.819
10291SOL     OW31771   4.180   0.531   4.059
10291SOL    HW131772   4.142   0.619   4.030
10291SOL    HW231773   4.122   0.457   4.026
10292SOL     OW31774   0.540   2.059   4.577
10292SOL    HW131775   0.567   2.018   4.490
10292SOL    HW231776   0.441   2.073   4.579
10293SOL     OW31777   1.518   6.682   3.062
10293SOL    HW131778   1.459   6.753   3.025
10293SOL    HW231779   1.488   6.592   3.028
10294SOL     OW31780   4.913   3.067   3.315
10294SOL    HW131781   4.942   3.031   3.404
10294SOL    HW231782   4.909   3.167   3.319
10295SOL     OW31783   5.630   4.787   5.633
10295SOL    HW131784   5.727   4.806   5.620
10295SOL    HW231785   5.617   4.692   5.659
10296SOL     OW31786   5.685   4.489   6.161
10296SOL    HW131787   5.754   4.521   6.097
10296SOL    HW231788   5.621   4.563   6.182
10297SOL     OW31789   2.592   6.610   4.363
10297SOL    HW131790   2.510   6.552   4.368
10297SOL    HW231791   2.567   6.704   4.384
10298SOL     OW31792   4.609   4.379   3.185
10298SOL    HW131793   4.578   4.409   3.275
10298SOL    HW231794   4.677   4.307   3.196
10299SOL     OW31795   4.530   4.552   2.995
10299SOL    HW131796   4.561   4.513   2.908
10299SOL    HW231797   4.566   4.497   3.071
10300SOL     OW31798   1.666   3.979   1.928
10300SOL    HW131799   1.737   3.966   1.997
10300SOL    HW231800   1.674   4.071   1.890
10301SOL     OW31801   5.787   1.734   3.254
10301SOL    HW131802   5.849   1.752   3.330
10301SOL    HW231803   5.698   1.776   3.272
10302SOL     OW31804   1.545   6.317   2.333
10302SOL    HW131805   1.625   6.375   2.324
10302SOL    HW231806   1.508   6.325   2.426
10303SOL     OW31807   3.919   4.038   1.264
10303SOL    HW131808   3.938   4.097   1.342
10303SOL    HW231809   3.847   3.973   1.288
10304SOL     OW31810   6.082   0.439   4.180
10304SOL    HW131811   6.134   0.354   4.171
10304SOL    HW231812   6.144   0.517   4.177
10305SOL     OW31813   1.288   6.314   6.984
10305SOL    HW131814   1.283   6.414   6.993
10305SOL    HW231815   1.199   6.279   6.956
10306SOL     OW31816   4.689   5.202   6.950
10306SOL    HW131817   4.731   5.140   7.016
10306SOL    HW231818   4.698   5.296   6.984
10307SOL     OW31819   1.370   1.096   4.979
10307SOL    HW131820   1.407   1.161   4.912
10307SOL    HW231821   1.284   1.059   4.945
10308SOL     OW31822   3.308   5.030   3.801
10308SOL    HW131823   3.328   5.128   3.807
10308SOL    HW231824   3.351   4.993   3.719
10309SOL     OW31825   6.098   6.697   3.334
10309SOL    HW131826   6.085   6.651   3.247
10309SOL    HW231827   6.078   6.794   3.324
10310SOL     OW31828   2.903   3.675   1.875
10310SOL    HW131829   2.972   3.653   1.806
10310SOL    HW231830   2.824   3.717   1.830
10311SOL     OW31831   0.830   5.456   1.161
10311SOL    HW131832   0.822   5.550   1.195
10311SOL    HW231833   0.740   5.424   1.132
10312SOL     OW31834   3.544   5.021   0.592
10312SOL    HW131835   3.569   4.937   0.544
10312SOL    HW231836   3.625   5.080   0.600
10313SOL     OW31837   4.290   0.045   2.377
10313SOL    HW131838   4.288   7.016   2.463
10313SOL    HW231839   4.215   0.015   2.318
10314SOL     OW31840   6.134   0.688   0.577
10314SOL    HW131841   6.231   0.685   0.553
10314SOL    HW231842   6.123   0.670   0.674
10315SOL     OW31843   5.813   6.227   5.447
10315SOL    HW131844   5.830   6.287   5.369
10315SOL    HW231845   5.738   6.265   5.502
10316SOL     OW31846   0.478   3.325   4.866
10316SOL    HW131847   0.503   3.245   4.810
10316SOL    HW231848   0.503   3.308   4.961
10317SOL     OW31849   3.723   5.061   6.234
10317SOL    HW131850   3.795   5.130   6.233
10317SOL    HW231851   3.637   5.101   6.203
10318SOL     OW31852   6.114   5.429   1.723
10318SOL    HW131853   6.179   5.472   1.660
10318SOL    HW231854   6.151   5.342   1.754
10319SOL     OW31855   0.275   4.733   4.748
10319SOL    HW131856   0.269   4.692   4.657
10319SOL    HW231857   0.257   4.663   4.817
10320SOL     OW31858   0.912   0.072   1.165
10320SOL    HW131859   0.910   6.995   1.161
10320SOL    HW231860   0.910   0.109   1.072
10321SOL     OW31861   3.765   6.228   5.061
10321SOL    HW131862   3.691   6.212   4.995
10321SOL    HW231863   3.805   6.141   5.088
10322SOL     OW31864   6.229   6.206   0.579
10322SOL    HW131865   6.190   6.296   0.558
10322SOL    HW231866   6.323   6.218   0.612
10323SOL     OW31867   6.526   3.539   6.561
10323SOL    HW131868   6.499   3.448   6.595
10323SOL    HW231869   6.553   3.532   6.465
10324SOL     OW31870   3.663   3.182   3.129
10324SOL    HW131871   3.685   3.268   3.176
10324SOL    HW231872   3.714   3.107   3.172
10325SOL     OW31873   6.755   4.235   3.667
10325SOL    HW131874   6.687   4.258   3.736
10325SOL    HW231875   6.709   4.211   3.581
10326SOL     OW31876   4.954   2.433   0.208
10326SOL    HW131877   4.890   2.496   0.166
10326SOL    HW231878   4.944   2.437   0.308
10327SOL     OW31879   2.107   1.386   3.077
10327SOL    HW131880   2.027   1.393   3.018
10327SOL    HW231881   2.135   1.477   3.107
10328SOL     OW31882   5.464   3.565   2.549
10328SOL    HW131883   5.543   3.538   2.604
10328SOL    HW231884   5.476   3.660   2.518
10329SOL     OW31885   2.778   0.534   3.778
10329SOL    HW131886   2.806   0.630   3.772
10329SOL    HW231887   2.702   0.525   3.841
10330SOL     OW31888   3.718   5.201   3.209
10330SOL    HW131889   3.716   5.106   3.179
10330SOL    HW231890   3.649   5.216   3.279
10331SOL     OW31891   5.855   0.836   3.330
10331SOL    HW131892   5.939   0.875   3.367
10331SOL    HW231893   5.776   0.878   3.375
10332SOL     OW31894   0.021   2.107   0.780
10332SOL    HW131895   7.008   2.035   0.839
10332SOL    HW231896   0.022   2.074   0.685
10333SOL     OW31897   5.531   4.823   3.873
10333SOL    HW131898   5.538   4.761   3.950
10333SOL    HW231899   5.470   4.899   3.897
10334SOL     OW31900   1.881   4.778   3.648
10334SOL    HW131901   1.792   4.806   3.685
10334SOL    HW231902   1.874   4.685   3.611
10335SOL     OW31903   2.226   5.245   6.631
10335SOL    HW131904   2.272   5.218   6.715
10335SOL    HW231905   2.129   5.258   6.649
10336SOL     OW31906   4.395   6.874   2.142
10336SOL    HW131907   4.494   6.877   2.134
10336SOL    HW231908   4.362   6.961   2.179
10337SOL     OW31909   0.249   5.175   4.962
10337SOL    HW131910   0.321   5.220   4.910
10337SOL    HW231911   0.210   5.100   4.909
10338SOL     OW31912   3.862   6.642   1.101
10338SOL    HW131913   3.960   6.660   1.088
10338SOL    HW231914   3.818   6.637   1.011
10339SOL     OW31915   3.863   5.544   0.955
10339SOL    HW131916   3.843   5.630   0.909
10339SOL    HW231917   3.899   5.562   1.047
10340SOL     OW31918   2.490   5.448   6.652
10340SOL    HW131919   2.512   5.375   6.587
10340SOL    HW231920   2.391   5.460   6.656
10341SOL     OW31921   2.476   2.531   2.440
10341SOL    HW131922   2.439   2.590   2.511
10341SOL    HW231923   2.554   2.480   2.476
10342SOL     OW31924   2.346   6.563   6.335
10342SOL    HW131925   2.265   6.509   6.357
10342SOL    HW231926   2.320   6.659   6.327
10343SOL     OW31927   1.909   4.135   6.605
10343SOL    HW131928   1.992   4.080   6.603
10343SOL    HW231929   1.933   4.232   6.599
10344SOL     OW31930   4.124   3.609   4.450
10344SOL    HW131931   4.212   3.656   4.438
10344SOL    HW231932   4.090   3.627   4.543
10345SOL     OW31933   2.840   1.295   0.369
10345SOL    HW131934   2.821   1.250   0.282
10345SOL    HW231935   2.779   1.258   0.439
10346SOL     OW31936   5.476   6.958   0.265
10346SOL    HW131937   5.397   6.981   0.208
10346SOL    HW231938   5.557   7.004   0.229
10347SOL     OW31939   5.114   1.797   0.939
10347SOL    HW131940   5.129   1.810   1.037
10347SOL    HW231941   5.130   1.883   0.891
10348SOL     OW31942   6.293   1.245   6.172
10348SOL    HW131943   6.391   1.227   6.185
10348SOL    HW231944   6.260   1.306   6.245
10349SOL     OW31945   5.933   1.063   0.749
10349SOL    HW131946   5.968   1.004   0.822
10349SOL    HW231947   5.842   1.095   0.774
10350SOL     OW31948   3.551   6.035   4.227
10350SOL    HW131949   3.620   6.062   4.294
10350SOL    HW231950   3.581   6.062   4.135
10351SOL     OW31951   6.032   5.150   5.162
10351SOL    HW131952   5.938   5.119   5.149
10351SOL    HW231953   6.095   5.094   5.109
10352SOL     OW31954   5.629   2.059   0.007
10352SOL    HW131955   5.627   1.977   6.972
10352SOL    HW231956   5.547   2.062   0.063
10353SOL     OW31957   7.015   3.394   3.375
10353SOL    HW131958   6.975   3.303   3.371
10353SOL    HW231959   6.944   3.460   3.401
10354SOL     OW31960   0.485   3.779   0.849
10354SOL    HW131961   0.422   3.701   0.847
10354SOL    HW231962   0.554   3.768   0.778
10355SOL     OW31963   1.118   1.686   1.183
10355SOL    HW131964   1.080   1.596   1.163
10355SOL    HW231965   1.218   1.681   1.185
10356SOL     OW31966   0.474   3.146   6.412
10356SOL    HW131967   0.458   3.231   6.462
10356SOL    HW231968   0.467   3.068   6.474
10357SOL     OW31969   1.689   2.335   6.518
10357SOL    HW131970   1.683   2.236   6.501
10357SOL    HW231971   1.785   2.362   6.525
10358SOL     OW31972   1.726   2.455   2.627
10358SOL    HW131973   1.772   2.419   2.709
10358SOL    HW231974   1.628   2.460   2.643
10359SOL     OW31975   4.945   2.355   2.825
10359SOL    HW131976   5.028   2.326   2.777
10359SOL    HW231977   4.866   2.347   2.764
10360SOL     OW31978   5.353   5.209   3.068
10360SOL    HW131979   5.447   5.180   3.085
10360SOL    HW231980   5.293   5.129   3.060
10361SOL     OW31981   2.204   1.625   1.480
10361SOL    HW131982   2.218   1.526   1.486
10361SOL    HW231983   2.119   1.649   1.526
10362SOL     OW31984   0.227   5.264   1.960
10362SOL    HW131985   0.214   5.208   2.042
10362SOL    HW231986   0.240   5.360   1.986
10363SOL     OW31987   4.684   3.312   0.485
10363SOL    HW131988   4.738   3.384   0.441
10363SOL    HW231989   4.699   3.314   0.584
10364SOL     OW31990   5.192   5.125   0.948
10364SOL    HW131991   5.182   5.195   1.019
10364SOL    HW231992   5.156   5.039   0.982
10365SOL     OW31993   5.875   5.172   0.157
10365SOL    HW131994   5.800   5.162   0.223
10365SOL    HW231995   5.855   5.118   0.076
10366SOL     OW31996   4.235   6.577   3.100
10366SOL    HW131997   4.197   6.668   3.083
10366SOL    HW231998   4.326   6.586   3.141
10367SOL     OW31999   6.627   1.962   1.688
10367SOL    HW132000   6.676   1.908   1.757
10367SOL    HW232001   6.686   1.975   1.609
10368SOL     OW32002   2.930   0.730   2.606
10368SOL    HW132003   3.009   0.674   2.633
10368SOL    HW232004   2.849   0.672   2.598
10369SOL     OW32005   2.980   6.245   5.581
10369SOL    HW132006   2.896   6.240   5.527
10369SOL    HW232007   3.059   6.242   5.520
10370SOL     OW32008   6.262   1.324   4.320
10370SOL    HW132009   6.323   1.292   4.247
10370SOL    HW232010   6.167   1.303   4.297
10371SOL     OW32011   3.634   6.406   2.939
10371SOL    HW132012   3.729   6.432   2.923
10371SOL    HW232013   3.596   6.367   2.856
10372SOL     OW32014   2.940   0.528   1.689
10372SOL    HW132015   2.854   0.507   1.643
10372SOL    HW232016   2.996   0.446   1.695
10373SOL     OW32017   0.560   6.800   4.954
10373SOL    HW132018   0.477   6.853   4.936
10373SOL    HW232019   0.535   6.704   4.966
10374SOL     OW32020   2.887   6.581   4.424
10374SOL    HW132021   2.871   6.569   4.522
10374SOL    HW232022   2.801   6.568   4.375
10375SOL     OW32023   2.905   2.638   5.893
10375SOL    HW132024   2.868   2.657   5.984
10375SOL    HW232025   2.970   2.561   5.899
10376SOL     OW32026   1.292   6.233   3.323
10376SOL    HW132027   1.240   6.248   3.238
10376SOL    HW232028   1.388   6.216   3.300
10377SOL     OW32029   0.000   1.876   1.979
10377SOL    HW132030   6.994   1.783   1.998
10377SOL    HW232031   0.098   1.878   1.959
10378SOL     OW32032   0.157   5.695   5.592
10378SOL    HW132033   0.236   5.644   5.558
10378SOL    HW232034   0.172   5.721   5.687
10379SOL     OW32035   2.555   6.163   4.614
10379SOL    HW132036   2.612   6.179   4.533
10379SOL    HW232037   2.474   6.221   4.610
10380SOL     OW32038   1.129   2.193   4.765
10380SOL    HW132039   1.043   2.154   4.733
10380SOL    HW232040   1.117   2.289   4.786
10381SOL     OW32041   4.037   4.293   1.454
10381SOL    HW132042   3.989   4.349   1.522
10381SOL    HW232043   4.107   4.239   1.499
10382SOL     OW32044   2.444   5.913   2.183
10382SOL    HW132045   2.516   5.966   2.227
10382SOL    HW232046   2.449   5.927   2.084
10383SOL     OW32047   2.077   4.146   6.925
10383SOL    HW132048   2.061   4.132   6.827
10383SOL    HW232049   2.159   4.096   6.952
10384SOL     OW32050   5.926   6.525   1.190
10384SOL    HW132051   6.019   6.532   1.155
10384SOL    HW232052   5.922   6.559   1.284
10385SOL     OW32053   3.508   5.140   6.074
10385SOL    HW132054   3.527   5.065   6.011
10385SOL    HW232055   3.411   5.137   6.100
10386SOL     OW32056   0.291   1.194   5.910
10386SOL    HW132057   0.270   1.284   5.871
10386SOL    HW232058   0.209   1.136   5.907
10387SOL     OW32059   5.371   3.107   3.666
10387SOL    HW132060   5.293   3.095   3.605
10387SOL    HW232061   5.433   3.175   3.627
10388SOL     OW32062   2.747   0.052   6.860
10388SOL    HW132063   2.786   0.004   6.782
10388SOL    HW232064   2.730   7.010   6.934
10389SOL     OW32065   6.426   3.715   0.329
10389SOL    HW132066   6.384   3.714   0.239
10389SOL    HW232067   6.408   3.628   0.375
10390SOL     OW32068   1.529   2.616   0.613
10390SOL    HW132069   1.464   2.580   0.680
10390SOL    HW232070   1.599   2.670   0.660
10391SOL     OW32071   1.356   6.426   3.583
10391SOL    HW132072   1.264   6.439   3.548
10391SOL    HW232073   1.408   6.511   3.572
10392SOL     OW32074   5.599   5.246   5.571
10392SOL    HW132075   5.504   5.271   5.551
10392SOL    HW232076   5.605   5.209   5.664
10393SOL     OW32077   1.917   3.777   3.738
10393SOL    HW132078   2.008   3.818   3.745
10393SOL    HW232079   1.902   3.747   3.644
10394SOL     OW32080   2.632   5.537   4.382
10394SOL    HW132081   2.634   5.636   4.363
10394SOL    HW232082   2.674   5.520   4.471
10395SOL     OW32083   0.599   6.391   1.623
10395SOL    HW132084   0.519   6.447   1.598
10395SOL    HW232085   0.595   6.304   1.573
10396SOL     OW32086   4.341   1.707   4.072
10396SOL    HW132087   4.394   1.651   4.008
10396SOL    HW232088   4.296   1.647   4.139
10397SOL     OW32089   3.005   2.196   3.132
10397SOL    HW132090   3.037   2.148   3.214
10397SOL    HW232091   3.018   2.294   3.143
10398SOL     OW32092   5.866   2.597   0.915
10398SOL    HW132093   5.872   2.696   0.929
10398SOL    HW232094   5.893   2.575   0.821
10399SOL     OW32095   5.154   1.982   3.653
10399SOL    HW132096   5.212   1.904   3.678
10399SOL    HW232097   5.068   1.949   3.614
10400SOL     OW32098   4.239   6.574   0.303
10400SOL    HW132099   4.262   6.594   0.398
10400SOL    HW232100   4.261   6.478   0.283
10401SOL     OW32101   6.738   0.388   3.410
10401SOL    HW132102   6.716   0.424   3.319
10401SOL    HW232103   6.653   0.373   3.461
10402SOL     OW32104   6.387   3.300   5.393
10402SOL    HW132105   6.365   3.296   5.295
10402SOL    HW232106   6.305   3.281   5.446
10403SOL     OW32107   4.818   1.218   3.607
10403SOL    HW132108   4.745   1.264   3.658
10403SOL    HW232109   4.857   1.144   3.662
10404SOL     OW32110   6.225   6.677   5.391
10404SOL    HW132111   6.311   6.717   5.423
10404SOL    HW232112   6.203   6.596   5.446
10405SOL     OW32113   0.965   0.721   5.131
10405SOL    HW132114   1.037   0.762   5.188
10405SOL    HW232115   0.931   0.789   5.066
10406SOL     OW32116   3.053   4.902   3.038
10406SOL    HW132117   3.057   4.995   3.004
10406SOL    HW232118   3.118   4.891   3.113
10407SOL     OW32119   2.988   6.854   5.822
10407SOL    HW132120   2.926   6.931   5.836
10407SOL    HW232121   2.997   6.802   5.907
10408SOL     OW32122   4.417   0.137   1.351
10408SOL    HW132123   4.492   0.116   1.289
10408SOL    HW232124   4.425   0.081   1.434
10409SOL     OW32125   0.213   4.594   0.849
10409SOL    HW132126   0.253   4.525   0.788
10409SOL    HW232127   0.174   4.668   0.794
10410SOL     OW32128   5.279   2.006   0.782
10410SOL    HW132129   5.229   2.024   0.697
10410SOL    HW232130   5.258   2.078   0.848
10411SOL     OW32131   3.746   6.824   3.773
10411SOL    HW132132   3.729   6.884   3.694
10411SOL    HW232133   3.665   6.821   3.830
10412SOL     OW32134   0.378   1.595   0.193
10412SOL    HW132135   0.376   1.578   0.094
10412SOL    HW232136   0.464   1.642   0.216
10413SOL     OW32137   6.476   2.874   0.789
10413SOL    HW132138   6.424   2.817   0.726
10413SOL    HW232139   6.457   2.846   0.883
10414SOL     OW32140   4.039   4.353   5.864
10414SOL    HW132141   4.064   4.377   5.770
10414SOL    HW232142   3.945   4.385   5.882
10415SOL     OW32143   1.587   3.452   4.508
10415SOL    HW132144   1.650   3.377   4.531
10415SOL    HW232145   1.498   3.414   4.484
10416SOL     OW32146   6.089   0.124   4.858
10416SOL    HW132147   6.144   0.173   4.925
10416SOL    HW232148   6.134   0.125   4.769
10417SOL     OW32149   3.134   5.353   4.383
10417SOL    HW132150   3.177   5.318   4.300
10417SOL    HW232151   3.117   5.277   4.446
10418SOL     OW32152   7.018   4.395   6.720
10418SOL    HW132153   0.088   4.403   6.754
10418SOL    HW232154   7.002   4.301   6.690
10419SOL     OW32155   1.488   6.941   6.128
10419SOL    HW132156   1.398   6.968   6.162
10419SOL    HW232157   1.506   6.846   6.156
10420SOL     OW32158   6.133   3.888   3.157
10420SOL    HW132159   6.133   3.792   3.128
10420SOL    HW232160   6.192   3.941   3.097
10421SOL     OW32161   0.344   1.690   3.330
10421SOL    HW132162   0.374   1.719   3.239
10421SOL    HW232163   0.421   1.650   3.380
10422SOL     OW32164   6.887   3.385   5.375
10422SOL    HW132165   6.844   3.295   5.374
10422SOL    HW232166   6.881   3.424   5.468
10423SOL     OW32167   6.159   5.559   4.724
10423SOL    HW132168   6.085   5.550   4.791
10423SOL    HW232169   6.180   5.656   4.711
10424SOL     OW32170   5.728   2.767   0.737
10424SOL    HW132171   5.640   2.746   0.694
10424SOL    HW232172   5.792   2.693   0.719
10425SOL     OW32173   1.067   0.142   1.917
10425SOL    HW132174   0.982   0.135   1.969
10425SOL    HW232175   1.106   0.233   1.929
10426SOL     OW32176   6.675   4.772   0.379
10426SOL    HW132177   6.675   4.871   0.399
10426SOL    HW232178   6.624   4.755   0.296
10427SOL     OW32179   3.697   0.253   6.500
10427SOL    HW132180   3.738   0.162   6.492
10427SOL    HW232181   3.768   0.319   6.525
10428SOL     OW32182   3.021   1.255   4.026
10428SOL    HW132183   3.014   1.278   4.123
10428SOL    HW232184   3.099   1.194   4.012
10429SOL     OW32185   0.152   5.044   0.808
10429SOL    HW132186   0.201   5.007   0.887
10429SOL    HW232187   0.134   5.141   0.822
10430SOL     OW32188   5.012   6.453   4.139
10430SOL    HW132189   4.931   6.417   4.093
10430SOL    HW232190   4.986   6.493   4.227
10431SOL     OW32191   3.198   5.747   4.088
10431SOL    HW132192   3.280   5.726   4.141
10431SOL    HW232193   3.126   5.781   4.148
10432SOL     OW32194   6.217   6.657   5.085
10432SOL    HW132195   6.136   6.602   5.066
10432SOL    HW232196   6.231   6.663   5.184
10433SOL     OW32197   2.143   6.125   1.210
10433SOL    HW132198   2.175   6.043   1.258
10433SOL    HW232199   2.115   6.101   1.117
10434SOL     OW32200   4.062   6.591   3.560
10434SOL    HW132201   4.077   6.648   3.479
10434SOL    HW232202   3.964   6.581   3.576
10435SOL     OW32203   0.546   0.173   4.583
10435SOL    HW132204   0.511   0.136   4.669
10435SOL    HW232205   0.644   0.154   4.576
10436SOL     OW32206   0.820   5.127   6.099
10436SOL    HW132207   0.767   5.043   6.092
10436SOL    HW232208   0.770   5.202   6.055
10437SOL     OW32209   6.228   5.472   6.083
10437SOL    HW132210   6.228   5.476   6.183
10437SOL    HW232211   6.159   5.407   6.052
10438SOL     OW32212   5.953   6.566   0.730
10438SOL    HW132213   5.867   6.517   0.746
10438SOL    HW232214   6.023   6.529   0.790
10439SOL     OW32215   4.011   1.303   6.396
10439SOL    HW132216   3.966   1.251   6.324
10439SOL    HW232217   3.943   1.353   6.449
10440SOL     OW32218   1.026   6.484   0.249
10440SOL    HW132219   0.966   6.457   0.174
10440SOL    HW232220   1.069   6.572   0.227
10441SOL     OW32221   3.923   0.375   0.458
10441SOL    HW132222   3.853   0.441   0.485
10441SOL    HW232223   4.010   0.398   0.502
10442SOL     OW32224   3.364   6.333   6.035
10442SOL    HW132225   3.264   6.323   6.032
10442SOL    HW232226   3.392   6.351   6.129
10443SOL     OW32227   4.926   3.951   4.913
10443SOL    HW132228   4.892   4.038   4.948
10443SOL    HW232229   4.919   3.951   4.813
10444SOL     OW32230   3.734   6.402   4.424
10444SOL    HW132231   3.720   6.455   4.341
10444SOL    HW232232   3.749   6.306   4.401
10445SOL     OW32233   1.257   5.542   4.251
10445SOL    HW132234   1.158   5.553   4.250
10445SOL    HW232235   1.287   5.503   4.164
10446SOL     OW32236   0.944   2.878   5.579
10446SOL    HW132237   0.882   2.854   5.505
10446SOL    HW232238   0.924   2.821   5.659
10447SOL     OW32239   0.071   0.943   2.400
10447SOL    HW132240   0.157   0.961   2.449
10447SOL    HW232241   7.020   0.996   2.441
10448SOL     OW32242   3.433   1.594   1.567
10448SOL    HW132243   3.386   1.583   1.655
10448SOL    HW232244   3.505   1.663   1.575
10449SOL     OW32245   2.171   5.448   4.386
10449SOL    HW132246   2.185   5.522   4.452
10449SOL    HW232247   2.084   5.402   4.406
10450SOL     OW32248   0.698   2.009   0.339
10450SOL    HW132249   0.672   2.105   0.351
10450SOL    HW232250   0.622   1.959   0.296
10451SOL     OW32251   2.175   5.110   2.638
10451SOL    HW132252   2.147   5.014   2.642
10451SOL    HW232253   2.116   5.164   2.698
10452SOL     OW32254   5.625   3.473   3.356
10452SOL    HW132255   5.573   3.536   3.298
10452SOL    HW232256   5.622   3.505   3.450
10453SOL     OW32257   4.784   5.640   1.585
10453SOL    HW132258   4.857   5.701   1.553
10453SOL    HW232259   4.750   5.586   1.508
10454SOL     OW32260   4.368   2.859   1.135
10454SOL    HW132261   4.428   2.881   1.211
10454SOL    HW232262   4.288   2.809   1.169
10455SOL     OW32263   6.664   5.457   2.184
10455SOL    HW132264   6.608   5.508   2.118
10455SOL    HW232265   6.756   5.442   2.146
10456SOL     OW32266   3.143   6.143   0.990
10456SOL    HW132267   3.237   6.167   0.968
10456SOL    HW232268   3.135   6.044   1.001
10457SOL     OW32269   3.180   3.035   2.550
10457SOL    HW132270   3.237   2.970   2.501
10457SOL    HW232271   3.116   3.079   2.487
10458SOL     OW32272   0.095   1.156   6.401
10458SOL    HW132273   0.068   1.131   6.494
10458SOL    HW232274   0.102   1.074   6.345
10459SOL     OW32275   5.142   4.963   2.730
10459SOL    HW132276   5.115   5.039   2.672
10459SOL    HW232277   5.239   4.942   2.716
10460SOL     OW32278   1.425   5.203   1.524
10460SOL    HW132279   1.383   5.293   1.514
10460SOL    HW232280   1.515   5.203   1.481
10461SOL     OW32281   1.234   5.828   5.222
10461SOL    HW132282   1.176   5.820   5.141
10461SOL    HW232283   1.182   5.875   5.294
10462SOL     OW32284   5.770   1.864   2.809
10462SOL    HW132285   5.698   1.857   2.878
10462SOL    HW232286   5.776   1.958   2.776
10463SOL     OW32287   4.021   2.860   5.586
10463SOL    HW132288   4.058   2.867   5.679
10463SOL    HW232289   4.094   2.875   5.520
10464SOL     OW32290   5.724   6.586   0.996
10464SOL    HW132291   5.809   6.555   1.039
10464SOL    HW232292   5.709   6.536   0.911
10465SOL     OW32293   5.819   6.989   0.730
10465SOL    HW132294   5.785   6.956   0.818
10465SOL    HW232295   5.752   0.029   0.690
10466SOL     OW32296   4.661   5.088   5.164
10466SOL    HW132297   4.634   5.183   5.179
10466SOL    HW232298   4.609   5.050   5.088
10467SOL     OW32299   0.925   1.939   5.398
10467SOL    HW132300   0.903   1.868   5.331
10467SOL    HW232301   0.991   2.003   5.359
10468SOL     OW32302   3.779   4.918   3.192
10468SOL    HW132303   3.741   4.897   3.101
10468SOL    HW232304   3.879   4.926   3.185
10469SOL     OW32305   3.317   2.594   6.638
10469SOL    HW132306   3.261   2.515   6.662
10469SOL    HW232307   3.259   2.675   6.631
10470SOL     OW32308   2.650   1.612   3.248
10470SOL    HW132309   2.594   1.663   3.183
10470SOL    HW232310   2.685   1.675   3.318
10471SOL     OW32311   2.105   3.146   1.069
10471SOL    HW132312   2.185   3.161   1.128
10471SOL    HW232313   2.096   3.223   1.006
10472SOL     OW32314   3.295   5.642   0.895
10472SOL    HW132315   3.293   5.568   0.828
10472SOL    HW232316   3.390   5.668   0.912
10473SOL     OW32317   5.574   0.383   0.224
10473SOL    HW132318   5.500   0.418   0.167
10473SOL    HW232319   5.599   0.452   0.292
10474SOL     OW32320   4.436   1.412   4.689
10474SOL    HW132321   4.373   1.451   4.622
10474SOL    HW232322   4.446   1.314   4.672
10475SOL     OW32323   4.601   6.173   2.170
10475SOL    HW132324   4.531   6.147   2.104
10475SOL    HW232325   4.679   6.213   2.122
10476SOL     OW32326   0.092   5.321   6.251
10476SOL    HW132327   0.147   5.397   6.286
10476SOL    HW232328   0.110   5.239   6.305
10477SOL     OW32329   5.988   2.550   5.058
10477SOL    HW132330   5.905   2.509   5.096
10477SOL    HW232331   6.068   2.513   5.105
10478SOL     OW32332   0.214   0.122   0.656
10478SOL    HW132333   0.311   0.109   0.677
10478SOL    HW232334   0.165   0.037   0.675
10479SOL     OW32335   0.163   2.813   1.979
10479SOL    HW132336   0.237   2.762   2.024
10479SOL    HW232337   0.188   2.830   1.884
10480SOL     OW32338   5.921   0.359   1.341
10480SOL    HW132339   6.017   0.354   1.368
10480SOL    HW232340   5.915   0.380   1.244
10481SOL     OW32341   2.577   0.860   5.414
10481SOL    HW132342   2.650   0.845   5.347
10481SOL    HW232343   2.492   0.820   5.380
10482SOL     OW32344   0.934   5.955   4.510
10482SOL    HW132345   0.884   6.022   4.564
10482SOL    HW232346   0.878   5.926   4.433
10483SOL     OW32347   0.176   5.065   0.315
10483SOL    HW132348   0.242   5.097   0.383
10483SOL    HW232349   0.083   5.079   0.350
10484SOL     OW32350   6.814   0.394   0.957
10484SOL    HW132351   6.810   0.484   1.000
10484SOL    HW232352   6.892   0.391   0.895
10485SOL     OW32353   3.478   2.886   2.584
10485SOL    HW132354   3.479   2.852   2.490
10485SOL    HW232355   3.572   2.904   2.614
10486SOL     OW32356   6.430   0.827   6.032
10486SOL    HW132357   6.347   0.808   6.083
10486SOL    HW232358   6.486   0.892   6.083
10487SOL     OW32359   4.297   1.986   1.362
10487SOL    HW132360   4.207   2.025   1.385
10487SOL    HW232361   4.365   2.018   1.428
10488SOL     OW32362   2.101   2.113   6.121
10488SOL    HW132363   2.076   2.173   6.045
10488SOL    HW232364   2.082   2.160   6.207
10489SOL     OW32365   5.573   6.151   4.319
10489SOL    HW132366   5.486   6.146   4.269
10489SOL    HW232367   5.569   6.092   4.399
10490SOL     OW32368   5.995   1.319   0.538
10490SOL    HW132369   5.955   1.276   0.619
10490SOL    HW232370   6.085   1.357   0.561
10491SOL     OW32371   2.212   2.829   6.404
10491SOL    HW132372   2.198   2.771   6.325
10491SOL    HW232373   2.310   2.842   6.420
10492SOL     OW32374   3.983   5.752   0.662
10492SOL    HW132375   3.971   5.721   0.568
10492SOL    HW232376   3.939   5.842   0.673
10493SOL     OW32377   3.339   5.479   1.287
10493SOL    HW132378   3.424   5.431   1.267
10493SOL    HW232379   3.263   5.432   1.242
10494SOL     OW32380   6.996   4.153   5.604
10494SOL    HW132381   6.988   4.189   5.697
10494SOL    HW232382   6.906   4.152   5.561
10495SOL     OW32383   6.233   6.638   0.281
10495SOL    HW132384   6.221   6.735   0.306
10495SOL    HW232385   6.317   6.628   0.227
10496SOL     OW32386   6.555   4.426   4.960
10496SOL    HW132387   6.584   4.460   5.050
10496SOL    HW232388   6.477   4.365   4.972
10497SOL     OW32389   1.326   6.749   1.967
10497SOL    HW132390   1.331   6.683   1.891
10497SOL    HW232391   1.407   6.739   2.024
10498SOL     OW32392   5.623   5.997   1.021
10498SOL    HW132393   5.599   5.983   1.117
10498SOL    HW232394   5.542   5.984   0.964
10499SOL     OW32395   4.939   6.178   0.825
10499SOL    HW132396   5.011   6.208   0.887
10499SOL    HW232397   4.868   6.248   0.819
10500SOL     OW32398   5.562   2.468   5.610
10500SOL    HW132399   5.652   2.453   5.652
10500SOL    HW232400   5.569   2.540   5.540
10501SOL     OW32401   2.351   6.098   2.932
10501SOL    HW132402   2.394   6.142   3.011
10501SOL    HW232403   2.293   6.024   2.963
10502SOL     OW32404   2.349   3.466   1.027
10502SOL    HW132405   2.447   3.454   1.044
10502SOL    HW232406   2.302   3.485   1.113
10503SOL     OW32407   6.290   4.247   6.850
10503SOL    HW132408   6.234   4.296   6.917
10503SOL    HW232409   6.233   4.209   6.778
10504SOL     OW32410   0.561   2.334   5.443
10504SOL    HW132411   0.614   2.380   5.372
10504SOL    HW232412   0.478   2.296   5.404
10505SOL     OW32413   5.174   6.167   1.744
10505SOL    HW132414   5.242   6.176   1.672
10505SOL    HW232415   5.220   6.172   1.833
10506SOL     OW32416   0.370   3.467   0.392
10506SOL    HW132417   0.365   3.553   0.441
10506SOL    HW232418   0.296   3.407   0.422
10507SOL     OW32419   1.793   5.538   6.713
10507SOL    HW132420   1.714   5.514   6.769
10507SOL    HW232421   1.787   5.635   6.687
10508SOL     OW32422   1.204   5.991   3.806
10508SOL    HW132423   1.128   5.997   3.741
10508SOL    HW232424   1.283   6.040   3.769
10509SOL     OW32425   6.113   4.293   4.425
10509SOL    HW132426   6.163   4.379   4.417
10509SOL    HW232427   6.178   4.217   4.424
10510SOL     OW32428   4.734   6.839   0.252
10510SOL    HW132429   4.724   6.759   0.194
10510SOL    HW232430   4.802   6.901   0.211
10511SOL     OW32431   2.659   1.787   2.297
10511SOL    HW132432   2.673   1.757   2.203
10511SOL    HW232433   2.600   1.868   2.297
10512SOL     OW32434   4.078   6.647   5.822
10512SOL    HW132435   3.993   6.598   5.807
10512SOL    HW232436   4.061   6.732   5.872
10513SOL     OW32437   6.548   2.781   3.124
10513SOL    HW132438   6.597   2.868   3.116
10513SOL    HW232439   6.493   2.781   3.208
10514SOL     OW32440   1.612   1.808   1.742
10514SOL    HW132441   1.574   1.716   1.744
10514SOL    HW232442   1.609   1.843   1.648
10515SOL     OW32443   2.711   2.319   3.859
10515SOL    HW132444   2.642   2.375   3.905
10515SOL    HW232445   2.706   2.335   3.760
10516SOL     OW32446   2.621   1.768   0.261
10516SOL    HW132447   2.666   1.780   0.173
10516SOL    HW232448   2.651   1.683   0.303
10517SOL     OW32449   1.323   4.230   1.230
10517SOL    HW132450   1.348   4.164   1.158
10517SOL    HW232451   1.337   4.323   1.196
10518SOL     OW32452   0.236   5.527   2.131
10518SOL    HW132453   0.212   5.563   2.221
10518SOL    HW232454   0.238   5.601   2.064
10519SOL     OW32455   2.709   4.415   1.395
10519SOL    HW132456   2.653   4.387   1.317
10519SOL    HW232457   2.730   4.512   1.388
10520SOL     OW32458   6.897   2.177   6.189
10520SOL    HW132459   6.827   2.249   6.182
10520SOL    HW232460   6.937   2.179   6.281
10521SOL     OW32461   6.384   5.095   1.267
10521SOL    HW132462   6.359   5.125   1.175
10521SOL    HW232463   6.455   5.025   1.262
10522SOL     OW32464   0.469   2.492   2.995
10522SOL    HW132465   0.443   2.526   3.085
10522SOL    HW232466   0.541   2.550   2.957
10523SOL     OW32467   0.381   4.564   3.036
10523SOL    HW132468   0.420   4.617   2.960
10523SOL    HW232469   0.314   4.620   3.084
10524SOL     OW32470   0.582   5.849   4.067
10524SOL    HW132471   0.492   5.806   4.073
10524SOL    HW232472   0.571   5.945   4.040
10525SOL     OW32473   3.880   6.894   5.143
10525SOL    HW132474   3.928   6.809   5.122
10525SOL    HW232475   3.900   6.922   5.237
10526SOL     OW32476   0.522   6.462   1.228
10526SOL    HW132477   0.597   6.397   1.238
10526SOL    HW232478   0.556   6.545   1.182
10527SOL     OW32479   0.685   0.349   6.026
10527SOL    HW132480   0.760   0.285   6.046
10527SOL    HW232481   0.714   0.442   6.047
10528SOL     OW32482   0.595   4.053   6.604
10528SOL    HW132483   0.520   3.989   6.616
10528SOL    HW232484   0.655   4.050   6.684
10529SOL     OW32485   1.284   5.954   4.874
10529SOL    HW132486   1.226   5.983   4.798
10529SOL    HW232487   1.244   5.984   4.961
10530SOL     OW32488   0.739   6.540   5.887
10530SOL    HW132489   0.770   6.575   5.799
10530SOL    HW232490   0.817   6.504   5.938
10531SOL     OW32491   2.924   2.273   4.185
10531SOL    HW132492   2.837   2.279   4.233
10531SOL    HW232493   2.928   2.346   4.116
10532SOL     OW32494   5.942   6.880   6.974
10532SOL    HW132495   6.021   6.929   7.010
10532SOL    HW232496   5.909   6.815   0.020
10533SOL     OW32497   3.129   5.791   4.469
10533SOL    HW132498   3.215   5.842   4.463
10533SOL    HW232499   3.109   5.748   4.381
10534SOL     OW32500   6.903   5.792   2.268
10534SOL    HW132501   6.920   5.827   2.176
10534SOL    HW232502   6.807   5.807   2.291
10535SOL     OW32503   2.078   1.457   1.833
10535SOL    HW132504   2.132   1.376   1.858
10535SOL    HW232505   1.993   1.427   1.790
10536SOL     OW32506   4.216   6.957   4.082
10536SOL    HW132507   4.120   6.933   4.096
10536SOL    HW232508   4.274   6.884   4.117
10537SOL     OW32509   5.005   6.565   3.675
10537SOL    HW132510   4.962   6.634   3.732
10537SOL    HW232511   4.998   6.476   3.720
10538SOL     OW32512   5.637   4.271   2.568
10538SOL    HW132513   5.638   4.226   2.657
10538SOL    HW232514   5.639   4.370   2.581
10539SOL     OW32515   5.738   5.390   1.392
10539SOL    HW132516   5.710   5.353   1.303
10539SOL    HW232517   5.828   5.433   1.384
10540SOL     OW32518   2.379   4.544   6.070
10540SOL    HW132519   2.303   4.478   6.078
10540SOL    HW232520   2.424   4.553   6.159
10541SOL     OW32521   3.465   2.884   3.873
10541SOL    HW132522   3.439   2.904   3.779
10541SOL    HW232523   3.474   2.785   3.885
10542SOL     OW32524   6.721   0.092   4.871
10542SOL    HW132525   6.749   0.154   4.945
10542SOL    HW232526   6.636   0.046   4.896
10543SOL     OW32527   0.629   2.100   5.028
10543SOL    HW132528   0.541   2.053   5.022
10543SOL    HW232529   0.663   2.095   5.122
10544SOL     OW32530   2.134   6.385   3.249
10544SOL    HW132531   2.047   6.338   3.263
10544SOL    HW232532   2.116   6.480   3.224
10545SOL     OW32533   1.124   2.887   2.120
10545SOL    HW132534   1.069   2.940   2.057
10545SOL    HW232535   1.183   2.949   2.173
10546SOL     OW32536   3.881   5.898   1.178
10546SOL    HW132537   3.789   5.861   1.174
10546SOL    HW232538   3.925   5.890   1.088
10547SOL     OW32539   5.010   1.195   4.396
10547SOL    HW132540   5.027   1.097   4.398
10547SOL    HW232541   5.087   1.243   4.440
10548SOL     OW32542   0.755   4.091   4.495
10548SOL    HW132543   0.803   4.003   4.503
10548SOL    HW232544   0.670   4.087   4.549
10549SOL     OW32545   0.599   1.249   0.604
10549SOL    HW132546   0.509   1.288   0.585
10549SOL    HW232547   0.646   1.229   0.517
10550SOL     OW32548   4.161   6.770   3.375
10550SOL    HW132549   4.235   6.760   3.310
10550SOL    HW232550   4.112   6.856   3.357
10551SOL     OW32551   1.950   1.738   6.172
10551SOL    HW132552   1.964   1.721   6.270
10551SOL    HW232553   1.899   1.662   6.132
10552SOL     OW32554   2.469   0.552   5.391
10552SOL    HW132555   2.421   0.638   5.372
10552SOL    HW232556   2.459   0.528   5.487
10553SOL     OW32557   6.908   4.550   0.872
10553SOL    HW132558   6.989   4.491   0.866
10553SOL    HW232559   6.878   4.575   0.780
10554SOL     OW32560   5.600   5.496   2.386
10554SOL    HW132561   5.621   5.562   2.459
10554SOL    HW232562   5.571   5.410   2.426
10555SOL     OW32563   2.902   2.196   0.778
10555SOL    HW132564   2.943   2.232   0.862
10555SOL    HW232565   2.899   2.268   0.709
10556SOL     OW32566   3.063   1.533   3.963
10556SOL    HW132567   2.999   1.609   3.949
10556SOL    HW232568   3.012   1.448   3.974
10557SOL     OW32569   1.938   3.260   4.300
10557SOL    HW132570   1.899   3.352   4.291
10557SOL    HW232571   1.906   3.203   4.224
10558SOL     OW32572   3.197   5.383   5.922
10558SOL    HW132573   3.283   5.402   5.875
10558SOL    HW232574   3.145   5.467   5.932
10559SOL     OW32575   3.448   0.791   0.641
10559SOL    HW132576   3.485   0.842   0.719
10559SOL    HW232577   3.409   0.705   0.673
10560SOL     OW32578   4.267   6.447   1.514
10560SOL    HW132579   4.218   6.453   1.601
10560SOL    HW232580   4.213   6.395   1.449
10561SOL     OW32581   3.709   4.648   1.609
10561SOL    HW132582   3.657   4.631   1.693
10561SOL    HW232583   3.683   4.582   1.539
10562SOL     OW32584   3.586   5.804   0.180
10562SOL    HW132585   3.500   5.757   0.160
10562SOL    HW232586   3.663   5.749   0.147
10563SOL     OW32587   1.282   0.728   0.829
10563SOL    HW132588   1.330   0.761   0.748
10563SOL    HW232589   1.248   0.806   0.881
10564SOL     OW32590   6.086   5.890   3.799
10564SOL    HW132591   5.990   5.919   3.801
10564SOL    HW232592   6.142   5.955   3.850
10565SOL     OW32593   6.458   6.763   5.513
10565SOL    HW132594   6.512   6.846   5.496
10565SOL    HW232595   6.482   6.726   5.602
10566SOL     OW32596   2.683   2.469   6.931
10566SOL    HW132597   2.609   2.466   6.998
10566SOL    HW232598   2.682   2.384   6.877
10567SOL     OW32599   2.308   2.370   5.752
10567SOL    HW132600   2.397   2.380   5.707
10567SOL    HW232601   2.261   2.458   5.753
10568SOL     OW32602   6.069   2.521   6.844
10568SOL    HW132603   6.044   2.454   6.914
10568SOL    HW232604   6.052   2.482   6.753
10569SOL     OW32605   5.478   1.103   1.674
10569SOL    HW132606   5.563   1.146   1.647
10569SOL    HW232607   5.402   1.143   1.623
10570SOL     OW32608   1.355   4.589   3.369
10570SOL    HW132609   1.304   4.505   3.352
10570SOL    HW232610   1.389   4.625   3.282
10571SOL     OW32611   0.548   3.980   5.605
10571SOL    HW132612   0.450   3.975   5.622
10571SOL    HW232613   0.594   4.020   5.685
10572SOL     OW32614   7.004   5.142   2.154
10572SOL    HW132615   6.942   5.104   2.223
10572SOL    HW232616   0.076   5.118   2.178
10573SOL     OW32617   4.722   0.505   5.343
10573SOL    HW132618   4.763   0.576   5.286
10573SOL    HW232619   4.773   0.420   5.333
10574SOL     OW32620   6.796   1.114   3.750
10574SOL    HW132621   6.732   1.046   3.785
10574SOL    HW232622   6.871   1.126   3.814
10575SOL     OW32623   5.944   0.941   3.811
10575SOL    HW132624   5.846   0.959   3.821
10575SOL    HW232625   5.983   1.003   3.742
10576SOL     OW32626   1.013   5.305   2.777
10576SOL    HW132627   1.054   5.224   2.734
10576SOL    HW232628   1.005   5.378   2.710
10577SOL     OW32629   2.393   5.141   0.656
10577SOL    HW132630   2.334   5.156   0.735
10577SOL    HW232631   2.338   5.105   0.580
10578SOL     OW32632   5.159   0.885   3.010
10578SOL    HW132633   5.081   0.828   3.035
10578SOL    HW232634   5.149   0.916   2.915
10579SOL     OW32635   3.193   2.908   1.203
10579SOL    HW132636   3.113   2.848   1.200
10579SOL    HW232637   3.174   2.991   1.152
10580SOL     OW32638   6.358   6.448   6.315
10580SOL    HW132639   6.273   6.486   6.351
10580SOL    HW232640   6.436   6.496   6.355
10581SOL     OW32641   4.801   7.018   2.929
10581SOL    HW132642   4.750   0.021   2.847
10581SOL    HW232643   4.898   0.016   2.915
10582SOL     OW32644   5.793   4.990   6.439
10582SOL    HW132645   5.726   5.059   6.411
10582SOL    HW232646   5.744   4.908   6.471
10583SOL     OW32647   4.547   0.256   4.521
10583SOL    HW132648   4.588   0.266   4.431
10583SOL    HW232649   4.597   0.312   4.587
10584SOL     OW32650   6.520   0.274   6.542
10584SOL    HW132651   6.481   0.298   6.453
10584SOL    HW232652   6.533   0.175   6.548
10585SOL     OW32653   1.876   1.917   5.657
10585SOL    HW132654   1.965   1.935   5.698
10585SOL    HW232655   1.811   1.888   5.728
10586SOL     OW32656   4.912   4.525   5.207
10586SOL    HW132657   4.998   4.556   5.166
10586SOL    HW232658   4.836   4.577   5.167
10587SOL     OW32659   0.081   5.620   6.587
10587SOL    HW132660   7.023   5.592   6.536
10587SOL    HW232661   0.054   5.665   6.672
10588SOL     OW32662   2.043   1.903   5.285
10588SOL    HW132663   2.003   1.817   5.254
10588SOL    HW232664   2.114   1.885   5.352
10589SOL     OW32665   5.212   6.682   4.322
10589SOL    HW132666   5.247   6.694   4.229
10589SOL    HW232667   5.271   6.617   4.371
10590SOL     OW32668   0.703   5.961   1.832
10590SOL    HW132669   0.699   6.021   1.913
10590SOL    HW232670   0.733   5.870   1.859
10591SOL     OW32671   2.357   1.839   1.269
10591SOL    HW132672   2.350   1.746   1.232
10591SOL    HW232673   2.366   1.834   1.369
10592SOL     OW32674   5.787   2.615   4.193
10592SOL    HW132675   5.743   2.697   4.157
10592SOL    HW232676   5.777   2.613   4.293
10593SOL     OW32677   1.210   6.404   0.717
10593SOL    HW132678   1.142   6.351   0.667
10593SOL    HW232679   1.298   6.397   0.671
10594SOL     OW32680   4.181   1.522   3.121
10594SOL    HW132681   4.105   1.512   3.185
10594SOL    HW232682   4.266   1.499   3.168
10595SOL     OW32683   6.223   0.489   0.213
10595SOL    HW132684   6.285   0.432   0.159
10595SOL    HW232685   6.146   0.517   0.157
10596SOL     OW32686   5.000   1.118   6.763
10596SOL    HW132687   5.099   1.120   6.772
10596SOL    HW232688   4.961   1.201   6.804
10597SOL     OW32689   2.123   0.616   5.415
10597SOL    HW132690   2.156   0.527   5.446
10597SOL    HW232691   2.035   0.636   5.457
10598SOL     OW32692   2.680   2.484   6.380
10598SOL    HW132693   2.607   2.537   6.422
10598SOL    HW232694   2.642   2.400   6.340
10599SOL     OW32695   6.362   4.225   6.300
10599SOL    HW132696   6.288   4.251   6.238
10599SOL    HW232697   6.336   4.247   6.394
10600SOL     OW32698   3.685   1.743   1.666
10600SOL    HW132699   3.659   1.834   1.634
10600SOL    HW232700   3.711   1.748   1.763
10601SOL     OW32701   1.011   5.472   5.602
10601SOL    HW132702   1.107   5.445   5.605
10601SOL    HW232703   1.004   5.570   5.621
10602SOL     OW32704   1.029   1.133   0.814
10602SOL    HW132705   0.943   1.179   0.791
10602SOL    HW232706   1.064   1.168   0.900
10603SOL     OW32707   4.732   6.623   3.143
10603SOL    HW132708   4.809   6.576   3.098
10603SOL    HW232709   4.762   6.658   3.232
10604SOL     OW32710   6.932   6.188   4.815
10604SOL    HW132711   6.967   6.095   4.829
10604SOL    HW232712   7.001   6.242   4.768
10605SOL     OW32713   1.697   0.079   6.640
10605SOL    HW132714   1.744   0.024   6.571
10605SOL    HW232715   1.701   0.176   6.613
10606SOL     OW32716   6.841   0.696   1.755
10606SOL    HW132717   6.760   0.731   1.708
10606SOL    HW232718   6.833   0.598   1.768
10607SOL     OW32719   4.170   4.307   0.641
10607SOL    HW132720   4.104   4.276   0.709
10607SOL    HW232721   4.249   4.348   0.688
10608SOL     OW32722   6.504   3.765   3.370
10608SOL    HW132723   6.496   3.739   3.274
10608SOL    HW232724   6.583   3.825   3.382
10609SOL     OW32725   2.414   6.667   6.743
10609SOL    HW132726   2.455   6.758   6.750
10609SOL    HW232727   2.480   6.598   6.771
10610SOL     OW32728   6.901   2.284   4.644
10610SOL    HW132729   6.948   2.327   4.568
10610SOL    HW232730   6.929   2.188   4.651
10611SOL     OW32731   2.628   5.370   5.714
10611SOL    HW132732   2.681   5.389   5.631
10611SOL    HW232733   2.549   5.313   5.691
10612SOL     OW32734   5.100   1.819   4.418
10612SOL    HW132735   5.182   1.786   4.372
10612SOL    HW232736   5.059   1.745   4.471
10613SOL     OW32737   5.749   6.014   4.923
10613SOL    HW132738   5.736   5.933   4.980
10613SOL    HW232739   5.717   6.095   4.971
10614SOL     OW32740   5.211   1.310   4.760
10614SOL    HW132741   5.145   1.354   4.821
10614SOL    HW232742   5.296   1.291   4.809
10615SOL     OW32743   3.735   1.084   5.689
10615SOL    HW132744   3.738   0.986   5.710
10615SOL    HW232745   3.730   1.135   5.775
10616SOL     OW32746   2.914   6.201   6.515
10616SOL    HW132747   2.964   6.258   6.449
10616SOL    HW232748   2.969   6.122   6.540
10617SOL     OW32749   2.226   4.209   1.307
10617SOL    HW132750   2.311   4.157   1.316
10617SOL    HW232751   2.215   4.270   1.385
10618SOL     OW32752   0.844   5.322   5.342
10618SOL    HW132753   0.870   5.248   5.280
10618SOL    HW232754   0.772   5.290   5.403
10619SOL     OW32755   0.419   2.602   3.245
10619SOL    HW132756   0.509   2.564   3.268
10619SOL    HW232757   0.367   2.616   3.330
10620SOL     OW32758   1.302   0.012   5.144
10620SOL    HW132759   1.267   0.003   5.051
10620SOL    HW232760   1.250   6.976   5.205
10621SOL     OW32761   0.021   4.653   2.100
10621SOL    HW132762   0.015   4.729   2.034
10621SOL    HW232763   0.107   4.603   2.086
10622SOL     OW32764   4.604   2.599   1.409
10622SOL    HW132765   4.691   2.556   1.383
10622SOL    HW232766   4.532   2.566   1.349
10623SOL     OW32767   6.206   6.220   5.254
10623SOL    HW132768   6.128   6.180   5.206
10623SOL    HW232769   6.249   6.151   5.312
10624SOL     OW32770   0.163   3.046   4.915
10624SOL    HW132771   0.219   3.037   4.832
10624SOL    HW232772   0.175   3.137   4.953
10625SOL     OW32773   0.662   3.896   1.374
10625SOL    HW132774   0.735   3.880   1.440
10625SOL    HW232775   0.700   3.934   1.290
10626SOL     OW32776   3.288   2.610   1.196
10626SOL    HW132777   3.261   2.697   1.239
10626SOL    HW232778   3.318   2.546   1.267
10627SOL     OW32779   6.112   1.496   6.579
10627SOL    HW132780   6.046   1.445   6.634
10627SOL    HW232781   6.151   1.570   6.633
10628SOL     OW32782   4.671   6.892   0.892
10628SOL    HW132783   4.581   6.879   0.852
10628SOL    HW232784   4.698   6.988   0.883
10629SOL     OW32785   3.290   4.898   4.562
10629SOL    HW132786   3.355   4.824   4.580
10629SOL    HW232787   3.209   4.887   4.619
10630SOL     OW32788   6.001   1.151   2.158
10630SOL    HW132789   6.054   1.135   2.241
10630SOL    HW232790   5.912   1.189   2.181
10631SOL     OW32791   3.903   4.233   5.335
10631SOL    HW132792   3.848   4.316   5.350
10631SOL    HW232793   4.000   4.257   5.334
10632SOL     OW32794   4.818   6.100   3.082
10632SOL    HW132795   4.733   6.148   3.102
10632SOL    HW232796   4.838   6.035   3.155
10633SOL     OW32797   2.620   2.520   1.531
10633SOL    HW132798   2.592   2.426   1.546
10633SOL    HW232799   2.636   2.565   1.619
10634SOL     OW32800   1.807   5.324   0.260
10634SOL    HW132801   1.806   5.279   0.349
10634SOL    HW232802   1.727   5.294   0.207
10635SOL     OW32803   2.223   3.200   6.872
10635SOL    HW132804   2.277   3.156   6.944
10635SOL    HW232805   2.264   3.180   6.783
10636SOL     OW32806   0.154   1.872   1.511
10636SOL    HW132807   0.091   1.863   1.434
10636SOL    HW232808   0.161   1.968   1.537
10637SOL     OW32809   1.422   5.487   6.334
10637SOL    HW132810   1.429   5.401   6.284
10637SOL    HW232811   1.331   5.527   6.319
10638SOL     OW32812   5.390   6.045   2.624
10638SOL    HW132813   5.396   6.142   2.604
10638SOL    HW232814   5.454   5.994   2.567
10639SOL     OW32815   1.798   3.570   2.309
10639SOL    HW132816   1.709   3.616   2.308
10639SOL    HW232817   1.835   3.572   2.402
10640SOL     OW32818   4.904   0.385   3.204
10640SOL    HW132819   4.897   0.367   3.302
10640SOL    HW232820   4.833   0.334   3.155
10641SOL     OW32821   2.116   1.605   3.406
10641SOL    HW132822   2.079   1.528   3.459
10641SOL    HW232823   2.215   1.609   3.419
10642SOL     OW32824   6.224   1.783   0.587
10642SOL    HW132825   6.231   1.730   0.503
10642SOL    HW232826   6.293   1.855   0.587
10643SOL     OW32827   2.330   6.094   5.262
10643SOL    HW132828   2.273   6.012   5.262
10643SOL    HW232829   2.349   6.121   5.357
10644SOL     OW32830   5.593   3.421   1.388
10644SOL    HW132831   5.577   3.354   1.315
10644SOL    HW232832   5.678   3.398   1.436
10645SOL     OW32833   2.124   2.541   4.097
10645SOL    HW132834   2.169   2.456   4.073
10645SOL    HW232835   2.031   2.542   4.059
10646SOL     OW32836   6.698   0.530   5.695
10646SOL    HW132837   6.796   0.508   5.693
10646SOL    HW232838   6.670   0.553   5.788
10647SOL     OW32839   3.607   5.294   5.030
10647SOL    HW132840   3.631   5.292   4.933
10647SOL    HW232841   3.532   5.358   5.044
10648SOL     OW32842   5.925   5.592   6.674
10648SOL    HW132843   5.925   5.600   6.773
10648SOL    HW232844   5.960   5.677   6.633
10649SOL     OW32845   1.032   3.670   3.037
10649SOL    HW132846   1.010   3.591   2.980
10649SOL    HW232847   0.964   3.742   3.023
10650SOL     OW32848   0.566   0.375   4.114
10650SOL    HW132849   0.514   0.335   4.038
10650SOL    HW232850   0.506   0.434   4.167
10651SOL     OW32851   6.478   5.959   6.095
10651SOL    HW132852   6.426   5.876   6.073
10651SOL    HW232853   6.558   5.934   6.151
10652SOL     OW32854   2.022   6.793   6.190
10652SOL    HW132855   1.938   6.754   6.227
10652SOL    HW232856   2.017   6.893   6.195
10653SOL     OW32857   3.642   5.880   5.425
10653SOL    HW132858   3.731   5.842   5.401
10653SOL    HW232859   3.602   5.925   5.345
10654SOL     OW32860   4.888   0.673   5.810
10654SOL    HW132861   4.932   0.697   5.897
10654SOL    HW232862   4.874   0.755   5.755
10655SOL     OW32863   1.760   4.554   0.058
10655SOL    HW132864   1.836   4.489   0.051
10655SOL    HW232865   1.763   4.600   0.147
10656SOL     OW32866   6.732   1.403   2.379
10656SOL    HW132867   6.642   1.360   2.370
10656SOL    HW232868   6.732   1.490   2.330
10657SOL     OW32869   6.156   0.857   4.714
10657SOL    HW132870   6.117   0.805   4.638
10657SOL    HW232871   6.235   0.808   4.751
10658SOL     OW32872   6.122   4.494   4.733
10658SOL    HW132873   6.201   4.550   4.710
10658SOL    HW232874   6.039   4.537   4.698
10659SOL     OW32875   1.215   4.863   0.893
10659SOL    HW132876   1.273   4.941   0.872
10659SOL    HW232877   1.130   4.869   0.841
10660SOL     OW32878   5.842   4.144   5.817
10660SOL    HW132879   5.861   4.103   5.906
10660SOL    HW232880   5.802   4.075   5.757
10661SOL     OW32881   1.575   6.208   0.884
10661SOL    HW132882   1.642   6.225   0.812
10661SOL    HW232883   1.607   6.132   0.941
10662SOL     OW32884   4.632   0.872   2.432
10662SOL    HW132885   4.676   0.842   2.517
10662SOL    HW232886   4.605   0.792   2.378
10663SOL     OW32887   0.672   1.214   2.929
10663SOL    HW132888   0.586   1.178   2.891
10663SOL    HW232889   0.749   1.168   2.887
10664SOL     OW32890   6.482   4.293   5.336
10664SOL    HW132891   6.535   4.378   5.340
10664SOL    HW232892   6.497   4.241   5.420
10665SOL     OW32893   1.787   2.439   6.944
10665SOL    HW132894   1.784   2.499   0.001
10665SOL    HW232895   1.697   2.397   6.931
10666SOL     OW32896   3.081   3.950   2.186
10666SOL    HW132897   3.003   4.009   2.205
10666SOL    HW232898   3.048   3.864   2.146
10667SOL     OW32899   4.777   2.176   3.831
10667SOL    HW132900   4.805   2.217   3.745
10667SOL    HW232901   4.825   2.090   3.845
10668SOL     OW32902   3.441   1.439   4.701
10668SOL    HW132903   3.415   1.502   4.628
10668SOL    HW232904   3.476   1.491   4.779
10669SOL     OW32905   6.635   0.484   1.218
10669SOL    HW132906   6.617   0.538   1.135
10669SOL    HW232907   6.576   0.516   1.292
10670SOL     OW32908   5.638   4.655   4.942
10670SOL    HW132909   5.580   4.599   4.881
10670SOL    HW232910   5.660   4.602   5.024
10671SOL     OW32911   1.450   1.686   4.346
10671SOL    HW132912   1.500   1.691   4.432
10671SOL    HW232913   1.463   1.771   4.295
10672SOL     OW32914   6.486   4.214   1.720
10672SOL    HW132915   6.478   4.127   1.671
10672SOL    HW232916   6.503   4.287   1.655
10673SOL     OW32917   0.570   0.707   0.301
10673SOL    HW132918   0.637   0.645   0.261
10673SOL    HW232919   0.577   0.704   0.401
10674SOL     OW32920   4.103   3.323   3.824
10674SOL    HW132921   4.055   3.389   3.766
10674SOL    HW232922   4.196   3.356   3.840
10675SOL     OW32923   2.199   0.496   6.585
10675SOL    HW132924   2.220   0.585   6.628
10675SOL    HW232925   2.105   0.495   6.554
10676SOL     OW32926   0.202   6.143   5.156
10676SOL    HW132927   0.113   6.128   5.200
10676SOL    HW232928   0.258   6.061   5.165
10677SOL     OW32929   1.552   0.668   1.566
10677SOL    HW132930   1.472   0.614   1.541
10677SOL    HW232931   1.525   0.744   1.625
10678SOL     OW32932   4.266   5.061   4.310
10678SOL    HW132933   4.355   5.032   4.347
10678SOL    HW232934   4.205   5.084   4.385
10679SOL     OW32935   3.986   5.561   6.358
10679SOL    HW132936   3.896   5.537   6.323
10679SOL    HW232937   4.048   5.484   6.348
10680SOL     OW32938   3.626   2.145   3.942
10680SOL    HW132939   3.661   2.055   3.967
10680SOL    HW232940   3.564   2.136   3.864
10681SOL     OW32941   6.935   3.589   0.352
10681SOL    HW132942   6.978   3.523   0.413
10681SOL    HW232943   7.000   3.663   0.332
10682SOL     OW32944   6.961   2.582   5.325
10682SOL    HW132945   6.945   2.677   5.298
10682SOL    HW232946   7.015   2.536   5.255
10683SOL     OW32947   4.878   0.734   3.802
10683SOL    HW132948   4.907   0.705   3.893
10683SOL    HW232949   4.893   0.659   3.737
10684SOL     OW32950   4.486   4.660   2.665
10684SOL    HW132951   4.545   4.587   2.698
10684SOL    HW232952   4.491   4.666   2.565
10685SOL     OW32953   0.637   5.778   1.287
10685SOL    HW132954   0.611   5.709   1.354
10685SOL    HW232955   0.736   5.777   1.275
10686SOL     OW32956   1.321   3.917   5.854
10686SOL    HW132957   1.298   4.010   5.826
10686SOL    HW232958   1.413   3.894   5.823
10687SOL     OW32959   6.129   5.415   4.216
10687SOL    HW132960   6.217   5.385   4.181
10687SOL    HW232961   6.056   5.368   4.166
10688SOL     OW32962   5.777   3.096   3.076
10688SOL    HW132963   5.876   3.087   3.089
10688SOL    HW232964   5.759   3.135   2.985
10689SOL     OW32965   6.676   0.306   2.818
10689SOL    HW132966   6.628   0.221   2.838
10689SOL    HW232967   6.741   0.325   2.892
10690SOL     OW32968   0.105   5.630   3.671
10690SOL    HW132969   0.028   5.682   3.707
10690SOL    HW232970   0.097   5.534   3.697
10691SOL     OW32971   1.559   1.977   2.223
10691SOL    HW132972   1.610   1.897   2.256
10691SOL    HW232973   1.534   1.964   2.127
10692SOL     OW32974   2.327   0.009   3.861
10692SOL    HW132975   2.237   0.013   3.818
10692SOL    HW232976   2.394   7.001   3.794
10693SOL     OW32977   1.281   6.211   1.525
10693SOL    HW132978   1.317   6.181   1.614
10693SOL    HW232979   1.304   6.143   1.456
10694SOL     OW32980   5.338   6.393   0.019
10694SOL    HW132981   5.434   6.397   0.047
10694SOL    HW232982   5.333   6.376   6.943
10695SOL     OW32983   1.518   2.108   2.595
10695SOL    HW132984   1.539   2.156   2.679
10695SOL    HW232985   1.508   2.174   2.520
10696SOL     OW32986   6.273   4.530   3.522
10696SOL    HW132987   6.370   4.508   3.527
10696SOL    HW232988   6.219   4.446   3.533
10697SOL     OW32989   0.486   6.899   5.236
10697SOL    HW132990   0.456   6.917   5.143
10697SOL    HW232991   0.547   6.820   5.237
10698SOL     OW32992   5.309   4.690   6.990
10698SOL    HW132993   5.328   4.774   6.939
10698SOL    HW232994   5.354   4.694   0.056
10699SOL     OW32995   3.947   4.641   1.704
10699SOL    HW132996   3.966   4.723   1.758
10699SOL    HW232997   3.853   4.644   1.670
10700SOL     OW32998   5.565   6.384   0.543
10700SOL    HW132999   5.468   6.407   0.538
10700SOL    HW233000   5.619   6.459   0.504
10701SOL     OW33001   2.562   6.521   6.507
10701SOL    HW133002   2.539   6.487   6.598
10701SOL    HW233003   2.480   6.526   6.451
10702SOL     OW33004   5.556   3.273   1.698
10702SOL    HW133005   5.590   3.366   1.714
10702SOL    HW233006   5.551   3.224   1.785
10703SOL     OW33007   2.640   3.077   5.396
10703SOL    HW133008   2.565   3.078   5.329
10703SOL    HW233009   2.726   3.060   5.348
10704SOL     OW33010   6.239   5.496   2.144
10704SOL    HW133011   6.249   5.400   2.120
10704SOL    HW233012   6.157   5.533   2.101
10705SOL     OW33013   6.184   5.171   1.794
10705SOL    HW133014   6.221   5.092   1.744
10705SOL    HW233015   6.217   5.170   1.888
10706SOL     OW33016   4.347   0.223   2.962
10706SOL    HW133017   4.271   0.284   2.939
10706SOL    HW233018   4.358   0.218   3.061
10707SOL     OW33019   0.231   6.678   4.271
10707SOL    HW133020   0.309   6.716   4.221
10707SOL    HW233021   0.148   6.692   4.218
10708SOL     OW33022   3.669   1.341   1.181
10708SOL    HW133023   3.732   1.321   1.256
10708SOL    HW233024   3.659   1.440   1.172
10709SOL     OW33025   5.706   5.580   5.689
10709SOL    HW133026   5.698   5.559   5.591
10709SOL    HW233027   5.654   5.663   5.709
10710SOL     OW33028   6.251   0.519   4.460
10710SOL    HW133029   6.305   0.437   4.439
10710SOL    HW233030   6.250   0.534   4.558
10711SOL     OW33031   2.068   6.504   4.405
10711SOL    HW133032   1.980   6.484   4.362
10711SOL    HW233033   2.061   6.489   4.504
10712SOL     OW33034   2.916   0.667   2.220
10712SOL    HW133035   2.930   0.684   2.122
10712SOL    HW233036   3.000   0.633   2.261
10713SOL     OW33037   0.708   3.391   1.776
10713SOL    HW133038   0.795   3.352   1.808
10713SOL    HW233039   0.637   3.321   1.781
10714SOL     OW33040   5.676   3.588   5.279
10714SOL    HW133041   5.719   3.595   5.369
10714SOL    HW233042   5.740   3.546   5.214
10715SOL     OW33043   4.631   0.623   2.251
10715SOL    HW133044   4.621   0.633   2.152
10715SOL    HW233045   4.725   0.596   2.271
10716SOL     OW33046   6.002   1.760   3.736
10716SOL    HW133047   5.934   1.709   3.790
10716SOL    HW233048   5.986   1.858   3.746
10717SOL     OW33049   1.253   2.539   1.412
10717SOL    HW133050   1.276   2.551   1.315
10717SOL    HW233051   1.329   2.494   1.459
10718SOL     OW33052   0.992   3.076   6.964
10718SOL    HW133053   1.046   3.155   6.936
10718SOL    HW233054   0.996   3.066   0.041
10719SOL     OW33055   6.743   5.621   2.610
10719SOL    HW133056   6.693   5.555   2.553
10719SOL    HW233057   6.801   5.572   2.674
10720SOL     OW33058   0.408   4.472   5.172
10720SOL    HW133059   0.362   4.383   5.184
10720SOL    HW233060   0.484   4.462   5.109
10721SOL     OW33061   5.548   4.021   5.175
10721SOL    HW133062   5.499   4.066   5.101
10721SOL    HW233063   5.631   3.977   5.139
10722SOL     OW33064   0.878   4.950   6.596
10722SOL    HW133065   0.935   4.901   6.531
10722SOL    HW233066   0.792   4.901   6.609
10723SOL     OW33067   0.674   3.043   5.500
10723SOL    HW133068   0.703   2.978   5.569
10723SOL    HW233069   0.705   3.013   5.410
10724SOL     OW33070   6.658   1.736   6.874
10724SOL    HW133071   6.589   1.725   6.803
10724SOL    HW233072   6.679   1.833   6.885
10725SOL     OW33073   1.608   5.551   4.138
10725SOL    HW133074   1.552   5.633   4.122
10725SOL    HW233075   1.565   5.472   4.093
10726SOL     OW33076   5.514   0.259   5.309
10726SOL    HW133077   5.564   0.309   5.238
10726SOL    HW233078   5.556   0.277   5.398
10727SOL     OW33079   0.473   5.146   5.233
10727SOL    HW133080   0.479   5.046   5.241
10727SOL    HW233081   0.517   5.188   5.312
10728SOL     OW33082   0.219   5.947   6.502
10728SOL    HW133083   0.308   5.990   6.488
10728SOL    HW233084   0.200   5.885   6.426
10729SOL     OW33085   5.503   1.708   2.114
10729SOL    HW133086   5.535   1.768   2.041
10729SOL    HW233087   5.467   1.624   2.075
10730SOL     OW33088   1.905   1.270   1.348
10730SOL    HW133089   1.806   1.280   1.334
10730SOL    HW233090   1.924   1.252   1.444
10731SOL     OW33091   3.215   6.498   0.757
10731SOL    HW133092   3.132   6.553   0.748
10731SOL    HW233093   3.252   6.478   0.666
10732SOL     OW33094   5.872   5.085   4.672
10732SOL    HW133095   5.881   4.986   4.678
10732SOL    HW233096   5.834   5.110   4.583
10733SOL     OW33097   6.730   1.681   0.977
10733SOL    HW133098   6.745   1.681   0.878
10733SOL    HW233099   6.635   1.703   0.996
10734SOL     OW33100   0.953   0.921   0.162
10734SOL    HW133101   0.915   0.903   0.253
10734SOL    HW233102   0.900   0.871   0.094
10735SOL     OW33103   0.820   3.178   2.931
10735SOL    HW133104   0.843   3.220   3.018
10735SOL    HW233105   0.904   3.153   2.883
10736SOL     OW33106   1.486   0.278   3.679
10736SOL    HW133107   1.528   0.325   3.601
10736SOL    HW233108   1.386   0.283   3.671
10737SOL     OW33109   1.827   2.181   1.024
10737SOL    HW133110   1.886   2.165   0.945
10737SOL    HW233111   1.868   2.253   1.081
10738SOL     OW33112   2.583   0.294   3.406
10738SOL    HW133113   2.528   0.362   3.454
10738SOL    HW233114   2.678   0.326   3.400
10739SOL     OW33115   1.160   1.871   0.892
10739SOL    HW133116   1.249   1.852   0.932
10739SOL    HW233117   1.133   1.795   0.833
10740SOL     OW33118   0.049   4.487   5.178
10740SOL    HW133119   7.020   4.549   5.237
10740SOL    HW233120   0.069   4.533   5.092
10741SOL     OW33121   5.694   0.330   1.150
10741SOL    HW133122   5.761   0.258   1.135
10741SOL    HW233123   5.613   0.291   1.195
10742SOL     OW33124   5.224   0.675   0.747
10742SOL    HW133125   5.167   0.594   0.761
10742SOL    HW233126   5.258   0.676   0.652
10743SOL     OW33127   2.705   1.069   5.540
10743SOL    HW133128   2.803   1.075   5.522
10743SOL    HW233129   2.665   0.994   5.488
10744SOL     OW33130   3.648   1.605   1.171
10744SOL    HW133131   3.697   1.643   1.250
10744SOL    HW233132   3.644   1.673   1.098
10745SOL     OW33133   0.186   5.793   6.938
10745SOL    HW133134   0.123   5.724   6.903
10745SOL    HW233135   0.170   5.880   6.891
10746SOL     OW33136   1.735   4.577   1.319
10746SOL    HW133137   1.713   4.646   1.250
10746SOL    HW233138   1.657   4.516   1.332
10747SOL     OW33139   3.889   1.216   4.226
10747SOL    HW133140   3.931   1.227   4.315
10747SOL    HW233141   3.828   1.136   4.227
10748SOL     OW33142   5.104   1.012   1.081
10748SOL    HW133143   5.064   1.100   1.056
10748SOL    HW233144   5.144   0.969   0.999
10749SOL     OW33145   0.878   5.774   2.826
10749SOL    HW133146   0.966   5.758   2.871
10749SOL    HW233147   0.888   5.847   2.758
10750SOL     OW33148   4.418   6.018   5.305
10750SOL    HW133149   4.492   5.968   5.260
10750SOL    HW233150   4.334   5.964   5.300
10751SOL     OW33151   1.911   3.864   4.532
10751SOL    HW133152   1.894   3.872   4.434
10751SOL    HW233153   1.832   3.820   4.576
10752SOL     OW33154   6.088   4.140   6.251
10752SOL    HW133155   6.034   4.223   6.241
10752SOL    HW233156   6.062   4.094   6.336
10753SOL     OW33157   4.539   6.145   4.062
10753SOL    HW133158   4.627   6.102   4.046
10753SOL    HW233159   4.552   6.243   4.078
10754SOL     OW33160   0.712   1.491   2.913
10754SOL    HW133161   0.729   1.538   3.000
10754SOL    HW233162   0.720   1.392   2.927
10755SOL     OW33163   6.618   0.848   6.270
10755SOL    HW133164   6.705   0.812   6.234
10755SOL    HW233165   6.618   0.841   6.369
10756SOL     OW33166   6.911   4.669   0.197
10756SOL    HW133167   6.984   4.632   0.140
10756SOL    HW233168   6.836   4.604   0.203
10757SOL     OW33169   2.177   2.901   0.144
10757SOL    HW133170   2.145   2.995   0.131
10757SOL    HW233171   2.231   2.896   0.228
10758SOL     OW33172   0.315   6.987   4.077
10758SOL    HW133173   0.382   0.003   4.140
10758SOL    HW233174   0.338   6.892   4.057
10759SOL     OW33175   1.715   3.322   1.172
10759SOL    HW133176   1.699   3.387   1.247
10759SOL    HW233177   1.682   3.232   1.200
10760SOL     OW33178   6.209   1.584   2.103
10760SOL    HW133179   6.305   1.562   2.086
10760SOL    HW233180   6.178   1.653   2.039
10761SOL     OW33181   0.869   6.906   6.378
10761SOL    HW133182   0.810   6.826   6.361
10761SOL    HW233183   0.907   6.900   6.470
10762SOL     OW33184   3.882   2.210   4.297
10762SOL    HW133185   3.866   2.169   4.207
10762SOL    HW233186   3.820   2.169   4.364
10763SOL     OW33187   5.190   6.431   2.610
10763SOL    HW133188   5.209   6.398   2.702
10763SOL    HW233189   5.133   6.365   2.562
10764SOL     OW33190   4.843   2.611   5.850
10764SOL    HW133191   4.834   2.588   5.754
10764SOL    HW233192   4.939   2.605   5.877
10765SOL     OW33193   5.381   2.069   0.092
10765SOL    HW133194   5.324   2.006   0.039
10765SOL    HW233195   5.325   2.146   0.123
10766SOL     OW33196   4.901   3.860   0.300
10766SOL    HW133197   4.813   3.866   0.254
10766SOL    HW233198   4.895   3.905   0.390
10767SOL     OW33199   1.242   0.714   0.347
10767SOL    HW133200   1.239   0.633   0.406
10767SOL    HW233201   1.177   0.703   0.272
10768SOL     OW33202   4.544   4.030   1.667
10768SOL    HW133203   4.486   4.080   1.731
10768SOL    HW233204   4.638   4.029   1.701
10769SOL     OW33205   2.413   4.452   5.061
10769SOL    HW133206   2.341   4.419   5.123
10769SOL    HW233207   2.502   4.434   5.101
10770SOL     OW33208   5.561   1.045   5.357
10770SOL    HW133209   5.627   1.096   5.412
10770SOL    HW233210   5.469   1.083   5.372
10771SOL     OW33211   6.211   0.627   3.437
10771SOL    HW133212   6.184   0.543   3.389
10771SOL    HW233213   6.300   0.613   3.481
10772SOL     OW33214   5.947   6.448   4.125
10772SOL    HW133215   6.024   6.504   4.095
10772SOL    HW233216   5.863   6.483   4.083
10773SOL     OW33217   6.461   5.816   6.973
10773SOL    HW133218   6.399   5.877   6.923
10773SOL    HW233219   6.476   5.852   0.042
10774SOL     OW33220   2.356   1.426   0.237
10774SOL    HW133221   2.303   1.371   0.302
10774SOL    HW233222   2.384   1.512   0.280
10775SOL     OW33223   0.447   4.574   1.565
10775SOL    HW133224   0.533   4.614   1.533
10775SOL    HW233225   0.389   4.551   1.486
10776SOL     OW33226   0.026   1.109   6.642
10776SOL    HW133227   6.961   1.156   6.648
10776SOL    HW233228   0.060   1.088   6.733
10777SOL     OW33229   3.287   5.312   3.007
10777SOL    HW133230   3.330   5.344   3.091
10777SOL    HW233231   3.311   5.216   2.992
10778SOL     OW33232   6.004   0.116   4.203
10778SOL    HW133233   5.909   0.137   4.229
10778SOL    HW233234   6.014   0.017   4.194
10779SOL     OW33235   6.539   3.432   3.994
10779SOL    HW133236   6.615   3.428   3.929
10779SOL    HW233237   6.452   3.429   3.944
10780SOL     OW33238   2.101   0.704   3.948
10780SOL    HW133239   2.113   0.766   3.870
10780SOL    HW233240   2.178   0.640   3.952
10781SOL     OW33241   4.621   1.008   3.945
10781SOL    HW133242   4.713   0.998   3.981
10781SOL    HW233243   4.584   0.918   3.920
10782SOL     OW33244   6.355   1.962   1.711
10782SOL    HW133245   6.446   1.921   1.706
10782SOL    HW233246   6.359   2.058   1.684
10783SOL     OW33247   0.453   3.302   2.971
10783SOL    HW133248   0.458   3.354   2.886
10783SOL    HW233249   0.514   3.342   3.038
10784SOL     OW33250   3.446   6.638   4.368
10784SOL    HW133251   3.536   6.598   4.352
10784SOL    HW233252   3.449   6.736   4.348
10785SOL     OW33253   0.254   4.497   1.104
10785SOL    HW133254   0.348   4.529   1.099
10785SOL    HW233255   0.201   4.538   1.030
10786SOL     OW33256   5.874   4.403   3.385
10786SOL    HW133257   5.969   4.414   3.414
10786SOL    HW233258   5.813   4.451   3.448
10787SOL     OW33259   2.371   1.393   5.248
10787SOL    HW133260   2.415   1.468   5.200
10787SOL    HW233261   2.434   1.352   5.313
10788SOL     OW33262   1.879   4.545   6.123
10788SOL    HW133263   1.805   4.534   6.057
10788SOL    HW233264   1.918   4.455   6.144
10789SOL     OW33265   0.090   3.182   6.430
10789SOL    HW133266   0.115   3.088   6.457
10789SOL    HW233267   0.062   3.182   6.334
10790SOL     OW33268   1.327   0.589   1.846
10790SOL    HW133269   1.383   0.529   1.902
10790SOL    HW233270   1.290   0.663   1.902
10791SOL     OW33271   6.679   0.041   1.722
10791SOL    HW133272   6.646   0.025   1.814
10791SOL    HW233273   6.606   0.080   1.666
10792SOL     OW33274   3.016   3.831   4.117
10792SOL    HW133275   3.113   3.830   4.092
10792SOL    HW233276   3.008   3.848   4.215
10793SOL     OW33277   5.385   3.288   4.634
10793SOL    HW133278   5.367   3.334   4.547
10793SOL    HW233279   5.406   3.356   4.704
10794SOL     OW33280   2.914   3.619   3.551
10794SOL    HW133281   2.879   3.632   3.644
10794SOL    HW233282   2.955   3.705   3.519
10795SOL     OW33283   6.555   4.886   1.655
10795SOL    HW133284   6.568   4.975   1.699
10795SOL    HW233285   6.616   4.878   1.576
10796SOL     OW33286   5.732   0.425   6.375
10796SOL    HW133287   5.819   0.411   6.327
10796SOL    HW233288   5.730   0.517   6.414
10797SOL     OW33289   3.602   2.686   1.465
10797SOL    HW133290   3.612   2.775   1.421
10797SOL    HW233291   3.597   2.614   1.396
10798SOL     OW33292   2.961   0.366   0.358
10798SOL    HW133293   2.865   0.357   0.384
10798SOL    HW233294   2.996   0.453   0.390
10799SOL     OW33295   3.795   0.949   1.760
10799SOL    HW133296   3.768   1.010   1.834
10799SOL    HW233297   3.713   0.918   1.711
10800SOL     OW33298   6.972   6.691   6.222
10800SOL    HW133299   6.964   6.592   6.233
10800SOL    HW233300   0.036   6.713   6.179
10801SOL     OW33301   0.581   6.184   6.002
10801SOL    HW133302   0.636   6.231   6.071
10801SOL    HW233303   0.611   6.212   5.911
10802SOL     OW33304   1.030   0.849   2.950
10802SOL    HW133305   1.074   0.828   3.037
10802SOL    HW233306   0.988   0.940   2.954
10803SOL     OW33307   2.078   4.792   5.814
10803SOL    HW133308   2.048   4.823   5.904
10803SOL    HW233309   2.177   4.773   5.817
10804SOL     OW33310   5.635   3.357   2.120
10804SOL    HW133311   5.685   3.383   2.203
10804SOL    HW233312   5.537   3.355   2.140
10805SOL     OW33313   4.528   6.503   6.368
10805SOL    HW133314   4.617   6.546   6.350
10805SOL    HW233315   4.508   6.510   6.466
10806SOL     OW33316   4.183   4.246   6.365
10806SOL    HW133317   4.145   4.302   6.438
10806SOL    HW233318   4.254   4.297   6.315
10807SOL     OW33319   1.504   0.142   2.272
10807SOL    HW133320   1.420   0.195   2.271
10807SOL    HW233321   1.501   0.076   2.347
10808SOL     OW33322   0.138   2.947   5.474
10808SOL    HW133323   0.041   2.948   5.449
10808SOL    HW233324   0.189   3.004   5.409
10809SOL     OW33325   3.086   4.989   3.673
10809SOL    HW133326   3.020   5.061   3.653
10809SOL    HW233327   3.141   5.016   3.753
10810SOL     OW33328   1.265   0.108   4.092
10810SOL    HW133329   1.251   0.011   4.069
10810SOL    HW233330   1.235   0.125   4.185
10811SOL     OW33331   4.126   4.094   5.942
10811SOL    HW133332   4.217   4.132   5.962
10811SOL    HW233333   4.060   4.168   5.934
10812SOL     OW33334   0.723   3.792   0.695
10812SOL    HW133335   0.748   3.884   0.725
10812SOL    HW233336   0.655   3.798   0.622
10813SOL     OW33337   1.792   3.817   6.718
10813SOL    HW133338   1.769   3.869   6.636
10813SOL    HW233339   1.748   3.727   6.714
10814SOL     OW33340   1.202   6.906   6.161
10814SOL    HW133341   1.111   6.908   6.118
10814SOL    HW233342   1.204   6.970   6.238
10815SOL     OW33343   4.785   4.177   3.236
10815SOL    HW133344   4.833   4.187   3.149
10815SOL    HW233345   4.804   4.087   3.275
10816SOL     OW33346   3.258   3.485   2.389
10816SOL    HW133347   3.276   3.390   2.413
10816SOL    HW233348   3.343   3.537   2.395
10817SOL     OW33349   4.181   0.455   3.722
10817SOL    HW133350   4.096   0.464   3.669
10817SOL    HW233351   4.218   0.546   3.741
10818SOL     OW33352   4.751   4.725   5.077
10818SOL    HW133353   4.823   4.792   5.057
10818SOL    HW233354   4.663   4.761   5.046
10819SOL     OW33355   6.820   5.166   6.025
10819SOL    HW133356   6.808   5.075   6.065
10819SOL    HW233357   6.835   5.158   5.927
10820SOL     OW33358   0.064   5.152   4.581
10820SOL    HW133359   0.048   5.065   4.535
10820SOL    HW233360   0.139   5.142   4.646
10821SOL     OW33361   4.472   0.741   3.303
10821SOL    HW133362   4.536   0.795   3.357
10821SOL    HW233363   4.468   0.648   3.340
10822SOL     OW33364   6.363   2.399   2.985
10822SOL    HW133365   6.343   2.350   2.900
10822SOL    HW233366   6.283   2.453   3.011
10823SOL     OW33367   1.195   0.763   2.038
10823SOL    HW133368   1.194   0.847   2.093
10823SOL    HW233369   1.101   0.736   2.017
10824SOL     OW33370   6.709   1.176   3.076
10824SOL    HW133371   6.751   1.212   3.160
10824SOL    HW233372   6.685   1.080   3.090
10825SOL     OW33373   2.242   1.912   6.329
10825SOL    HW133374   2.162   1.972   6.335
10825SOL    HW233375   2.290   1.929   6.243
10826SOL     OW33376   0.678   2.497   3.259
10826SOL    HW133377   0.636   2.407   3.247
10826SOL    HW233378   0.738   2.495   3.339
10827SOL     OW33379   0.243   3.396   4.693
10827SOL    HW133380   0.325   3.371   4.743
10827SOL    HW233381   0.229   3.332   4.617
10828SOL     OW33382   1.499   4.165   0.817
10828SOL    HW133383   1.582   4.171   0.761
10828SOL    HW233384   1.420   4.152   0.757
10829SOL     OW33385   4.455   3.029   0.270
10829SOL    HW133386   4.538   3.007   0.219
10829SOL    HW233387   4.472   3.020   0.368
10830SOL     OW33388   4.994   1.720   2.851
10830SOL    HW133389   5.033   1.782   2.918
10830SOL    HW233390   4.927   1.661   2.895
10831SOL     OW33391   2.758   6.355   3.071
10831SOL    HW133392   2.730   6.281   3.131
10831SOL    HW233393   2.815   6.319   2.997
10832SOL     OW33394   0.734   3.247   5.876
10832SOL    HW133395   0.720   3.248   5.778
10832SOL    HW233396   0.832   3.254   5.896
10833SOL     OW33397   0.771   1.039   2.095
10833SOL    HW133398   0.731   0.952   2.125
10833SOL    HW233399   0.707   1.113   2.113
10834SOL     OW33400   0.292   1.633   0.834
10834SOL    HW133401   0.331   1.604   0.746
10834SOL    HW233402   0.313   1.564   0.903
10835SOL     OW33403   6.026   2.632   0.428
10835SOL    HW133404   5.976   2.642   0.341
10835SOL    HW233405   6.054   2.722   0.460
10836SOL     OW33406   6.317   1.641   4.716
10836SOL    HW133407   6.294   1.561   4.660
10836SOL    HW233408   6.324   1.614   4.812
10837SOL     OW33409   6.448   5.474   0.910
10837SOL    HW133410   6.464   5.395   0.968
10837SOL    HW233411   6.452   5.447   0.814
10838SOL     OW33412   6.869   5.821   3.710
10838SOL    HW133413   6.780   5.778   3.702
10838SOL    HW233414   6.875   5.869   3.797
10839SOL     OW33415   4.445   3.142   1.665
10839SOL    HW133416   4.438   3.061   1.607
10839SOL    HW233417   4.498   3.121   1.747
10840SOL     OW33418   3.069   6.037   2.721
10840SOL    HW133419   3.064   6.018   2.623
10840SOL    HW233420   3.164   6.038   2.751
10841SOL     OW33421   6.299   4.952   5.620
10841SOL    HW133422   6.345   4.939   5.532
10841SOL    HW233423   6.327   5.039   5.660
10842SOL     OW33424   5.032   2.141   1.457
10842SOL    HW133425   4.944   2.182   1.431
10842SOL    HW233426   5.022   2.093   1.544
10843SOL     OW33427   0.911   1.557   1.653
10843SOL    HW133428   0.944   1.510   1.571
10843SOL    HW233429   0.923   1.656   1.643
10844SOL     OW33430   0.604   6.297   3.260
10844SOL    HW133431   0.642   6.222   3.313
10844SOL    HW233432   0.557   6.261   3.180
10845SOL     OW33433   3.453   6.624   5.269
10845SOL    HW133434   3.499   6.555   5.213
10845SOL    HW233435   3.500   6.631   5.357
10846SOL     OW33436   5.663   1.237   0.350
10846SOL    HW133437   5.716   1.172   0.404
10846SOL    HW233438   5.603   1.188   0.286
10847SOL     OW33439   3.618   2.866   0.116
10847SOL    HW133440   3.577   2.874   0.207
10847SOL    HW233441   3.690   2.935   0.106
10848SOL     OW33442   2.650   3.961   0.637
10848SOL    HW133443   2.582   4.020   0.594
10848SOL    HW233444   2.668   3.882   0.579
10849SOL     OW33445   2.242   4.832   3.932
10849SOL    HW133446   2.187   4.757   3.894
10849SOL    HW233447   2.206   4.919   3.898
10850SOL     OW33448   2.389   6.257   6.130
10850SOL    HW133449   2.432   6.325   6.190
10850SOL    HW233450   2.334   6.194   6.185
10851SOL     OW33451   2.200   3.203   0.385
10851SOL    HW133452   2.134   3.272   0.416
10851SOL    HW233453   2.218   3.139   0.459
10852SOL     OW33454   1.057   0.173   0.014
10852SOL    HW133455   1.053   0.271   7.017
10852SOL    HW233456   1.086   0.124   6.955
10853SOL     OW33457   1.631   2.686   5.149
10853SOL    HW133458   1.538   2.657   5.125
10853SOL    HW233459   1.691   2.672   5.071
10854SOL     OW33460   4.756   4.516   5.727
10854SOL    HW133461   4.665   4.545   5.696
10854SOL    HW233462   4.810   4.486   5.648
10855SOL     OW33463   3.759   0.551   0.562
10855SOL    HW133464   3.749   0.498   0.646
10855SOL    HW233465   3.817   0.631   0.579
10856SOL     OW33466   5.171   1.190   0.163
10856SOL    HW133467   5.141   1.242   0.243
10856SOL    HW233468   5.110   1.112   0.149
10857SOL     OW33469   0.338   2.111   3.026
10857SOL    HW133470   0.334   2.137   2.929
10857SOL    HW233471   0.425   2.141   3.065
10858SOL     OW33472   1.017   1.789   6.639
10858SOL    HW133473   1.005   1.706   6.583
10858SOL    HW233474   0.963   1.863   6.600
10859SOL     OW33475   1.148   3.913   4.476
10859SOL    HW133476   1.238   3.909   4.434
10859SOL    HW233477   1.082   3.949   4.410
10860SOL     OW33478   0.234   2.680   5.075
10860SOL    HW133479   0.209   2.584   5.065
10860SOL    HW233480   0.153   2.734   5.099
10861SOL     OW33481   3.319   4.113   3.561
10861SOL    HW133482   3.302   4.092   3.465
10861SOL    HW233483   3.241   4.164   3.598
10862SOL     OW33484   2.161   1.431   6.580
10862SOL    HW133485   2.097   1.353   6.583
10862SOL    HW233486   2.180   1.462   6.673
10863SOL     OW33487   3.617   0.681   3.943
10863SOL    HW133488   3.612   0.723   4.033
10863SOL    HW233489   3.678   0.602   3.946
10864SOL     OW33490   1.885   6.624   0.471
10864SOL    HW133491   1.899   6.691   0.398
10864SOL    HW233492   1.903   6.532   0.436
10865SOL     OW33493   0.358   1.490   1.615
10865SOL    HW133494   0.334   1.408   1.564
10865SOL    HW233495   0.415   1.549   1.558
10866SOL     OW33496   5.591   4.146   0.480
10866SOL    HW133497   5.610   4.048   0.480
10866SOL    HW233498   5.606   4.184   0.572
10867SOL     OW33499   3.542   3.918   6.777
10867SOL    HW133500   3.484   3.995   6.802
10867SOL    HW233501   3.572   3.928   6.682
10868SOL     OW33502   4.834   1.418   4.067
10868SOL    HW133503   4.825   1.488   4.138
10868SOL    HW233504   4.924   1.427   4.023
10869NA      NA33505   6.349   2.638   5.259
10870NA      NA33506   4.499   4.541   5.180
10871NA      NA33507   1.866   3.173   2.150
10872NA      NA33508   5.094   3.791   4.952
10873NA      NA33509   4.245   2.457   5.355
10874NA      NA33510   3.499   4.791   1.700
10875NA      NA33511   6.861   4.643   0.441
10876NA      NA33512   3.426   3.742   4.009
10877NA      NA33513   5.063   6.161   0.310
10878NA      NA33514   3.237   6.672   5.148
10879NA      NA33515   5.738   5.293   1.614
10880NA      NA33516   2.026   0.267   4.319
10881NA      NA33517   3.597   5.209   2.685
10882NA      NA33518   3.851   3.759   2.287
   7.02285   7.02285   7.02285
