Generated by trjconv : CNT in water t= 437.00000
33518
    1C        C    1   2.843   2.768   4.747
    1C        C    2   2.896   2.714   4.866
    1C        C    3   2.837   2.764   4.983
    1C        C    4   2.846   2.768   4.258
    1C        C    5   2.893   2.717   4.381
    1C        C    6   2.845   2.769   4.504
    1C        C    7   3.011   2.635   4.623
    1C        C    8   2.899   2.722   4.625
    1C        C    9   3.072   2.599   4.745
    1C        C   10   3.007   2.627   4.867
    1C        C   11   3.179   2.490   4.970
    1C        C   12   3.061   2.563   4.979
    1C        C   13   2.848   2.763   3.769
    1C        C   14   2.901   2.719   3.892
    1C        C   15   2.849   2.770   4.013
    1C        C   16   3.013   2.636   4.135
    1C        C   17   2.900   2.721   4.136
    1C        C   18   3.074   2.605   4.259
    1C        C   19   3.011   2.640   4.380
    1C        C   20   3.207   2.555   4.502
    1C        C   21   3.074   2.602   4.501
    1C        C   22   3.276   2.531   4.623
    1C        C   23   3.203   2.542   4.743
    1C        C   24   3.413   2.482   4.863
    1C        C   25   3.271   2.500   4.861
    1C        C   26   3.488   2.469   4.981
    1C        C   27   2.853   2.772   3.278
    1C        C   28   2.905   2.723   3.400
    1C        C   29   2.853   2.769   3.523
    1C        C   30   3.018   2.637   3.647
    1C        C   31   2.905   2.722   3.646
    1C        C   32   3.073   2.593   3.769
    1C        C   33   3.009   2.627   3.891
    1C        C   34   3.203   2.547   4.013
    1C        C   35   3.070   2.594   4.014
    1C        C   36   3.270   2.527   4.136
    1C        C   37   3.206   2.555   4.259
    1C        C   38   3.413   2.502   4.379
    1C        C   39   3.276   2.535   4.380
    1C        C   40   3.485   2.496   4.501
    1C        C   41   3.414   2.500   4.623
    1C        C   42   3.630   2.481   4.743
    1C        C   43   3.488   2.483   4.742
    1C        C   44   3.706   2.487   4.862
    1C        C   45   3.627   2.478   4.978
    1C        C   46   2.834   2.753   2.791
    1C        C   47   2.890   2.708   2.912
    1C        C   48   2.839   2.757   3.034
    1C        C   49   3.011   2.630   3.157
    1C        C   50   2.899   2.717   3.156
    1C        C   51   3.075   2.595   3.278
    1C        C   52   3.018   2.640   3.399
    1C        C   53   3.205   2.543   3.525
    1C        C   54   3.075   2.600   3.523
    1C        C   55   3.273   2.523   3.647
    1C        C   56   3.205   2.544   3.769
    1C        C   57   3.412   2.502   3.893
    1C        C   58   3.272   2.523   3.892
    1C        C   59   3.482   2.495   4.016
    1C        C   60   3.409   2.500   4.137
    1C        C   61   3.624   2.500   4.257
    1C        C   62   3.483   2.492   4.257
    1C        C   63   3.697   2.506   4.378
    1C        C   64   3.626   2.494   4.500
    1C        C   65   3.832   2.543   4.620
    1C        C   66   3.698   2.497   4.621
    1C        C   67   3.907   2.554   4.740
    1C        C   68   3.843   2.520   4.861
    1C        C   69   4.052   2.581   4.973
    1C        C   70   3.921   2.531   4.977
    1C        C   71   2.825   2.732   2.302
    1C        C   72   2.883   2.691   2.425
    1C        C   73   2.833   2.745   2.545
    1C        C   74   3.005   2.627   2.668
    1C        C   75   2.886   2.704   2.669
    1C        C   76   3.068   2.591   2.789
    1C        C   77   3.007   2.630   2.911
    1C        C   78   3.199   2.538   3.034
    1C        C   79   3.068   2.592   3.033
    1C        C   80   3.269   2.522   3.155
    1C        C   81   3.206   2.543   3.280
    1C        C   82   3.411   2.495   3.398
    1C        C   83   3.273   2.522   3.403
    1C        C   84   3.480   2.493   3.522
    1C        C   85   3.412   2.498   3.646
    1C        C   86   3.621   2.498   3.767
    1C        C   87   3.480   2.494   3.770
    1C        C   88   3.693   2.508   3.889
    1C        C   89   3.623   2.501   4.012
    1C        C   90   3.829   2.550   4.133
    1C        C   91   3.692   2.514   4.134
    1C        C   92   3.899   2.573   4.253
    1C        C   93   3.831   2.550   4.375
    1C        C   94   4.021   2.640   4.498
    1C        C   95   3.897   2.572   4.498
    1C        C   96   4.086   2.672   4.619
    1C        C   97   4.027   2.629   4.740
    1C        C   98   4.194   2.762   4.860
    1C        C   99   4.100   2.654   4.860
    1C        C  100   4.214   2.839   4.976
    1C        C  101   2.820   2.730   2.065
    1C        C  102   2.986   2.585   2.184
    1C        C  103   2.874   2.675   2.182
    1C        C  104   3.056   2.565   2.306
    1C        C  105   2.999   2.610   2.427
    1C        C  106   3.198   2.534   2.547
    1C        C  107   3.065   2.583   2.548
    1C        C  108   3.265   2.510   2.669
    1C        C  109   3.196   2.532   2.791
    1C        C  110   3.406   2.491   2.911
    1C        C  111   3.267   2.515   2.912
    1C        C  112   3.478   2.490   3.033
    1C        C  113   3.408   2.501   3.156
    1C        C  114   3.623   2.503   3.275
    1C        C  115   3.482   2.493   3.276
    1C        C  116   3.690   2.512   3.400
    1C        C  117   3.621   2.500   3.522
    1C        C  118   3.826   2.549   3.644
    1C        C  119   3.691   2.506   3.645
    1C        C  120   3.892   2.576   3.765
    1C        C  121   3.828   2.549   3.888
    1C        C  122   4.019   2.643   4.009
    1C        C  123   3.894   2.577   4.010
    1C        C  124   4.079   2.679   4.132
    1C        C  125   4.021   2.644   4.256
    1C        C  126   4.194   2.767   4.375
    1C        C  127   4.085   2.678   4.377
    1C        C  128   4.242   2.819   4.497
    1C        C  129   4.192   2.765   4.617
    1C        C  130   4.322   2.935   4.739
    1C        C  131   4.240   2.820   4.739
    1C        C  132   4.355   2.999   4.861
    1C        C  133   4.282   2.960   4.973
    1C        C  134   3.173   2.463   2.078
    1C        C  135   3.039   2.503   2.079
    1C        C  136   3.257   2.479   2.189
    1C        C  137   3.189   2.514   2.308
    1C        C  138   3.404   2.481   2.427
    1C        C  139   3.264   2.501   2.427
    1C        C  140   3.476   2.481   2.548
    1C        C  141   3.404   2.487   2.669
    1C        C  142   3.618   2.493   2.790
    1C        C  143   3.478   2.480   2.790
    1C        C  144   3.691   2.505   2.911
    1C        C  145   3.619   2.498   3.032
    1C        C  146   3.828   2.546   3.152
    1C        C  147   3.693   2.506   3.152
    1C        C  148   3.891   2.569   3.276
    1C        C  149   3.827   2.546   3.400
    1C        C  150   4.021   2.634   3.520
    1C        C  151   3.892   2.575   3.522
    1C        C  152   4.082   2.671   3.643
    1C        C  153   4.017   2.642   3.765
    1C        C  154   4.187   2.772   3.885
    1C        C  155   4.076   2.684   3.887
    1C        C  156   4.238   2.819   4.008
    1C        C  157   4.190   2.767   4.130
    1C        C  158   4.339   2.919   4.252
    1C        C  159   4.245   2.813   4.251
    1C        C  160   4.381   2.979   4.373
    1C        C  161   4.333   2.927   4.495
    1C        C  162   4.438   3.112   4.615
    1C        C  163   4.368   2.990   4.617
    1C        C  164   4.465   3.181   4.735
    1C        C  165   4.430   3.118   4.857
    1C        C  166   4.515   3.319   4.971
    1C        C  167   4.478   3.185   4.971
    1C        C  168   3.475   2.436   2.073
    1C        C  169   3.395   2.451   2.187
    1C        C  170   3.615   2.465   2.305
    1C        C  171   3.473   2.462   2.305
    1C        C  172   3.688   2.489   2.424
    1C        C  173   3.617   2.489   2.546
    1C        C  174   3.824   2.543   2.665
    1C        C  175   3.687   2.506   2.668
    1C        C  176   3.894   2.561   2.787
    1C        C  177   3.828   2.538   2.909
    1C        C  178   4.022   2.631   3.030
    1C        C  179   3.894   2.572   3.029
    1C        C  180   4.082   2.665   3.153
    1C        C  181   4.019   2.630   3.274
    1C        C  182   4.193   2.752   3.396
    1C        C  183   4.080   2.667   3.396
    1C        C  184   4.245   2.804   3.517
    1C        C  185   4.193   2.757   3.640
    1C        C  186   4.337   2.915   3.759
    1C        C  187   4.243   2.810   3.761
    1C        C  188   4.376   2.975   3.881
    1C        C  189   4.333   2.924   4.006
    1C        C  190   4.439   3.105   4.126
    1C        C  191   4.374   2.979   4.129
    1C        C  192   4.475   3.166   4.248
    1C        C  193   4.451   3.102   4.371
    1C        C  194   4.508   3.309   4.488
    1C        C  195   4.471   3.173   4.492
    1C        C  196   4.521   3.384   4.607
    1C        C  197   4.506   3.317   4.730
    1C        C  198   4.545   3.532   4.849
    1C        C  199   4.527   3.390   4.851
    1C        C  200   4.578   3.616   4.960
    1C        C  201   3.614   2.420   2.071
    1C        C  202   3.824   2.513   2.180
    1C        C  203   3.691   2.462   2.185
    1C        C  204   3.896   2.541   2.300
    1C        C  205   3.824   2.527   2.421
    1C        C  206   4.018   2.621   2.540
    1C        C  207   3.889   2.562   2.542
    1C        C  208   4.081   2.657   2.661
    1C        C  209   4.019   2.627   2.785
    1C        C  210   4.193   2.752   2.906
    1C        C  211   4.080   2.668   2.906
    1C        C  212   4.246   2.800   3.028
    1C        C  213   4.193   2.753   3.151
    1C        C  214   4.334   2.909   3.272
    1C        C  215   4.247   2.798   3.274
    1C        C  216   4.373   2.969   3.394
    1C        C  217   4.332   2.915   3.518
    1C        C  218   4.434   3.104   3.638
    1C        C  219   4.377   2.975   3.638
    1C        C  220   4.462   3.169   3.760
    1C        C  221   4.440   3.101   3.882
    1C        C  222   4.507   3.303   4.003
    1C        C  223   4.472   3.166   4.003
    1C        C  224   4.518   3.376   4.123
    1C        C  225   4.510   3.303   4.244
    1C        C  226   4.515   3.518   4.363
    1C        C  227   4.516   3.377   4.364
    1C        C  228   4.515   3.592   4.483
    1C        C  229   4.529   3.525   4.607
    1C        C  230   4.496   3.739   4.725
    1C        C  231   4.533   3.602   4.726
    1C        C  232   4.494   3.817   4.842
    1C        C  233   4.546   3.752   4.955
    1C        C  234   4.016   2.608   2.060
    1C        C  235   3.890   2.547   2.062
    1C        C  236   4.083   2.645   2.177
    1C        C  237   4.021   2.607   2.298
    1C        C  238   4.200   2.730   2.420
    1C        C  239   4.084   2.647   2.419
    1C        C  240   4.252   2.783   2.540
    1C        C  241   4.197   2.737   2.662
    1C        C  242   4.338   2.901   2.784
    1C        C  243   4.249   2.791   2.782
    1C        C  244   4.383   2.959   2.905
    1C        C  245   4.342   2.903   3.028
    1C        C  246   4.442   3.091   3.146
    1C        C  247   4.379   2.965   3.150
    1C        C  248   4.465   3.157   3.270
    1C        C  249   4.438   3.095   3.394
    1C        C  250   4.496   3.303   3.511
    1C        C  251   4.459   3.166   3.514
    1C        C  252   4.509   3.372   3.633
    1C        C  253   4.503   3.304   3.758
    1C        C  254   4.517   3.514   3.878
    1C        C  255   4.515   3.373   3.881
    1C        C  256   4.511   3.586   3.999
    1C        C  257   4.516   3.517   4.122
    1C        C  258   4.489   3.731   4.240
    1C        C  259   4.511   3.592   4.242
    1C        C  260   4.464   3.798   4.362
    1C        C  261   4.480   3.729   4.484
    1C        C  262   4.423   3.939   4.603
    1C        C  263   4.468   3.805   4.603
    1C        C  264   4.396   4.009   4.722
    1C        C  265   4.435   3.946   4.843
    1C        C  266   4.321   4.132   4.958
    1C        C  267   4.393   4.013   4.958
    1C        C  268   4.263   2.769   2.064
    1C        C  269   4.194   2.732   2.180
    1C        C  270   4.348   2.886   2.297
    1C        C  271   4.254   2.779   2.299
    1C        C  272   4.386   2.948   2.418
    1C        C  273   4.342   2.892   2.540
    1C        C  274   4.447   3.079   2.657
    1C        C  275   4.373   2.959   2.661
    1C        C  276   4.475   3.148   2.777
    1C        C  277   4.444   3.086   2.900
    1C        C  278   4.502   3.290   3.023
    1C        C  279   4.468   3.152   3.022
    1C        C  280   4.511   3.362   3.144
    1C        C  281   4.499   3.294   3.267
    1C        C  282   4.515   3.510   3.388
    1C        C  283   4.507   3.369   3.387
    1C        C  284   4.517   3.581   3.510
    1C        C  285   4.514   3.513   3.633
    1C        C  286   4.485   3.723   3.752
    1C        C  287   4.514   3.585   3.755
    1C        C  288   4.465   3.789   3.876
    1C        C  289   4.489   3.726   4.000
    1C        C  290   4.422   3.933   4.118
    1C        C  291   4.475   3.802   4.118
    1C        C  292   4.395   3.999   4.240
    1C        C  293   4.421   3.932   4.361
    1C        C  294   4.320   4.124   4.477
    1C        C  295   4.389   4.001   4.481
    1C        C  296   4.279   4.185   4.598
    1C        C  297   4.319   4.128   4.720
    1C        C  298   4.199   4.313   4.837
    1C        C  299   4.280   4.195   4.839
    1C        C  300   4.168   4.401   4.946
    1C        C  301   4.349   2.878   2.060
    1C        C  302   4.471   3.064   2.178
    1C        C  303   4.396   2.941   2.176
    1C        C  304   4.481   3.142   2.296
    1C        C  305   4.450   3.073   2.416
    1C        C  306   4.510   3.281   2.534
    1C        C  307   4.479   3.144   2.535
    1C        C  308   4.508   3.355   2.654
    1C        C  309   4.502   3.287   2.778
    1C        C  310   4.524   3.499   2.897
    1C        C  311   4.516   3.358   2.900
    1C        C  312   4.514   3.569   3.019
    1C        C  313   4.511   3.503   3.143
    1C        C  314   4.487   3.717   3.262
    1C        C  315   4.509   3.577   3.264
    1C        C  316   4.474   3.786   3.384
    1C        C  317   4.492   3.720   3.508
    1C        C  318   4.419   3.922   3.624
    1C        C  319   4.469   3.789   3.629
    1C        C  320   4.391   3.984   3.747
    1C        C  321   4.415   3.921   3.871
    1C        C  322   4.314   4.109   3.989
    1C        C  323   4.386   3.987   3.992
    1C        C  324   4.276   4.172   4.109
    1C        C  325   4.319   4.118   4.233
    1C        C  326   4.188   4.287   4.352
    1C        C  327   4.278   4.178   4.354
    1C        C  328   4.135   4.339   4.472
    1C        C  329   4.190   4.295   4.595
    1C        C  330   4.024   4.434   4.709
    1C        C  331   4.141   4.355   4.713
    1C        C  332   3.968   4.489   4.827
    1C        C  333   4.052   4.479   4.939
    1C        C  334   4.551   3.262   2.061
    1C        C  335   4.534   3.123   2.064
    1C        C  336   4.537   3.348   2.171
    1C        C  337   4.508   3.281   2.292
    1C        C  338   4.526   3.494   2.408
    1C        C  339   4.523   3.353   2.412
    1C        C  340   4.522   3.566   2.530
    1C        C  341   4.520   3.496   2.653
    1C        C  342   4.489   3.707   2.769
    1C        C  343   4.517   3.568   2.774
    1C        C  344   4.469   3.775   2.891
    1C        C  345   4.487   3.708   3.013
    1C        C  346   4.420   3.910   3.136
    1C        C  347   4.468   3.777   3.135
    1C        C  348   4.386   3.978   3.255
    1C        C  349   4.419   3.916   3.377
    1C        C  350   4.313   4.100   3.501
    1C        C  351   4.389   3.982   3.499
    1C        C  352   4.270   4.157   3.623
    1C        C  353   4.314   4.103   3.745
    1C        C  354   4.173   4.265   3.864
    1C        C  355   4.270   4.163   3.866
    1C        C  356   4.122   4.317   3.985
    1C        C  357   4.175   4.271   4.107
    1C        C  358   4.009   4.401   4.229
    1C        C  359   4.128   4.324   4.229
    1C        C  360   3.949   4.443   4.349
    1C        C  361   4.015   4.413   4.470
    1C        C  362   3.825   4.516   4.588
    1C        C  363   3.956   4.463   4.589
    1C        C  364   3.759   4.547   4.709
    1C        C  365   3.836   4.537   4.827
    1C        C  366   3.631   4.589   4.944
    1C        C  367   3.768   4.563   4.947
    1C        C  368   4.520   3.561   2.046
    1C        C  369   4.519   3.488   2.166
    1C        C  370   4.497   3.703   2.286
    1C        C  371   4.510   3.562   2.286
    1C        C  372   4.484   3.777   2.405
    1C        C  373   4.499   3.705   2.525
    1C        C  374   4.415   3.904   2.647
    1C        C  375   4.469   3.773   2.645
    1C        C  376   4.380   3.967   2.769
    1C        C  377   4.414   3.906   2.891
    1C        C  378   4.310   4.089   3.011
    1C        C  379   4.389   3.972   3.013
    1C        C  380   4.265   4.148   3.131
    1C        C  381   4.305   4.094   3.255
    1C        C  382   4.172   4.258   3.374
    1C        C  383   4.268   4.153   3.378
    1C        C  384   4.122   4.307   3.496
    1C        C  385   4.175   4.262   3.619
    1C        C  386   4.006   4.393   3.740
    1C        C  387   4.122   4.312   3.740
    1C        C  388   3.948   4.436   3.861
    1C        C  389   4.008   4.401   3.984
    1C        C  390   3.819   4.492   4.104
    1C        C  391   3.950   4.439   4.107
    1C        C  392   3.750   4.518   4.225
    1C        C  393   3.822   4.506   4.346
    1C        C  394   3.614   4.553   4.469
    1C        C  395   3.753   4.529   4.467
    1C        C  396   3.544   4.561   4.591
    1C        C  397   3.618   4.561   4.711
    1C        C  398   3.408   4.551   4.838
    1C        C  399   3.548   4.574   4.832
    1C        C  400   3.337   4.510   4.951
    1C        C  401   4.496   3.698   2.047
    1C        C  402   4.447   3.910   2.163
    1C        C  403   4.484   3.774   2.164
    1C        C  404   4.412   3.977   2.282
    1C        C  405   4.436   3.910   2.404
    1C        C  406   4.319   4.090   2.524
    1C        C  407   4.393   3.970   2.525
    1C        C  408   4.272   4.149   2.643
    1C        C  409   4.314   4.092   2.766
    1C        C  410   4.173   4.248   2.884
    1C        C  411   4.272   4.148   2.888
    1C        C  412   4.125   4.302   3.006
    1C        C  413   4.174   4.257   3.130
    1C        C  414   4.003   4.383   3.248
    1C        C  415   4.120   4.305   3.251
    1C        C  416   3.943   4.415   3.372
    1C        C  417   4.003   4.384   3.496
    1C        C  418   3.814   4.482   3.617
    1C        C  419   3.943   4.425   3.617
    1C        C  420   3.745   4.504   3.738
    1C        C  421   3.816   4.486   3.860
    1C        C  422   3.609   4.532   3.984
    1C        C  423   3.748   4.506   3.982
    1C        C  424   3.540   4.537   4.107
    1C        C  425   3.611   4.539   4.229
    1C        C  426   3.397   4.545   4.354
    1C        C  427   3.538   4.553   4.349
    1C        C  428   3.327   4.544   4.477
    1C        C  429   3.403   4.549   4.596
    1C        C  430   3.194   4.514   4.721
    1C        C  431   3.334   4.537   4.719
    1C        C  432   3.124   4.491   4.842
    1C        C  433   3.200   4.489   4.960
    1C        C  434   4.384   4.119   2.048
    1C        C  435   4.442   3.991   2.049
    1C        C  436   4.302   4.161   2.158
    1C        C  437   4.333   4.095   2.280
    1C        C  438   4.179   4.245   2.398
    1C        C  439   4.280   4.147   2.400
    1C        C  440   4.124   4.299   2.516
    1C        C  441   4.176   4.252   2.639
    1C        C  442   4.007   4.380   2.762
    1C        C  443   4.122   4.298   2.762
    1C        C  444   3.942   4.411   2.883
    1C        C  445   4.005   4.377   3.005
    1C        C  446   3.810   4.468   3.128
    1C        C  447   3.941   4.415   3.125
    1C        C  448   3.745   4.494   3.251
    1C        C  449   3.814   4.473   3.373
    1C        C  450   3.607   4.523   3.498
    1C        C  451   3.747   4.499   3.494
    1C        C  452   3.536   4.540   3.619
    1C        C  453   3.607   4.532   3.741
    1C        C  454   3.395   4.535   3.861
    1C        C  455   3.536   4.537   3.863
    1C        C  456   3.330   4.523   3.986
    1C        C  457   3.399   4.530   4.109
    1C        C  458   3.193   4.490   4.235
    1C        C  459   3.329   4.527   4.232
    1C        C  460   3.125   4.479   4.358
    1C        C  461   3.189   4.514   4.479
    1C        C  462   2.992   4.435   4.601
    1C        C  463   3.122   4.491   4.602
    1C        C  464   2.927   4.401   4.721
    1C        C  465   2.991   4.438   4.842
    1C        C  466   2.798   4.337   4.957
    1C        C  467   2.911   4.419   4.960
    1C        C  468   4.121   4.286   2.039
    1C        C  469   4.186   4.244   2.156
    1C        C  470   4.004   4.365   2.277
    1C        C  471   4.126   4.292   2.276
    1C        C  472   3.938   4.400   2.397
    1C        C  473   4.006   4.376   2.518
    1C        C  474   3.811   4.461   2.643
    1C        C  475   3.944   4.413   2.640
    1C        C  476   3.742   4.488   2.764
    1C        C  477   3.811   4.465   2.885
    1C        C  478   3.603   4.512   3.005
    1C        C  479   3.741   4.482   3.006
    1C        C  480   3.535   4.522   3.129
    1C        C  481   3.606   4.519   3.251
    1C        C  482   3.397   4.522   3.375
    1C        C  483   3.538   4.524   3.375
    1C        C  484   3.326   4.524   3.497
    1C        C  485   3.395   4.536   3.620
    1C        C  486   3.185   4.496   3.742
    1C        C  487   3.322   4.530   3.740
    1C        C  488   3.124   4.475   3.868
    1C        C  489   3.192   4.492   3.990
    1C        C  490   2.999   4.406   4.112
    1C        C  491   3.125   4.471   4.113
    1C        C  492   2.938   4.378   4.236
    1C        C  493   2.997   4.420   4.357
    1C        C  494   2.826   4.299   4.481
    1C        C  495   2.934   4.389   4.480
    1C        C  496   2.768   4.256   4.603
    1C        C  497   2.812   4.317   4.723
    1C        C  498   2.663   4.164   4.844
    1C        C  499   2.747   4.277   4.841
    1C        C  500   2.595   4.116   4.957
    1C        C  501   3.997   4.348   2.040
    1C        C  502   3.813   4.461   2.154
    1C        C  503   3.943   4.405   2.156
    1C        C  504   3.742   4.479   2.275
    1C        C  505   3.806   4.451   2.397
    1C        C  506   3.605   4.507   2.517
    1C        C  507   3.741   4.471   2.521
    1C        C  508   3.532   4.519   2.638
    1C        C  509   3.603   4.514   2.760
    1C        C  510   3.393   4.520   2.884
    1C        C  511   3.534   4.524   2.882
    1C        C  512   3.321   4.514   3.006
    1C        C  513   3.394   4.523   3.127
    1C        C  514   3.190   4.485   3.254
    1C        C  515   3.328   4.515   3.252
    1C        C  516   3.121   4.463   3.375
    1C        C  517   3.189   4.487   3.497
    1C        C  518   2.993   4.407   3.623
    1C        C  519   3.121   4.467   3.619
    1C        C  520   2.937   4.370   3.747
    1C        C  521   2.997   4.412   3.868
    1C        C  522   2.826   4.284   3.992
    1C        C  523   2.939   4.369   3.990
    1C        C  524   2.778   4.237   4.116
    1C        C  525   2.830   4.286   4.238
    1C        C  526   2.686   4.135   4.362
    1C        C  527   2.775   4.244   4.361
    1C        C  528   2.644   4.080   4.485
    1C        C  529   2.682   4.145   4.604
    1C        C  530   2.585   3.957   4.729
    1C        C  531   2.641   4.088   4.727
    1C        C  532   2.544   3.900   4.853
    1C        C  533   2.523   3.996   4.958
    1C        C  534   3.615   4.549   2.039
    1C        C  535   3.748   4.506   2.038
    1C        C  536   3.533   4.530   2.154
    1C        C  537   3.604   4.514   2.276
    1C        C  538   3.390   4.511   2.396
    1C        C  539   3.531   4.516   2.397
    1C        C  540   3.320   4.508   2.519
    1C        C  541   3.391   4.516   2.641
    1C        C  542   3.183   4.482   2.764
    1C        C  543   3.321   4.510   2.763
    1C        C  544   3.115   4.462   2.886
    1C        C  545   3.183   4.484   3.008
    1C        C  546   2.996   4.396   3.133
    1C        C  547   3.122   4.461   3.133
    1C        C  548   2.937   4.358   3.256
    1C        C  549   2.995   4.398   3.378
    1C        C  550   2.825   4.278   3.503
    1C        C  551   2.933   4.368   3.501
    1C        C  552   2.776   4.230   3.627
    1C        C  553   2.827   4.281   3.748
    1C        C  554   2.687   4.123   3.875
    1C        C  555   2.774   4.234   3.870
    1C        C  556   2.647   4.066   3.998
    1C        C  557   2.690   4.127   4.118
    1C        C  558   2.587   3.944   4.245
    1C        C  559   2.653   4.069   4.241
    1C        C  560   2.563   3.879   4.368
    1C        C  561   2.589   3.950   4.488
    1C        C  562   2.523   3.749   4.612
    1C        C  563   2.562   3.885   4.610
    1C        C  564   2.512   3.681   4.735
    1C        C  565   2.521   3.759   4.854
    1C        C  566   2.524   3.547   4.975
    1C        C  567   2.517   3.686   4.973
    1C        C  568   3.324   4.465   2.037
    1C        C  569   3.393   4.504   2.152
    1C        C  570   3.180   4.472   2.278
    1C        C  571   3.319   4.501   2.274
    1C        C  572   3.115   4.449   2.401
    1C        C  573   3.183   4.475   2.522
    1C        C  574   2.985   4.397   2.644
    1C        C  575   3.114   4.454   2.644
    1C        C  576   2.928   4.359   2.767
    1C        C  577   2.991   4.394   2.888
    1C        C  578   2.822   4.271   3.012
    1C        C  579   2.934   4.358   3.013
    1C        C  580   2.771   4.223   3.135
    1C        C  581   2.825   4.273   3.256
    1C        C  582   2.684   4.120   3.381
    1C        C  583   2.775   4.228   3.380
    1C        C  584   2.656   4.058   3.505
    1C        C  585   2.690   4.118   3.629
    1C        C  586   2.593   3.933   3.754
    1C        C  587   2.653   4.061   3.753
    1C        C  588   2.566   3.870   3.877
    1C        C  589   2.589   3.937   3.999
    1C        C  590   2.535   3.736   4.126
    1C        C  591   2.567   3.874   4.124
    1C        C  592   2.517   3.670   4.249
    1C        C  593   2.525   3.743   4.370
    1C        C  594   2.514   3.532   4.496
    1C        C  595   2.517   3.673   4.493
    1C        C  596   2.517   3.464   4.619
    1C        C  597   2.514   3.539   4.739
    1C        C  598   2.537   3.326   4.861
    1C        C  599   2.523   3.467   4.860
    1C        C  600   2.536   3.247   4.977
    1C        C  601   3.190   4.432   2.039
    1C        C  602   2.978   4.393   2.156
    1C        C  603   3.115   4.436   2.157
    1C        C  604   2.921   4.358   2.281
    1C        C  605   2.986   4.391   2.402
    1C        C  606   2.811   4.272   2.527
    1C        C  607   2.921   4.361   2.524
    1C        C  608   2.761   4.221   2.649
    1C        C  609   2.818   4.270   2.769
    1C        C  610   2.675   4.115   2.893
    1C        C  611   2.769   4.221   2.892
    1C        C  612   2.641   4.055   3.017
    1C        C  613   2.685   4.111   3.139
    1C        C  614   2.583   3.930   3.263
    1C        C  615   2.639   4.060   3.262
    1C        C  616   2.564   3.864   3.387
    1C        C  617   2.595   3.931   3.507
    1C        C  618   2.529   3.732   3.636
    1C        C  619   2.567   3.868   3.631
    1C        C  620   2.515   3.665   3.759
    1C        C  621   2.526   3.734   3.881
    1C        C  622   2.511   3.525   4.009
    1C        C  623   2.518   3.666   4.005
    1C        C  624   2.515   3.456   4.132
    1C        C  625   2.510   3.529   4.253
    1C        C  626   2.534   3.319   4.378
    1C        C  627   2.512   3.458   4.375
    1C        C  628   2.557   3.251   4.500
    1C        C  629   2.539   3.324   4.619
    1C        C  630   2.602   3.120   4.743
    1C        C  631   2.557   3.255   4.741
    1C        C  632   2.622   3.050   4.865
    1C        C  633   2.564   3.110   4.982
    1C        C  634   2.775   4.305   2.053
    1C        C  635   2.887   4.389   2.046
    1C        C  636   2.744   4.230   2.167
    1C        C  637   2.809   4.271   2.285
    1C        C  638   2.670   4.109   2.406
    1C        C  639   2.760   4.218   2.407
    1C        C  640   2.631   4.050   2.529
    1C        C  641   2.677   4.107   2.649
    1C        C  642   2.585   3.920   2.774
    1C        C  643   2.641   4.050   2.773
    1C        C  644   2.561   3.858   2.899
    1C        C  645   2.585   3.925   3.020
    1C        C  646   2.522   3.723   3.146
    1C        C  647   2.559   3.860   3.143
    1C        C  648   2.512   3.656   3.270
    1C        C  649   2.527   3.728   3.390
    1C        C  650   2.511   3.519   3.516
    1C        C  651   2.520   3.660   3.514
    1C        C  652   2.517   3.454   3.641
    1C        C  653   2.515   3.523   3.764
    1C        C  654   2.542   3.315   3.890
    1C        C  655   2.518   3.454   3.887
    1C        C  656   2.562   3.248   4.013
    1C        C  657   2.540   3.317   4.134
    1C        C  658   2.609   3.119   4.256
    1C        C  659   2.552   3.249   4.257
    1C        C  660   2.640   3.056   4.378
    1C        C  661   2.608   3.120   4.500
    1C        C  662   2.715   2.938   4.625
    1C        C  663   2.638   3.056   4.622
    1C        C  664   2.753   2.878   4.747
    1C        C  665   2.700   2.930   4.868
    1C        C  666   2.738   2.861   4.984
    1C        C  667   2.683   4.024   2.051
    1C        C  668   2.677   4.105   2.164
    1C        C  669   2.586   3.912   2.288
    1C        C  670   2.635   4.045   2.285
    1C        C  671   2.553   3.847   2.409
    1C        C  672   2.581   3.917   2.528
    1C        C  673   2.524   3.717   2.656
    1C        C  674   2.561   3.853   2.652
    1C        C  675   2.513   3.649   2.779
    1C        C  676   2.529   3.720   2.900
    1C        C  677   2.504   3.512   3.027
    1C        C  678   2.512   3.653   3.024
    1C        C  679   2.510   3.444   3.151
    1C        C  680   2.508   3.515   3.273
    1C        C  681   2.531   3.306   3.401
    1C        C  682   2.507   3.445   3.396
    1C        C  683   2.558   3.243   3.525
    1C        C  684   2.540   3.314   3.645
    1C        C  685   2.611   3.114   3.769
    1C        C  686   2.558   3.246   3.767
    1C        C  687   2.645   3.051   3.891
    1C        C  688   2.615   3.117   4.012
    1C        C  689   2.719   2.935   4.137
    1C        C  690   2.641   3.053   4.135
    1C        C  691   2.754   2.875   4.260
    1C        C  692   2.709   2.933   4.381
    1C        C  693   2.756   2.878   4.503
    1C        C  694   2.627   3.896   2.055
    1C        C  695   2.525   3.703   2.170
    1C        C  696   2.576   3.835   2.170
    1C        C  697   2.503   3.636   2.293
    1C        C  698   2.519   3.710   2.412
    1C        C  699   2.490   3.504   2.541
    1C        C  700   2.503   3.644   2.536
    1C        C  701   2.500   3.435   2.664
    1C        C  702   2.500   3.508   2.785
    1C        C  703   2.529   3.299   2.909
    1C        C  704   2.501   3.438   2.907
    1C        C  705   2.546   3.236   3.034
    1C        C  706   2.530   3.304   3.157
    1C        C  707   2.598   3.104   3.278
    1C        C  708   2.548   3.236   3.280
    1C        C  709   2.634   3.045   3.401
    1C        C  710   2.609   3.111   3.524
    1C        C  711   2.712   2.928   3.645
    1C        C  712   2.640   3.050   3.647
    1C        C  713   2.757   2.871   3.766
    1C        C  714   2.722   2.932   3.889
    1C        C  715   2.759   2.878   4.014
    1C        C  716   2.446   3.497   2.060
    1C        C  717   2.490   3.631   2.056
    1C        C  718   2.466   3.421   2.179
    1C        C  719   2.477   3.497   2.299
    1C        C  720   2.514   3.289   2.423
    1C        C  721   2.485   3.427   2.422
    1C        C  722   2.540   3.223   2.545
    1C        C  723   2.525   3.296   2.665
    1C        C  724   2.595   3.096   2.788
    1C        C  725   2.547   3.229   2.787
    1C        C  726   2.622   3.035   2.912
    1C        C  727   2.594   3.103   3.033
    1C        C  728   2.703   2.922   3.155
    1C        C  729   2.625   3.040   3.155
    1C        C  730   2.753   2.871   3.277
    1C        C  731   2.714   2.928   3.401
    1C        C  732   2.759   2.874   3.523
    1C        C  733   2.483   3.190   2.073
    1C        C  734   2.484   3.279   2.181
    1C        C  735   2.582   3.087   2.304
    1C        C  736   2.525   3.217   2.302
    1C        C  737   2.614   3.018   2.423
    1C        C  738   2.591   3.091   2.542
    1C        C  739   2.697   2.911   2.666
    1C        C  740   2.621   3.030   2.665
    1C        C  741   2.739   2.858   2.790
    1C        C  742   2.698   2.916   2.912
    1C        C  743   2.744   2.862   3.035
    1C        C  744   2.546   3.066   2.070
    1C        C  745   2.685   2.897   2.182
    1C        C  746   2.611   3.018   2.184
    1C        C  747   2.733   2.841   2.302
    1C        C  748   2.687   2.897   2.423
    1C        C  749   2.740   2.851   2.545
    1C        C  750   2.732   2.837   2.064
    1C        C  751   3.668   2.337   1.961
    1C        O  752   3.700   2.216   1.978
    1C        O  753   3.636   2.364   1.827
    1C        C  754   4.619   3.041   1.975
    1C        O  755   4.583   2.986   1.868
    1C        O  756   4.757   3.063   1.964
    1C        C  757   4.459   4.221   1.971
    1C        O  758   4.566   4.266   2.021
    1C        O  759   4.435   4.238   1.835
    1C        C  760   3.592   4.662   1.946
    1C        O  761   3.578   4.778   1.994
    1C        O  762   3.611   4.650   1.808
    1C        C  763   2.893   4.470   1.922
    1C        O  764   2.930   4.419   1.813
    1C        O  765   2.809   4.581   1.901
    1C        C  766   2.350   3.461   1.953
    1C        O  767   2.356   3.517   1.841
    1C        O  768   2.233   3.389   1.980
    1C        C  769   4.693   3.576   5.043
    1C        O  770   4.686   3.534   5.162
    1C        O  771   4.825   3.605   5.005
    1C        C  772   4.268   4.454   5.041
    1C        O  773   4.290   4.394   5.149
    1C        O  774   4.385   4.521   5.002
    1C        C  775   4.146   2.497   5.051
    1C        O  776   4.168   2.379   5.011
    1C        O  777   4.155   2.526   5.188
    1C        C  778   2.903   4.520   5.068
    1C        O  779   2.842   4.628   5.042
    1C        O  780   2.942   4.500   5.200
    1C        C  781   2.473   3.032   5.069
    1C        O  782   2.349   3.026   5.049
    1C        O  783   2.497   2.983   5.196
    1C        C  784   2.394   4.008   5.029
    1C        O  785   2.290   4.033   4.962
    1C        O  786   2.366   3.932   5.144
    1C        C  787   2.941   2.430   1.994
    1C        O  788   2.958   2.445   1.870
    1C        O  789   2.907   2.299   2.025
    1C        C  790   3.157   2.354   5.026
    1C        O  791   3.073   2.279   4.971
    1C        O  792   3.231   2.299   5.131
    1C        H  793   4.237   3.039   5.031
    1C        H  794   4.146   2.824   5.057
    1C        H  795   4.494   3.129   5.060
    1C        H  796   4.483   3.374   5.057
    1C        H  797   4.572   3.810   5.041
    1C        H  798   4.384   3.950   5.043
    1C        H  799   4.276   4.166   5.049
    1C        H  800   4.037   4.556   5.012
    1C        H  801   3.817   4.592   5.037
    1C        H  802   3.605   4.676   5.001
    1C        H  803   3.389   4.503   5.045
    1C        H  804   3.157   4.510   5.056
    1C        H  805   3.887   2.498   5.073
    1C        H  806   3.676   2.483   5.073
    1C        H  807   2.982   2.520   5.038
    1C        H  808   3.434   2.472   5.073
    1C        H  809   2.892   2.753   5.074
    1C        H  810   2.686   2.873   5.077
    1C        H  811   2.525   3.292   5.073
    1C        H  812   2.502   3.503   5.070
    1C        H  813   2.562   3.726   5.062
    1C        H  814   2.596   4.179   5.044
    1C        H  815   2.768   4.297   5.052
    1C        H  816   2.695   2.872   1.970
    1C        H  817   2.840   2.677   1.974
    1C        H  818   3.218   2.431   1.986
    1C        H  819   3.422   2.419   1.982
    1C        H  820   3.835   2.550   1.970
    1C        H  821   4.057   2.630   1.964
    1C        H  822   4.267   2.697   1.985
    1C        H  823   4.346   2.933   1.969
    1C        H  824   4.571   3.304   1.965
    1C        H  825   4.523   3.511   1.951
    1C        H  826   4.439   3.725   1.961
    1C        H  827   3.803   4.530   1.950
    1C        H  828   3.947   4.351   1.945
    1C        H  829   4.184   4.311   1.957
    1C        H  830   4.521   3.980   1.977
    1C        H  831   2.589   3.859   1.962
    1C        H  832   2.765   4.033   1.983
    1C        H  833   2.702   4.318   1.976
    1C        H  834   3.372   4.471   1.941
    1C        H  835   3.152   4.380   1.954
    1C        H  836   2.509   2.991   2.002
    1C        H  837   2.388   3.188   2.025
    1C        H  838   2.539   3.655   1.964
    2V3OU   H29  839   2.801   3.549   5.060
    2V3OU   C27  840   2.781   3.501   5.159
    2V3OU   H27  841   2.722   3.569   5.226
    2V3OU   H28  842   2.727   3.403   5.152
    2V3OU   O11  843   2.906   3.483   5.226
    2V3OU   C15  844   2.918   3.392   5.329
    2V3OU   C13  845   3.047   3.374   5.382
    2V3OU   C14  846   3.074   3.264   5.465
    2V3OU   C16  847   2.969   3.182   5.504
    2V3OU    H6  848   2.987   3.103   5.578
    2V3OU   C12  849   3.216   3.230   5.490
    2V3OU    O2  850   3.240   3.126   5.556
    2V3OU   C10  851   3.326   3.308   5.431
    2V3OU    C8  852   3.459   3.267   5.433
    2V3OU   O10  853   3.488   3.148   5.491
    2V3OU   H26  854   3.404   3.110   5.521
    2V3OU    C6  855   3.567   3.344   5.379
    2V3OU    C5  856   3.537   3.466   5.319
    2V3OU    C4  857   3.705   3.289   5.378
    2V3OU    H4  858   3.725   3.232   5.474
    2V3OU    H5  859   3.712   3.220   5.289
    2V3OU    C2  860   3.814   3.396   5.377
    2V3OU    O6  861   3.806   3.462   5.504
    2V3OU   H21  862   3.768   3.549   5.484
    2V3OU    C3  863   3.780   3.490   5.261
    2V3OU    H2  864   3.863   3.565   5.254
    2V3OU    H3  865   3.779   3.426   5.169
    2V3OU   C25  866   3.948   3.326   5.358
    2V3OU    O7  867   3.989   3.294   5.246
    2V3OU   C26  868   4.026   3.288   5.483
    2V3OU   H22  869   4.066   3.378   5.537
    2V3OU   H23  870   4.114   3.225   5.455
    2V3OU    O8  871   3.959   3.205   5.575
    2V3OU   H24  872   3.931   3.262   5.649
    2V3OU    C1  873   3.645   3.559   5.271
    2V3OU    H1  874   3.624   3.616   5.176
    2V3OU    O3  875   3.656   3.651   5.380
    2V3OU   C19  876   3.611   3.785   5.355
    2V3OU    H9  877   3.510   3.800   5.307
    2V3OU    O4  878   3.711   3.844   5.275
    2V3OU   C20  879   3.842   3.872   5.322
    2V3OU   H10  880   3.890   3.774   5.351
    2V3OU   C24  881   3.605   3.854   5.492
    2V3OU   H16  882   3.541   3.793   5.560
    2V3OU   H17  883   3.560   3.956   5.480
    2V3OU   C23  884   3.745   3.871   5.552
    2V3OU   H15  885   3.787   3.767   5.572
    2V3OU    N1  886   3.729   3.949   5.673
    2V3OU   H19  887   3.794   3.915   5.742
    2V3OU   H20  888   3.641   3.927   5.715
    2V3OU   C21  889   3.846   3.943   5.458
    2V3OU   H11  890   3.949   3.928   5.502
    2V3OU    O5  891   3.821   4.082   5.440
    2V3OU   H18  892   3.784   4.102   5.527
    2V3OU   C22  893   3.912   3.951   5.213
    2V3OU   H12  894   3.860   4.049   5.196
    2V3OU   H13  895   3.907   3.893   5.117
    2V3OU   H14  896   4.020   3.959   5.243
    2V3OU   C11  897   3.156   3.465   5.342
    2V3OU    O1  898   3.134   3.585   5.318
    2V3OU    C9  899   3.297   3.421   5.350
    2V3OU    C7  900   3.400   3.502   5.303
    2V3OU    O9  901   3.377   3.617   5.231
    2V3OU   H25  902   3.281   3.631   5.240
    2V3OU   C17  903   2.813   3.314   5.382
    2V3OU    H7  904   2.709   3.339   5.366
    2V3OU   C18  905   2.837   3.209   5.469
    2V3OU    H8  906   2.750   3.147   5.495
    3SOL     OW  907   3.944   3.987   4.153
    3SOL    HW1  908   3.882   4.026   4.221
    3SOL    HW2  909   3.896   3.975   4.066
    4SOL     OW  910   6.647   0.329   0.646
    4SOL    HW1  911   6.681   0.336   0.739
    4SOL    HW2  912   6.624   0.420   0.612
    5SOL     OW  913   4.852   1.657   1.430
    5SOL    HW1  914   4.813   1.595   1.362
    5SOL    HW2  915   4.863   1.748   1.389
    6SOL     OW  916   5.729   0.603   2.834
    6SOL    HW1  917   5.747   0.671   2.904
    6SOL    HW2  918   5.812   0.550   2.816
    7SOL     OW  919   1.987   4.528   3.885
    7SOL    HW1  920   1.935   4.566   3.962
    7SOL    HW2  921   1.947   4.441   3.858
    8SOL     OW  922   1.768   3.278   5.563
    8SOL    HW1  923   1.734   3.196   5.608
    8SOL    HW2  924   1.772   3.262   5.464
    9SOL     OW  925   6.506   1.053   0.038
    9SOL    HW1  926   6.587   1.106   0.064
    9SOL    HW2  927   6.515   0.960   0.072
   10SOL     OW  928   4.399   4.668   2.927
   10SOL    HW1  929   4.474   4.728   2.955
   10SOL    HW2  930   4.433   4.574   2.923
   11SOL     OW  931   2.706   0.914   0.695
   11SOL    HW1  932   2.733   0.818   0.681
   11SOL    HW2  933   2.687   0.956   0.607
   12SOL     OW  934   2.832   5.203   3.144
   12SOL    HW1  935   2.925   5.175   3.119
   12SOL    HW2  936   2.767   5.167   3.077
   13SOL     OW  937   5.071   6.132   1.232
   13SOL    HW1  938   5.154   6.079   1.250
   13SOL    HW2  939   5.093   6.209   1.173
   14SOL     OW  940   4.410   5.419   5.355
   14SOL    HW1  941   4.479   5.389   5.289
   14SOL    HW2  942   4.419   5.517   5.371
   15SOL     OW  943   6.684   5.919   6.268
   15SOL    HW1  944   6.674   5.827   6.307
   15SOL    HW2  945   6.717   5.982   6.338
   16SOL     OW  946   1.070   4.108   4.956
   16SOL    HW1  947   0.999   4.038   4.958
   16SOL    HW2  948   1.126   4.100   5.039
   17SOL     OW  949   5.996   1.570   5.111
   17SOL    HW1  950   5.911   1.620   5.129
   17SOL    HW2  951   5.979   1.499   5.043
   18SOL     OW  952   2.987   0.858   5.640
   18SOL    HW1  953   2.936   0.839   5.723
   18SOL    HW2  954   3.069   0.801   5.636
   19SOL     OW  955   1.858   1.101   2.992
   19SOL    HW1  956   1.951   1.085   2.959
   19SOL    HW2  957   1.812   1.013   3.006
   20SOL     OW  958   6.140   1.699   5.470
   20SOL    HW1  959   6.079   1.658   5.538
   20SOL    HW2  960   6.090   1.766   5.416
   21SOL     OW  961   2.734   4.763   2.900
   21SOL    HW1  962   2.687   4.681   2.933
   21SOL    HW2  963   2.692   4.845   2.939
   22SOL     OW  964   1.850   6.156   6.018
   22SOL    HW1  965   1.804   6.088   5.962
   22SOL    HW2  966   1.833   6.137   6.115
   23SOL     OW  967   5.624   4.244   1.593
   23SOL    HW1  968   5.685   4.243   1.673
   23SOL    HW2  969   5.566   4.325   1.596
   24SOL     OW  970   4.519   0.853   1.201
   24SOL    HW1  971   4.524   0.894   1.291
   24SOL    HW2  972   4.608   0.815   1.176
   25SOL     OW  973   1.933   1.150   4.307
   25SOL    HW1  974   2.010   1.093   4.336
   25SOL    HW2  975   1.966   1.242   4.286
   26SOL     OW  976   1.373   2.968   6.813
   26SOL    HW1  977   1.390   2.995   6.907
   26SOL    HW2  978   1.379   2.868   6.805
   27SOL     OW  979   6.473   0.886   0.914
   27SOL    HW1  980   6.403   0.856   0.978
   27SOL    HW2  981   6.430   0.918   0.829
   28SOL     OW  982   2.777   0.976   5.097
   28SOL    HW1  983   2.751   0.997   5.192
   28SOL    HW2  984   2.731   0.892   5.068
   29SOL     OW  985   0.418   0.517   1.340
   29SOL    HW1  986   0.516   0.500   1.330
   29SOL    HW2  987   0.399   0.554   1.432
   30SOL     OW  988   3.841   0.763   4.800
   30SOL    HW1  989   3.819   0.670   4.827
   30SOL    HW2  990   3.935   0.767   4.766
   31SOL     OW  991   0.979   3.668   5.070
   31SOL    HW1  992   0.952   3.610   5.147
   31SOL    HW2  993   1.062   3.719   5.096
   32SOL     OW  994   2.578   0.714   1.044
   32SOL    HW1  995   2.532   0.701   1.133
   32SOL    HW2  996   2.584   0.625   0.998
   33SOL     OW  997   0.611   5.268   5.347
   33SOL    HW1  998   0.678   5.217   5.294
   33SOL    HW2  999   0.537   5.208   5.376
   34SOL     OW 1000   2.371   5.631   5.061
   34SOL    HW1 1001   2.293   5.693   5.062
   34SOL    HW2 1002   2.341   5.539   5.087
   35SOL     OW 1003   2.707   3.137   0.163
   35SOL    HW1 1004   2.727   3.068   0.093
   35SOL    HW2 1005   2.622   3.184   0.139
   36SOL     OW 1006   4.123   0.810   4.732
   36SOL    HW1 1007   4.149   0.762   4.816
   36SOL    HW2 1008   4.202   0.862   4.697
   37SOL     OW 1009   2.798   0.671   4.078
   37SOL    HW1 1010   2.821   0.670   4.176
   37SOL    HW2 1011   2.879   0.645   4.025
   38SOL     OW 1012   6.783   4.422   2.722
   38SOL    HW1 1013   6.721   4.422   2.801
   38SOL    HW2 1014   6.731   4.440   2.638
   39SOL     OW 1015   6.937   5.608   6.264
   39SOL    HW1 1016   0.000   5.659   6.292
   39SOL    HW2 1017   6.938   5.517   6.306
   40SOL     OW 1018   4.034   0.745   5.872
   40SOL    HW1 1019   3.994   0.835   5.857
   40SOL    HW2 1020   4.048   0.700   5.783
   41SOL     OW 1021   6.152   4.476   1.434
   41SOL    HW1 1022   6.200   4.423   1.365
   41SOL    HW2 1023   6.145   4.571   1.405
   42SOL     OW 1024   2.551   5.230   6.224
   42SOL    HW1 1025   2.650   5.232   6.237
   42SOL    HW2 1026   2.524   5.145   6.178
   43SOL     OW 1027   4.482   6.769   4.492
   43SOL    HW1 1028   4.505   6.866   4.502
   43SOL    HW2 1029   4.477   6.746   4.394
   44SOL     OW 1030   6.823   1.771   6.331
   44SOL    HW1 1031   6.916   1.799   6.352
   44SOL    HW2 1032   6.804   1.788   6.234
   45SOL     OW 1033   3.446   5.119   0.097
   45SOL    HW1 1034   3.401   5.111   0.186
   45SOL    HW2 1035   3.380   5.095   0.025
   46SOL     OW 1036   0.237   2.404   4.285
   46SOL    HW1 1037   0.292   2.485   4.307
   46SOL    HW2 1038   0.273   2.362   4.202
   47SOL     OW 1039   5.873   2.442   1.301
   47SOL    HW1 1040   5.816   2.457   1.221
   47SOL    HW2 1041   5.941   2.372   1.281
   48SOL     OW 1042   6.655   3.354   0.686
   48SOL    HW1 1043   6.670   3.297   0.767
   48SOL    HW2 1044   6.569   3.328   0.643
   49SOL     OW 1045   4.255   3.272   0.127
   49SOL    HW1 1046   4.206   3.285   0.040
   49SOL    HW2 1047   4.244   3.354   0.183
   50SOL     OW 1048   6.253   3.126   6.757
   50SOL    HW1 1049   6.153   3.122   6.745
   50SOL    HW2 1050   6.274   3.170   6.844
   51SOL     OW 1051   2.554   6.060   2.549
   51SOL    HW1 1052   2.644   6.063   2.505
   51SOL    HW2 1053   2.485   6.037   2.481
   52SOL     OW 1054   5.458   2.359   1.208
   52SOL    HW1 1055   5.399   2.278   1.207
   52SOL    HW2 1056   5.547   2.336   1.169
   53SOL     OW 1057   3.994   0.520   2.238
   53SOL    HW1 1058   3.900   0.491   2.221
   53SOL    HW2 1059   4.056   0.444   2.219
   54SOL     OW 1060   5.582   6.647   6.997
   54SOL    HW1 1061   5.611   6.714   0.048
   54SOL    HW2 1062   5.550   6.695   6.916
   55SOL     OW 1063   0.585   3.251   6.377
   55SOL    HW1 1064   0.489   3.268   6.399
   55SOL    HW2 1065   0.622   3.330   6.327
   56SOL     OW 1066   0.726   2.653   6.846
   56SOL    HW1 1067   0.722   2.573   6.786
   56SOL    HW2 1068   0.689   2.630   6.936
   57SOL     OW 1069   4.736   0.364   0.133
   57SOL    HW1 1070   4.642   0.330   0.145
   57SOL    HW2 1071   4.757   0.367   0.036
   58SOL     OW 1072   0.783   0.337   6.214
   58SOL    HW1 1073   0.714   0.347   6.143
   58SOL    HW2 1074   0.873   0.361   6.178
   59SOL     OW 1075   5.080   3.329   5.655
   59SOL    HW1 1076   4.988   3.295   5.672
   59SOL    HW2 1077   5.101   3.322   5.558
   60SOL     OW 1078   5.626   0.846   2.749
   60SOL    HW1 1079   5.623   0.746   2.757
   60SOL    HW2 1080   5.561   0.876   2.680
   61SOL     OW 1081   6.643   6.057   5.200
   61SOL    HW1 1082   6.657   6.140   5.254
   61SOL    HW2 1083   6.713   5.990   5.222
   62SOL     OW 1084   6.546   2.001   2.059
   62SOL    HW1 1085   6.500   1.923   2.017
   62SOL    HW2 1086   6.563   2.071   1.990
   63SOL     OW 1087   4.718   6.018   5.014
   63SOL    HW1 1088   4.785   5.981   5.079
   63SOL    HW2 1089   4.681   5.943   4.959
   64SOL     OW 1090   0.154   4.526   6.917
   64SOL    HW1 1091   0.225   4.476   6.967
   64SOL    HW2 1092   0.064   4.494   6.945
   65SOL     OW 1093   0.879   0.183   5.171
   65SOL    HW1 1094   0.857   0.092   5.208
   65SOL    HW2 1095   0.950   0.225   5.228
   66SOL     OW 1096   4.453   1.178   2.367
   66SOL    HW1 1097   4.523   1.185   2.439
   66SOL    HW2 1098   4.474   1.101   2.307
   67SOL     OW 1099   1.256   2.377   1.064
   67SOL    HW1 1100   1.188   2.338   1.002
   67SOL    HW2 1101   1.270   2.474   1.042
   68SOL     OW 1102   0.365   1.855   5.224
   68SOL    HW1 1103   0.325   1.863   5.132
   68SOL    HW2 1104   0.359   1.944   5.270
   69SOL     OW 1105   1.069   6.043   6.266
   69SOL    HW1 1106   1.169   6.041   6.264
   69SOL    HW2 1107   1.036   6.113   6.202
   70SOL     OW 1108   4.949   3.627   3.895
   70SOL    HW1 1109   5.019   3.687   3.933
   70SOL    HW2 1110   4.908   3.670   3.815
   71SOL     OW 1111   4.586   1.491   4.632
   71SOL    HW1 1112   4.506   1.454   4.584
   71SOL    HW2 1113   4.559   1.569   4.687
   72SOL     OW 1114   0.447   0.505   3.731
   72SOL    HW1 1115   0.348   0.512   3.742
   72SOL    HW2 1116   0.492   0.563   3.799
   73SOL     OW 1117   2.843   0.808   0.936
   73SOL    HW1 1118   2.779   0.770   1.003
   73SOL    HW2 1119   2.819   0.775   0.845
   74SOL     OW 1120   2.040   2.723   0.628
   74SOL    HW1 1121   2.080   2.645   0.676
   74SOL    HW2 1122   2.074   2.808   0.669
   75SOL     OW 1123   3.853   2.994   0.136
   75SOL    HW1 1124   3.793   3.043   0.199
   75SOL    HW2 1125   3.816   2.903   0.119
   76SOL     OW 1126   3.279   4.755   5.333
   76SOL    HW1 1127   3.201   4.699   5.357
   76SOL    HW2 1128   3.345   4.755   5.408
   77SOL     OW 1129   1.455   4.380   4.792
   77SOL    HW1 1130   1.481   4.436   4.714
   77SOL    HW2 1131   1.468   4.283   4.770
   78SOL     OW 1132   5.272   1.491   0.880
   78SOL    HW1 1133   5.253   1.587   0.858
   78SOL    HW2 1134   5.201   1.457   0.941
   79SOL     OW 1135   1.653   5.034   2.811
   79SOL    HW1 1136   1.689   5.040   2.717
   79SOL    HW2 1137   1.696   5.104   2.867
   80SOL     OW 1138   4.437   1.668   4.770
   80SOL    HW1 1139   4.475   1.730   4.838
   80SOL    HW2 1140   4.338   1.680   4.765
   81SOL     OW 1141   3.934   5.716   1.234
   81SOL    HW1 1142   4.026   5.688   1.206
   81SOL    HW2 1143   3.888   5.761   1.156
   82SOL     OW 1144   2.207   6.010   1.481
   82SOL    HW1 1145   2.279   5.958   1.529
   82SOL    HW2 1146   2.230   6.016   1.384
   83SOL     OW 1147   5.127   1.205   4.779
   83SOL    HW1 1148   5.083   1.120   4.751
   83SOL    HW2 1149   5.204   1.225   4.717
   84SOL     OW 1150   5.559   2.305   2.049
   84SOL    HW1 1151   5.462   2.299   2.025
   84SOL    HW2 1152   5.609   2.229   2.007
   85SOL     OW 1153   2.204   0.468   3.836
   85SOL    HW1 1154   2.177   0.528   3.912
   85SOL    HW2 1155   2.303   0.471   3.825
   86SOL     OW 1156   5.371   0.402   6.504
   86SOL    HW1 1157   5.465   0.375   6.483
   86SOL    HW2 1158   5.337   0.349   6.582
   87SOL     OW 1159   2.682   4.391   0.167
   87SOL    HW1 1160   2.717   4.397   0.073
   87SOL    HW2 1161   2.754   4.357   0.227
   88SOL     OW 1162   3.212   3.960   0.020
   88SOL    HW1 1163   3.129   3.987   0.068
   88SOL    HW2 1164   3.291   4.007   0.060
   89SOL     OW 1165   3.072   3.945   3.291
   89SOL    HW1 1166   3.045   3.892   3.371
   89SOL    HW2 1167   3.022   3.912   3.211
   90SOL     OW 1168   4.748   4.361   3.205
   90SOL    HW1 1169   4.841   4.364   3.167
   90SOL    HW2 1170   4.719   4.266   3.213
   91SOL     OW 1171   4.508   4.985   5.801
   91SOL    HW1 1172   4.445   4.925   5.751
   91SOL    HW2 1173   4.569   5.030   5.737
   92SOL     OW 1174   5.939   3.837   6.655
   92SOL    HW1 1175   6.000   3.843   6.734
   92SOL    HW2 1176   5.885   3.921   6.648
   93SOL     OW 1177   3.017   3.800   2.000
   93SOL    HW1 1178   2.941   3.756   1.951
   93SOL    HW2 1179   3.023   3.762   2.092
   94SOL     OW 1180   3.103   1.880   5.146
   94SOL    HW1 1181   3.013   1.866   5.188
   94SOL    HW2 1182   3.092   1.917   5.054
   95SOL     OW 1183   0.614   0.502   4.436
   95SOL    HW1 1184   0.694   0.450   4.468
   95SOL    HW2 1185   0.606   0.491   4.337
   96SOL     OW 1186   5.753   5.255   0.540
   96SOL    HW1 1187   5.666   5.206   0.529
   96SOL    HW2 1188   5.752   5.306   0.626
   97SOL     OW 1189   2.691   5.032   5.849
   97SOL    HW1 1190   2.716   5.001   5.757
   97SOL    HW2 1191   2.599   5.072   5.847
   98SOL     OW 1192   1.448   2.194   3.491
   98SOL    HW1 1193   1.519   2.176   3.559
   98SOL    HW2 1194   1.451   2.124   3.420
   99SOL     OW 1195   3.922   3.336   4.982
   99SOL    HW1 1196   3.973   3.410   4.939
   99SOL    HW2 1197   3.966   3.310   5.068
  100SOL     OW 1198   0.003   0.969   4.279
  100SOL    HW1 1199   0.067   1.043   4.260
  100SOL    HW2 1200   6.936   0.985   4.228
  101SOL     OW 1201   6.598   4.030   2.564
  101SOL    HW1 1202   6.622   4.010   2.659
  101SOL    HW2 1203   6.581   3.945   2.515
  102SOL     OW 1204   3.217   0.442   7.013
  102SOL    HW1 1205   3.154   0.423   6.938
  102SOL    HW2 1206   3.306   0.402   6.993
  103SOL     OW 1207   2.522   0.674   1.935
  103SOL    HW1 1208   2.475   0.614   2.000
  103SOL    HW2 1209   2.576   0.742   1.985
  104SOL     OW 1210   0.493   4.207   1.593
  104SOL    HW1 1211   0.432   4.137   1.628
  104SOL    HW2 1212   0.485   4.212   1.494
  105SOL     OW 1213   5.865   1.200   5.616
  105SOL    HW1 1214   5.918   1.140   5.555
  105SOL    HW2 1215   5.808   1.261   5.560
  106SOL     OW 1216   5.785   4.613   1.986
  106SOL    HW1 1217   5.689   4.595   2.010
  106SOL    HW2 1218   5.843   4.586   2.062
  107SOL     OW 1219   5.805   0.118   1.156
  107SOL    HW1 1220   5.836   0.073   1.072
  107SOL    HW2 1221   5.875   0.110   1.226
  108SOL     OW 1222   1.868   0.864   5.684
  108SOL    HW1 1223   1.798   0.850   5.755
  108SOL    HW2 1224   1.889   0.776   5.640
  109SOL     OW 1225   1.742   1.106   3.900
  109SOL    HW1 1226   1.750   1.172   3.975
  109SOL    HW2 1227   1.673   1.138   3.835
  110SOL     OW 1228   3.282   4.270   5.358
  110SOL    HW1 1229   3.300   4.335   5.284
  110SOL    HW2 1230   3.309   4.309   5.445
  111SOL     OW 1231   6.832   1.708   1.356
  111SOL    HW1 1232   6.879   1.789   1.321
  111SOL    HW2 1233   6.871   1.626   1.313
  112SOL     OW 1234   4.669   6.940   6.774
  112SOL    HW1 1235   4.765   6.959   6.757
  112SOL    HW2 1236   4.656   6.842   6.790
  113SOL     OW 1237   0.251   6.039   2.100
  113SOL    HW1 1238   0.164   5.992   2.114
  113SOL    HW2 1239   0.255   6.120   2.158
  114SOL     OW 1240   0.352   3.565   3.446
  114SOL    HW1 1241   0.306   3.497   3.503
  114SOL    HW2 1242   0.322   3.555   3.352
  115SOL     OW 1243   5.465   0.651   4.158
  115SOL    HW1 1244   5.365   0.642   4.153
  115SOL    HW2 1245   5.491   0.742   4.126
  116SOL     OW 1246   0.519   4.591   0.120
  116SOL    HW1 1247   0.569   4.582   0.206
  116SOL    HW2 1248   0.583   4.586   0.044
  117SOL     OW 1249   2.561   1.906   0.078
  117SOL    HW1 1250   2.598   1.861   7.015
  117SOL    HW2 1251   2.492   1.973   0.051
  118SOL     OW 1252   1.221   1.956   4.257
  118SOL    HW1 1253   1.156   1.946   4.181
  118SOL    HW2 1254   1.222   1.872   4.311
  119SOL     OW 1255   6.553   6.301   6.740
  119SOL    HW1 1256   6.517   6.245   6.814
  119SOL    HW2 1257   6.503   6.282   6.656
  120SOL     OW 1258   4.757   2.060   4.609
  120SOL    HW1 1259   4.675   2.118   4.605
  120SOL    HW2 1260   4.757   2.008   4.694
  121SOL     OW 1261   1.468   4.661   6.768
  121SOL    HW1 1262   1.431   4.612   6.848
  121SOL    HW2 1263   1.392   4.695   6.713
  122SOL     OW 1264   0.608   3.945   6.538
  122SOL    HW1 1265   0.696   3.976   6.573
  122SOL    HW2 1266   0.585   3.857   6.579
  123SOL     OW 1267   1.291   1.404   1.537
  123SOL    HW1 1268   1.227   1.330   1.558
  123SOL    HW2 1269   1.384   1.373   1.557
  124SOL     OW 1270   2.326   2.642   0.807
  124SOL    HW1 1271   2.344   2.546   0.783
  124SOL    HW2 1272   2.303   2.647   0.904
  125SOL     OW 1273   3.814   3.416   0.221
  125SOL    HW1 1274   3.790   3.324   0.253
  125SOL    HW2 1275   3.911   3.420   0.199
  126SOL     OW 1276   4.063   3.651   4.459
  126SOL    HW1 1277   4.093   3.558   4.438
  126SOL    HW2 1278   4.005   3.650   4.541
  127SOL     OW 1279   0.609   6.143   6.037
  127SOL    HW1 1280   0.660   6.083   6.099
  127SOL    HW2 1281   0.525   6.174   6.082
  128SOL     OW 1282   4.490   3.506   0.563
  128SOL    HW1 1283   4.536   3.428   0.520
  128SOL    HW2 1284   4.435   3.473   0.640
  129SOL     OW 1285   1.151   5.590   0.927
  129SOL    HW1 1286   1.154   5.653   1.005
  129SOL    HW2 1287   1.179   5.499   0.958
  130SOL     OW 1288   5.390   2.610   5.299
  130SOL    HW1 1289   5.394   2.649   5.207
  130SOL    HW2 1290   5.404   2.511   5.294
  131SOL     OW 1291   0.148   2.105   3.796
  131SOL    HW1 1292   0.139   2.006   3.802
  131SOL    HW2 1293   0.138   2.144   3.888
  132SOL     OW 1294   4.075   3.685   2.051
  132SOL    HW1 1295   4.140   3.656   1.980
  132SOL    HW2 1296   4.037   3.774   2.026
  133SOL     OW 1297   5.325   6.434   5.951
  133SOL    HW1 1298   5.240   6.439   6.003
  133SOL    HW2 1299   5.308   6.390   5.863
  134SOL     OW 1300   4.936   1.101   1.868
  134SOL    HW1 1301   4.976   1.037   1.802
  134SOL    HW2 1302   4.945   1.064   1.960
  135SOL     OW 1303   4.934   3.408   3.144
  135SOL    HW1 1304   4.956   3.311   3.133
  135SOL    HW2 1305   4.966   3.439   3.234
  136SOL     OW 1306   3.303   0.019   6.235
  136SOL    HW1 1307   3.391   6.994   6.255
  136SOL    HW2 1308   3.319   0.103   6.183
  137SOL     OW 1309   3.102   2.628   5.693
  137SOL    HW1 1310   3.116   2.725   5.671
  137SOL    HW2 1311   3.010   2.617   5.732
  138SOL     OW 1312   1.068   5.842   6.094
  138SOL    HW1 1313   1.159   5.843   6.051
  138SOL    HW2 1314   1.069   5.898   6.176
  139SOL     OW 1315   2.106   5.803   6.898
  139SOL    HW1 1316   2.134   5.717   6.941
  139SOL    HW2 1317   2.123   5.879   6.960
  140SOL     OW 1318   2.900   0.275   1.673
  140SOL    HW1 1319   2.833   0.294   1.601
  140SOL    HW2 1320   2.990   0.303   1.642
  141SOL     OW 1321   6.469   3.262   0.509
  141SOL    HW1 1322   6.423   3.185   0.554
  141SOL    HW2 1323   6.559   3.233   0.476
  142SOL     OW 1324   1.489   4.106   2.314
  142SOL    HW1 1325   1.400   4.122   2.271
  142SOL    HW2 1326   1.555   4.173   2.280
  143SOL     OW 1327   4.849   6.556   2.226
  143SOL    HW1 1328   4.823   6.593   2.316
  143SOL    HW2 1329   4.919   6.615   2.185
  144SOL     OW 1330   3.530   4.968   3.598
  144SOL    HW1 1331   3.489   4.962   3.689
  144SOL    HW2 1332   3.493   5.048   3.551
  145SOL     OW 1333   6.829   4.959   3.146
  145SOL    HW1 1334   6.897   5.031   3.160
  145SOL    HW2 1335   6.876   4.875   3.116
  146SOL     OW 1336   5.640   1.536   6.625
  146SOL    HW1 1337   5.691   1.496   6.548
  146SOL    HW2 1338   5.600   1.463   6.680
  147SOL     OW 1339   5.024   0.928   5.472
  147SOL    HW1 1340   5.055   0.944   5.566
  147SOL    HW2 1341   5.088   0.867   5.426
  148SOL     OW 1342   0.903   5.108   0.815
  148SOL    HW1 1343   0.889   5.191   0.869
  148SOL    HW2 1344   0.816   5.083   0.771
  149SOL     OW 1345   2.061   2.870   5.631
  149SOL    HW1 1346   2.060   2.872   5.731
  149SOL    HW2 1347   2.131   2.934   5.597
  150SOL     OW 1348   4.027   1.753   4.956
  150SOL    HW1 1349   3.992   1.843   4.983
  150SOL    HW2 1350   4.095   1.722   5.022
  151SOL     OW 1351   3.970   2.581   0.524
  151SOL    HW1 1352   3.914   2.572   0.607
  151SOL    HW2 1353   4.066   2.560   0.547
  152SOL     OW 1354   1.264   2.373   0.438
  152SOL    HW1 1355   1.316   2.314   0.499
  152SOL    HW2 1356   1.273   2.340   0.344
  153SOL     OW 1357   3.215   0.955   3.567
  153SOL    HW1 1358   3.186   0.885   3.502
  153SOL    HW2 1359   3.314   0.961   3.569
  154SOL     OW 1360   6.100   1.335   1.591
  154SOL    HW1 1361   6.118   1.332   1.493
  154SOL    HW2 1362   6.167   1.393   1.636
  155SOL     OW 1363   1.677   6.713   2.396
  155SOL    HW1 1364   1.624   6.738   2.315
  155SOL    HW2 1365   1.774   6.710   2.373
  156SOL     OW 1366   5.056   2.268   0.710
  156SOL    HW1 1367   4.965   2.297   0.678
  156SOL    HW2 1368   5.102   2.345   0.753
  157SOL     OW 1369   4.394   5.206   6.872
  157SOL    HW1 1370   4.367   5.203   6.776
  157SOL    HW2 1371   4.451   5.126   6.893
  158SOL     OW 1372   0.010   2.738   3.011
  158SOL    HW1 1373   0.070   2.818   3.012
  158SOL    HW2 1374   6.982   2.730   3.099
  159SOL     OW 1375   6.080   5.531   0.592
  159SOL    HW1 1376   6.059   5.613   0.539
  159SOL    HW2 1377   6.061   5.450   0.537
  160SOL     OW 1378   6.401   6.968   1.545
  160SOL    HW1 1379   6.380   6.873   1.565
  160SOL    HW2 1380   6.473   6.973   1.477
  161SOL     OW 1381   0.160   6.698   0.482
  161SOL    HW1 1382   0.159   6.726   0.386
  161SOL    HW2 1383   0.229   6.627   0.495
  162SOL     OW 1384   4.389   0.300   0.317
  162SOL    HW1 1385   4.409   0.283   0.413
  162SOL    HW2 1386   4.450   0.244   0.260
  163SOL     OW 1387   6.693   3.931   2.784
  163SOL    HW1 1388   6.752   4.012   2.775
  163SOL    HW2 1389   6.743   3.850   2.753
  164SOL     OW 1390   2.248   2.284   3.594
  164SOL    HW1 1391   2.335   2.330   3.576
  164SOL    HW2 1392   2.246   2.198   3.545
  165SOL     OW 1393   0.719   6.183   3.544
  165SOL    HW1 1394   0.637   6.182   3.600
  165SOL    HW2 1395   0.778   6.260   3.570
  166SOL     OW 1396   0.046   3.582   3.106
  166SOL    HW1 1397   7.014   3.526   3.040
  166SOL    HW2 1398   0.051   3.676   3.073
  167SOL     OW 1399   4.384   2.206   0.455
  167SOL    HW1 1400   4.333   2.125   0.427
  167SOL    HW2 1401   4.339   2.248   0.534
  168SOL     OW 1402   5.214   4.343   1.874
  168SOL    HW1 1403   5.282   4.273   1.897
  168SOL    HW2 1404   5.123   4.312   1.901
  169SOL     OW 1405   5.694   2.187   1.339
  169SOL    HW1 1406   5.739   2.271   1.369
  169SOL    HW2 1407   5.704   2.117   1.410
  170SOL     OW 1408   0.714   5.457   2.876
  170SOL    HW1 1409   0.632   5.502   2.912
  170SOL    HW2 1410   0.795   5.501   2.915
  171SOL     OW 1411   3.117   4.361   0.557
  171SOL    HW1 1412   3.127   4.371   0.458
  171SOL    HW2 1413   3.026   4.391   0.584
  172SOL     OW 1414   6.731   2.234   0.153
  172SOL    HW1 1415   6.656   2.299   0.138
  172SOL    HW2 1416   6.727   2.161   0.084
  173SOL     OW 1417   0.050   1.746   4.878
  173SOL    HW1 1418   0.145   1.741   4.911
  173SOL    HW2 1419   0.037   1.830   4.826
  174SOL     OW 1420   5.956   5.308   5.650
  174SOL    HW1 1421   5.939   5.394   5.697
  174SOL    HW2 1422   6.055   5.298   5.634
  175SOL     OW 1423   0.569   0.274   1.201
  175SOL    HW1 1424   0.560   0.351   1.137
  175SOL    HW2 1425   0.660   0.276   1.243
  176SOL     OW 1426   5.522   4.575   2.027
  176SOL    HW1 1427   5.528   4.480   1.997
  176SOL    HW2 1428   5.428   4.594   2.057
  177SOL     OW 1429   5.848   2.547   4.393
  177SOL    HW1 1430   5.863   2.621   4.328
  177SOL    HW2 1431   5.750   2.535   4.408
  178SOL     OW 1432   1.903   6.221   5.130
  178SOL    HW1 1433   1.914   6.307   5.179
  178SOL    HW2 1434   1.958   6.223   5.046
  179SOL     OW 1435   3.535   4.748   1.394
  179SOL    HW1 1436   3.469   4.706   1.456
  179SOL    HW2 1437   3.503   4.840   1.369
  180SOL     OW 1438   3.975   1.566   0.585
  180SOL    HW1 1439   3.960   1.467   0.575
  180SOL    HW2 1440   4.061   1.582   0.634
  181SOL     OW 1441   2.980   2.429   5.539
  181SOL    HW1 1442   3.035   2.487   5.599
  181SOL    HW2 1443   3.040   2.382   5.474
  182SOL     OW 1444   4.650   2.504   0.117
  182SOL    HW1 1445   4.717   2.523   0.046
  182SOL    HW2 1446   4.559   2.496   0.076
  183SOL     OW 1447   3.434   1.476   3.578
  183SOL    HW1 1448   3.448   1.571   3.603
  183SOL    HW2 1449   3.368   1.434   3.641
  184SOL     OW 1450   5.559   6.172   3.708
  184SOL    HW1 1451   5.613   6.094   3.739
  184SOL    HW2 1452   5.476   6.140   3.664
  185SOL     OW 1453   6.458   1.176   4.013
  185SOL    HW1 1454   6.450   1.227   4.098
  185SOL    HW2 1455   6.371   1.132   3.992
  186SOL     OW 1456   4.517   5.953   3.814
  186SOL    HW1 1457   4.524   6.037   3.868
  186SOL    HW2 1458   4.570   5.965   3.729
  187SOL     OW 1459   4.627   6.330   1.815
  187SOL    HW1 1460   4.675   6.361   1.898
  187SOL    HW2 1461   4.578   6.408   1.775
  188SOL     OW 1462   1.685   3.314   3.199
  188SOL    HW1 1463   1.670   3.252   3.276
  188SOL    HW2 1464   1.751   3.385   3.224
  189SOL     OW 1465   6.052   5.343   6.295
  189SOL    HW1 1466   5.998   5.413   6.248
  189SOL    HW2 1467   6.005   5.316   6.379
  190SOL     OW 1468   6.335   0.410   0.164
  190SOL    HW1 1469   6.242   0.444   0.171
  190SOL    HW2 1470   6.353   0.344   0.237
  191SOL     OW 1471   6.957   1.284   5.807
  191SOL    HW1 1472   6.872   1.326   5.838
  191SOL    HW2 1473   0.015   1.344   5.828
  192SOL     OW 1474   0.598   5.332   0.934
  192SOL    HW1 1475   0.611   5.336   1.034
  192SOL    HW2 1476   0.505   5.360   0.911
  193SOL     OW 1477   2.562   6.200   6.298
  193SOL    HW1 1478   2.479   6.245   6.264
  193SOL    HW2 1479   2.544   6.103   6.312
  194SOL     OW 1480   4.151   6.649   2.339
  194SOL    HW1 1481   4.075   6.596   2.376
  194SOL    HW2 1482   4.127   6.683   2.248
  195SOL     OW 1483   3.846   0.708   1.537
  195SOL    HW1 1484   3.775   0.655   1.584
  195SOL    HW2 1485   3.892   0.650   1.469
  196SOL     OW 1486   2.250   1.408   0.666
  196SOL    HW1 1487   2.267   1.319   0.710
  196SOL    HW2 1488   2.323   1.426   0.600
  197SOL     OW 1489   2.079   6.334   0.652
  197SOL    HW1 1490   2.136   6.417   0.655
  197SOL    HW2 1491   1.987   6.359   0.623
  198SOL     OW 1492   4.236   0.363   6.643
  198SOL    HW1 1493   4.266   0.334   6.552
  198SOL    HW2 1494   4.230   0.284   6.703
  199SOL     OW 1495   6.761   6.699   3.163
  199SOL    HW1 1496   6.670   6.735   3.183
  199SOL    HW2 1497   6.796   6.650   3.243
  200SOL     OW 1498   0.188   3.751   3.560
  200SOL    HW1 1499   0.157   3.681   3.625
  200SOL    HW2 1500   0.241   3.708   3.487
  201SOL     OW 1501   3.514   1.087   6.279
  201SOL    HW1 1502   3.579   1.011   6.287
  201SOL    HW2 1503   3.556   1.163   6.230
  202SOL     OW 1504   3.532   0.421   2.600
  202SOL    HW1 1505   3.454   0.359   2.595
  202SOL    HW2 1506   3.600   0.395   2.532
  203SOL     OW 1507   5.509   3.499   6.476
  203SOL    HW1 1508   5.574   3.485   6.401
  203SOL    HW2 1509   5.490   3.597   6.485
  204SOL     OW 1510   2.208   6.477   1.010
  204SOL    HW1 1511   2.173   6.563   1.046
  204SOL    HW2 1512   2.133   6.424   0.970
  205SOL     OW 1513   6.416   1.640   0.348
  205SOL    HW1 1514   6.419   1.612   0.444
  205SOL    HW2 1515   6.336   1.698   0.332
  206SOL     OW 1516   0.745   4.517   1.824
  206SOL    HW1 1517   0.738   4.429   1.777
  206SOL    HW2 1518   0.771   4.588   1.758
  207SOL     OW 1519   4.738   0.411   5.725
  207SOL    HW1 1520   4.713   0.370   5.638
  207SOL    HW2 1521   4.826   0.373   5.756
  208SOL     OW 1522   4.324   5.476   6.206
  208SOL    HW1 1523   4.310   5.388   6.253
  208SOL    HW2 1524   4.250   5.490   6.140
  209SOL     OW 1525   6.646   5.551   5.895
  209SOL    HW1 1526   6.683   5.617   5.830
  209SOL    HW2 1527   6.720   5.514   5.952
  210SOL     OW 1528   4.043   3.323   0.986
  210SOL    HW1 1529   4.041   3.227   0.961
  210SOL    HW2 1530   4.119   3.369   0.939
  211SOL     OW 1531   1.788   1.323   1.247
  211SOL    HW1 1532   1.721   1.394   1.229
  211SOL    HW2 1533   1.799   1.266   1.165
  212SOL     OW 1534   0.158   4.754   4.136
  212SOL    HW1 1535   0.226   4.703   4.188
  212SOL    HW2 1536   0.203   4.810   4.067
  213SOL     OW 1537   5.006   1.956   0.163
  213SOL    HW1 1538   4.997   1.934   0.260
  213SOL    HW2 1539   4.954   2.038   0.143
  214SOL     OW 1540   1.180   0.617   2.903
  214SOL    HW1 1541   1.157   0.707   2.867
  214SOL    HW2 1542   1.105   0.553   2.883
  215SOL     OW 1543   3.575   3.553   2.825
  215SOL    HW1 1544   3.566   3.478   2.759
  215SOL    HW2 1545   3.577   3.516   2.918
  216SOL     OW 1546   1.142   6.783   5.615
  216SOL    HW1 1547   1.188   6.716   5.557
  216SOL    HW2 1548   1.119   6.863   5.561
  217SOL     OW 1549   0.583   2.506   3.084
  217SOL    HW1 1550   0.664   2.488   3.140
  217SOL    HW2 1551   0.537   2.589   3.117
  218SOL     OW 1552   1.219   3.812   5.229
  218SOL    HW1 1553   1.210   3.901   5.184
  218SOL    HW2 1554   1.292   3.761   5.186
  219SOL     OW 1555   4.742   5.411   7.007
  219SOL    HW1 1556   4.699   5.377   0.072
  219SOL    HW2 1557   4.838   5.431   0.005
  220SOL     OW 1558   2.630   5.238   0.410
  220SOL    HW1 1559   2.546   5.209   0.455
  220SOL    HW2 1560   2.611   5.317   0.350
  221SOL     OW 1561   5.601   2.196   4.526
  221SOL    HW1 1562   5.529   2.126   4.536
  221SOL    HW2 1563   5.644   2.186   4.437
  222SOL     OW 1564   0.750   6.154   5.583
  222SOL    HW1 1565   0.691   6.097   5.640
  222SOL    HW2 1566   0.695   6.198   5.512
  223SOL     OW 1567   6.898   3.680   1.971
  223SOL    HW1 1568   6.831   3.618   2.010
  223SOL    HW2 1569   6.961   3.711   2.043
  224SOL     OW 1570   3.001   2.300   1.632
  224SOL    HW1 1571   3.013   2.342   1.722
  224SOL    HW2 1572   2.980   2.202   1.644
  225SOL     OW 1573   6.274   0.912   6.908
  225SOL    HW1 1574   6.322   0.985   6.956
  225SOL    HW2 1575   6.276   0.930   6.809
  226SOL     OW 1576   6.873   6.044   1.005
  226SOL    HW1 1577   6.917   5.969   0.955
  226SOL    HW2 1578   6.832   6.008   1.089
  227SOL     OW 1579   1.322   3.503   3.736
  227SOL    HW1 1580   1.222   3.510   3.746
  227SOL    HW2 1581   1.358   3.448   3.811
  228SOL     OW 1582   4.546   6.700   3.767
  228SOL    HW1 1583   4.527   6.637   3.692
  228SOL    HW2 1584   4.462   6.748   3.792
  229SOL     OW 1585   5.944   5.972   2.347
  229SOL    HW1 1586   5.987   5.917   2.419
  229SOL    HW2 1587   5.869   5.921   2.306
  230SOL     OW 1588   2.304   4.338   5.230
  230SOL    HW1 1589   2.242   4.323   5.153
  230SOL    HW2 1590   2.256   4.388   5.302
  231SOL     OW 1591   0.788   2.710   6.225
  231SOL    HW1 1592   0.779   2.743   6.319
  231SOL    HW2 1593   0.801   2.611   6.225
  232SOL     OW 1594   1.938   4.744   6.328
  232SOL    HW1 1595   1.912   4.760   6.232
  232SOL    HW2 1596   1.864   4.696   6.375
  233SOL     OW 1597   2.083   0.818   6.036
  233SOL    HW1 1598   2.127   0.907   6.023
  233SOL    HW2 1599   2.146   0.745   6.011
  234SOL     OW 1600   2.880   5.584   6.770
  234SOL    HW1 1601   2.847   5.606   6.862
  234SOL    HW2 1602   2.916   5.491   6.769
  235SOL     OW 1603   2.909   3.277   4.646
  235SOL    HW1 1604   2.886   3.349   4.712
  235SOL    HW2 1605   2.856   3.194   4.668
  236SOL     OW 1606   6.768   2.062   5.391
  236SOL    HW1 1607   6.694   1.999   5.367
  236SOL    HW2 1608   6.853   2.029   5.350
  237SOL     OW 1609   0.695   0.291   1.564
  237SOL    HW1 1610   0.716   0.274   1.467
  237SOL    HW2 1611   0.754   0.364   1.599
  238SOL     OW 1612   5.962   2.334   2.855
  238SOL    HW1 1613   5.898   2.408   2.836
  238SOL    HW2 1614   6.029   2.327   2.782
  239SOL     OW 1615   6.977   5.834   0.492
  239SOL    HW1 1616   0.000   5.774   0.559
  239SOL    HW2 1617   0.013   5.917   0.483
  240SOL     OW 1618   0.326   3.988   5.826
  240SOL    HW1 1619   0.303   3.993   5.923
  240SOL    HW2 1620   0.419   4.023   5.812
  241SOL     OW 1621   0.519   0.856   3.163
  241SOL    HW1 1622   0.583   0.928   3.192
  241SOL    HW2 1623   0.566   0.768   3.164
  242SOL     OW 1624   1.829   3.727   4.231
  242SOL    HW1 1625   1.915   3.777   4.228
  242SOL    HW2 1626   1.772   3.762   4.306
  243SOL     OW 1627   5.335   6.855   5.547
  243SOL    HW1 1628   5.405   6.850   5.619
  243SOL    HW2 1629   5.250   6.815   5.580
  244SOL     OW 1630   6.284   2.285   6.118
  244SOL    HW1 1631   6.281   2.198   6.167
  244SOL    HW2 1632   6.268   2.270   6.021
  245SOL     OW 1633   5.628   2.094   4.145
  245SOL    HW1 1634   5.655   2.012   4.094
  245SOL    HW2 1635   5.699   2.164   4.136
  246SOL     OW 1636   5.105   3.104   3.001
  246SOL    HW1 1637   5.149   3.127   3.087
  246SOL    HW2 1638   5.021   3.052   3.019
  247SOL     OW 1639   2.527   1.447   3.670
  247SOL    HW1 1640   2.451   1.388   3.643
  247SOL    HW2 1641   2.584   1.400   3.737
  248SOL     OW 1642   6.166   1.464   3.397
  248SOL    HW1 1643   6.116   1.505   3.472
  248SOL    HW2 1644   6.172   1.529   3.321
  249SOL     OW 1645   2.913   6.852   3.858
  249SOL    HW1 1646   2.961   6.768   3.832
  249SOL    HW2 1647   2.955   6.930   3.813
  250SOL     OW 1648   5.056   2.882   6.218
  250SOL    HW1 1649   4.959   2.861   6.231
  250SOL    HW2 1650   5.070   2.918   6.125
  251SOL     OW 1651   3.719   2.665   0.398
  251SOL    HW1 1652   3.803   2.691   0.446
  251SOL    HW2 1653   3.709   2.565   0.401
  252SOL     OW 1654   0.135   0.724   5.683
  252SOL    HW1 1655   0.175   0.815   5.695
  252SOL    HW2 1656   0.043   0.722   5.720
  253SOL     OW 1657   3.044   3.373   6.772
  253SOL    HW1 1658   3.011   3.301   6.833
  253SOL    HW2 1659   3.110   3.431   6.820
  254SOL     OW 1660   5.814   3.108   5.147
  254SOL    HW1 1661   5.772   3.018   5.139
  254SOL    HW2 1662   5.771   3.170   5.082
  255SOL     OW 1663   2.748   2.102   3.368
  255SOL    HW1 1664   2.691   2.040   3.423
  255SOL    HW2 1665   2.773   2.181   3.423
  256SOL     OW 1666   5.812   5.060   6.915
  256SOL    HW1 1667   5.803   5.157   6.891
  256SOL    HW2 1668   5.721   5.019   6.922
  257SOL     OW 1669   3.117   6.493   6.083
  257SOL    HW1 1670   3.210   6.456   6.078
  257SOL    HW2 1671   3.118   6.577   6.138
  258SOL     OW 1672   5.423   4.370   4.615
  258SOL    HW1 1673   5.359   4.302   4.581
  258SOL    HW2 1674   5.515   4.331   4.617
  259SOL     OW 1675   1.411   2.233   2.238
  259SOL    HW1 1676   1.410   2.160   2.307
  259SOL    HW2 1677   1.498   2.230   2.188
  260SOL     OW 1678   5.445   0.371   5.892
  260SOL    HW1 1679   5.418   0.303   5.959
  260SOL    HW2 1680   5.486   0.326   5.812
  261SOL     OW 1681   0.648   3.576   2.407
  261SOL    HW1 1682   0.707   3.495   2.402
  261SOL    HW2 1683   0.705   3.659   2.399
  262SOL     OW 1684   0.826   4.806   2.016
  262SOL    HW1 1685   0.829   4.869   1.938
  262SOL    HW2 1686   0.903   4.825   2.076
  263SOL     OW 1687   1.036   1.955   4.071
  263SOL    HW1 1688   0.944   1.982   4.097
  263SOL    HW2 1689   1.032   1.874   4.012
  264SOL     OW 1690   2.676   4.458   6.349
  264SOL    HW1 1691   2.603   4.518   6.382
  264SOL    HW2 1692   2.657   4.364   6.378
  265SOL     OW 1693   5.445   3.649   4.754
  265SOL    HW1 1694   5.459   3.704   4.672
  265SOL    HW2 1695   5.372   3.689   4.809
  266SOL     OW 1696   4.190   1.560   0.349
  266SOL    HW1 1697   4.256   1.630   0.320
  266SOL    HW2 1698   4.105   1.603   0.377
  267SOL     OW 1699   0.962   2.520   5.757
  267SOL    HW1 1700   1.031   2.460   5.716
  267SOL    HW2 1701   0.995   2.552   5.846
  268SOL     OW 1702   3.959   4.871   4.706
  268SOL    HW1 1703   3.995   4.963   4.719
  268SOL    HW2 1704   3.878   4.859   4.763
  269SOL     OW 1705   0.516   1.400   5.753
  269SOL    HW1 1706   0.477   1.407   5.844
  269SOL    HW2 1707   0.575   1.320   5.748
  270SOL     OW 1708   5.004   1.011   3.689
  270SOL    HW1 1709   5.068   1.057   3.628
  270SOL    HW2 1710   4.918   1.062   3.692
  271SOL     OW 1711   1.383   1.016   0.347
  271SOL    HW1 1712   1.339   1.022   0.437
  271SOL    HW2 1713   1.369   0.925   0.309
  272SOL     OW 1714   3.363   5.563   3.330
  272SOL    HW1 1715   3.340   5.647   3.380
  272SOL    HW2 1716   3.435   5.581   3.263
  273SOL     OW 1717   2.560   6.395   5.633
  273SOL    HW1 1718   2.548   6.372   5.536
  273SOL    HW2 1719   2.512   6.481   5.652
  274SOL     OW 1720   6.228   2.115   1.433
  274SOL    HW1 1721   6.246   2.184   1.504
  274SOL    HW2 1722   6.313   2.096   1.383
  275SOL     OW 1723   6.396   5.991   5.322
  275SOL    HW1 1724   6.485   5.997   5.275
  275SOL    HW2 1725   6.332   5.941   5.264
  276SOL     OW 1726   6.504   6.357   3.605
  276SOL    HW1 1727   6.573   6.288   3.629
  276SOL    HW2 1728   6.521   6.392   3.513
  277SOL     OW 1729   4.815   1.300   5.532
  277SOL    HW1 1730   4.820   1.399   5.535
  277SOL    HW2 1731   4.900   1.263   5.493
  278SOL     OW 1732   6.017   3.167   2.606
  278SOL    HW1 1733   6.002   3.079   2.651
  278SOL    HW2 1734   5.984   3.164   2.512
  279SOL     OW 1735   6.834   2.706   4.331
  279SOL    HW1 1736   6.848   2.797   4.370
  279SOL    HW2 1737   6.869   2.637   4.395
  280SOL     OW 1738   3.023   0.988   3.925
  280SOL    HW1 1739   3.116   0.987   3.888
  280SOL    HW2 1740   2.981   0.899   3.912
  281SOL     OW 1741   5.225   6.097   3.994
  281SOL    HW1 1742   5.294   6.151   4.042
  281SOL    HW2 1743   5.138   6.101   4.043
  282SOL     OW 1744   3.620   1.747   0.332
  282SOL    HW1 1745   3.556   1.796   0.274
  282SOL    HW2 1746   3.608   1.648   0.320
  283SOL     OW 1747   6.268   1.475   5.108
  283SOL    HW1 1748   6.367   1.467   5.105
  283SOL    HW2 1749   6.234   1.443   5.197
  284SOL     OW 1750   5.636   5.905   3.766
  284SOL    HW1 1751   5.584   5.883   3.848
  284SOL    HW2 1752   5.711   5.840   3.755
  285SOL     OW 1753   4.475   0.425   5.801
  285SOL    HW1 1754   4.565   0.435   5.760
  285SOL    HW2 1755   4.421   0.507   5.783
  286SOL     OW 1756   2.577   5.188   5.188
  286SOL    HW1 1757   2.510   5.217   5.257
  286SOL    HW2 1758   2.669   5.199   5.225
  287SOL     OW 1759   3.032   6.853   5.795
  287SOL    HW1 1760   2.990   6.937   5.829
  287SOL    HW2 1761   3.122   6.874   5.758
  288SOL     OW 1762   3.789   1.129   1.047
  288SOL    HW1 1763   3.694   1.154   1.033
  288SOL    HW2 1764   3.794   1.045   1.102
  289SOL     OW 1765   5.886   6.259   4.147
  289SOL    HW1 1766   5.840   6.346   4.127
  289SOL    HW2 1767   5.950   6.272   4.222
  290SOL     OW 1768   3.556   1.228   5.234
  290SOL    HW1 1769   3.540   1.321   5.266
  290SOL    HW2 1770   3.652   1.216   5.211
  291SOL     OW 1771   3.792   6.819   5.063
  291SOL    HW1 1772   3.745   6.751   5.119
  291SOL    HW2 1773   3.881   6.840   5.104
  292SOL     OW 1774   4.757   0.069   3.776
  292SOL    HW1 1775   4.762   7.009   3.714
  292SOL    HW2 1776   4.666   0.109   3.772
  293SOL     OW 1777   5.461   6.649   2.459
  293SOL    HW1 1778   5.479   6.743   2.487
  293SOL    HW2 1779   5.496   6.586   2.528
  294SOL     OW 1780   6.342   0.683   5.571
  294SOL    HW1 1781   6.303   0.671   5.480
  294SOL    HW2 1782   6.335   0.597   5.621
  295SOL     OW 1783   1.722   1.566   4.997
  295SOL    HW1 1784   1.695   1.471   5.009
  295SOL    HW2 1785   1.809   1.569   4.947
  296SOL     OW 1786   6.931   2.624   1.006
  296SOL    HW1 1787   6.932   2.622   1.106
  296SOL    HW2 1788   6.917   2.532   0.971
  297SOL     OW 1789   5.523   3.574   3.862
  297SOL    HW1 1790   5.559   3.552   3.771
  297SOL    HW2 1791   5.475   3.494   3.898
  298SOL     OW 1792   3.790   1.004   6.650
  298SOL    HW1 1793   3.694   0.981   6.666
  298SOL    HW2 1794   3.842   0.920   6.635
  299SOL     OW 1795   1.906   0.925   6.256
  299SOL    HW1 1796   1.856   1.005   6.221
  299SOL    HW2 1797   1.984   0.906   6.197
  300SOL     OW 1798   4.163   0.186   3.054
  300SOL    HW1 1799   4.224   0.226   3.123
  300SOL    HW2 1800   4.107   0.115   3.096
  301SOL     OW 1801   6.817   5.438   0.961
  301SOL    HW1 1802   6.863   5.426   1.049
  301SOL    HW2 1803   6.754   5.362   0.946
  302SOL     OW 1804   6.385   6.052   1.518
  302SOL    HW1 1805   6.464   6.006   1.478
  302SOL    HW2 1806   6.410   6.146   1.542
  303SOL     OW 1807   5.405   5.467   2.059
  303SOL    HW1 1808   5.384   5.561   2.032
  303SOL    HW2 1809   5.501   5.461   2.087
  304SOL     OW 1810   2.822   6.539   5.216
  304SOL    HW1 1811   2.801   6.497   5.304
  304SOL    HW2 1812   2.750   6.515   5.150
  305SOL     OW 1813   1.066   2.655   2.387
  305SOL    HW1 1814   1.072   2.720   2.463
  305SOL    HW2 1815   0.980   2.669   2.337
  306SOL     OW 1816   6.676   0.265   2.762
  306SOL    HW1 1817   6.761   0.313   2.741
  306SOL    HW2 1818   6.599   0.329   2.755
  307SOL     OW 1819   3.184   3.112   3.020
  307SOL    HW1 1820   3.147   3.126   3.112
  307SOL    HW2 1821   3.193   3.014   3.003
  308SOL     OW 1822   5.641   1.997   3.598
  308SOL    HW1 1823   5.572   1.926   3.614
  308SOL    HW2 1824   5.607   2.085   3.634
  309SOL     OW 1825   1.002   6.211   6.050
  309SOL    HW1 1826   0.992   6.301   6.092
  309SOL    HW2 1827   0.972   6.216   5.954
  310SOL     OW 1828   5.240   6.371   5.026
  310SOL    HW1 1829   5.189   6.451   4.994
  310SOL    HW2 1830   5.208   6.289   4.978
  311SOL     OW 1831   2.280   5.232   3.022
  311SOL    HW1 1832   2.221   5.291   3.078
  311SOL    HW2 1833   2.331   5.287   2.957
  312SOL     OW 1834   4.641   2.173   3.132
  312SOL    HW1 1835   4.731   2.165   3.090
  312SOL    HW2 1836   4.651   2.183   3.231
  313SOL     OW 1837   3.978   3.038   2.937
  313SOL    HW1 1838   4.012   3.119   2.889
  313SOL    HW2 1839   4.015   3.036   3.030
  314SOL     OW 1840   2.364   6.326   6.180
  314SOL    HW1 1841   2.274   6.318   6.224
  314SOL    HW2 1842   2.389   6.422   6.173
  315SOL     OW 1843   6.467   1.613   3.384
  315SOL    HW1 1844   6.450   1.516   3.405
  315SOL    HW2 1845   6.565   1.625   3.366
  316SOL     OW 1846   3.853   1.426   5.447
  316SOL    HW1 1847   3.881   1.507   5.395
  316SOL    HW2 1848   3.758   1.436   5.475
  317SOL     OW 1849   1.563   1.377   1.580
  317SOL    HW1 1850   1.558   1.280   1.556
  317SOL    HW2 1851   1.657   1.409   1.573
  318SOL     OW 1852   0.584   0.399   5.451
  318SOL    HW1 1853   0.626   0.371   5.365
  318SOL    HW2 1854   0.484   0.390   5.445
  319SOL     OW 1855   1.238   2.040   2.744
  319SOL    HW1 1856   1.304   2.070   2.813
  319SOL    HW2 1857   1.243   2.102   2.665
  320SOL     OW 1858   5.923   2.260   6.587
  320SOL    HW1 1859   5.987   2.337   6.584
  320SOL    HW2 1860   5.868   2.260   6.503
  321SOL     OW 1861   4.621   3.163   0.993
  321SOL    HW1 1862   4.534   3.188   1.034
  321SOL    HW2 1863   4.693   3.163   1.063
  322SOL     OW 1864   3.671   3.343   5.879
  322SOL    HW1 1865   3.689   3.408   5.953
  322SOL    HW2 1866   3.617   3.266   5.915
  323SOL     OW 1867   0.373   2.942   3.186
  323SOL    HW1 1868   0.346   3.020   3.130
  323SOL    HW2 1869   0.468   2.955   3.216
  324SOL     OW 1870   0.452   6.935   4.031
  324SOL    HW1 1871   0.503   6.927   3.946
  324SOL    HW2 1872   0.505   6.895   4.106
  325SOL     OW 1873   0.508   3.886   2.622
  325SOL    HW1 1874   0.581   3.951   2.646
  325SOL    HW2 1875   0.503   3.815   2.692
  326SOL     OW 1876   0.578   6.477   6.429
  326SOL    HW1 1877   0.594   6.518   6.519
  326SOL    HW2 1878   0.497   6.518   6.387
  327SOL     OW 1879   4.064   5.190   3.505
  327SOL    HW1 1880   4.127   5.136   3.560
  327SOL    HW2 1881   3.992   5.132   3.469
  328SOL     OW 1882   2.156   3.893   2.667
  328SOL    HW1 1883   2.176   3.986   2.637
  328SOL    HW2 1884   2.208   3.873   2.750
  329SOL     OW 1885   3.491   4.076   2.443
  329SOL    HW1 1886   3.529   4.133   2.370
  329SOL    HW2 1887   3.552   3.999   2.460
  330SOL     OW 1888   3.441   4.984   0.748
  330SOL    HW1 1889   3.509   4.947   0.685
  330SOL    HW2 1890   3.350   4.957   0.719
  331SOL     OW 1891   5.196   5.460   6.503
  331SOL    HW1 1892   5.238   5.419   6.584
  331SOL    HW2 1893   5.155   5.388   6.447
  332SOL     OW 1894   5.345   2.526   3.017
  332SOL    HW1 1895   5.248   2.508   3.032
  332SOL    HW2 1896   5.377   2.474   2.939
  333SOL     OW 1897   3.402   1.248   5.984
  333SOL    HW1 1898   3.319   1.254   6.040
  333SOL    HW2 1899   3.377   1.254   5.887
  334SOL     OW 1900   3.580   3.427   3.057
  334SOL    HW1 1901   3.527   3.346   3.082
  334SOL    HW2 1902   3.593   3.484   3.138
  335SOL     OW 1903   3.330   0.308   5.805
  335SOL    HW1 1904   3.238   0.276   5.827
  335SOL    HW2 1905   3.340   0.313   5.706
  336SOL     OW 1906   2.782   1.734   3.091
  336SOL    HW1 1907   2.739   1.816   3.054
  336SOL    HW2 1908   2.868   1.716   3.043
  337SOL     OW 1909   2.277   6.930   5.959
  337SOL    HW1 1910   2.368   6.895   5.938
  337SOL    HW2 1911   2.224   6.938   5.874
  338SOL     OW 1912   4.898   1.990   1.540
  338SOL    HW1 1913   4.814   1.937   1.551
  338SOL    HW2 1914   4.875   2.088   1.538
  339SOL     OW 1915   4.111   5.189   4.968
  339SOL    HW1 1916   4.056   5.136   5.032
  339SOL    HW2 1917   4.064   5.195   4.880
  340SOL     OW 1918   4.722   2.024   3.741
  340SOL    HW1 1919   4.744   2.119   3.718
  340SOL    HW2 1920   4.733   2.010   3.839
  341SOL     OW 1921   5.551   0.143   3.952
  341SOL    HW1 1922   5.602   0.073   3.902
  341SOL    HW2 1923   5.512   0.208   3.887
  342SOL     OW 1924   4.843   2.277   1.445
  342SOL    HW1 1925   4.869   2.347   1.512
  342SOL    HW2 1926   4.748   2.293   1.416
  343SOL     OW 1927   0.685   5.914   2.921
  343SOL    HW1 1928   0.780   5.921   2.892
  343SOL    HW2 1929   0.680   5.855   3.002
  344SOL     OW 1930   2.073   1.432   1.906
  344SOL    HW1 1931   2.147   1.485   1.863
  344SOL    HW2 1932   2.112   1.349   1.947
  345SOL     OW 1933   6.047   3.311   4.324
  345SOL    HW1 1934   6.088   3.397   4.297
  345SOL    HW2 1935   5.951   3.325   4.347
  346SOL     OW 1936   1.578   6.808   3.107
  346SOL    HW1 1937   1.674   6.785   3.123
  346SOL    HW2 1938   1.568   6.845   3.015
  347SOL     OW 1939   2.779   5.318   0.646
  347SOL    HW1 1940   2.730   5.290   0.563
  347SOL    HW2 1941   2.718   5.371   0.705
  348SOL     OW 1942   4.965   5.713   2.246
  348SOL    HW1 1943   4.881   5.717   2.300
  348SOL    HW2 1944   5.020   5.795   2.265
  349SOL     OW 1945   6.286   4.379   1.213
  349SOL    HW1 1946   6.228   4.451   1.173
  349SOL    HW2 1947   6.252   4.290   1.184
  350SOL     OW 1948   2.995   3.225   0.173
  350SOL    HW1 1949   3.047   3.297   0.220
  350SOL    HW2 1950   2.900   3.227   0.205
  351SOL     OW 1951   2.934   4.546   1.180
  351SOL    HW1 1952   2.992   4.475   1.220
  351SOL    HW2 1953   2.894   4.601   1.253
  352SOL     OW 1954   3.689   6.809   3.004
  352SOL    HW1 1955   3.756   6.763   2.946
  352SOL    HW2 1956   3.717   6.904   3.018
  353SOL     OW 1957   2.101   6.224   6.787
  353SOL    HW1 1958   2.181   6.212   6.846
  353SOL    HW2 1959   2.041   6.293   6.827
  354SOL     OW 1960   6.760   2.417   0.502
  354SOL    HW1 1961   6.680   2.358   0.499
  354SOL    HW2 1962   6.843   2.362   0.493
  355SOL     OW 1963   1.989   2.141   2.598
  355SOL    HW1 1964   2.047   2.071   2.556
  355SOL    HW2 1965   1.902   2.145   2.550
  356SOL     OW 1966   0.935   6.906   6.282
  356SOL    HW1 1967   0.935   6.824   6.224
  356SOL    HW2 1968   1.028   6.925   6.314
  357SOL     OW 1969   5.700   6.393   4.496
  357SOL    HW1 1970   5.689   6.294   4.490
  357SOL    HW2 1971   5.794   6.416   4.522
  358SOL     OW 1972   4.950   5.856   0.352
  358SOL    HW1 1973   4.957   5.835   0.449
  358SOL    HW2 1974   4.861   5.898   0.334
  359SOL     OW 1975   3.068   2.115   2.121
  359SOL    HW1 1976   3.091   2.061   2.040
  359SOL    HW2 1977   3.015   2.195   2.093
  360SOL     OW 1978   1.502   4.583   4.264
  360SOL    HW1 1979   1.512   4.516   4.191
  360SOL    HW2 1980   1.423   4.642   4.245
  361SOL     OW 1981   6.535   6.409   3.345
  361SOL    HW1 1982   6.444   6.371   3.364
  361SOL    HW2 1983   6.556   6.396   3.248
  362SOL     OW 1984   3.708   4.437   1.221
  362SOL    HW1 1985   3.792   4.385   1.203
  362SOL    HW2 1986   3.657   4.449   1.136
  363SOL     OW 1987   5.693   5.625   2.513
  363SOL    HW1 1988   5.732   5.674   2.592
  363SOL    HW2 1989   5.618   5.567   2.543
  364SOL     OW 1990   0.585   5.524   6.570
  364SOL    HW1 1991   0.650   5.545   6.643
  364SOL    HW2 1992   0.634   5.522   6.482
  365SOL     OW 1993   3.777   1.949   2.686
  365SOL    HW1 1994   3.695   1.986   2.731
  365SOL    HW2 1995   3.838   2.024   2.661
  366SOL     OW 1996   5.793   2.409   0.525
  366SOL    HW1 1997   5.831   2.409   0.618
  366SOL    HW2 1998   5.859   2.369   0.462
  367SOL     OW 1999   4.546   1.814   5.598
  367SOL    HW1 2000   4.459   1.825   5.549
  367SOL    HW2 2001   4.530   1.829   5.696
  368SOL     OW 2002   6.574   2.319   5.972
  368SOL    HW1 2003   6.505   2.297   6.041
  368SOL    HW2 2004   6.565   2.415   5.945
  369SOL     OW 2005   5.502   3.342   2.313
  369SOL    HW1 2006   5.469   3.411   2.248
  369SOL    HW2 2007   5.432   3.272   2.324
  370SOL     OW 2008   1.859   3.069   4.152
  370SOL    HW1 2009   1.912   3.079   4.237
  370SOL    HW2 2010   1.763   3.091   4.171
  371SOL     OW 2011   1.592   4.105   6.581
  371SOL    HW1 2012   1.618   4.190   6.535
  371SOL    HW2 2013   1.526   4.125   6.653
  372SOL     OW 2014   2.897   6.613   5.908
  372SOL    HW1 2015   2.962   6.550   5.950
  372SOL    HW2 2016   2.945   6.695   5.877
  373SOL     OW 2017   6.349   6.253   4.468
  373SOL    HW1 2018   6.290   6.191   4.416
  373SOL    HW2 2019   6.383   6.206   4.549
  374SOL     OW 2020   2.574   1.558   2.663
  374SOL    HW1 2021   2.548   1.510   2.746
  374SOL    HW2 2022   2.492   1.580   2.610
  375SOL     OW 2023   0.973   4.654   5.104
  375SOL    HW1 2024   0.975   4.554   5.114
  375SOL    HW2 2025   1.060   4.685   5.064
  376SOL     OW 2026   2.532   0.764   4.025
  376SOL    HW1 2027   2.457   0.730   4.082
  376SOL    HW2 2028   2.618   0.723   4.055
  377SOL     OW 2029   1.466   2.453   6.441
  377SOL    HW1 2030   1.439   2.549   6.441
  377SOL    HW2 2031   1.408   2.403   6.505
  378SOL     OW 2032   2.989   1.746   1.484
  378SOL    HW1 2033   3.023   1.840   1.486
  378SOL    HW2 2034   2.995   1.706   1.575
  379SOL     OW 2035   5.937   2.392   6.153
  379SOL    HW1 2036   6.034   2.376   6.169
  379SOL    HW2 2037   5.891   2.406   6.241
  380SOL     OW 2038   3.795   1.500   1.330
  380SOL    HW1 2039   3.701   1.514   1.300
  380SOL    HW2 2040   3.833   1.419   1.285
  381SOL     OW 2041   1.506   4.533   3.240
  381SOL    HW1 2042   1.534   4.627   3.257
  381SOL    HW2 2043   1.508   4.514   3.142
  382SOL     OW 2044   5.910   0.574   0.422
  382SOL    HW1 2045   5.899   0.477   0.401
  382SOL    HW2 2046   5.968   0.585   0.503
  383SOL     OW 2047   3.898   2.646   1.334
  383SOL    HW1 2048   3.822   2.630   1.397
  383SOL    HW2 2049   3.965   2.705   1.379
  384SOL     OW 2050   6.430   4.229   4.680
  384SOL    HW1 2051   6.358   4.290   4.646
  384SOL    HW2 2052   6.510   4.282   4.707
  385SOL     OW 2053   4.740   4.875   6.675
  385SOL    HW1 2054   4.787   4.864   6.763
  385SOL    HW2 2055   4.713   4.785   6.641
  386SOL     OW 2056   3.842   0.190   4.012
  386SOL    HW1 2057   3.915   0.238   4.061
  386SOL    HW2 2058   3.769   0.255   3.989
  387SOL     OW 2059   2.089   5.457   3.646
  387SOL    HW1 2060   2.054   5.550   3.640
  387SOL    HW2 2061   2.062   5.406   3.565
  388SOL     OW 2062   2.382   2.439   6.588
  388SOL    HW1 2063   2.432   2.522   6.566
  388SOL    HW2 2064   2.298   2.463   6.637
  389SOL     OW 2065   2.955   3.429   3.528
  389SOL    HW1 2066   2.923   3.458   3.437
  389SOL    HW2 2067   2.906   3.347   3.556
  390SOL     OW 2068   2.192   1.946   4.249
  390SOL    HW1 2069   2.159   1.903   4.165
  390SOL    HW2 2070   2.287   1.974   4.236
  391SOL     OW 2071   0.941   2.629   6.616
  391SOL    HW1 2072   0.979   2.540   6.591
  391SOL    HW2 2073   0.845   2.633   6.589
  392SOL     OW 2074   2.529   5.288   1.857
  392SOL    HW1 2075   2.515   5.312   1.761
  392SOL    HW2 2076   2.551   5.371   1.909
  393SOL     OW 2077   6.065   4.607   5.167
  393SOL    HW1 2078   6.061   4.620   5.266
  393SOL    HW2 2079   5.988   4.550   5.138
  394SOL     OW 2080   0.207   6.747   0.191
  394SOL    HW1 2081   0.236   6.824   0.135
  394SOL    HW2 2082   0.134   6.697   0.143
  395SOL     OW 2083   5.271   3.980   2.263
  395SOL    HW1 2084   5.242   3.937   2.348
  395SOL    HW2 2085   5.270   3.912   2.189
  396SOL     OW 2086   3.304   3.943   3.660
  396SOL    HW1 2087   3.337   4.024   3.611
  396SOL    HW2 2088   3.356   3.863   3.630
  397SOL     OW 2089   4.467   2.147   5.577
  397SOL    HW1 2090   4.438   2.109   5.665
  397SOL    HW2 2091   4.449   2.080   5.505
  398SOL     OW 2092   1.188   5.394   2.387
  398SOL    HW1 2093   1.189   5.494   2.390
  398SOL    HW2 2094   1.161   5.364   2.296
  399SOL     OW 2095   4.792   5.564   1.304
  399SOL    HW1 2096   4.825   5.657   1.322
  399SOL    HW2 2097   4.805   5.507   1.385
  400SOL     OW 2098   0.204   6.561   5.485
  400SOL    HW1 2099   0.205   6.468   5.522
  400SOL    HW2 2100   0.268   6.568   5.409
  401SOL     OW 2101   4.631   1.371   6.227
  401SOL    HW1 2102   4.715   1.426   6.229
  401SOL    HW2 2103   4.552   1.431   6.216
  402SOL     OW 2104   6.460   5.939   2.690
  402SOL    HW1 2105   6.545   5.989   2.707
  402SOL    HW2 2106   6.403   5.941   2.772
  403SOL     OW 2107   4.917   2.266   5.959
  403SOL    HW1 2108   4.943   2.341   5.898
  403SOL    HW2 2109   4.829   2.228   5.930
  404SOL     OW 2110   1.136   6.716   4.028
  404SOL    HW1 2111   1.132   6.644   3.958
  404SOL    HW2 2112   1.094   6.799   3.993
  405SOL     OW 2113   1.800   2.596   0.514
  405SOL    HW1 2114   1.797   2.533   0.591
  405SOL    HW2 2115   1.869   2.667   0.531
  406SOL     OW 2116   1.205   2.309   4.283
  406SOL    HW1 2117   1.197   2.273   4.190
  406SOL    HW2 2118   1.291   2.277   4.324
  407SOL     OW 2119   2.909   0.304   4.684
  407SOL    HW1 2120   2.997   0.351   4.693
  407SOL    HW2 2121   2.924   0.205   4.688
  408SOL     OW 2122   1.635   0.053   3.645
  408SOL    HW1 2123   1.664   0.053   3.549
  408SOL    HW2 2124   1.706   0.096   3.701
  409SOL     OW 2125   6.270   2.881   2.971
  409SOL    HW1 2126   6.255   2.802   3.031
  409SOL    HW2 2127   6.358   2.871   2.925
  410SOL     OW 2128   1.941   0.241   6.796
  410SOL    HW1 2129   2.012   0.310   6.795
  410SOL    HW2 2130   1.875   0.261   6.868
  411SOL     OW 2131   5.711   4.950   6.127
  411SOL    HW1 2132   5.737   5.014   6.200
  411SOL    HW2 2133   5.764   4.866   6.137
  412SOL     OW 2134   3.668   6.440   2.916
  412SOL    HW1 2135   3.697   6.474   3.006
  412SOL    HW2 2136   3.570   6.419   2.919
  413SOL     OW 2137   3.203   5.443   0.502
  413SOL    HW1 2138   3.218   5.440   0.403
  413SOL    HW2 2139   3.229   5.355   0.542
  414SOL     OW 2140   4.800   5.046   1.386
  414SOL    HW1 2141   4.745   4.990   1.448
  414SOL    HW2 2142   4.743   5.076   1.310
  415SOL     OW 2143   1.648   6.008   1.084
  415SOL    HW1 2144   1.715   6.058   1.139
  415SOL    HW2 2145   1.674   6.014   0.987
  416SOL     OW 2146   3.844   5.978   4.945
  416SOL    HW1 2147   3.878   5.884   4.940
  416SOL    HW2 2148   3.757   5.985   4.896
  417SOL     OW 2149   3.002   6.265   2.066
  417SOL    HW1 2150   3.062   6.202   2.116
  417SOL    HW2 2151   2.965   6.333   2.129
  418SOL     OW 2152   4.840   6.196   0.582
  418SOL    HW1 2153   4.881   6.287   0.592
  418SOL    HW2 2154   4.897   6.129   0.630
  419SOL     OW 2155   0.025   0.718   1.061
  419SOL    HW1 2156   0.053   0.726   0.965
  419SOL    HW2 2157   6.950   0.751   1.071
  420SOL     OW 2158   5.404   3.989   0.732
  420SOL    HW1 2159   5.449   4.042   0.804
  420SOL    HW2 2160   5.309   3.971   0.758
  421SOL     OW 2161   1.665   5.108   6.215
  421SOL    HW1 2162   1.759   5.132   6.191
  421SOL    HW2 2163   1.665   5.053   6.298
  422SOL     OW 2164   6.138   5.012   0.179
  422SOL    HW1 2165   6.155   4.955   0.099
  422SOL    HW2 2166   6.061   4.975   0.231
  423SOL     OW 2167   5.917   2.887   6.976
  423SOL    HW1 2168   5.838   2.946   6.957
  423SOL    HW2 2169   5.993   2.942   7.008
  424SOL     OW 2170   2.654   4.051   6.903
  424SOL    HW1 2171   2.596   4.068   6.983
  424SOL    HW2 2172   2.736   4.002   6.932
  425SOL     OW 2173   5.168   1.562   1.256
  425SOL    HW1 2174   5.147   1.604   1.344
  425SOL    HW2 2175   5.158   1.629   1.183
  426SOL     OW 2176   5.181   2.630   5.808
  426SOL    HW1 2177   5.145   2.587   5.725
  426SOL    HW2 2178   5.244   2.703   5.784
  427SOL     OW 2179   5.665   4.323   1.987
  427SOL    HW1 2180   5.742   4.274   1.947
  427SOL    HW2 2181   5.620   4.265   2.055
  428SOL     OW 2182   3.549   0.569   5.472
  428SOL    HW1 2183   3.476   0.612   5.419
  428SOL    HW2 2184   3.605   0.639   5.515
  429SOL     OW 2185   1.699   5.222   0.737
  429SOL    HW1 2186   1.721   5.240   0.833
  429SOL    HW2 2187   1.741   5.292   0.679
  430SOL     OW 2188   1.276   6.726   4.263
  430SOL    HW1 2189   1.223   6.715   4.178
  430SOL    HW2 2190   1.250   6.812   4.307
  431SOL     OW 2191   3.469   1.161   6.863
  431SOL    HW1 2192   3.468   1.258   6.887
  431SOL    HW2 2193   3.433   1.150   6.770
  432SOL     OW 2194   0.054   1.906   0.076
  432SOL    HW1 2195   0.087   1.977   0.014
  432SOL    HW2 2196   0.031   1.947   0.165
  433SOL     OW 2197   3.007   6.993   4.422
  433SOL    HW1 2198   3.063   6.927   4.372
  433SOL    HW2 2199   3.044   0.067   4.409
  434SOL     OW 2200   5.696   4.321   1.028
  434SOL    HW1 2201   5.677   4.411   0.988
  434SOL    HW2 2202   5.738   4.333   1.118
  435SOL     OW 2203   3.255   3.408   5.747
  435SOL    HW1 2204   3.159   3.382   5.751
  435SOL    HW2 2205   3.311   3.338   5.792
  436SOL     OW 2206   1.487   0.123   1.026
  436SOL    HW1 2207   1.567   0.164   0.982
  436SOL    HW2 2208   1.480   0.157   1.120
  437SOL     OW 2209   6.658   0.074   6.436
  437SOL    HW1 2210   6.688   0.127   6.357
  437SOL    HW2 2211   6.623   7.005   6.406
  438SOL     OW 2212   1.729   2.919   2.240
  438SOL    HW1 2213   1.656   2.858   2.271
  438SOL    HW2 2214   1.811   2.865   2.221
  439SOL     OW 2215   6.298   4.720   2.602
  439SOL    HW1 2216   6.373   4.656   2.620
  439SOL    HW2 2217   6.327   4.812   2.629
  440SOL     OW 2218   0.664   2.156   4.543
  440SOL    HW1 2219   0.741   2.161   4.607
  440SOL    HW2 2220   0.606   2.237   4.553
  441SOL     OW 2221   1.595   1.630   3.447
  441SOL    HW1 2222   1.689   1.654   3.422
  441SOL    HW2 2223   1.543   1.714   3.465
  442SOL     OW 2224   0.510   4.243   6.888
  442SOL    HW1 2225   0.509   4.143   6.896
  442SOL    HW2 2226   0.491   4.269   6.793
  443SOL     OW 2227   1.209   4.498   4.836
  443SOL    HW1 2228   1.300   4.456   4.835
  443SOL    HW2 2229   1.190   4.540   4.748
  444SOL     OW 2230   4.321   2.667   5.789
  444SOL    HW1 2231   4.246   2.711   5.739
  444SOL    HW2 2232   4.293   2.652   5.884
  445SOL     OW 2233   2.031   5.839   3.049
  445SOL    HW1 2234   2.043   5.922   2.994
  445SOL    HW2 2235   2.120   5.808   3.082
  446SOL     OW 2236   3.673   4.964   3.921
  446SOL    HW1 2237   3.642   4.906   3.997
  446SOL    HW2 2238   3.767   4.939   3.898
  447SOL     OW 2239   0.104   3.959   6.728
  447SOL    HW1 2240   0.103   3.987   6.632
  447SOL    HW2 2241   0.184   3.902   6.745
  448SOL     OW 2242   3.820   1.185   4.810
  448SOL    HW1 2243   3.812   1.256   4.880
  448SOL    HW2 2244   3.729   1.162   4.776
  449SOL     OW 2245   5.367   1.040   5.039
  449SOL    HW1 2246   5.337   0.950   5.068
  449SOL    HW2 2247   5.326   1.111   5.096
  450SOL     OW 2248   6.980   5.843   3.563
  450SOL    HW1 2249   6.898   5.822   3.511
  450SOL    HW2 2250   0.032   5.877   3.501
  451SOL     OW 2251   0.558   2.290   2.223
  451SOL    HW1 2252   0.549   2.309   2.125
  451SOL    HW2 2253   0.486   2.336   2.273
  452SOL     OW 2254   6.895   5.520   0.027
  452SOL    HW1 2255   6.815   5.568   0.062
  452SOL    HW2 2256   6.965   5.586   0.001
  453SOL     OW 2257   3.005   0.962   6.533
  453SOL    HW1 2258   3.105   0.957   6.534
  453SOL    HW2 2259   2.973   0.953   6.439
  454SOL     OW 2260   6.976   6.166   5.912
  454SOL    HW1 2261   0.016   6.087   5.931
  454SOL    HW2 2262   6.915   6.182   5.990
  455SOL     OW 2263   6.032   0.129   4.552
  455SOL    HW1 2264   6.028   0.152   4.649
  455SOL    HW2 2265   6.104   0.061   4.536
  456SOL     OW 2266   4.002   5.603   5.751
  456SOL    HW1 2267   3.931   5.627   5.685
  456SOL    HW2 2268   4.033   5.509   5.734
  457SOL     OW 2269   2.072   4.313   3.493
  457SOL    HW1 2270   2.121   4.380   3.548
  457SOL    HW2 2271   1.974   4.319   3.512
  458SOL     OW 2272   5.559   5.520   5.215
  458SOL    HW1 2273   5.629   5.505   5.145
  458SOL    HW2 2274   5.604   5.547   5.300
  459SOL     OW 2275   1.097   0.267   3.080
  459SOL    HW1 2276   1.111   0.174   3.045
  459SOL    HW2 2277   1.165   0.286   3.151
  460SOL     OW 2278   0.227   1.400   2.146
  460SOL    HW1 2279   0.174   1.482   2.169
  460SOL    HW2 2280   0.316   1.427   2.111
  461SOL     OW 2281   4.515   6.931   5.010
  461SOL    HW1 2282   4.579   6.935   4.934
  461SOL    HW2 2283   4.561   6.959   5.094
  462SOL     OW 2284   4.446   2.352   5.882
  462SOL    HW1 2285   4.520   2.372   5.945
  462SOL    HW2 2286   4.408   2.437   5.846
  463SOL     OW 2287   6.266   5.507   2.868
  463SOL    HW1 2288   6.343   5.562   2.838
  463SOL    HW2 2289   6.289   5.410   2.861
  464SOL     OW 2290   2.700   1.632   6.305
  464SOL    HW1 2291   2.626   1.688   6.344
  464SOL    HW2 2292   2.686   1.622   6.207
  465SOL     OW 2293   0.898   1.639   4.601
  465SOL    HW1 2294   0.936   1.730   4.581
  465SOL    HW2 2295   0.972   1.576   4.620
  466SOL     OW 2296   7.003   6.309   3.528
  466SOL    HW1 2297   6.954   6.250   3.464
  466SOL    HW2 2298   6.986   6.278   3.621
  467SOL     OW 2299   1.167   6.980   6.418
  467SOL    HW1 2300   1.217   6.893   6.418
  467SOL    HW2 2301   1.218   0.029   6.366
  468SOL     OW 2302   3.489   5.809   0.543
  468SOL    HW1 2303   3.572   5.831   0.595
  468SOL    HW2 2304   3.449   5.724   0.579
  469SOL     OW 2305   2.684   4.960   0.077
  469SOL    HW1 2306   2.595   4.933   0.113
  469SOL    HW2 2307   2.685   4.947   6.996
  470SOL     OW 2308   3.643   0.728   2.106
  470SOL    HW1 2309   3.618   0.806   2.163
  470SOL    HW2 2310   3.566   0.705   2.046
  471SOL     OW 2311   1.228   2.566   4.356
  471SOL    HW1 2312   1.311   2.547   4.408
  471SOL    HW2 2313   1.190   2.480   4.321
  472SOL     OW 2314   4.632   3.756   6.541
  472SOL    HW1 2315   4.568   3.799   6.604
  472SOL    HW2 2316   4.618   3.794   6.449
  473SOL     OW 2317   0.497   2.742   1.440
  473SOL    HW1 2318   0.407   2.749   1.397
  473SOL    HW2 2319   0.568   2.755   1.371
  474SOL     OW 2320   4.248   5.030   3.608
  474SOL    HW1 2321   4.200   4.954   3.653
  474SOL    HW2 2322   4.345   5.008   3.602
  475SOL     OW 2323   6.916   0.287   6.944
  475SOL    HW1 2324   6.891   0.194   6.969
  475SOL    HW2 2325   6.853   0.351   6.987
  476SOL     OW 2326   0.052   4.239   2.369
  476SOL    HW1 2327   0.128   4.303   2.377
  476SOL    HW2 2328   0.079   4.149   2.402
  477SOL     OW 2329   2.406   4.781   4.797
  477SOL    HW1 2330   2.458   4.834   4.864
  477SOL    HW2 2331   2.407   4.685   4.823
  478SOL     OW 2332   2.949   6.479   2.273
  478SOL    HW1 2333   2.991   6.569   2.258
  478SOL    HW2 2334   2.853   6.482   2.244
  479SOL     OW 2335   3.813   1.873   0.454
  479SOL    HW1 2336   3.874   1.808   0.501
  479SOL    HW2 2337   3.743   1.822   0.404
  480SOL     OW 2338   1.483   6.878   0.757
  480SOL    HW1 2339   1.459   6.975   0.749
  480SOL    HW2 2340   1.412   6.830   0.808
  481SOL     OW 2341   2.421   0.515   0.894
  481SOL    HW1 2342   2.487   0.448   0.928
  481SOL    HW2 2343   2.330   0.495   0.933
  482SOL     OW 2344   4.744   4.835   2.390
  482SOL    HW1 2345   4.732   4.920   2.337
  482SOL    HW2 2346   4.694   4.842   2.476
  483SOL     OW 2347   5.667   2.012   1.540
  483SOL    HW1 2348   5.731   1.966   1.602
  483SOL    HW2 2349   5.575   1.976   1.556
  484SOL     OW 2350   1.100   2.486   5.164
  484SOL    HW1 2351   1.144   2.405   5.202
  484SOL    HW2 2352   1.168   2.558   5.150
  485SOL     OW 2353   4.117   5.403   2.144
  485SOL    HW1 2354   4.090   5.358   2.059
  485SOL    HW2 2355   4.179   5.343   2.196
  486SOL     OW 2356   0.918   1.744   1.034
  486SOL    HW1 2357   0.870   1.791   1.108
  486SOL    HW2 2358   0.987   1.804   0.994
  487SOL     OW 2359   1.023   1.640   0.043
  487SOL    HW1 2360   0.944   1.598   0.089
  487SOL    HW2 2361   1.027   1.608   6.967
  488SOL     OW 2362   1.301   0.541   1.427
  488SOL    HW1 2363   1.203   0.522   1.425
  488SOL    HW2 2364   1.328   0.587   1.343
  489SOL     OW 2365   3.665   5.763   0.040
  489SOL    HW1 2366   3.633   5.674   0.009
  489SOL    HW2 2367   3.609   5.835   7.016
  490SOL     OW 2368   6.533   5.722   4.195
  490SOL    HW1 2369   6.585   5.798   4.233
  490SOL    HW2 2370   6.443   5.754   4.164
  491SOL     OW 2371   6.969   2.531   3.566
  491SOL    HW1 2372   0.049   2.525   3.547
  491SOL    HW2 2373   6.944   2.464   3.636
  492SOL     OW 2374   3.118   0.375   5.047
  492SOL    HW1 2375   3.167   0.289   5.029
  492SOL    HW2 2376   3.020   0.360   5.041
  493SOL     OW 2377   5.445   5.109   6.395
  493SOL    HW1 2378   5.383   5.125   6.318
  493SOL    HW2 2379   5.399   5.134   6.481
  494SOL     OW 2380   0.757   6.363   0.022
  494SOL    HW1 2381   0.690   6.420   0.069
  494SOL    HW2 2382   0.751   6.378   6.942
  495SOL     OW 2383   5.248   5.672   2.791
  495SOL    HW1 2384   5.205   5.631   2.710
  495SOL    HW2 2385   5.346   5.650   2.791
  496SOL     OW 2386   5.463   2.742   2.621
  496SOL    HW1 2387   5.462   2.842   2.616
  496SOL    HW2 2388   5.369   2.708   2.620
  497SOL     OW 2389   3.588   1.592   5.304
  497SOL    HW1 2390   3.491   1.589   5.279
  497SOL    HW2 2391   3.599   1.648   5.386
  498SOL     OW 2392   1.411   3.965   1.885
  498SOL    HW1 2393   1.443   3.960   1.790
  498SOL    HW2 2394   1.386   3.873   1.917
  499SOL     OW 2395   3.043   0.714   3.888
  499SOL    HW1 2396   3.137   0.701   3.855
  499SOL    HW2 2397   2.979   0.693   3.815
  500SOL     OW 2398   0.948   4.187   3.627
  500SOL    HW1 2399   1.016   4.121   3.658
  500SOL    HW2 2400   0.877   4.139   3.574
  501SOL     OW 2401   3.321   0.930   0.831
  501SOL    HW1 2402   3.328   0.865   0.755
  501SOL    HW2 2403   3.403   0.926   0.887
  502SOL     OW 2404   5.841   4.147   6.186
  502SOL    HW1 2405   5.832   4.246   6.173
  502SOL    HW2 2406   5.754   4.102   6.163
  503SOL     OW 2407   5.813   4.503   5.747
  503SOL    HW1 2408   5.827   4.522   5.650
  503SOL    HW2 2409   5.718   4.473   5.762
  504SOL     OW 2410   2.766   6.497   3.808
  504SOL    HW1 2411   2.784   6.421   3.871
  504SOL    HW2 2412   2.697   6.557   3.847
  505SOL     OW 2413   3.588   0.345   5.643
  505SOL    HW1 2414   3.577   0.402   5.561
  505SOL    HW2 2415   3.590   0.404   5.724
  506SOL     OW 2416   2.015   5.395   4.582
  506SOL    HW1 2417   2.059   5.392   4.492
  506SOL    HW2 2418   1.959   5.313   4.594
  507SOL     OW 2419   2.930   0.483   4.306
  507SOL    HW1 2420   2.874   0.506   4.386
  507SOL    HW2 2421   3.020   0.524   4.316
  508SOL     OW 2422   6.249   3.543   2.402
  508SOL    HW1 2423   6.226   3.605   2.476
  508SOL    HW2 2424   6.230   3.449   2.429
  509SOL     OW 2425   3.501   1.375   1.677
  509SOL    HW1 2426   3.446   1.336   1.751
  509SOL    HW2 2427   3.442   1.428   1.617
  510SOL     OW 2428   0.071   4.342   5.917
  510SOL    HW1 2429   7.014   4.284   5.887
  510SOL    HW2 2430   0.037   4.435   5.932
  511SOL     OW 2431   6.905   6.669   6.764
  511SOL    HW1 2432   6.927   6.584   6.716
  511SOL    HW2 2433   6.976   6.688   6.832
  512SOL     OW 2434   6.992   3.378   0.242
  512SOL    HW1 2435   6.945   3.447   0.188
  512SOL    HW2 2436   0.028   3.423   0.313
  513SOL     OW 2437   5.642   6.477   3.091
  513SOL    HW1 2438   5.734   6.445   3.110
  513SOL    HW2 2439   5.575   6.416   3.133
  514SOL     OW 2440   6.610   2.173   4.227
  514SOL    HW1 2441   6.671   2.096   4.213
  514SOL    HW2 2442   6.652   2.239   4.290
  515SOL     OW 2443   2.087   6.479   6.149
  515SOL    HW1 2444   2.073   6.421   6.069
  515SOL    HW2 2445   2.108   6.422   6.228
  516SOL     OW 2446   2.777   4.502   1.593
  516SOL    HW1 2447   2.780   4.491   1.692
  516SOL    HW2 2448   2.755   4.414   1.551
  517SOL     OW 2449   5.003   6.272   2.557
  517SOL    HW1 2450   5.081   6.212   2.575
  517SOL    HW2 2451   5.035   6.365   2.542
  518SOL     OW 2452   3.063   1.946   1.795
  518SOL    HW1 2453   3.092   1.954   1.700
  518SOL    HW2 2454   2.989   2.011   1.813
  519SOL     OW 2455   6.780   0.459   4.945
  519SOL    HW1 2456   6.839   0.491   4.871
  519SOL    HW2 2457   6.726   0.381   4.913
  520SOL     OW 2458   5.493   4.858   6.446
  520SOL    HW1 2459   5.474   4.945   6.401
  520SOL    HW2 2460   5.560   4.873   6.519
  521SOL     OW 2461   6.496   2.066   6.743
  521SOL    HW1 2462   6.451   2.148   6.706
  521SOL    HW2 2463   6.441   1.985   6.720
  522SOL     OW 2464   4.014   2.981   5.409
  522SOL    HW1 2465   4.006   3.010   5.504
  522SOL    HW2 2466   3.991   2.884   5.402
  523SOL     OW 2467   6.892   5.361   3.734
  523SOL    HW1 2468   6.912   5.325   3.642
  523SOL    HW2 2469   6.905   5.460   3.735
  524SOL     OW 2470   2.514   1.098   6.724
  524SOL    HW1 2471   2.516   1.181   6.668
  524SOL    HW2 2472   2.421   1.082   6.757
  525SOL     OW 2473   2.617   3.444   6.420
  525SOL    HW1 2474   2.559   3.377   6.374
  525SOL    HW2 2475   2.607   3.533   6.376
  526SOL     OW 2476   2.640   6.469   5.009
  526SOL    HW1 2477   2.648   6.415   4.926
  526SOL    HW2 2478   2.579   6.423   5.074
  527SOL     OW 2479   6.082   2.759   6.088
  527SOL    HW1 2480   6.109   2.850   6.056
  527SOL    HW2 2481   6.140   2.731   6.164
  528SOL     OW 2482   1.665   1.280   4.119
  528SOL    HW1 2483   1.595   1.351   4.115
  528SOL    HW2 2484   1.680   1.252   4.214
  529SOL     OW 2485   0.711   5.101   4.663
  529SOL    HW1 2486   0.709   5.067   4.568
  529SOL    HW2 2487   0.785   5.167   4.672
  530SOL     OW 2488   2.712   2.897   5.370
  530SOL    HW1 2489   2.682   2.874   5.462
  530SOL    HW2 2490   2.636   2.937   5.318
  531SOL     OW 2491   0.348   1.161   1.556
  531SOL    HW1 2492   0.279   1.221   1.597
  531SOL    HW2 2493   0.304   1.100   1.490
  532SOL     OW 2494   1.072   2.637   5.973
  532SOL    HW1 2495   1.085   2.735   5.989
  532SOL    HW2 2496   1.097   2.587   6.056
  533SOL     OW 2497   4.704   5.912   4.378
  533SOL    HW1 2498   4.727   6.003   4.346
  533SOL    HW2 2499   4.628   5.876   4.324
  534SOL     OW 2500   5.124   5.190   3.414
  534SOL    HW1 2501   5.132   5.134   3.496
  534SOL    HW2 2502   5.028   5.216   3.400
  535SOL     OW 2503   0.763   4.389   4.289
  535SOL    HW1 2504   0.818   4.409   4.208
  535SOL    HW2 2505   0.818   4.336   4.354
  536SOL     OW 2506   0.094   5.118   1.678
  536SOL    HW1 2507   0.104   5.035   1.733
  536SOL    HW2 2508   0.183   5.161   1.666
  537SOL     OW 2509   2.335   6.446   3.659
  537SOL    HW1 2510   2.371   6.434   3.751
  537SOL    HW2 2511   2.402   6.494   3.602
  538SOL     OW 2512   1.378   5.448   3.600
  538SOL    HW1 2513   1.418   5.368   3.646
  538SOL    HW2 2514   1.407   5.448   3.504
  539SOL     OW 2515   0.132   5.717   0.677
  539SOL    HW1 2516   0.223   5.750   0.652
  539SOL    HW2 2517   0.140   5.628   0.723
  540SOL     OW 2518   0.239   2.227   2.218
  540SOL    HW1 2519   0.217   2.144   2.268
  540SOL    HW2 2520   0.288   2.291   2.279
  541SOL     OW 2521   3.252   6.678   4.509
  541SOL    HW1 2522   3.217   6.720   4.425
  541SOL    HW2 2523   3.303   6.596   4.485
  542SOL     OW 2524   6.704   6.976   0.014
  542SOL    HW1 2525   6.715   6.882   0.047
  542SOL    HW2 2526   6.613   6.988   6.995
  543SOL     OW 2527   0.695   5.170   5.821
  543SOL    HW1 2528   0.709   5.230   5.742
  543SOL    HW2 2529   0.623   5.103   5.799
  544SOL     OW 2530   1.027   4.341   1.115
  544SOL    HW1 2531   1.091   4.345   1.038
  544SOL    HW2 2532   0.954   4.408   1.101
  545SOL     OW 2533   3.343   1.783   3.540
  545SOL    HW1 2534   3.247   1.773   3.515
  545SOL    HW2 2535   3.400   1.741   3.470
  546SOL     OW 2536   1.618   3.398   1.909
  546SOL    HW1 2537   1.535   3.344   1.925
  546SOL    HW2 2538   1.670   3.404   1.994
  547SOL     OW 2539   2.519   1.619   6.978
  547SOL    HW1 2540   2.595   1.582   0.014
  547SOL    HW2 2541   2.463   1.544   6.944
  548SOL     OW 2542   3.579   2.845   2.765
  548SOL    HW1 2543   3.648   2.884   2.703
  548SOL    HW2 2544   3.488   2.864   2.729
  549SOL     OW 2545   4.302   3.570   1.583
  549SOL    HW1 2546   4.375   3.503   1.576
  549SOL    HW2 2547   4.219   3.534   1.539
  550SOL     OW 2548   6.927   3.291   2.675
  550SOL    HW1 2549   6.853   3.278   2.608
  550SOL    HW2 2550   6.949   3.204   2.718
  551SOL     OW 2551   6.952   2.056   0.698
  551SOL    HW1 2552   6.949   2.135   0.637
  551SOL    HW2 2553   6.859   2.025   0.718
  552SOL     OW 2554   3.753   5.535   0.453
  552SOL    HW1 2555   3.796   5.444   0.451
  552SOL    HW2 2556   3.808   5.597   0.509
  553SOL     OW 2557   1.834   0.106   2.678
  553SOL    HW1 2558   1.841   0.044   2.600
  553SOL    HW2 2559   1.738   0.121   2.700
  554SOL     OW 2560   4.929   6.749   6.593
  554SOL    HW1 2561   4.987   6.772   6.514
  554SOL    HW2 2562   4.889   6.659   6.580
  555SOL     OW 2563   1.989   4.992   4.070
  555SOL    HW1 2564   2.015   4.924   4.002
  555SOL    HW2 2565   2.007   4.956   4.162
  556SOL     OW 2566   5.919   2.254   4.505
  556SOL    HW1 2567   5.963   2.224   4.590
  556SOL    HW2 2568   5.984   2.307   4.450
  557SOL     OW 2569   6.966   6.036   6.683
  557SOL    HW1 2570   6.931   5.964   6.743
  557SOL    HW2 2571   0.047   6.032   6.681
  558SOL     OW 2572   4.142   3.671   5.053
  558SOL    HW1 2573   4.131   3.597   4.986
  558SOL    HW2 2574   4.230   3.717   5.039
  559SOL     OW 2575   7.001   6.363   6.897
  559SOL    HW1 2576   6.955   6.347   6.810
  559SOL    HW2 2577   0.072   6.317   6.896
  560SOL     OW 2578   3.883   6.323   0.460
  560SOL    HW1 2579   3.821   6.385   0.507
  560SOL    HW2 2580   3.848   6.305   0.368
  561SOL     OW 2581   5.890   6.948   0.091
  561SOL    HW1 2582   5.831   6.908   0.020
  561SOL    HW2 2583   5.985   6.945   0.061
  562SOL     OW 2584   4.914   1.125   6.237
  562SOL    HW1 2585   4.865   1.198   6.285
  562SOL    HW2 2586   4.957   1.163   6.155
  563SOL     OW 2587   2.748   6.587   3.557
  563SOL    HW1 2588   2.764   6.514   3.491
  563SOL    HW2 2589   2.752   6.550   3.650
  564SOL     OW 2590   2.155   2.473   6.027
  564SOL    HW1 2591   2.193   2.564   6.010
  564SOL    HW2 2592   2.112   2.471   6.117
  565SOL     OW 2593   4.471   3.063   5.662
  565SOL    HW1 2594   4.388   3.054   5.717
  565SOL    HW2 2595   4.524   3.141   5.694
  566SOL     OW 2596   4.482   4.639   3.385
  566SOL    HW1 2597   4.534   4.708   3.435
  566SOL    HW2 2598   4.387   4.639   3.417
  567SOL     OW 2599   3.303   3.303   4.003
  567SOL    HW1 2600   3.331   3.386   4.052
  567SOL    HW2 2601   3.363   3.290   3.924
  568SOL     OW 2602   3.695   2.391   0.451
  568SOL    HW1 2603   3.788   2.388   0.414
  568SOL    HW2 2604   3.666   2.298   0.475
  569SOL     OW 2605   1.402   3.034   0.307
  569SOL    HW1 2606   1.390   2.997   0.399
  569SOL    HW2 2607   1.412   2.958   0.243
  570SOL     OW 2608   1.226   6.706   0.652
  570SOL    HW1 2609   1.298   6.641   0.676
  570SOL    HW2 2610   1.195   6.754   0.734
  571SOL     OW 2611   3.330   5.701   2.505
  571SOL    HW1 2612   3.289   5.628   2.559
  571SOL    HW2 2613   3.262   5.772   2.487
  572SOL     OW 2614   2.128   4.376   5.673
  572SOL    HW1 2615   2.188   4.313   5.724
  572SOL    HW2 2616   2.086   4.440   5.737
  573SOL     OW 2617   3.864   1.307   6.034
  573SOL    HW1 2618   3.948   1.338   6.080
  573SOL    HW2 2619   3.785   1.330   6.091
  574SOL     OW 2620   2.097   2.201   4.386
  574SOL    HW1 2621   2.104   2.169   4.481
  574SOL    HW2 2622   2.136   2.131   4.325
  575SOL     OW 2623   6.308   3.500   0.570
  575SOL    HW1 2624   6.357   3.576   0.529
  575SOL    HW2 2625   6.364   3.417   0.563
  576SOL     OW 2626   1.379   2.319   1.777
  576SOL    HW1 2627   1.328   2.336   1.693
  576SOL    HW2 2628   1.411   2.406   1.816
  577SOL     OW 2629   2.351   1.932   3.841
  577SOL    HW1 2630   2.274   1.936   3.905
  577SOL    HW2 2631   2.338   1.855   3.779
  578SOL     OW 2632   0.608   3.183   3.500
  578SOL    HW1 2633   0.563   3.228   3.423
  578SOL    HW2 2634   0.592   3.084   3.495
  579SOL     OW 2635   4.351   2.283   1.292
  579SOL    HW1 2636   4.296   2.229   1.355
  579SOL    HW2 2637   4.338   2.381   1.311
  580SOL     OW 2638   1.247   4.652   6.159
  580SOL    HW1 2639   1.193   4.730   6.189
  580SOL    HW2 2640   1.343   4.668   6.181
  581SOL     OW 2641   3.765   2.867   3.252
  581SOL    HW1 2642   3.834   2.796   3.267
  581SOL    HW2 2643   3.755   2.883   3.154
  582SOL     OW 2644   5.772   4.063   2.373
  582SOL    HW1 2645   5.687   4.102   2.339
  582SOL    HW2 2646   5.850   4.109   2.328
  583SOL     OW 2647   2.813   4.352   6.936
  583SOL    HW1 2648   2.833   4.333   6.840
  583SOL    HW2 2649   2.891   4.399   6.977
  584SOL     OW 2650   0.170   4.509   5.275
  584SOL    HW1 2651   0.236   4.565   5.324
  584SOL    HW2 2652   0.217   4.458   5.203
  585SOL     OW 2653   0.473   2.337   5.762
  585SOL    HW1 2654   0.572   2.331   5.746
  585SOL    HW2 2655   0.454   2.414   5.823
  586SOL     OW 2656   2.730   0.061   0.476
  586SOL    HW1 2657   2.787   0.095   0.401
  586SOL    HW2 2658   2.763   0.098   0.562
  587SOL     OW 2659   1.470   2.361   5.376
  587SOL    HW1 2660   1.502   2.301   5.303
  587SOL    HW2 2661   1.407   2.311   5.435
  588SOL     OW 2662   3.856   7.006   1.801
  588SOL    HW1 2663   3.762   7.004   1.767
  588SOL    HW2 2664   3.862   0.049   1.879
  589SOL     OW 2665   3.693   5.092   1.820
  589SOL    HW1 2666   3.778   5.137   1.850
  589SOL    HW2 2667   3.617   5.123   1.877
  590SOL     OW 2668   0.230   2.784   2.180
  590SOL    HW1 2669   0.189   2.821   2.264
  590SOL    HW2 2670   0.272   2.859   2.128
  591SOL     OW 2671   4.175   0.253   3.966
  591SOL    HW1 2672   4.112   0.261   4.043
  591SOL    HW2 2673   4.260   0.209   3.997
  592SOL     OW 2674   4.925   0.760   0.589
  592SOL    HW1 2675   4.970   0.758   0.678
  592SOL    HW2 2676   4.968   0.694   0.528
  593SOL     OW 2677   4.380   2.445   4.295
  593SOL    HW1 2678   4.301   2.430   4.236
  593SOL    HW2 2679   4.445   2.505   4.249
  594SOL     OW 2680   3.993   3.675   0.023
  594SOL    HW1 2681   4.003   3.738   6.965
  594SOL    HW2 2682   3.930   3.714   0.091
  595SOL     OW 2683   4.091   6.937   4.366
  595SOL    HW1 2684   4.040   7.011   4.409
  595SOL    HW2 2685   4.039   6.852   4.375
  596SOL     OW 2686   0.964   4.291   2.538
  596SOL    HW1 2687   0.948   4.192   2.542
  596SOL    HW2 2688   0.963   4.329   2.630
  597SOL     OW 2689   3.660   0.254   0.053
  597SOL    HW1 2690   3.747   0.294   0.026
  597SOL    HW2 2691   3.677   0.173   0.109
  598SOL     OW 2692   4.201   4.668   0.442
  598SOL    HW1 2693   4.141   4.738   0.480
  598SOL    HW2 2694   4.146   4.591   0.410
  599SOL     OW 2695   6.999   0.265   2.954
  599SOL    HW1 2696   6.965   0.359   2.948
  599SOL    HW2 2697   6.930   0.207   2.997
  600SOL     OW 2698   1.002   6.692   0.931
  600SOL    HW1 2699   0.991   6.620   1.000
  600SOL    HW2 2700   0.950   6.668   0.849
  601SOL     OW 2701   2.801   5.866   2.937
  601SOL    HW1 2702   2.868   5.845   2.865
  601SOL    HW2 2703   2.798   5.790   3.002
  602SOL     OW 2704   1.240   7.013   1.057
  602SOL    HW1 2705   1.257   6.921   1.022
  602SOL    HW2 2706   1.317   0.053   1.033
  603SOL     OW 2707   3.995   1.777   3.723
  603SOL    HW1 2708   4.056   1.704   3.753
  603SOL    HW2 2709   3.965   1.758   3.629
  604SOL     OW 2710   1.264   3.496   6.935
  604SOL    HW1 2711   1.288   3.471   6.841
  604SOL    HW2 2712   1.173   3.537   6.937
  605SOL     OW 2713   6.783   5.756   3.417
  605SOL    HW1 2714   6.713   5.685   3.419
  605SOL    HW2 2715   6.796   5.788   3.324
  606SOL     OW 2716   3.991   0.479   4.859
  606SOL    HW1 2717   4.006   0.382   4.839
  606SOL    HW2 2718   4.048   0.534   4.799
  607SOL     OW 2719   5.184   1.445   4.194
  607SOL    HW1 2720   5.177   1.513   4.267
  607SOL    HW2 2721   5.144   1.483   4.110
  608SOL     OW 2722   3.109   0.442   0.247
  608SOL    HW1 2723   3.149   0.446   0.156
  608SOL    HW2 2724   3.047   0.519   0.260
  609SOL     OW 2725   3.559   2.834   3.907
  609SOL    HW1 2726   3.592   2.740   3.898
  609SOL    HW2 2727   3.583   2.870   3.997
  610SOL     OW 2728   5.031   2.463   3.861
  610SOL    HW1 2729   5.104   2.520   3.824
  610SOL    HW2 2730   5.053   2.366   3.845
  611SOL     OW 2731   0.428   0.475   0.280
  611SOL    HW1 2732   0.446   0.564   0.323
  611SOL    HW2 2733   0.402   0.490   0.184
  612SOL     OW 2734   3.655   5.359   6.092
  612SOL    HW1 2735   3.664   5.452   6.128
  612SOL    HW2 2736   3.627   5.363   5.996
  613SOL     OW 2737   4.014   1.598   5.940
  613SOL    HW1 2738   4.003   1.499   5.931
  613SOL    HW2 2739   3.934   1.636   5.987
  614SOL     OW 2740   6.343   4.824   0.673
  614SOL    HW1 2741   6.251   4.806   0.639
  614SOL    HW2 2742   6.363   4.921   0.665
  615SOL     OW 2743   0.516   6.893   0.351
  615SOL    HW1 2744   0.423   6.928   0.360
  615SOL    HW2 2745   0.580   6.970   0.348
  616SOL     OW 2746   5.712   1.763   4.730
  616SOL    HW1 2747   5.619   1.757   4.696
  616SOL    HW2 2748   5.711   1.780   4.829
  617SOL     OW 2749   0.686   4.695   5.826
  617SOL    HW1 2750   0.587   4.684   5.834
  617SOL    HW2 2751   0.719   4.757   5.897
  618SOL     OW 2752   5.877   3.502   1.167
  618SOL    HW1 2753   5.866   3.427   1.103
  618SOL    HW2 2754   5.974   3.516   1.186
  619SOL     OW 2755   3.342   0.437   0.374
  619SOL    HW1 2756   3.256   0.419   0.326
  619SOL    HW2 2757   3.322   0.479   0.463
  620SOL     OW 2758   5.554   3.472   1.908
  620SOL    HW1 2759   5.585   3.380   1.885
  620SOL    HW2 2760   5.535   3.523   1.824
  621SOL     OW 2761   2.454   0.178   6.188
  621SOL    HW1 2762   2.373   0.127   6.215
  621SOL    HW2 2763   2.488   0.231   6.266
  622SOL     OW 2764   1.147   1.930   5.326
  622SOL    HW1 2765   1.096   1.914   5.410
  622SOL    HW2 2766   1.244   1.909   5.341
  623SOL     OW 2767   6.355   6.737   4.253
  623SOL    HW1 2768   6.397   6.653   4.288
  623SOL    HW2 2769   6.348   6.804   4.327
  624SOL     OW 2770   6.448   1.346   6.676
  624SOL    HW1 2771   6.356   1.377   6.651
  624SOL    HW2 2772   6.443   1.291   6.759
  625SOL     OW 2773   2.680   1.239   0.180
  625SOL    HW1 2774   2.779   1.227   0.174
  625SOL    HW2 2775   2.637   1.207   0.096
  626SOL     OW 2776   1.303   5.702   3.823
  626SOL    HW1 2777   1.393   5.714   3.782
  626SOL    HW2 2778   1.255   5.790   3.822
  627SOL     OW 2779   6.445   0.051   6.931
  627SOL    HW1 2780   6.490   0.048   6.842
  627SOL    HW2 2781   6.430   0.146   6.958
  628SOL     OW 2782   5.246   4.600   5.590
  628SOL    HW1 2783   5.346   4.603   5.581
  628SOL    HW2 2784   5.214   4.681   5.640
  629SOL     OW 2785   0.096   0.448   0.150
  629SOL    HW1 2786   0.130   0.392   0.075
  629SOL    HW2 2787   0.121   0.405   0.237
  630SOL     OW 2788   0.040   1.410   1.160
  630SOL    HW1 2789   0.066   1.488   1.218
  630SOL    HW2 2790   0.103   1.335   1.175
  631SOL     OW 2791   2.272   2.853   4.845
  631SOL    HW1 2792   2.338   2.883   4.776
  631SOL    HW2 2793   2.295   2.895   4.933
  632SOL     OW 2794   4.648   3.298   0.514
  632SOL    HW1 2795   4.586   3.255   0.580
  632SOL    HW2 2796   4.670   3.233   0.442
  633SOL     OW 2797   1.541   5.401   1.116
  633SOL    HW1 2798   1.498   5.335   1.178
  633SOL    HW2 2799   1.507   5.385   1.023
  634SOL     OW 2800   3.008   3.339   3.952
  634SOL    HW1 2801   2.988   3.426   3.907
  634SOL    HW2 2802   3.104   3.315   3.939
  635SOL     OW 2803   5.327   1.049   6.517
  635SOL    HW1 2804   5.334   1.020   6.612
  635SOL    HW2 2805   5.388   1.128   6.502
  636SOL     OW 2806   2.988   0.265   6.482
  636SOL    HW1 2807   3.032   0.305   6.562
  636SOL    HW2 2808   3.009   0.319   6.401
  637SOL     OW 2809   6.555   1.169   1.662
  637SOL    HW1 2810   6.574   1.100   1.731
  637SOL    HW2 2811   6.622   1.160   1.587
  638SOL     OW 2812   6.212   3.404   3.753
  638SOL    HW1 2813   6.266   3.485   3.728
  638SOL    HW2 2814   6.119   3.432   3.776
  639SOL     OW 2815   5.365   4.885   3.333
  639SOL    HW1 2816   5.396   4.930   3.417
  639SOL    HW2 2817   5.279   4.927   3.303
  640SOL     OW 2818   0.316   2.882   2.532
  640SOL    HW1 2819   0.372   2.874   2.450
  640SOL    HW2 2820   0.293   2.978   2.547
  641SOL     OW 2821   1.834   4.683   5.198
  641SOL    HW1 2822   1.810   4.684   5.101
  641SOL    HW2 2823   1.841   4.589   5.230
  642SOL     OW 2824   1.038   3.630   4.531
  642SOL    HW1 2825   0.954   3.664   4.489
  642SOL    HW2 2826   1.015   3.562   4.601
  643SOL     OW 2827   4.740   5.836   6.618
  643SOL    HW1 2828   4.688   5.805   6.697
  643SOL    HW2 2829   4.700   5.799   6.535
  644SOL     OW 2830   0.145   6.818   4.808
  644SOL    HW1 2831   0.234   6.811   4.852
  644SOL    HW2 2832   0.073   6.805   4.876
  645SOL     OW 2833   3.432   4.965   2.984
  645SOL    HW1 2834   3.522   4.930   2.957
  645SOL    HW2 2835   3.380   4.988   2.902
  646SOL     OW 2836   3.864   1.199   5.277
  646SOL    HW1 2837   3.856   1.279   5.337
  646SOL    HW2 2838   3.930   1.219   5.204
  647SOL     OW 2839   4.979   1.977   4.481
  647SOL    HW1 2840   5.058   1.981   4.541
  647SOL    HW2 2841   4.896   2.000   4.533
  648SOL     OW 2842   6.248   1.688   2.555
  648SOL    HW1 2843   6.150   1.688   2.535
  648SOL    HW2 2844   6.274   1.775   2.598
  649SOL     OW 2845   2.323   5.152   0.426
  649SOL    HW1 2846   2.254   5.218   0.395
  649SOL    HW2 2847   2.355   5.178   0.517
  650SOL     OW 2848   6.743   5.702   0.879
  650SOL    HW1 2849   6.656   5.659   0.852
  650SOL    HW2 2850   6.807   5.631   0.908
  651SOL     OW 2851   1.371   0.258   5.718
  651SOL    HW1 2852   1.399   0.340   5.668
  651SOL    HW2 2853   1.301   0.282   5.785
  652SOL     OW 2854   4.356   0.776   2.270
  652SOL    HW1 2855   4.262   0.793   2.298
  652SOL    HW2 2856   4.417   0.834   2.324
  653SOL     OW 2857   0.055   6.924   1.118
  653SOL    HW1 2858   0.015   6.851   1.063
  653SOL    HW2 2859   0.042   6.904   1.215
  654SOL     OW 2860   6.591   6.667   5.930
  654SOL    HW1 2861   6.524   6.599   5.900
  654SOL    HW2 2862   6.669   6.621   5.971
  655SOL     OW 2863   0.129   4.874   1.805
  655SOL    HW1 2864   0.042   4.826   1.790
  655SOL    HW2 2865   0.204   4.808   1.804
  656SOL     OW 2866   3.425   6.391   0.730
  656SOL    HW1 2867   3.387   6.350   0.647
  656SOL    HW2 2868   3.354   6.393   0.802
  657SOL     OW 2869   3.269   2.843   1.866
  657SOL    HW1 2870   3.193   2.781   1.845
  657SOL    HW2 2871   3.350   2.814   1.816
  658SOL     OW 2872   2.170   4.309   4.262
  658SOL    HW1 2873   2.163   4.378   4.190
  658SOL    HW2 2874   2.080   4.296   4.304
  659SOL     OW 2875   3.357   6.352   6.132
  659SOL    HW1 2876   3.314   6.297   6.203
  659SOL    HW2 2877   3.457   6.344   6.139
  660SOL     OW 2878   5.023   4.760   2.717
  660SOL    HW1 2879   5.017   4.768   2.816
  660SOL    HW2 2880   5.033   4.664   2.692
  661SOL     OW 2881   5.021   4.577   4.221
  661SOL    HW1 2882   5.035   4.559   4.124
  661SOL    HW2 2883   5.017   4.675   4.237
  662SOL     OW 2884   5.069   2.951   0.179
  662SOL    HW1 2885   5.104   3.002   0.100
  662SOL    HW2 2886   5.058   3.014   0.256
  663SOL     OW 2887   6.993   4.319   0.102
  663SOL    HW1 2888   0.029   4.278   0.028
  663SOL    HW2 2889   6.897   4.322   0.074
  664SOL     OW 2890   1.523   6.168   6.072
  664SOL    HW1 2891   1.446   6.228   6.049
  664SOL    HW2 2892   1.541   6.175   6.171
  665SOL     OW 2893   4.063   5.251   1.282
  665SOL    HW1 2894   4.081   5.326   1.219
  665SOL    HW2 2895   4.025   5.173   1.232
  666SOL     OW 2896   3.745   1.506   0.046
  666SOL    HW1 2897   3.765   1.463   6.976
  666SOL    HW2 2898   3.727   1.435   0.114
  667SOL     OW 2899   0.569   2.946   3.682
  667SOL    HW1 2900   0.552   2.883   3.758
  667SOL    HW2 2901   0.517   3.030   3.696
  668SOL     OW 2902   5.000   6.856   0.277
  668SOL    HW1 2903   5.044   6.810   0.354
  668SOL    HW2 2904   5.060   6.855   0.198
  669SOL     OW 2905   0.862   6.658   3.676
  669SOL    HW1 2906   0.813   6.711   3.745
  669SOL    HW2 2907   0.901   6.719   3.608
  670SOL     OW 2908   3.213   3.529   3.115
  670SOL    HW1 2909   3.258   3.615   3.140
  670SOL    HW2 2910   3.169   3.539   3.026
  671SOL     OW 2911   1.591   6.622   6.297
  671SOL    HW1 2912   1.587   6.560   6.219
  671SOL    HW2 2913   1.680   6.669   6.297
  672SOL     OW 2914   1.344   3.244   4.551
  672SOL    HW1 2915   1.404   3.291   4.486
  672SOL    HW2 2916   1.279   3.188   4.502
  673SOL     OW 2917   5.073   0.559   6.900
  673SOL    HW1 2918   5.103   0.615   6.822
  673SOL    HW2 2919   5.054   0.619   6.978
  674SOL     OW 2920   0.692   2.578   3.575
  674SOL    HW1 2921   0.744   2.564   3.659
  674SOL    HW2 2922   0.628   2.502   3.562
  675SOL     OW 2923   0.308   2.551   4.944
  675SOL    HW1 2924   0.405   2.558   4.919
  675SOL    HW2 2925   0.294   2.595   5.032
  676SOL     OW 2926   2.327   4.737   4.472
  676SOL    HW1 2927   2.286   4.773   4.555
  676SOL    HW2 2928   2.368   4.648   4.491
  677SOL     OW 2929   6.305   0.653   0.681
  677SOL    HW1 2930   6.300   0.605   0.594
  677SOL    HW2 2931   6.213   0.664   0.719
  678SOL     OW 2932   2.304   0.686   5.700
  678SOL    HW1 2933   2.380   0.711   5.759
  678SOL    HW2 2934   2.240   0.627   5.751
  679SOL     OW 2935   3.738   0.806   2.938
  679SOL    HW1 2936   3.736   0.751   3.021
  679SOL    HW2 2937   3.649   0.802   2.893
  680SOL     OW 2938   4.968   3.816   5.828
  680SOL    HW1 2939   5.063   3.829   5.856
  680SOL    HW2 2940   4.948   3.718   5.825
  681SOL     OW 2941   0.136   6.640   1.244
  681SOL    HW1 2942   0.134   6.547   1.209
  681SOL    HW2 2943   0.182   6.699   1.177
  682SOL     OW 2944   1.811   6.090   0.134
  682SOL    HW1 2945   1.828   5.991   0.136
  682SOL    HW2 2946   1.835   6.126   0.044
  683SOL     OW 2947   3.758   1.465   6.427
  683SOL    HW1 2948   3.778   1.556   6.461
  683SOL    HW2 2949   3.704   1.415   6.495
  684SOL     OW 2950   0.332   6.630   6.042
  684SOL    HW1 2951   0.429   6.607   6.053
  684SOL    HW2 2952   0.298   6.588   5.958
  685SOL     OW 2953   4.985   0.205   6.657
  685SOL    HW1 2954   5.013   0.263   6.580
  685SOL    HW2 2955   4.886   0.211   6.669
  686SOL     OW 2956   5.262   2.932   3.368
  686SOL    HW1 2957   5.267   2.885   3.456
  686SOL    HW2 2958   5.237   2.867   3.297
  687SOL     OW 2959   6.430   2.961   6.205
  687SOL    HW1 2960   6.490   3.003   6.137
  687SOL    HW2 2961   6.427   3.019   6.287
  688SOL     OW 2962   1.464   4.014   6.952
  688SOL    HW1 2963   1.455   4.059   6.863
  688SOL    HW2 2964   1.410   3.930   6.952
  689SOL     OW 2965   6.965   3.893   6.430
  689SOL    HW1 2966   7.006   3.820   6.485
  689SOL    HW2 2967   6.927   3.854   6.346
  690SOL     OW 2968   1.603   1.985   3.633
  690SOL    HW1 2969   1.638   2.068   3.676
  690SOL    HW2 2970   1.616   1.908   3.695
  691SOL     OW 2971   1.119   2.545   6.231
  691SOL    HW1 2972   1.143   2.596   6.313
  691SOL    HW2 2973   1.193   2.482   6.209
  692SOL     OW 2974   2.388   6.793   2.900
  692SOL    HW1 2975   2.291   6.790   2.925
  692SOL    HW2 2976   2.433   6.710   2.932
  693SOL     OW 2977   6.683   2.622   2.075
  693SOL    HW1 2978   6.677   2.687   1.999
  693SOL    HW2 2979   6.720   2.668   2.156
  694SOL     OW 2980   2.903   5.812   1.251
  694SOL    HW1 2981   2.997   5.827   1.281
  694SOL    HW2 2982   2.855   5.755   1.318
  695SOL     OW 2983   5.033   5.601   5.204
  695SOL    HW1 2984   5.024   5.637   5.297
  695SOL    HW2 2985   5.125   5.563   5.192
  696SOL     OW 2986   3.803   5.096   2.696
  696SOL    HW1 2987   3.888   5.119   2.744
  696SOL    HW2 2988   3.796   5.151   2.612
  697SOL     OW 2989   0.767   3.064   4.689
  697SOL    HW1 2990   0.782   3.001   4.765
  697SOL    HW2 2991   0.723   3.147   4.724
  698SOL     OW 2992   4.399   0.536   3.573
  698SOL    HW1 2993   4.450   0.597   3.512
  698SOL    HW2 2994   4.301   0.540   3.549
  699SOL     OW 2995   1.541   4.325   1.107
  699SOL    HW1 2996   1.604   4.312   1.030
  699SOL    HW2 2997   1.481   4.403   1.088
  700SOL     OW 2998   2.358   2.653   4.531
  700SOL    HW1 2999   2.338   2.751   4.529
  700SOL    HW2 3000   2.312   2.608   4.454
  701SOL     OW 3001   0.602   4.693   6.699
  701SOL    HW1 3002   0.505   4.682   6.722
  701SOL    HW2 3003   0.657   4.675   6.780
  702SOL     OW 3004   4.895   6.768   5.137
  702SOL    HW1 3005   4.991   6.790   5.120
  702SOL    HW2 3006   4.877   6.675   5.104
  703SOL     OW 3007   4.084   3.584   6.255
  703SOL    HW1 3008   3.991   3.575   6.291
  703SOL    HW2 3009   4.087   3.545   6.163
  704SOL     OW 3010   1.664   0.435   6.608
  704SOL    HW1 3011   1.741   0.459   6.549
  704SOL    HW2 3012   1.639   0.515   6.664
  705SOL     OW 3013   5.220   1.184   3.572
  705SOL    HW1 3014   5.307   1.230   3.589
  705SOL    HW2 3015   5.199   1.186   3.474
  706SOL     OW 3016   3.585   2.016   3.841
  706SOL    HW1 3017   3.613   1.955   3.768
  706SOL    HW2 3018   3.663   2.071   3.871
  707SOL     OW 3019   5.007   0.708   1.255
  707SOL    HW1 3020   5.011   0.778   1.183
  707SOL    HW2 3021   5.077   0.639   1.239
  708SOL     OW 3022   4.393   0.477   0.896
  708SOL    HW1 3023   4.341   0.518   0.821
  708SOL    HW2 3024   4.379   0.531   0.979
  709SOL     OW 3025   0.878   4.782   0.828
  709SOL    HW1 3026   0.881   4.875   0.864
  709SOL    HW2 3027   0.969   4.756   0.796
  710SOL     OW 3028   3.365   4.125   2.863
  710SOL    HW1 3029   3.343   4.210   2.815
  710SOL    HW2 3030   3.408   4.062   2.799
  711SOL     OW 3031   6.578   1.763   5.074
  711SOL    HW1 3032   6.631   1.739   4.993
  711SOL    HW2 3033   6.639   1.793   5.147
  712SOL     OW 3034   1.238   3.832   1.436
  712SOL    HW1 3035   1.212   3.818   1.340
  712SOL    HW2 3036   1.208   3.754   1.490
  713SOL     OW 3037   3.473   3.417   2.390
  713SOL    HW1 3038   3.499   3.445   2.297
  713SOL    HW2 3039   3.394   3.470   2.420
  714SOL     OW 3040   5.703   4.638   5.095
  714SOL    HW1 3041   5.652   4.682   5.168
  714SOL    HW2 3042   5.756   4.562   5.132
  715SOL     OW 3043   4.113   5.733   6.199
  715SOL    HW1 3044   4.090   5.827   6.175
  715SOL    HW2 3045   4.213   5.723   6.202
  716SOL     OW 3046   0.447   5.459   1.566
  716SOL    HW1 3047   0.539   5.420   1.575
  716SOL    HW2 3048   0.448   5.528   1.494
  717SOL     OW 3049   6.156   4.325   6.942
  717SOL    HW1 3050   6.221   4.249   6.945
  717SOL    HW2 3051   6.087   4.314   7.012
  718SOL     OW 3052   3.662   3.076   5.698
  718SOL    HW1 3053   3.601   3.109   5.627
  718SOL    HW2 3054   3.630   3.106   5.788
  719SOL     OW 3055   6.791   2.925   1.172
  719SOL    HW1 3056   6.758   3.003   1.119
  719SOL    HW2 3057   6.713   2.869   1.201
  720SOL     OW 3058   2.421   2.155   5.753
  720SOL    HW1 3059   2.491   2.198   5.810
  720SOL    HW2 3060   2.439   2.177   5.657
  721SOL     OW 3061   1.887   0.202   5.369
  721SOL    HW1 3062   1.958   0.207   5.299
  721SOL    HW2 3063   1.797   0.199   5.325
  722SOL     OW 3064   4.374   6.711   5.114
  722SOL    HW1 3065   4.429   6.793   5.098
  722SOL    HW2 3066   4.316   6.693   5.034
  723SOL     OW 3067   1.852   2.604   2.452
  723SOL    HW1 3068   1.833   2.627   2.547
  723SOL    HW2 3069   1.920   2.530   2.448
  724SOL     OW 3070   0.813   1.533   5.167
  724SOL    HW1 3071   0.732   1.592   5.174
  724SOL    HW2 3072   0.796   1.461   5.100
  725SOL     OW 3073   2.748   5.072   2.357
  725SOL    HW1 3074   2.801   5.113   2.283
  725SOL    HW2 3075   2.699   4.991   2.323
  726SOL     OW 3076   3.125   5.738   6.765
  726SOL    HW1 3077   3.034   5.776   6.751
  726SOL    HW2 3078   3.185   5.807   6.807
  727SOL     OW 3079   3.354   5.515   4.243
  727SOL    HW1 3080   3.322   5.605   4.215
  727SOL    HW2 3081   3.306   5.486   4.326
  728SOL     OW 3082   0.295   4.013   5.386
  728SOL    HW1 3083   0.298   3.933   5.446
  728SOL    HW2 3084   0.201   4.027   5.353
  729SOL     OW 3085   2.304   0.929   0.310
  729SOL    HW1 3086   2.228   0.903   0.370
  729SOL    HW2 3087   2.269   0.984   0.234
  730SOL     OW 3088   6.217   0.031   4.055
  730SOL    HW1 3089   6.129   0.017   4.010
  730SOL    HW2 3090   6.286   6.992   4.012
  731SOL     OW 3091   5.089   2.856   5.039
  731SOL    HW1 3092   5.035   2.815   5.112
  731SOL    HW2 3093   5.033   2.861   4.956
  732SOL     OW 3094   0.563   2.524   1.096
  732SOL    HW1 3095   0.467   2.529   1.124
  732SOL    HW2 3096   0.581   2.437   1.051
  733SOL     OW 3097   5.113   4.237   3.637
  733SOL    HW1 3098   5.077   4.318   3.590
  733SOL    HW2 3099   5.208   4.222   3.608
  734SOL     OW 3100   6.768   4.061   1.363
  734SOL    HW1 3101   6.748   4.155   1.391
  734SOL    HW2 3102   6.838   4.062   1.292
  735SOL     OW 3103   1.340   3.347   0.376
  735SOL    HW1 3104   1.404   3.285   0.422
  735SOL    HW2 3105   1.378   3.376   0.288
  736SOL     OW 3106   6.274   0.078   3.293
  736SOL    HW1 3107   6.365   0.093   3.332
  736SOL    HW2 3108   6.275   7.016   3.234
  737SOL     OW 3109   4.777   3.533   1.654
  737SOL    HW1 3110   4.754   3.617   1.605
  737SOL    HW2 3111   4.829   3.472   1.594
  738SOL     OW 3112   0.109   4.209   4.282
  738SOL    HW1 3113   0.097   4.110   4.277
  738SOL    HW2 3114   0.155   4.232   4.369
  739SOL     OW 3115   4.446   6.765   5.900
  739SOL    HW1 3116   4.433   6.737   5.996
  739SOL    HW2 3117   4.543   6.762   5.878
  740SOL     OW 3118   5.738   0.307   0.967
  740SOL    HW1 3119   5.680   0.374   1.014
  740SOL    HW2 3120   5.750   0.227   1.025
  741SOL     OW 3121   1.202   6.204   3.541
  741SOL    HW1 3122   1.120   6.147   3.550
  741SOL    HW2 3123   1.176   6.300   3.546
  742SOL     OW 3124   1.699   6.614   3.641
  742SOL    HW1 3125   1.607   6.606   3.604
  742SOL    HW2 3126   1.706   6.562   3.726
  743SOL     OW 3127   1.215   4.503   4.065
  743SOL    HW1 3128   1.229   4.516   4.163
  743SOL    HW2 3129   1.207   4.591   4.020
  744SOL     OW 3130   6.759   6.264   0.057
  744SOL    HW1 3131   6.828   6.282   7.006
  744SOL    HW2 3132   6.668   6.260   0.015
  745SOL     OW 3133   0.927   5.371   3.523
  745SOL    HW1 3134   0.989   5.425   3.581
  745SOL    HW2 3135   0.926   5.410   3.431
  746SOL     OW 3136   0.375   6.648   5.000
  746SOL    HW1 3137   0.401   6.736   4.960
  746SOL    HW2 3138   0.309   6.602   4.941
  747SOL     OW 3139   4.365   4.817   3.787
  747SOL    HW1 3140   4.450   4.768   3.768
  747SOL    HW2 3141   4.385   4.910   3.816
  748SOL     OW 3142   4.689   4.422   0.828
  748SOL    HW1 3143   4.721   4.369   0.906
  748SOL    HW2 3144   4.590   4.418   0.823
  749SOL     OW 3145   7.015   2.776   5.125
  749SOL    HW1 3146   6.973   2.686   5.107
  749SOL    HW2 3147   0.011   2.786   5.224
  750SOL     OW 3148   3.025   2.947   0.800
  750SOL    HW1 3149   2.967   3.013   0.848
  750SOL    HW2 3150   3.101   2.919   0.859
  751SOL     OW 3151   4.389   1.194   0.708
  751SOL    HW1 3152   4.342   1.112   0.676
  751SOL    HW2 3153   4.448   1.171   0.786
  752SOL     OW 3154   4.258   2.282   2.219
  752SOL    HW1 3155   4.165   2.250   2.197
  752SOL    HW2 3156   4.271   2.373   2.180
  753SOL     OW 3157   1.705   3.282   4.719
  753SOL    HW1 3158   1.706   3.378   4.691
  753SOL    HW2 3159   1.654   3.273   4.805
  754SOL     OW 3160   5.110   4.172   6.770
  754SOL    HW1 3161   5.120   4.087   6.719
  754SOL    HW2 3162   5.200   4.209   6.793
  755SOL     OW 3163   0.445   5.834   6.832
  755SOL    HW1 3164   0.483   5.785   6.911
  755SOL    HW2 3165   0.474   5.929   6.835
  756SOL     OW 3166   5.072   0.740   2.344
  756SOL    HW1 3167   5.080   0.643   2.321
  756SOL    HW2 3168   5.010   0.751   2.422
  757SOL     OW 3169   0.420   6.607   4.144
  757SOL    HW1 3170   0.425   6.542   4.219
  757SOL    HW2 3171   0.483   6.683   4.161
  758SOL     OW 3172   3.195   2.527   1.231
  758SOL    HW1 3173   3.106   2.527   1.278
  758SOL    HW2 3174   3.261   2.475   1.286
  759SOL     OW 3175   0.882   1.362   0.153
  759SOL    HW1 3176   0.976   1.383   0.180
  759SOL    HW2 3177   0.832   1.448   0.140
  760SOL     OW 3178   4.871   1.840   6.821
  760SOL    HW1 3179   4.818   1.831   6.905
  760SOL    HW2 3180   4.933   1.763   6.811
  761SOL     OW 3181   6.108   3.301   0.389
  761SOL    HW1 3182   6.184   3.364   0.375
  761SOL    HW2 3183   6.054   3.295   0.305
  762SOL     OW 3184   2.208   6.225   3.787
  762SOL    HW1 3185   2.234   6.313   3.747
  762SOL    HW2 3186   2.290   6.170   3.801
  763SOL     OW 3187   4.148   5.838   0.131
  763SOL    HW1 3188   4.069   5.821   0.072
  763SOL    HW2 3189   4.217   5.766   0.115
  764SOL     OW 3190   3.275   1.107   2.774
  764SOL    HW1 3191   3.239   1.053   2.850
  764SOL    HW2 3192   3.256   1.204   2.790
  765SOL     OW 3193   1.145   6.561   1.746
  765SOL    HW1 3194   1.173   6.657   1.750
  765SOL    HW2 3195   1.094   6.537   1.828
  766SOL     OW 3196   6.845   0.491   6.590
  766SOL    HW1 3197   6.823   0.531   6.501
  766SOL    HW2 3198   6.885   0.400   6.576
  767SOL     OW 3199   0.437   6.737   2.214
  767SOL    HW1 3200   0.436   6.784   2.126
  767SOL    HW2 3201   0.515   6.769   2.268
  768SOL     OW 3202   2.373   0.270   2.521
  768SOL    HW1 3203   2.464   0.306   2.540
  768SOL    HW2 3204   2.325   0.254   2.607
  769SOL     OW 3205   3.580   0.419   4.878
  769SOL    HW1 3206   3.548   0.414   4.784
  769SOL    HW2 3207   3.531   0.492   4.926
  770SOL     OW 3208   2.805   5.702   3.451
  770SOL    HW1 3209   2.830   5.606   3.439
  770SOL    HW2 3210   2.872   5.748   3.509
  771SOL     OW 3211   2.007   5.544   2.723
  771SOL    HW1 3212   1.949   5.477   2.769
  771SOL    HW2 3213   2.087   5.563   2.780
  772SOL     OW 3214   0.112   4.384   0.334
  772SOL    HW1 3215   0.074   4.362   0.244
  772SOL    HW2 3216   0.152   4.476   0.333
  773SOL     OW 3217   6.436   2.708   3.293
  773SOL    HW1 3218   6.458   2.684   3.387
  773SOL    HW2 3219   6.519   2.735   3.244
  774SOL     OW 3220   1.583   1.860   1.815
  774SOL    HW1 3221   1.496   1.841   1.861
  774SOL    HW2 3222   1.653   1.880   1.884
  775SOL     OW 3223   0.983   1.717   3.948
  775SOL    HW1 3224   0.953   1.661   4.026
  775SOL    HW2 3225   0.917   1.709   3.874
  776SOL     OW 3226   1.586   6.425   6.079
  776SOL    HW1 3227   1.595   6.326   6.083
  776SOL    HW2 3228   1.554   6.453   5.988
  777SOL     OW 3229   4.086   0.998   1.214
  777SOL    HW1 3230   4.135   1.032   1.294
  777SOL    HW2 3231   4.089   1.067   1.141
  778SOL     OW 3232   3.788   0.782   3.459
  778SOL    HW1 3233   3.804   0.716   3.385
  778SOL    HW2 3234   3.774   0.873   3.420
  779SOL     OW 3235   0.474   1.801   2.092
  779SOL    HW1 3236   0.533   1.874   2.059
  779SOL    HW2 3237   0.523   1.745   2.159
  780SOL     OW 3238   6.145   2.636   4.511
  780SOL    HW1 3239   6.160   2.565   4.579
  780SOL    HW2 3240   6.050   2.634   4.481
  781SOL     OW 3241   6.009   1.267   6.209
  781SOL    HW1 3242   5.967   1.291   6.121
  781SOL    HW2 3243   6.025   1.350   6.262
  782SOL     OW 3244   0.604   3.824   1.037
  782SOL    HW1 3245   0.701   3.805   1.047
  782SOL    HW2 3246   0.587   3.921   1.056
  783SOL     OW 3247   2.837   5.657   0.120
  783SOL    HW1 3248   2.743   5.683   0.141
  783SOL    HW2 3249   2.877   5.610   0.198
  784SOL     OW 3250   3.987   0.643   5.340
  784SOL    HW1 3251   3.980   0.742   5.323
  784SOL    HW2 3252   3.977   0.595   5.253
  785SOL     OW 3253   6.277   1.737   2.288
  785SOL    HW1 3254   6.283   1.737   2.388
  785SOL    HW2 3255   6.356   1.689   2.249
  786SOL     OW 3256   0.177   0.323   0.375
  786SOL    HW1 3257   0.097   0.269   0.400
  786SOL    HW2 3258   0.220   0.358   0.458
  787SOL     OW 3259   2.626   0.998   5.630
  787SOL    HW1 3260   2.664   0.905   5.625
  787SOL    HW2 3261   2.638   1.034   5.723
  788SOL     OW 3262   2.113   3.331   4.220
  788SOL    HW1 3263   2.023   3.326   4.264
  788SOL    HW2 3264   2.119   3.415   4.167
  789SOL     OW 3265   6.206   4.257   2.140
  789SOL    HW1 3266   6.281   4.300   2.091
  789SOL    HW2 3267   6.241   4.179   2.193
  790SOL     OW 3268   2.079   1.388   4.200
  790SOL    HW1 3269   2.020   1.389   4.120
  790SOL    HW2 3270   2.063   1.469   4.255
  791SOL     OW 3271   3.868   0.368   3.748
  791SOL    HW1 3272   3.904   0.437   3.811
  791SOL    HW2 3273   3.941   0.306   3.721
  792SOL     OW 3274   6.472   0.340   2.268
  792SOL    HW1 3275   6.375   0.316   2.278
  792SOL    HW2 3276   6.527   0.256   2.269
  793SOL     OW 3277   5.122   6.368   1.489
  793SOL    HW1 3278   5.175   6.452   1.478
  793SOL    HW2 3279   5.095   6.334   1.399
  794SOL     OW 3280   2.765   4.908   5.603
  794SOL    HW1 3281   2.777   4.809   5.611
  794SOL    HW2 3282   2.706   4.929   5.525
  795SOL     OW 3283   3.707   5.021   5.755
  795SOL    HW1 3284   3.734   5.116   5.766
  795SOL    HW2 3285   3.720   4.993   5.660
  796SOL     OW 3286   0.333   2.140   5.285
  796SOL    HW1 3287   0.422   2.183   5.268
  796SOL    HW2 3288   0.264   2.212   5.294
  797SOL     OW 3289   5.544   2.160   2.850
  797SOL    HW1 3290   5.520   2.257   2.848
  797SOL    HW2 3291   5.500   2.113   2.773
  798SOL     OW 3292   4.794   0.400   0.604
  798SOL    HW1 3293   4.700   0.396   0.638
  798SOL    HW2 3294   4.857   0.384   0.680
  799SOL     OW 3295   6.290   2.223   3.269
  799SOL    HW1 3296   6.249   2.260   3.186
  799SOL    HW2 3297   6.247   2.266   3.349
  800SOL     OW 3298   5.582   0.376   1.983
  800SOL    HW1 3299   5.509   0.312   2.007
  800SOL    HW2 3300   5.652   0.376   2.055
  801SOL     OW 3301   1.374   2.744   3.322
  801SOL    HW1 3302   1.295   2.757   3.383
  801SOL    HW2 3303   1.354   2.787   3.234
  802SOL     OW 3304   5.094   1.244   0.314
  802SOL    HW1 3305   5.175   1.280   0.361
  802SOL    HW2 3306   5.016   1.247   0.377
  803SOL     OW 3307   6.102   5.688   4.588
  803SOL    HW1 3308   6.032   5.625   4.621
  803SOL    HW2 3309   6.074   5.724   4.499
  804SOL     OW 3310   6.916   6.943   0.372
  804SOL    HW1 3311   6.859   6.975   0.448
  804SOL    HW2 3312   6.904   6.844   0.361
  805SOL     OW 3313   4.075   2.760   5.725
  805SOL    HW1 3314   4.014   2.840   5.722
  805SOL    HW2 3315   4.044   2.692   5.659
  806SOL     OW 3316   4.308   1.257   6.089
  806SOL    HW1 3317   4.352   1.229   6.175
  806SOL    HW2 3318   4.340   1.348   6.064
  807SOL     OW 3319   1.045   0.943   3.591
  807SOL    HW1 3320   0.977   0.870   3.593
  807SOL    HW2 3321   1.116   0.921   3.524
  808SOL     OW 3322   5.139   3.295   5.947
  808SOL    HW1 3323   5.117   3.323   5.853
  808SOL    HW2 3324   5.128   3.196   5.955
  809SOL     OW 3325   1.199   4.873   1.128
  809SOL    HW1 3326   1.249   4.811   1.187
  809SOL    HW2 3327   1.205   4.842   1.033
  810SOL     OW 3328   4.487   3.684   1.388
  810SOL    HW1 3329   4.562   3.716   1.445
  810SOL    HW2 3330   4.404   3.678   1.443
  811SOL     OW 3331   4.819   5.803   3.191
  811SOL    HW1 3332   4.736   5.805   3.135
  811SOL    HW2 3333   4.835   5.709   3.223
  812SOL     OW 3334   0.028   0.419   1.453
  812SOL    HW1 3335   0.012   0.512   1.422
  812SOL    HW2 3336   0.127   0.404   1.464
  813SOL     OW 3337   4.232   6.166   3.389
  813SOL    HW1 3338   4.205   6.148   3.294
  813SOL    HW2 3339   4.191   6.252   3.419
  814SOL     OW 3340   5.081   6.694   2.751
  814SOL    HW1 3341   5.061   6.788   2.777
  814SOL    HW2 3342   5.082   6.637   2.833
  815SOL     OW 3343   6.052   2.730   1.747
  815SOL    HW1 3344   5.994   2.672   1.805
  815SOL    HW2 3345   6.142   2.689   1.738
  816SOL     OW 3346   6.874   6.163   0.276
  816SOL    HW1 3347   6.827   6.193   0.192
  816SOL    HW2 3348   6.949   6.226   0.295
  817SOL     OW 3349   1.860   3.861   2.323
  817SOL    HW1 3350   1.866   3.943   2.380
  817SOL    HW2 3351   1.925   3.793   2.355
  818SOL     OW 3352   5.975   2.255   0.681
  818SOL    HW1 3353   6.057   2.306   0.655
  818SOL    HW2 3354   5.963   2.259   0.781
  819SOL     OW 3355   6.570   2.644   4.294
  819SOL    HW1 3356   6.666   2.672   4.294
  819SOL    HW2 3357   6.565   2.545   4.308
  820SOL     OW 3358   1.382   2.902   4.784
  820SOL    HW1 3359   1.343   2.994   4.786
  820SOL    HW2 3360   1.374   2.864   4.691
  821SOL     OW 3361   1.599   4.439   0.620
  821SOL    HW1 3362   1.638   4.358   0.665
  821SOL    HW2 3363   1.672   4.498   0.589
  822SOL     OW 3364   0.494   4.266   4.857
  822SOL    HW1 3365   0.516   4.282   4.761
  822SOL    HW2 3366   0.456   4.174   4.868
  823SOL     OW 3367   5.111   4.273   6.307
  823SOL    HW1 3368   5.128   4.366   6.276
  823SOL    HW2 3369   5.164   4.255   6.390
  824SOL     OW 3370   4.546   1.839   4.966
  824SOL    HW1 3371   4.641   1.860   4.943
  824SOL    HW2 3372   4.490   1.922   4.957
  825SOL     OW 3373   1.924   3.257   2.388
  825SOL    HW1 3374   1.934   3.333   2.452
  825SOL    HW2 3375   1.943   3.290   2.295
  826SOL     OW 3376   5.894   3.324   0.630
  826SOL    HW1 3377   5.958   3.254   0.662
  826SOL    HW2 3378   5.816   3.280   0.585
  827SOL     OW 3379   3.112   5.341   6.310
  827SOL    HW1 3380   3.050   5.358   6.386
  827SOL    HW2 3381   3.207   5.343   6.341
  828SOL     OW 3382   6.261   0.685   5.316
  828SOL    HW1 3383   6.289   0.616   5.249
  828SOL    HW2 3384   6.276   0.777   5.278
  829SOL     OW 3385   3.036   3.044   3.884
  829SOL    HW1 3386   2.999   3.127   3.927
  829SOL    HW2 3387   2.960   2.981   3.865
  830SOL     OW 3388   4.794   4.852   5.778
  830SOL    HW1 3389   4.782   4.820   5.872
  830SOL    HW2 3390   4.794   4.774   5.716
  831SOL     OW 3391   6.500   6.893   4.521
  831SOL    HW1 3392   6.578   6.841   4.487
  831SOL    HW2 3393   6.485   6.973   4.463
  832SOL     OW 3394   2.754   1.539   0.161
  832SOL    HW1 3395   2.723   1.584   0.245
  832SOL    HW2 3396   2.736   1.441   0.168
  833SOL     OW 3397   6.201   6.729   6.543
  833SOL    HW1 3398   6.141   6.672   6.598
  833SOL    HW2 3399   6.292   6.688   6.540
  834SOL     OW 3400   3.515   3.528   3.827
  834SOL    HW1 3401   3.583   3.561   3.893
  834SOL    HW2 3402   3.505   3.594   3.753
  835SOL     OW 3403   4.116   6.765   3.853
  835SOL    HW1 3404   4.188   6.834   3.860
  835SOL    HW2 3405   4.028   6.806   3.880
  836SOL     OW 3406   3.538   6.663   6.902
  836SOL    HW1 3407   3.490   6.619   6.978
  836SOL    HW2 3408   3.622   6.706   6.937
  837SOL     OW 3409   5.572   0.149   6.968
  837SOL    HW1 3410   5.612   0.225   6.917
  837SOL    HW2 3411   5.558   0.175   0.045
  838SOL     OW 3412   1.324   6.368   5.129
  838SOL    HW1 3413   1.333   6.338   5.034
  838SOL    HW2 3414   1.415   6.386   5.167
  839SOL     OW 3415   3.088   1.200   3.586
  839SOL    HW1 3416   3.105   1.107   3.553
  839SOL    HW2 3417   3.049   1.255   3.512
  840SOL     OW 3418   1.229   1.369   0.050
  840SOL    HW1 3419   1.229   1.417   0.137
  840SOL    HW2 3420   1.228   1.270   0.065
  841SOL     OW 3421   6.453   3.797   0.076
  841SOL    HW1 3422   6.404   3.716   0.107
  841SOL    HW2 3423   6.488   3.782   7.002
  842SOL     OW 3424   3.885   5.234   3.046
  842SOL    HW1 3425   3.970   5.225   3.099
  842SOL    HW2 3426   3.906   5.271   2.956
  843SOL     OW 3427   5.901   1.915   1.294
  843SOL    HW1 3428   5.829   1.879   1.234
  843SOL    HW2 3429   5.871   1.909   1.389
  844SOL     OW 3430   5.160   6.229   0.731
  844SOL    HW1 3431   5.085   6.172   0.765
  844SOL    HW2 3432   5.195   6.285   0.806
  845SOL     OW 3433   6.070   3.370   5.042
  845SOL    HW1 3434   6.111   3.368   5.134
  845SOL    HW2 3435   6.059   3.276   5.010
  846SOL     OW 3436   5.621   1.277   0.174
  846SOL    HW1 3437   5.688   1.349   0.196
  846SOL    HW2 3438   5.530   1.317   0.170
  847SOL     OW 3439   6.303   3.548   0.880
  847SOL    HW1 3440   6.211   3.524   0.911
  847SOL    HW2 3441   6.312   3.527   0.782
  848SOL     OW 3442   6.620   0.349   6.010
  848SOL    HW1 3443   6.548   0.307   5.955
  848SOL    HW2 3444   6.684   0.279   6.042
  849SOL     OW 3445   0.233   5.952   4.816
  849SOL    HW1 3446   0.176   5.882   4.859
  849SOL    HW2 3447   0.221   5.950   4.717
  850SOL     OW 3448   4.865   0.856   3.489
  850SOL    HW1 3449   4.901   0.872   3.396
  850SOL    HW2 3450   4.775   0.899   3.497
  851SOL     OW 3451   0.555   1.058   0.072
  851SOL    HW1 3452   0.498   1.063   0.154
  851SOL    HW2 3453   0.508   1.102   7.015
  852SOL     OW 3454   2.199   2.906   6.878
  852SOL    HW1 3455   2.188   2.837   6.949
  852SOL    HW2 3456   2.269   2.973   6.907
  853SOL     OW 3457   1.094   2.626   1.938
  853SOL    HW1 3458   1.139   2.643   2.025
  853SOL    HW2 3459   1.040   2.542   1.945
  854SOL     OW 3460   5.288   6.387   2.694
  854SOL    HW1 3461   5.272   6.293   2.663
  854SOL    HW2 3462   5.224   6.448   2.647
  855SOL     OW 3463   5.763   0.189   1.699
  855SOL    HW1 3464   5.769   0.286   1.678
  855SOL    HW2 3465   5.732   0.177   1.794
  856SOL     OW 3466   1.849   6.747   5.513
  856SOL    HW1 3467   1.885   6.831   5.554
  856SOL    HW2 3468   1.821   6.685   5.586
  857SOL     OW 3469   6.028   3.700   0.960
  857SOL    HW1 3470   6.013   3.601   0.959
  857SOL    HW2 3471   6.086   3.725   1.038
  858SOL     OW 3472   2.815   4.946   1.514
  858SOL    HW1 3473   2.894   4.981   1.464
  858SOL    HW2 3474   2.845   4.905   1.600
  859SOL     OW 3475   6.737   4.751   6.543
  859SOL    HW1 3476   6.769   4.801   6.623
  859SOL    HW2 3477   6.726   4.654   6.568
  860SOL     OW 3478   3.180   4.925   0.346
  860SOL    HW1 3479   3.144   5.015   0.322
  860SOL    HW2 3480   3.106   4.858   0.346
  861SOL     OW 3481   3.257   6.623   5.092
  861SOL    HW1 3482   3.276   6.607   4.995
  861SOL    HW2 3483   3.312   6.560   5.147
  862SOL     OW 3484   5.825   4.254   4.942
  862SOL    HW1 3485   5.783   4.325   4.885
  862SOL    HW2 3486   5.849   4.175   4.886
  863SOL     OW 3487   0.617   0.990   0.861
  863SOL    HW1 3488   0.548   1.056   0.831
  863SOL    HW2 3489   0.664   1.024   0.943
  864SOL     OW 3490   5.028   4.378   3.124
  864SOL    HW1 3491   5.059   4.374   3.029
  864SOL    HW2 3492   5.105   4.404   3.183
  865SOL     OW 3493   1.348   0.102   3.653
  865SOL    HW1 3494   1.341   0.200   3.635
  865SOL    HW2 3495   1.441   0.071   3.634
  866SOL     OW 3496   2.711   1.683   1.933
  866SOL    HW1 3497   2.675   1.774   1.912
  866SOL    HW2 3498   2.808   1.691   1.959
  867SOL     OW 3499   2.949   2.919   6.776
  867SOL    HW1 3500   3.029   2.898   6.720
  867SOL    HW2 3501   2.964   3.004   6.826
  868SOL     OW 3502   6.053   0.182   3.062
  868SOL    HW1 3503   6.076   0.225   3.149
  868SOL    HW2 3504   6.131   0.188   2.999
  869SOL     OW 3505   6.238   5.861   2.583
  869SOL    HW1 3506   6.162   5.924   2.596
  869SOL    HW2 3507   6.316   5.890   2.638
  870SOL     OW 3508   0.255   2.733   1.314
  870SOL    HW1 3509   0.219   2.754   1.224
  870SOL    HW2 3510   0.210   2.791   1.383
  871SOL     OW 3511   6.411   2.601   2.131
  871SOL    HW1 3512   6.510   2.585   2.128
  871SOL    HW2 3513   6.393   2.699   2.118
  872SOL     OW 3514   6.319   2.849   4.631
  872SOL    HW1 3515   6.256   2.925   4.615
  872SOL    HW2 3516   6.296   2.773   4.571
  873SOL     OW 3517   3.782   6.606   3.686
  873SOL    HW1 3518   3.768   6.700   3.656
  873SOL    HW2 3519   3.719   6.546   3.636
  874SOL     OW 3520   1.504   4.718   5.036
  874SOL    HW1 3521   1.533   4.623   5.021
  874SOL    HW2 3522   1.581   4.779   5.020
  875SOL     OW 3523   5.745   4.350   0.628
  875SOL    HW1 3524   5.761   4.292   0.548
  875SOL    HW2 3525   5.648   4.371   0.635
  876SOL     OW 3526   6.619   3.555   2.566
  876SOL    HW1 3527   6.532   3.537   2.613
  876SOL    HW2 3528   6.616   3.648   2.527
  877SOL     OW 3529   4.984   5.082   0.109
  877SOL    HW1 3530   4.930   5.075   0.025
  877SOL    HW2 3531   4.957   5.008   0.171
  878SOL     OW 3532   3.263   5.195   0.597
  878SOL    HW1 3533   3.336   5.166   0.534
  878SOL    HW2 3534   3.237   5.118   0.655
  879SOL     OW 3535   4.293   1.920   2.591
  879SOL    HW1 3536   4.228   1.929   2.516
  879SOL    HW2 3537   4.349   2.002   2.597
  880SOL     OW 3538   3.638   5.079   0.343
  880SOL    HW1 3539   3.561   5.141   0.334
  880SOL    HW2 3540   3.633   5.031   0.431
  881SOL     OW 3541   4.235   5.053   4.325
  881SOL    HW1 3542   4.162   5.121   4.315
  881SOL    HW2 3543   4.236   4.992   4.246
  882SOL     OW 3544   0.926   0.681   4.476
  882SOL    HW1 3545   1.014   0.686   4.523
  882SOL    HW2 3546   0.876   0.767   4.489
  883SOL     OW 3547   3.299   5.225   6.672
  883SOL    HW1 3548   3.376   5.221   6.607
  883SOL    HW2 3549   3.280   5.320   6.694
  884SOL     OW 3550   6.090   3.679   1.725
  884SOL    HW1 3551   6.034   3.658   1.645
  884SOL    HW2 3552   6.034   3.726   1.793
  885SOL     OW 3553   6.202   6.381   0.489
  885SOL    HW1 3554   6.162   6.389   0.580
  885SOL    HW2 3555   6.168   6.455   0.431
  886SOL     OW 3556   3.913   0.985   0.024
  886SOL    HW1 3557   3.814   0.997   0.018
  886SOL    HW2 3558   3.935   0.891   0.050
  887SOL     OW 3559   3.905   0.185   5.957
  887SOL    HW1 3560   3.991   0.136   5.976
  887SOL    HW2 3561   3.902   0.269   6.011
  888SOL     OW 3562   6.812   6.482   3.388
  888SOL    HW1 3563   6.715   6.460   3.388
  888SOL    HW2 3564   6.866   6.398   3.381
  889SOL     OW 3565   6.999   6.324   5.272
  889SOL    HW1 3566   6.902   6.330   5.293
  889SOL    HW2 3567   0.006   6.400   5.212
  890SOL     OW 3568   2.592   4.555   2.326
  890SOL    HW1 3569   2.506   4.540   2.278
  890SOL    HW2 3570   2.663   4.496   2.288
  891SOL     OW 3571   5.526   2.549   0.791
  891SOL    HW1 3572   5.492   2.455   0.794
  891SOL    HW2 3573   5.459   2.610   0.834
  892SOL     OW 3574   2.758   3.718   0.805
  892SOL    HW1 3575   2.816   3.637   0.816
  892SOL    HW2 3576   2.764   3.774   0.887
  893SOL     OW 3577   1.273   0.784   0.280
  893SOL    HW1 3578   1.288   0.708   0.343
  893SOL    HW2 3579   1.177   0.785   0.252
  894SOL     OW 3580   1.368   5.879   4.247
  894SOL    HW1 3581   1.272   5.897   4.227
  894SOL    HW2 3582   1.386   5.900   4.343
  895SOL     OW 3583   2.322   6.773   4.330
  895SOL    HW1 3584   2.293   6.689   4.285
  895SOL    HW2 3585   2.265   6.849   4.298
  896SOL     OW 3586   5.762   6.354   3.486
  896SOL    HW1 3587   5.789   6.450   3.484
  896SOL    HW2 3588   5.680   6.344   3.543
  897SOL     OW 3589   4.596   2.842   6.448
  897SOL    HW1 3590   4.501   2.826   6.420
  897SOL    HW2 3591   4.627   2.768   6.507
  898SOL     OW 3592   5.427   6.704   3.628
  898SOL    HW1 3593   5.329   6.689   3.640
  898SOL    HW2 3594   5.448   6.713   3.530
  899SOL     OW 3595   0.353   4.397   6.438
  899SOL    HW1 3596   0.406   4.467   6.391
  899SOL    HW2 3597   0.337   4.320   6.377
  900SOL     OW 3598   0.240   6.167   3.503
  900SOL    HW1 3599   0.158   6.215   3.531
  900SOL    HW2 3600   0.271   6.203   3.415
  901SOL     OW 3601   6.322   0.932   4.010
  901SOL    HW1 3602   6.247   0.950   3.947
  901SOL    HW2 3603   6.391   0.875   3.965
  902SOL     OW 3604   0.272   0.118   6.740
  902SOL    HW1 3605   0.366   0.151   6.747
  902SOL    HW2 3606   0.264   0.052   6.665
  903SOL     OW 3607   0.686   4.821   0.566
  903SOL    HW1 3608   0.681   4.908   0.517
  903SOL    HW2 3609   0.719   4.837   0.659
  904SOL     OW 3610   1.863   1.686   3.465
  904SOL    HW1 3611   1.894   1.664   3.373
  904SOL    HW2 3612   1.880   1.607   3.525
  905SOL     OW 3613   5.291   1.856   5.866
  905SOL    HW1 3614   5.322   1.900   5.950
  905SOL    HW2 3615   5.217   1.910   5.826
  906SOL     OW 3616   0.040   4.012   6.019
  906SOL    HW1 3617   6.977   3.999   6.076
  906SOL    HW2 3618   0.111   4.057   6.074
  907SOL     OW 3619   5.899   2.299   2.483
  907SOL    HW1 3620   5.824   2.258   2.535
  907SOL    HW2 3621   5.868   2.321   2.391
  908SOL     OW 3622   2.015   0.058   4.097
  908SOL    HW1 3623   1.927   0.105   4.092
  908SOL    HW2 3624   2.039   0.022   4.007
  909SOL     OW 3625   3.776   0.981   1.478
  909SOL    HW1 3626   3.851   1.047   1.472
  909SOL    HW2 3627   3.813   0.891   1.499
  910SOL     OW 3628   2.076   1.627   0.644
  910SOL    HW1 3629   2.109   1.534   0.625
  910SOL    HW2 3630   2.005   1.623   0.714
  911SOL     OW 3631   0.385   4.660   1.116
  911SOL    HW1 3632   0.436   4.575   1.129
  911SOL    HW2 3633   0.298   4.655   1.166
  912SOL     OW 3634   6.912   0.359   5.782
  912SOL    HW1 3635   6.925   0.279   5.842
  912SOL    HW2 3636   6.914   0.442   5.837
  913SOL     OW 3637   2.454   1.002   2.221
  913SOL    HW1 3638   2.526   0.968   2.160
  913SOL    HW2 3639   2.451   1.102   2.217
  914SOL     OW 3640   2.584   5.830   3.320
  914SOL    HW1 3641   2.593   5.903   3.252
  914SOL    HW2 3642   2.671   5.817   3.367
  915SOL     OW 3643   0.775   2.684   0.307
  915SOL    HW1 3644   0.699   2.746   0.285
  915SOL    HW2 3645   0.837   2.730   0.370
  916SOL     OW 3646   2.639   2.434   3.085
  916SOL    HW1 3647   2.716   2.381   3.050
  916SOL    HW2 3648   2.582   2.466   3.009
  917SOL     OW 3649   4.033   1.691   1.389
  917SOL    HW1 3650   4.094   1.613   1.388
  917SOL    HW2 3651   3.944   1.664   1.352
  918SOL     OW 3652   2.286   6.032   6.395
  918SOL    HW1 3653   2.278   5.932   6.397
  918SOL    HW2 3654   2.331   6.064   6.478
  919SOL     OW 3655   1.703   5.923   1.396
  919SOL    HW1 3656   1.738   5.867   1.321
  919SOL    HW2 3657   1.770   5.992   1.421
  920SOL     OW 3658   2.753   0.727   3.509
  920SOL    HW1 3659   2.831   0.752   3.451
  920SOL    HW2 3660   2.727   0.805   3.565
  921SOL     OW 3661   5.797   5.400   4.376
  921SOL    HW1 3662   5.866   5.333   4.401
  921SOL    HW2 3663   5.707   5.367   4.405
  922SOL     OW 3664   3.315   3.837   6.811
  922SOL    HW1 3665   3.251   3.807   6.741
  922SOL    HW2 3666   3.265   3.878   6.887
  923SOL     OW 3667   2.836   6.686   6.717
  923SOL    HW1 3668   2.752   6.734   6.693
  923SOL    HW2 3669   2.914   6.747   6.703
  924SOL     OW 3670   5.896   3.881   2.533
  924SOL    HW1 3671   5.852   3.947   2.473
  924SOL    HW2 3672   5.907   3.794   2.485
  925SOL     OW 3673   0.192   1.639   4.499
  925SOL    HW1 3674   0.118   1.586   4.542
  925SOL    HW2 3675   0.279   1.616   4.541
  926SOL     OW 3676   5.361   6.000   0.344
  926SOL    HW1 3677   5.330   6.064   0.414
  926SOL    HW2 3678   5.433   6.042   0.289
  927SOL     OW 3679   4.435   4.621   4.338
  927SOL    HW1 3680   4.499   4.695   4.359
  927SOL    HW2 3681   4.416   4.568   4.421
  928SOL     OW 3682   1.992   0.986   1.462
  928SOL    HW1 3683   1.991   1.026   1.370
  928SOL    HW2 3684   2.022   1.054   1.528
  929SOL     OW 3685   6.908   2.589   2.833
  929SOL    HW1 3686   6.858   2.525   2.892
  929SOL    HW2 3687   6.982   2.631   2.885
  930SOL     OW 3688   5.116   4.828   4.243
  930SOL    HW1 3689   5.146   4.816   4.149
  930SOL    HW2 3690   5.190   4.805   4.306
  931SOL     OW 3691   1.111   2.122   2.475
  931SOL    HW1 3692   1.022   2.085   2.502
  931SOL    HW2 3693   1.099   2.212   2.433
  932SOL     OW 3694   4.638   6.139   1.113
  932SOL    HW1 3695   4.581   6.221   1.115
  932SOL    HW2 3696   4.703   6.142   1.189
  933SOL     OW 3697   1.801   5.404   2.860
  933SOL    HW1 3698   1.814   5.345   2.940
  933SOL    HW2 3699   1.704   5.403   2.834
  934SOL     OW 3700   3.155   1.486   5.103
  934SOL    HW1 3701   3.222   1.555   5.129
  934SOL    HW2 3702   3.151   1.414   5.172
  935SOL     OW 3703   3.932   3.318   6.462
  935SOL    HW1 3704   3.990   3.369   6.525
  935SOL    HW2 3705   3.985   3.243   6.421
  936SOL     OW 3706   0.623   0.720   0.850
  936SOL    HW1 3707   0.651   0.700   0.757
  936SOL    HW2 3708   0.590   0.814   0.856
  937SOL     OW 3709   4.168   1.637   4.751
  937SOL    HW1 3710   4.102   1.666   4.820
  937SOL    HW2 3711   4.145   1.544   4.720
  938SOL     OW 3712   0.458   3.084   6.204
  938SOL    HW1 3713   0.495   3.087   6.111
  938SOL    HW2 3714   0.511   3.145   6.263
  939SOL     OW 3715   5.648   1.458   6.024
  939SOL    HW1 3716   5.595   1.433   6.105
  939SOL    HW2 3717   5.649   1.558   6.015
  940SOL     OW 3718   6.807   1.158   4.174
  940SOL    HW1 3719   6.839   1.221   4.246
  940SOL    HW2 3720   6.708   1.149   4.180
  941SOL     OW 3721   5.428   1.877   3.741
  941SOL    HW1 3722   5.399   1.810   3.672
  941SOL    HW2 3723   5.451   1.829   3.826
  942SOL     OW 3724   4.926   6.537   5.346
  942SOL    HW1 3725   5.005   6.484   5.317
  942SOL    HW2 3726   4.854   6.530   5.276
  943SOL     OW 3727   5.899   2.222   1.668
  943SOL    HW1 3728   5.863   2.287   1.601
  943SOL    HW2 3729   5.847   2.228   1.753
  944SOL     OW 3730   5.604   3.624   4.454
  944SOL    HW1 3731   5.683   3.626   4.515
  944SOL    HW2 3732   5.594   3.532   4.417
  945SOL     OW 3733   5.172   4.353   4.265
  945SOL    HW1 3734   5.116   4.431   4.237
  945SOL    HW2 3735   5.114   4.282   4.305
  946SOL     OW 3736   5.808   2.844   5.836
  946SOL    HW1 3737   5.731   2.847   5.772
  946SOL    HW2 3738   5.820   2.750   5.869
  947SOL     OW 3739   3.002   2.519   6.680
  947SOL    HW1 3740   3.066   2.492   6.752
  947SOL    HW2 3741   3.051   2.572   6.611
  948SOL     OW 3742   3.890   2.110   0.881
  948SOL    HW1 3743   3.836   2.194   0.893
  948SOL    HW2 3744   3.943   2.116   0.796
  949SOL     OW 3745   6.269   5.294   6.450
  949SOL    HW1 3746   6.261   5.202   6.489
  949SOL    HW2 3747   6.195   5.309   6.384
  950SOL     OW 3748   4.141   5.542   0.808
  950SOL    HW1 3749   4.220   5.576   0.859
  950SOL    HW2 3750   4.167   5.458   0.759
  951SOL     OW 3751   0.968   1.176   1.796
  951SOL    HW1 3752   1.037   1.151   1.863
  951SOL    HW2 3753   1.012   1.191   1.707
  952SOL     OW 3754   5.525   0.774   3.484
  952SOL    HW1 3755   5.617   0.752   3.451
  952SOL    HW2 3756   5.499   0.865   3.451
  953SOL     OW 3757   4.135   6.025   6.158
  953SOL    HW1 3758   4.148   6.079   6.241
  953SOL    HW2 3759   4.200   6.055   6.087
  954SOL     OW 3760   6.281   0.380   1.545
  954SOL    HW1 3761   6.228   0.312   1.596
  954SOL    HW2 3762   6.238   0.470   1.554
  955SOL     OW 3763   0.987   5.879   2.995
  955SOL    HW1 3764   1.015   5.935   3.073
  955SOL    HW2 3765   0.950   5.792   3.028
  956SOL     OW 3766   2.041   1.994   0.933
  956SOL    HW1 3767   2.122   2.033   0.977
  956SOL    HW2 3768   2.031   1.898   0.961
  957SOL     OW 3769   1.751   4.930   4.717
  957SOL    HW1 3770   1.788   4.838   4.704
  957SOL    HW2 3771   1.653   4.930   4.699
  958SOL     OW 3772   5.482   1.745   1.352
  958SOL    HW1 3773   5.456   1.653   1.379
  958SOL    HW2 3774   5.479   1.805   1.432
  959SOL     OW 3775   2.936   4.916   3.230
  959SOL    HW1 3776   3.028   4.901   3.195
  959SOL    HW2 3777   2.882   4.833   3.220
  960SOL     OW 3778   1.912   5.829   4.742
  960SOL    HW1 3779   1.983   5.823   4.672
  960SOL    HW2 3780   1.953   5.814   4.832
  961SOL     OW 3781   4.248   6.801   1.792
  961SOL    HW1 3782   4.214   6.884   1.749
  961SOL    HW2 3783   4.203   6.788   1.881
  962SOL     OW 3784   1.718   0.970   3.495
  962SOL    HW1 3785   1.748   0.881   3.529
  962SOL    HW2 3786   1.647   0.957   3.425
  963SOL     OW 3787   6.614   0.695   1.401
  963SOL    HW1 3788   6.628   0.596   1.394
  963SOL    HW2 3789   6.592   0.719   1.495
  964SOL     OW 3790   5.252   3.671   1.634
  964SOL    HW1 3791   5.184   3.700   1.566
  964SOL    HW2 3792   5.344   3.680   1.595
  965SOL     OW 3793   0.431   1.818   0.493
  965SOL    HW1 3794   0.379   1.820   0.578
  965SOL    HW2 3795   0.371   1.790   0.417
  966SOL     OW 3796   6.697   1.533   2.812
  966SOL    HW1 3797   6.746   1.485   2.740
  966SOL    HW2 3798   6.635   1.470   2.859
  967SOL     OW 3799   0.869   5.387   0.859
  967SOL    HW1 3800   0.899   5.482   0.871
  967SOL    HW2 3801   0.769   5.384   0.858
  968SOL     OW 3802   4.697   2.636   2.117
  968SOL    HW1 3803   4.727   2.664   2.208
  968SOL    HW2 3804   4.624   2.568   2.126
  969SOL     OW 3805   4.582   6.216   5.724
  969SOL    HW1 3806   4.584   6.280   5.648
  969SOL    HW2 3807   4.563   6.265   5.809
  970SOL     OW 3808   4.393   2.099   5.301
  970SOL    HW1 3809   4.444   2.179   5.269
  970SOL    HW2 3810   4.295   2.120   5.301
  971SOL     OW 3811   6.950   1.735   1.784
  971SOL    HW1 3812   6.987   1.819   1.823
  971SOL    HW2 3813   7.004   1.708   1.705
  972SOL     OW 3814   6.518   5.542   0.796
  972SOL    HW1 3815   6.420   5.565   0.800
  972SOL    HW2 3816   6.550   5.550   0.702
  973SOL     OW 3817   6.545   4.488   6.162
  973SOL    HW1 3818   6.476   4.492   6.090
  973SOL    HW2 3819   6.530   4.407   6.218
  974SOL     OW 3820   3.023   0.731   3.391
  974SOL    HW1 3821   3.063   0.677   3.465
  974SOL    HW2 3822   3.026   0.678   3.306
  975SOL     OW 3823   2.517   5.901   5.647
  975SOL    HW1 3824   2.477   5.855   5.727
  975SOL    HW2 3825   2.535   5.997   5.669
  976SOL     OW 3826   6.774   3.203   3.054
  976SOL    HW1 3827   6.712   3.237   3.124
  976SOL    HW2 3828   6.722   3.173   2.974
  977SOL     OW 3829   1.583   1.155   3.659
  977SOL    HW1 3830   1.628   1.087   3.601
  977SOL    HW2 3831   1.491   1.124   3.682
  978SOL     OW 3832   5.484   4.100   4.401
  978SOL    HW1 3833   5.391   4.129   4.380
  978SOL    HW2 3834   5.499   4.008   4.365
  979SOL     OW 3835   6.402   0.855   3.379
  979SOL    HW1 3836   6.402   0.844   3.279
  979SOL    HW2 3837   6.361   0.943   3.403
  980SOL     OW 3838   5.169   2.258   4.193
  980SOL    HW1 3839   5.233   2.246   4.117
  980SOL    HW2 3840   5.076   2.263   4.157
  981SOL     OW 3841   1.674   1.502   4.452
  981SOL    HW1 3842   1.609   1.445   4.503
  981SOL    HW2 3843   1.630   1.535   4.368
  982SOL     OW 3844   1.235   2.398   1.554
  982SOL    HW1 3845   1.212   2.333   1.481
  982SOL    HW2 3846   1.245   2.490   1.514
  983SOL     OW 3847   5.948   2.093   3.216
  983SOL    HW1 3848   5.910   2.127   3.302
  983SOL    HW2 3849   5.874   2.066   3.155
  984SOL     OW 3850   4.782   1.531   5.262
  984SOL    HW1 3851   4.795   1.560   5.357
  984SOL    HW2 3852   4.697   1.572   5.227
  985SOL     OW 3853   3.054   5.727   0.800
  985SOL    HW1 3854   2.999   5.662   0.852
  985SOL    HW2 3855   3.003   5.757   0.719
  986SOL     OW 3856   4.586   5.365   6.169
  986SOL    HW1 3857   4.607   5.303   6.094
  986SOL    HW2 3858   4.497   5.409   6.153
  987SOL     OW 3859   3.090   6.556   1.790
  987SOL    HW1 3860   3.133   6.610   1.863
  987SOL    HW2 3861   2.992   6.576   1.788
  988SOL     OW 3862   4.082   3.042   0.888
  988SOL    HW1 3863   4.043   2.994   0.809
  988SOL    HW2 3864   4.061   2.992   0.971
  989SOL     OW 3865   0.615   0.231   5.744
  989SOL    HW1 3866   0.701   0.253   5.699
  989SOL    HW2 3867   0.539   0.241   5.679
  990SOL     OW 3868   4.381   0.487   4.051
  990SOL    HW1 3869   4.345   0.579   4.039
  990SOL    HW2 3870   4.461   0.475   3.992
  991SOL     OW 3871   0.827   2.231   4.751
  991SOL    HW1 3872   0.791   2.273   4.834
  991SOL    HW2 3873   0.883   2.152   4.774
  992SOL     OW 3874   0.293   3.182   6.843
  992SOL    HW1 3875   0.383   3.140   6.846
  992SOL    HW2 3876   0.256   3.190   6.935
  993SOL     OW 3877   3.168   4.903   2.599
  993SOL    HW1 3878   3.164   4.863   2.508
  993SOL    HW2 3879   3.127   4.840   2.665
  994SOL     OW 3880   3.589   3.464   2.142
  994SOL    HW1 3881   3.638   3.547   2.117
  994SOL    HW2 3882   3.634   3.385   2.099
  995SOL     OW 3883   1.804   2.323   6.219
  995SOL    HW1 3884   1.759   2.260   6.156
  995SOL    HW2 3885   1.902   2.302   6.224
  996SOL     OW 3886   2.031   3.336   2.783
  996SOL    HW1 3887   1.964   3.320   2.711
  996SOL    HW2 3888   2.044   3.253   2.837
  997SOL     OW 3889   0.639   0.871   1.469
  997SOL    HW1 3890   0.690   0.903   1.549
  997SOL    HW2 3891   0.599   0.781   1.489
  998SOL     OW 3892   4.141   6.846   2.098
  998SOL    HW1 3893   4.231   6.890   2.096
  998SOL    HW2 3894   4.073   6.910   2.135
  999SOL     OW 3895   6.218   5.620   1.390
  999SOL    HW1 3896   6.191   5.553   1.459
  999SOL    HW2 3897   6.221   5.576   1.300
 1000SOL     OW 3898   2.285   2.827   3.604
 1000SOL    HW1 3899   2.284   2.736   3.646
 1000SOL    HW2 3900   2.348   2.827   3.527
 1001SOL     OW 3901   4.580   6.390   6.302
 1001SOL    HW1 3902   4.534   6.468   6.344
 1001SOL    HW2 3903   4.675   6.385   6.335
 1002SOL     OW 3904   5.708   1.532   6.997
 1002SOL    HW1 3905   5.643   1.459   6.975
 1002SOL    HW2 3906   5.662   1.601   0.034
 1003SOL     OW 3907   3.097   6.462   2.515
 1003SOL    HW1 3908   3.067   6.483   2.422
 1003SOL    HW2 3909   3.039   6.508   2.581
 1004SOL     OW 3910   0.039   0.267   6.690
 1004SOL    HW1 3911   6.988   0.294   6.756
 1004SOL    HW2 3912   0.103   0.203   6.732
 1005SOL     OW 3913   0.498   0.369   2.569
 1005SOL    HW1 3914   0.446   0.328   2.644
 1005SOL    HW2 3915   0.551   0.297   2.523
 1006SOL     OW 3916   2.338   5.336   1.636
 1006SOL    HW1 3917   2.274   5.396   1.588
 1006SOL    HW2 3918   2.288   5.267   1.686
 1007SOL     OW 3919   6.621   1.467   3.737
 1007SOL    HW1 3920   6.676   1.543   3.770
 1007SOL    HW2 3921   6.660   1.431   3.652
 1008SOL     OW 3922   1.008   2.729   3.809
 1008SOL    HW1 3923   0.999   2.731   3.909
 1008SOL    HW2 3924   0.956   2.805   3.770
 1009SOL     OW 3925   0.087   5.887   4.240
 1009SOL    HW1 3926   0.171   5.845   4.275
 1009SOL    HW2 3927   0.092   5.986   4.253
 1010SOL     OW 3928   4.319   1.670   0.626
 1010SOL    HW1 3929   4.292   1.574   0.627
 1010SOL    HW2 3930   4.403   1.681   0.573
 1011SOL     OW 3931   2.783   5.452   3.769
 1011SOL    HW1 3932   2.808   5.447   3.672
 1011SOL    HW2 3933   2.683   5.461   3.776
 1012SOL     OW 3934   6.106   5.483   0.154
 1012SOL    HW1 3935   6.112   5.530   0.242
 1012SOL    HW2 3936   6.168   5.405   0.154
 1013SOL     OW 3937   0.996   0.729   0.245
 1013SOL    HW1 3938   0.988   0.801   0.175
 1013SOL    HW2 3939   0.907   0.713   0.287
 1014SOL     OW 3940   3.944   5.563   6.030
 1014SOL    HW1 3941   4.007   5.611   6.091
 1014SOL    HW2 3942   3.968   5.582   5.935
 1015SOL     OW 3943   3.619   6.474   5.059
 1015SOL    HW1 3944   3.580   6.405   4.999
 1015SOL    HW2 3945   3.716   6.454   5.075
 1016SOL     OW 3946   3.419   2.706   1.412
 1016SOL    HW1 3947   3.337   2.652   1.430
 1016SOL    HW2 3948   3.405   2.761   1.329
 1017SOL     OW 3949   4.605   2.521   0.706
 1017SOL    HW1 3950   4.603   2.442   0.645
 1017SOL    HW2 3951   4.614   2.604   0.651
 1018SOL     OW 3952   1.338   2.998   3.769
 1018SOL    HW1 3953   1.365   2.918   3.822
 1018SOL    HW2 3954   1.250   3.032   3.801
 1019SOL     OW 3955   0.043   1.340   0.227
 1019SOL    HW1 3956   7.016   1.254   0.204
 1019SOL    HW2 3957   0.103   1.367   0.152
 1020SOL     OW 3958   2.998   0.640   0.519
 1020SOL    HW1 3959   3.075   0.700   0.540
 1020SOL    HW2 3960   2.975   0.649   0.422
 1021SOL     OW 3961   6.897   1.347   1.580
 1021SOL    HW1 3962   6.874   1.290   1.501
 1021SOL    HW2 3963   6.830   1.422   1.586
 1022SOL     OW 3964   4.491   3.223   6.097
 1022SOL    HW1 3965   4.553   3.293   6.131
 1022SOL    HW2 3966   4.397   3.249   6.115
 1023SOL     OW 3967   5.505   0.494   2.699
 1023SOL    HW1 3968   5.449   0.443   2.764
 1023SOL    HW2 3969   5.581   0.538   2.747
 1024SOL     OW 3970   6.453   1.750   4.490
 1024SOL    HW1 3971   6.459   1.806   4.408
 1024SOL    HW2 3972   6.497   1.797   4.566
 1025SOL     OW 3973   3.366   4.460   0.917
 1025SOL    HW1 3974   3.347   4.482   0.822
 1025SOL    HW2 3975   3.281   4.436   0.964
 1026SOL     OW 3976   2.200   1.899   0.208
 1026SOL    HW1 3977   2.278   1.843   0.237
 1026SOL    HW2 3978   2.226   1.957   0.131
 1027SOL     OW 3979   2.715   5.068   1.886
 1027SOL    HW1 3980   2.639   5.130   1.869
 1027SOL    HW2 3981   2.695   4.979   1.844
 1028SOL     OW 3982   1.726   6.025   0.526
 1028SOL    HW1 3983   1.807   6.028   0.467
 1028SOL    HW2 3984   1.718   5.934   0.566
 1029SOL     OW 3985   1.558   0.529   0.314
 1029SOL    HW1 3986   1.508   0.527   0.227
 1029SOL    HW2 3987   1.654   0.548   0.297
 1030SOL     OW 3988   3.902   3.648   4.660
 1030SOL    HW1 3989   3.872   3.730   4.708
 1030SOL    HW2 3990   3.825   3.586   4.648
 1031SOL     OW 3991   3.116   5.180   1.438
 1031SOL    HW1 3992   3.154   5.093   1.408
 1031SOL    HW2 3993   3.045   5.209   1.374
 1032SOL     OW 3994   1.982   1.796   5.016
 1032SOL    HW1 3995   1.989   1.754   5.106
 1032SOL    HW2 3996   2.033   1.742   4.949
 1033SOL     OW 3997   2.214   5.653   1.759
 1033SOL    HW1 3998   2.308   5.684   1.742
 1033SOL    HW2 3999   2.155   5.685   1.684
 1034SOL     OW 4000   2.458   6.087   3.814
 1034SOL    HW1 4001   2.464   6.038   3.727
 1034SOL    HW2 4002   2.549   6.122   3.839
 1035SOL     OW 4003   2.770   1.446   4.560
 1035SOL    HW1 4004   2.699   1.376   4.559
 1035SOL    HW2 4005   2.840   1.424   4.492
 1036SOL     OW 4006   4.758   1.832   1.217
 1036SOL    HW1 4007   4.779   1.847   1.121
 1036SOL    HW2 4008   4.694   1.755   1.226
 1037SOL     OW 4009   1.648   1.172   0.723
 1037SOL    HW1 4010   1.703   1.239   0.673
 1037SOL    HW2 4011   1.552   1.180   0.695
 1038SOL     OW 4012   1.200   1.000   5.321
 1038SOL    HW1 4013   1.293   0.976   5.351
 1038SOL    HW2 4014   1.177   1.091   5.356
 1039SOL     OW 4015   3.579   1.668   4.666
 1039SOL    HW1 4016   3.577   1.742   4.598
 1039SOL    HW2 4017   3.634   1.593   4.631
 1040SOL     OW 4018   5.931   3.630   2.429
 1040SOL    HW1 4019   6.001   3.603   2.364
 1040SOL    HW2 4020   5.840   3.616   2.388
 1041SOL     OW 4021   6.711   0.344   4.142
 1041SOL    HW1 4022   6.797   0.384   4.109
 1041SOL    HW2 4023   6.637   0.367   4.079
 1042SOL     OW 4024   5.035   5.023   0.821
 1042SOL    HW1 4025   5.102   4.953   0.847
 1042SOL    HW2 4026   5.044   5.042   0.724
 1043SOL     OW 4027   3.640   1.847   6.336
 1043SOL    HW1 4028   3.594   1.771   6.291
 1043SOL    HW2 4029   3.572   1.902   6.385
 1044SOL     OW 4030   3.646   2.544   1.460
 1044SOL    HW1 4031   3.592   2.622   1.429
 1044SOL    HW2 4032   3.677   2.560   1.554
 1045SOL     OW 4033   3.019   1.191   2.556
 1045SOL    HW1 4034   3.004   1.251   2.634
 1045SOL    HW2 4035   3.086   1.121   2.579
 1046SOL     OW 4036   3.094   0.011   0.470
 1046SOL    HW1 4037   3.154   6.954   0.495
 1046SOL    HW2 4038   3.129   0.096   0.510
 1047SOL     OW 4039   1.339   5.226   2.966
 1047SOL    HW1 4040   1.361   5.145   2.911
 1047SOL    HW2 4041   1.341   5.203   3.063
 1048SOL     OW 4042   4.983   4.984   4.804
 1048SOL    HW1 4043   4.977   5.046   4.882
 1048SOL    HW2 4044   4.916   5.010   4.735
 1049SOL     OW 4045   6.755   3.750   5.077
 1049SOL    HW1 4046   6.766   3.841   5.116
 1049SOL    HW2 4047   6.687   3.753   5.004
 1050SOL     OW 4048   3.806   0.204   6.730
 1050SOL    HW1 4049   3.848   0.273   6.789
 1050SOL    HW2 4050   3.870   0.128   6.717
 1051SOL     OW 4051   4.471   4.695   0.573
 1051SOL    HW1 4052   4.416   4.640   0.510
 1051SOL    HW2 4053   4.560   4.650   0.586
 1052SOL     OW 4054   3.990   0.171   4.809
 1052SOL    HW1 4055   3.970   0.074   4.803
 1052SOL    HW2 4056   4.046   0.190   4.889
 1053SOL     OW 4057   4.917   5.364   3.659
 1053SOL    HW1 4058   4.986   5.416   3.709
 1053SOL    HW2 4059   4.830   5.366   3.709
 1054SOL     OW 4060   3.118   5.251   5.221
 1054SOL    HW1 4061   3.159   5.322   5.165
 1054SOL    HW2 4062   3.086   5.290   5.307
 1055SOL     OW 4063   4.788   5.422   4.717
 1055SOL    HW1 4064   4.707   5.431   4.774
 1055SOL    HW2 4065   4.867   5.464   4.764
 1056SOL     OW 4066   1.783   5.973   5.031
 1056SOL    HW1 4067   1.819   5.879   5.022
 1056SOL    HW2 4068   1.855   6.038   5.007
 1057SOL     OW 4069   2.925   3.542   2.978
 1057SOL    HW1 4070   2.936   3.526   2.880
 1057SOL    HW2 4071   2.925   3.454   3.027
 1058SOL     OW 4072   3.800   1.439   2.209
 1058SOL    HW1 4073   3.781   1.367   2.276
 1058SOL    HW2 4074   3.863   1.505   2.249
 1059SOL     OW 4075   4.371   1.239   1.970
 1059SOL    HW1 4076   4.333   1.152   1.938
 1059SOL    HW2 4077   4.344   1.312   1.907
 1060SOL     OW 4078   0.829   3.706   5.555
 1060SOL    HW1 4079   0.805   3.802   5.541
 1060SOL    HW2 4080   0.867   3.694   5.646
 1061SOL     OW 4081   3.053   5.079   1.952
 1061SOL    HW1 4082   2.967   5.037   1.925
 1061SOL    HW2 4083   3.103   5.016   2.013
 1062SOL     OW 4084   6.746   5.294   5.638
 1062SOL    HW1 4085   6.766   5.384   5.600
 1062SOL    HW2 4086   6.773   5.223   5.572
 1063SOL     OW 4087   1.736   3.588   0.960
 1063SOL    HW1 4088   1.655   3.643   0.980
 1063SOL    HW2 4089   1.800   3.593   1.037
 1064SOL     OW 4090   1.067   3.182   2.277
 1064SOL    HW1 4091   1.087   3.266   2.326
 1064SOL    HW2 4092   1.083   3.104   2.337
 1065SOL     OW 4093   5.278   0.316   4.049
 1065SOL    HW1 4094   5.218   0.376   4.103
 1065SOL    HW2 4095   5.364   0.303   4.097
 1066SOL     OW 4096   4.968   0.531   3.952
 1066SOL    HW1 4097   5.043   0.505   3.891
 1066SOL    HW2 4098   4.944   0.627   3.937
 1067SOL     OW 4099   1.967   2.505   1.816
 1067SOL    HW1 4100   1.962   2.586   1.875
 1067SOL    HW2 4101   1.938   2.529   1.724
 1068SOL     OW 4102   0.410   3.426   2.466
 1068SOL    HW1 4103   0.465   3.504   2.436
 1068SOL    HW2 4104   0.316   3.457   2.485
 1069SOL     OW 4105   4.172   4.520   1.039
 1069SOL    HW1 4106   4.265   4.525   1.076
 1069SOL    HW2 4107   4.111   4.479   1.107
 1070SOL     OW 4108   2.229   1.166   0.197
 1070SOL    HW1 4109   2.162   1.173   0.271
 1070SOL    HW2 4110   2.272   1.255   0.182
 1071SOL     OW 4111   4.213   6.365   2.663
 1071SOL    HW1 4112   4.118   6.394   2.665
 1071SOL    HW2 4113   4.268   6.424   2.722
 1072SOL     OW 4114   3.266   6.733   2.495
 1072SOL    HW1 4115   3.220   6.672   2.559
 1072SOL    HW2 4116   3.356   6.695   2.472
 1073SOL     OW 4117   2.738   4.883   2.613
 1073SOL    HW1 4118   2.727   4.843   2.704
 1073SOL    HW2 4119   2.681   4.965   2.606
 1074SOL     OW 4120   0.851   4.941   1.782
 1074SOL    HW1 4121   0.777   4.995   1.741
 1074SOL    HW2 4122   0.931   4.999   1.797
 1075SOL     OW 4123   5.417   4.240   3.558
 1075SOL    HW1 4124   5.407   4.333   3.524
 1075SOL    HW2 4125   5.502   4.233   3.610
 1076SOL     OW 4126   0.519   4.298   4.575
 1076SOL    HW1 4127   0.551   4.217   4.525
 1076SOL    HW2 4128   0.530   4.379   4.517
 1077SOL     OW 4129   5.467   0.185   1.074
 1077SOL    HW1 4130   5.484   0.147   0.983
 1077SOL    HW2 4131   5.506   0.125   1.143
 1078SOL     OW 4132   1.852   1.951   1.404
 1078SOL    HW1 4133   1.757   1.958   1.435
 1078SOL    HW2 4134   1.913   1.947   1.483
 1079SOL     OW 4135   2.355   5.693   3.384
 1079SOL    HW1 4136   2.362   5.658   3.478
 1079SOL    HW2 4137   2.445   5.727   3.355
 1080SOL     OW 4138   2.360   5.556   3.626
 1080SOL    HW1 4139   2.405   5.470   3.650
 1080SOL    HW2 4140   2.263   5.551   3.652
 1081SOL     OW 4141   1.716   1.134   6.452
 1081SOL    HW1 4142   1.654   1.060   6.476
 1081SOL    HW2 4143   1.717   1.146   6.353
 1082SOL     OW 4144   1.548   0.340   5.992
 1082SOL    HW1 4145   1.497   0.254   5.993
 1082SOL    HW2 4146   1.484   0.417   5.990
 1083SOL     OW 4147   4.004   3.323   1.798
 1083SOL    HW1 4148   4.013   3.319   1.898
 1083SOL    HW2 4149   3.986   3.417   1.770
 1084SOL     OW 4150   5.972   4.588   0.697
 1084SOL    HW1 4151   6.032   4.525   0.747
 1084SOL    HW2 4152   6.016   4.613   0.610
 1085SOL     OW 4153   1.752   5.153   4.114
 1085SOL    HW1 4154   1.742   5.253   4.117
 1085SOL    HW2 4155   1.832   5.129   4.060
 1086SOL     OW 4156   4.941   5.759   2.837
 1086SOL    HW1 4157   4.935   5.666   2.799
 1086SOL    HW2 4158   5.018   5.763   2.901
 1087SOL     OW 4159   4.853   3.072   5.254
 1087SOL    HW1 4160   4.808   3.101   5.339
 1087SOL    HW2 4161   4.876   3.152   5.199
 1088SOL     OW 4162   5.149   4.797   3.970
 1088SOL    HW1 4163   5.093   4.880   3.958
 1088SOL    HW2 4164   5.104   4.720   3.924
 1089SOL     OW 4165   6.866   0.045   5.035
 1089SOL    HW1 4166   6.792   0.112   5.026
 1089SOL    HW2 4167   6.948   0.080   4.989
 1090SOL     OW 4168   1.711   1.546   6.126
 1090SOL    HW1 4169   1.677   1.528   6.034
 1090SOL    HW2 4170   1.774   1.623   6.124
 1091SOL     OW 4171   1.464   1.701   4.921
 1091SOL    HW1 4172   1.425   1.711   5.012
 1091SOL    HW2 4173   1.551   1.652   4.927
 1092SOL     OW 4174   2.261   4.316   1.375
 1092SOL    HW1 4175   2.331   4.309   1.446
 1092SOL    HW2 4176   2.301   4.354   1.292
 1093SOL     OW 4177   1.076   2.365   2.363
 1093SOL    HW1 4178   0.978   2.350   2.373
 1093SOL    HW2 4179   1.097   2.461   2.383
 1094SOL     OW 4180   0.610   6.567   1.857
 1094SOL    HW1 4181   0.529   6.607   1.814
 1094SOL    HW2 4182   0.602   6.467   1.858
 1095SOL     OW 4183   6.075   3.068   6.427
 1095SOL    HW1 4184   6.008   3.024   6.367
 1095SOL    HW2 4185   6.144   3.000   6.455
 1096SOL     OW 4186   3.112   4.667   1.586
 1096SOL    HW1 4187   3.054   4.586   1.578
 1096SOL    HW2 4188   3.206   4.639   1.607
 1097SOL     OW 4189   1.357   4.759   4.766
 1097SOL    HW1 4190   1.396   4.818   4.695
 1097SOL    HW2 4191   1.403   4.778   4.853
 1098SOL     OW 4192   4.620   2.095   2.467
 1098SOL    HW1 4193   4.578   2.089   2.376
 1098SOL    HW2 4194   4.677   2.178   2.471
 1099SOL     OW 4195   4.039   2.230   4.313
 1099SOL    HW1 4196   4.108   2.242   4.384
 1099SOL    HW2 4197   4.076   2.260   4.225
 1100SOL     OW 4198   1.349   0.984   6.539
 1100SOL    HW1 4199   1.346   1.082   6.520
 1100SOL    HW2 4200   1.436   0.961   6.583
 1101SOL     OW 4201   4.929   3.333   1.023
 1101SOL    HW1 4202   4.849   3.361   0.970
 1101SOL    HW2 4203   4.902   3.306   1.115
 1102SOL     OW 4204   0.266   4.225   4.491
 1102SOL    HW1 4205   0.254   4.132   4.525
 1102SOL    HW2 4206   0.356   4.260   4.519
 1103SOL     OW 4207   2.143   1.602   1.513
 1103SOL    HW1 4208   2.182   1.650   1.435
 1103SOL    HW2 4209   2.071   1.539   1.481
 1104SOL     OW 4210   3.090   4.359   6.400
 1104SOL    HW1 4211   3.168   4.396   6.350
 1104SOL    HW2 4212   3.029   4.434   6.428
 1105SOL     OW 4213   4.924   3.927   6.503
 1105SOL    HW1 4214   5.007   3.969   6.540
 1105SOL    HW2 4215   4.909   3.838   6.547
 1106SOL     OW 4216   6.916   2.419   5.301
 1106SOL    HW1 4217   6.937   2.456   5.210
 1106SOL    HW2 4218   6.841   2.472   5.342
 1107SOL     OW 4219   0.972   0.651   0.713
 1107SOL    HW1 4220   0.992   0.748   0.697
 1107SOL    HW2 4221   1.004   0.626   0.805
 1108SOL     OW 4222   1.712   0.796   6.354
 1108SOL    HW1 4223   1.702   0.703   6.318
 1108SOL    HW2 4224   1.800   0.834   6.324
 1109SOL     OW 4225   4.145   6.176   4.054
 1109SOL    HW1 4226   4.163   6.257   4.110
 1109SOL    HW2 4227   4.122   6.203   3.961
 1110SOL     OW 4228   2.905   3.160   1.981
 1110SOL    HW1 4229   2.976   3.099   2.016
 1110SOL    HW2 4230   2.835   3.174   2.051
 1111SOL     OW 4231   5.704   0.701   0.277
 1111SOL    HW1 4232   5.719   0.727   0.182
 1111SOL    HW2 4233   5.791   0.669   0.317
 1112SOL     OW 4234   6.536   0.753   2.230
 1112SOL    HW1 4235   6.450   0.741   2.182
 1112SOL    HW2 4236   6.583   0.834   2.195
 1113SOL     OW 4237   6.374   3.541   2.708
 1113SOL    HW1 4238   6.321   3.456   2.707
 1113SOL    HW2 4239   6.421   3.550   2.796
 1114SOL     OW 4240   4.748   0.838   6.080
 1114SOL    HW1 4241   4.768   0.750   6.038
 1114SOL    HW2 4242   4.804   0.850   6.162
 1115SOL     OW 4243   3.435   3.325   0.805
 1115SOL    HW1 4244   3.510   3.300   0.867
 1115SOL    HW2 4245   3.349   3.289   0.840
 1116SOL     OW 4246   4.570   5.836   4.117
 1116SOL    HW1 4247   4.509   5.789   4.053
 1116SOL    HW2 4248   4.662   5.797   4.111
 1117SOL     OW 4249   2.572   2.946   1.452
 1117SOL    HW1 4250   2.671   2.939   1.459
 1117SOL    HW2 4251   2.536   2.994   1.532
 1118SOL     OW 4252   2.357   4.787   3.109
 1118SOL    HW1 4253   2.316   4.746   3.027
 1118SOL    HW2 4254   2.294   4.777   3.186
 1119SOL     OW 4255   4.275   4.125   1.673
 1119SOL    HW1 4256   4.304   4.032   1.649
 1119SOL    HW2 4257   4.339   4.163   1.740
 1120SOL     OW 4258   4.778   0.034   6.360
 1120SOL    HW1 4259   4.831   6.988   6.413
 1120SOL    HW2 4260   4.793   0.018   6.262
 1121SOL     OW 4261   4.997   2.836   1.882
 1121SOL    HW1 4262   4.928   2.903   1.910
 1121SOL    HW2 4263   4.959   2.744   1.893
 1122SOL     OW 4264   5.782   3.299   6.775
 1122SOL    HW1 4265   5.691   3.272   6.743
 1122SOL    HW2 4266   5.805   3.388   6.735
 1123SOL     OW 4267   4.678   1.107   2.011
 1123SOL    HW1 4268   4.592   1.118   1.961
 1123SOL    HW2 4269   4.749   1.161   1.966
 1124SOL     OW 4270   6.419   3.529   5.334
 1124SOL    HW1 4271   6.497   3.540   5.273
 1124SOL    HW2 4272   6.362   3.612   5.331
 1125SOL     OW 4273   2.960   3.296   4.945
 1125SOL    HW1 4274   2.963   3.373   5.008
 1125SOL    HW2 4275   3.041   3.298   4.886
 1126SOL     OW 4276   4.885   0.045   1.174
 1126SOL    HW1 4277   4.797   0.006   1.202
 1126SOL    HW2 4278   4.954   6.991   1.171
 1127SOL     OW 4279   2.692   4.825   0.784
 1127SOL    HW1 4280   2.644   4.737   0.793
 1127SOL    HW2 4281   2.766   4.830   0.851
 1128SOL     OW 4282   3.395   1.670   3.787
 1128SOL    HW1 4283   3.353   1.708   3.705
 1128SOL    HW2 4284   3.396   1.739   3.859
 1129SOL     OW 4285   4.715   0.599   6.604
 1129SOL    HW1 4286   4.692   0.696   6.603
 1129SOL    HW2 4287   4.814   0.589   6.592
 1130SOL     OW 4288   1.118   3.849   0.232
 1130SOL    HW1 4289   1.121   3.750   0.219
 1130SOL    HW2 4290   1.049   3.872   0.301
 1131SOL     OW 4291   0.388   6.152   5.565
 1131SOL    HW1 4292   0.434   6.222   5.510
 1131SOL    HW2 4293   0.395   6.063   5.520
 1132SOL     OW 4294   4.973   0.036   5.444
 1132SOL    HW1 4295   5.050   0.011   5.386
 1132SOL    HW2 4296   4.946   0.130   5.425
 1133SOL     OW 4297   0.743   3.191   1.446
 1133SOL    HW1 4298   0.834   3.152   1.429
 1133SOL    HW2 4299   0.720   3.255   1.372
 1134SOL     OW 4300   5.353   2.307   6.935
 1134SOL    HW1 4301   5.345   2.276   0.011
 1134SOL    HW2 4302   5.434   2.266   6.892
 1135SOL     OW 4303   3.095   2.177   3.561
 1135SOL    HW1 4304   3.148   2.125   3.628
 1135SOL    HW2 4305   3.030   2.236   3.610
 1136SOL     OW 4306   2.858   5.390   3.505
 1136SOL    HW1 4307   2.816   5.303   3.481
 1136SOL    HW2 4308   2.954   5.390   3.475
 1137SOL     OW 4309   1.570   1.701   6.484
 1137SOL    HW1 4310   1.638   1.758   6.440
 1137SOL    HW2 4311   1.483   1.750   6.490
 1138SOL     OW 4312   1.985   3.260   6.317
 1138SOL    HW1 4313   2.001   3.225   6.410
 1138SOL    HW2 4314   2.047   3.336   6.299
 1139SOL     OW 4315   1.307   6.174   2.998
 1139SOL    HW1 4316   1.211   6.154   3.014
 1139SOL    HW2 4317   1.321   6.274   3.000
 1140SOL     OW 4318   3.250   1.669   3.223
 1140SOL    HW1 4319   3.194   1.686   3.305
 1140SOL    HW2 4320   3.276   1.757   3.182
 1141SOL     OW 4321   6.033   5.738   4.881
 1141SOL    HW1 4322   6.067   5.655   4.925
 1141SOL    HW2 4323   6.100   5.771   4.815
 1142SOL     OW 4324   5.298   6.904   4.475
 1142SOL    HW1 4325   5.333   6.869   4.387
 1142SOL    HW2 4326   5.323   7.000   4.485
 1143SOL     OW 4327   3.724   2.079   3.233
 1143SOL    HW1 4328   3.816   2.092   3.196
 1143SOL    HW2 4329   3.720   2.113   3.327
 1144SOL     OW 4330   0.563   4.273   4.156
 1144SOL    HW1 4331   0.634   4.320   4.210
 1144SOL    HW2 4332   0.475   4.318   4.171
 1145SOL     OW 4333   6.950   5.548   4.566
 1145SOL    HW1 4334   7.014   5.497   4.624
 1145SOL    HW2 4335   6.947   5.507   4.475
 1146SOL     OW 4336   5.821   2.116   1.089
 1146SOL    HW1 4337   5.809   2.025   1.049
 1146SOL    HW2 4338   5.797   2.113   1.186
 1147SOL     OW 4339   0.433   4.069   2.401
 1147SOL    HW1 4340   0.445   4.012   2.482
 1147SOL    HW2 4341   0.478   4.157   2.415
 1148SOL     OW 4342   3.531   6.853   6.496
 1148SOL    HW1 4343   3.466   6.801   6.551
 1148SOL    HW2 4344   3.624   6.827   6.521
 1149SOL     OW 4345   6.372   3.705   3.029
 1149SOL    HW1 4346   6.450   3.646   3.005
 1149SOL    HW2 4347   6.293   3.648   3.049
 1150SOL     OW 4348   1.821   4.985   0.832
 1150SOL    HW1 4349   1.745   5.021   0.779
 1150SOL    HW2 4350   1.893   5.054   0.839
 1151SOL     OW 4351   5.921   5.048   6.298
 1151SOL    HW1 4352   5.950   4.958   6.330
 1151SOL    HW2 4353   6.001   5.101   6.269
 1152SOL     OW 4354   1.099   0.277   4.757
 1152SOL    HW1 4355   1.009   0.264   4.797
 1152SOL    HW2 4356   1.167   0.225   4.808
 1153SOL     OW 4357   2.344   5.714   2.771
 1153SOL    HW1 4358   2.352   5.669   2.683
 1153SOL    HW2 4359   2.422   5.776   2.784
 1154SOL     OW 4360   0.512   3.698   2.157
 1154SOL    HW1 4361   0.512   3.651   2.069
 1154SOL    HW2 4362   0.571   3.648   2.221
 1155SOL     OW 4363   3.753   5.961   1.591
 1155SOL    HW1 4364   3.769   6.036   1.526
 1155SOL    HW2 4365   3.674   5.983   1.648
 1156SOL     OW 4366   2.141   0.596   4.058
 1156SOL    HW1 4367   2.210   0.600   4.129
 1156SOL    HW2 4368   2.103   0.688   4.043
 1157SOL     OW 4369   6.862   2.409   4.063
 1157SOL    HW1 4370   6.787   2.361   4.018
 1157SOL    HW2 4371   6.876   2.497   4.017
 1158SOL     OW 4372   5.832   4.664   6.000
 1158SOL    HW1 4373   5.916   4.698   5.958
 1158SOL    HW2 4374   5.806   4.578   5.956
 1159SOL     OW 4375   4.040   5.649   2.842
 1159SOL    HW1 4376   4.011   5.713   2.772
 1159SOL    HW2 4377   4.003   5.558   2.822
 1160SOL     OW 4378   4.100   3.287   2.316
 1160SOL    HW1 4379   4.122   3.198   2.276
 1160SOL    HW2 4380   4.117   3.285   2.414
 1161SOL     OW 4381   5.766   0.512   3.580
 1161SOL    HW1 4382   5.834   0.455   3.534
 1161SOL    HW2 4383   5.781   0.509   3.678
 1162SOL     OW 4384   3.418   4.099   2.105
 1162SOL    HW1 4385   3.491   4.107   2.173
 1162SOL    HW2 4386   3.442   4.153   2.024
 1163SOL     OW 4387   4.936   2.357   1.956
 1163SOL    HW1 4388   4.902   2.431   1.898
 1163SOL    HW2 4389   4.907   2.269   1.918
 1164SOL     OW 4390   5.690   2.959   3.408
 1164SOL    HW1 4391   5.638   3.016   3.344
 1164SOL    HW2 4392   5.764   2.913   3.359
 1165SOL     OW 4393   0.851   3.319   3.755
 1165SOL    HW1 4394   0.814   3.227   3.767
 1165SOL    HW2 4395   0.824   3.355   3.666
 1166SOL     OW 4396   4.085   2.214   6.582
 1166SOL    HW1 4397   4.149   2.150   6.624
 1166SOL    HW2 4398   3.993   2.173   6.581
 1167SOL     OW 4399   4.474   1.080   5.047
 1167SOL    HW1 4400   4.384   1.052   5.082
 1167SOL    HW2 4401   4.462   1.152   4.979
 1168SOL     OW 4402   0.169   6.542   3.625
 1168SOL    HW1 4403   0.124   6.476   3.565
 1168SOL    HW2 4404   0.111   6.560   3.704
 1169SOL     OW 4405   1.122   3.587   1.833
 1169SOL    HW1 4406   1.026   3.609   1.852
 1169SOL    HW2 4407   1.139   3.595   1.735
 1170SOL     OW 4408   3.303   1.505   2.280
 1170SOL    HW1 4409   3.206   1.528   2.289
 1170SOL    HW2 4410   3.347   1.568   2.217
 1171SOL     OW 4411   3.165   5.773   1.346
 1171SOL    HW1 4412   3.143   5.680   1.319
 1171SOL    HW2 4413   3.259   5.776   1.380
 1172SOL     OW 4414   3.051   3.903   4.523
 1172SOL    HW1 4415   2.987   3.849   4.468
 1172SOL    HW2 4416   3.143   3.896   4.484
 1173SOL     OW 4417   2.814   0.855   5.879
 1173SOL    HW1 4418   2.755   0.932   5.900
 1173SOL    HW2 4419   2.822   0.796   5.959
 1174SOL     OW 4420   2.764   5.985   0.455
 1174SOL    HW1 4421   2.740   6.043   0.533
 1174SOL    HW2 4422   2.716   6.016   0.373
 1175SOL     OW 4423   6.198   4.582   6.255
 1175SOL    HW1 4424   6.174   4.556   6.162
 1175SOL    HW2 4425   6.236   4.503   6.303
 1176SOL     OW 4426   5.774   4.601   0.895
 1176SOL    HW1 4427   5.697   4.629   0.837
 1176SOL    HW2 4428   5.849   4.570   0.837
 1177SOL     OW 4429   6.799   3.263   5.897
 1177SOL    HW1 4430   6.825   3.357   5.919
 1177SOL    HW2 4431   6.867   3.224   5.835
 1178SOL     OW 4432   5.415   3.526   2.145
 1178SOL    HW1 4433   5.435   3.623   2.158
 1178SOL    HW2 4434   5.442   3.499   2.052
 1179SOL     OW 4435   1.625   4.545   0.035
 1179SOL    HW1 4436   1.678   4.607   6.996
 1179SOL    HW2 4437   1.685   4.507   0.106
 1180SOL     OW 4438   2.108   1.876   3.991
 1180SOL    HW1 4439   2.056   1.959   3.968
 1180SOL    HW2 4440   2.090   1.805   3.924
 1181SOL     OW 4441   1.524   4.466   3.997
 1181SOL    HW1 4442   1.574   4.380   3.987
 1181SOL    HW2 4443   1.432   4.456   3.959
 1182SOL     OW 4444   2.308   4.297   3.841
 1182SOL    HW1 4445   2.273   4.252   3.923
 1182SOL    HW2 4446   2.365   4.233   3.790
 1183SOL     OW 4447   4.338   6.255   1.586
 1183SOL    HW1 4448   4.353   6.344   1.628
 1183SOL    HW2 4449   4.348   6.183   1.655
 1184SOL     OW 4450   3.192   2.874   5.193
 1184SOL    HW1 4451   3.257   2.809   5.230
 1184SOL    HW2 4452   3.109   2.875   5.249
 1185SOL     OW 4453   1.783   0.285   0.001
 1185SOL    HW1 4454   1.868   0.293   0.054
 1185SOL    HW2 4455   1.723   0.218   0.044
 1186SOL     OW 4456   5.740   0.377   4.612
 1186SOL    HW1 4457   5.779   0.350   4.524
 1186SOL    HW2 4458   5.810   0.422   4.667
 1187SOL     OW 4459   6.127   6.676   5.202
 1187SOL    HW1 4460   6.182   6.734   5.142
 1187SOL    HW2 4461   6.037   6.717   5.213
 1188SOL     OW 4462   2.110   6.597   5.845
 1188SOL    HW1 4463   2.063   6.681   5.872
 1188SOL    HW2 4464   2.053   6.518   5.867
 1189SOL     OW 4465   5.874   1.232   1.176
 1189SOL    HW1 4466   5.802   1.223   1.107
 1189SOL    HW2 4467   5.898   1.141   1.210
 1190SOL     OW 4468   4.543   5.280   2.984
 1190SOL    HW1 4469   4.585   5.363   2.947
 1190SOL    HW2 4470   4.612   5.207   2.989
 1191SOL     OW 4471   3.071   5.254   5.800
 1191SOL    HW1 4472   3.016   5.259   5.717
 1191SOL    HW2 4473   3.149   5.316   5.792
 1192SOL     OW 4474   6.039   5.184   3.005
 1192SOL    HW1 4475   6.028   5.284   3.001
 1192SOL    HW2 4476   6.008   5.144   2.919
 1193SOL     OW 4477   4.627   0.480   4.264
 1193SOL    HW1 4478   4.639   0.531   4.179
 1193SOL    HW2 4479   4.699   0.503   4.328
 1194SOL     OW 4480   6.375   0.939   0.665
 1194SOL    HW1 4481   6.420   0.965   0.579
 1194SOL    HW2 4482   6.331   0.850   0.654
 1195SOL     OW 4483   5.609   0.707   6.079
 1195SOL    HW1 4484   5.583   0.754   6.163
 1195SOL    HW2 4485   5.556   0.622   6.071
 1196SOL     OW 4486   0.013   5.385   2.545
 1196SOL    HW1 4487   0.057   5.465   2.586
 1196SOL    HW2 4488   0.076   5.341   2.481
 1197SOL     OW 4489   3.770   5.659   5.576
 1197SOL    HW1 4490   3.688   5.714   5.559
 1197SOL    HW2 4491   3.745   5.562   5.576
 1198SOL     OW 4492   3.341   1.945   3.181
 1198SOL    HW1 4493   3.391   1.994   3.110
 1198SOL    HW2 4494   3.278   2.008   3.227
 1199SOL     OW 4495   3.250   4.166   1.634
 1199SOL    HW1 4496   3.243   4.141   1.731
 1199SOL    HW2 4497   3.176   4.121   1.583
 1200SOL     OW 4498   4.345   4.240   6.624
 1200SOL    HW1 4499   4.429   4.221   6.673
 1200SOL    HW2 4500   4.267   4.233   6.687
 1201SOL     OW 4501   1.366   1.612   4.557
 1201SOL    HW1 4502   1.409   1.528   4.591
 1201SOL    HW2 4503   1.430   1.689   4.567
 1202SOL     OW 4504   5.382   0.139   4.545
 1202SOL    HW1 4505   5.360   0.140   4.643
 1202SOL    HW2 4506   5.324   0.205   4.498
 1203SOL     OW 4507   5.262   0.362   1.043
 1203SOL    HW1 4508   5.328   0.293   1.071
 1203SOL    HW2 4509   5.170   0.321   1.040
 1204SOL     OW 4510   3.626   0.748   0.535
 1204SOL    HW1 4511   3.565   0.806   0.481
 1204SOL    HW2 4512   3.587   0.733   0.625
 1205SOL     OW 4513   5.967   1.969   5.754
 1205SOL    HW1 4514   5.993   2.064   5.772
 1205SOL    HW2 4515   5.920   1.964   5.665
 1206SOL     OW 4516   1.956   1.504   4.866
 1206SOL    HW1 4517   2.051   1.535   4.865
 1206SOL    HW2 4518   1.954   1.404   4.868
 1207SOL     OW 4519   6.096   0.154   0.252
 1207SOL    HW1 4520   6.057   0.246   0.244
 1207SOL    HW2 4521   6.181   0.158   0.305
 1208SOL     OW 4522   3.928   3.656   2.748
 1208SOL    HW1 4523   3.851   3.658   2.684
 1208SOL    HW2 4524   3.895   3.669   2.841
 1209SOL     OW 4525   6.145   5.417   4.806
 1209SOL    HW1 4526   6.083   5.456   4.738
 1209SOL    HW2 4527   6.217   5.364   4.760
 1210SOL     OW 4528   4.220   0.163   2.790
 1210SOL    HW1 4529   4.257   0.246   2.748
 1210SOL    HW2 4530   4.225   0.172   2.889
 1211SOL     OW 4531   1.611   3.912   3.872
 1211SOL    HW1 4532   1.517   3.890   3.846
 1211SOL    HW2 4533   1.661   3.828   3.893
 1212SOL     OW 4534   1.089   4.082   4.360
 1212SOL    HW1 4535   1.183   4.067   4.390
 1212SOL    HW2 4536   1.027   4.020   4.408
 1213SOL     OW 4537   6.309   2.948   5.471
 1213SOL    HW1 4538   6.373   2.966   5.396
 1213SOL    HW2 4539   6.236   2.887   5.439
 1214SOL     OW 4540   1.507   3.517   4.131
 1214SOL    HW1 4541   1.576   3.525   4.059
 1214SOL    HW2 4542   1.510   3.598   4.190
 1215SOL     OW 4543   1.478   3.932   3.010
 1215SOL    HW1 4544   1.490   3.868   3.086
 1215SOL    HW2 4545   1.469   4.025   3.046
 1216SOL     OW 4546   1.284   0.077   1.719
 1216SOL    HW1 4547   1.325   0.168   1.725
 1216SOL    HW2 4548   1.222   0.073   1.640
 1217SOL     OW 4549   1.432   6.664   1.091
 1217SOL    HW1 4550   1.449   6.609   1.173
 1217SOL    HW2 4551   1.509   6.654   1.028
 1218SOL     OW 4552   0.265   3.467   4.494
 1218SOL    HW1 4553   0.165   3.469   4.489
 1218SOL    HW2 4554   0.297   3.538   4.557
 1219SOL     OW 4555   3.726   6.106   1.178
 1219SOL    HW1 4556   3.777   6.134   1.096
 1219SOL    HW2 4557   3.783   6.122   1.259
 1220SOL     OW 4558   5.914   2.704   3.026
 1220SOL    HW1 4559   5.929   2.631   3.092
 1220SOL    HW2 4560   5.958   2.788   3.058
 1221SOL     OW 4561   4.894   3.314   0.647
 1221SOL    HW1 4562   4.902   3.403   0.693
 1221SOL    HW2 4563   4.813   3.314   0.589
 1222SOL     OW 4564   0.287   6.768   1.069
 1222SOL    HW1 4565   0.233   6.852   1.076
 1222SOL    HW2 4566   0.383   6.791   1.058
 1223SOL     OW 4567   6.087   0.058   6.001
 1223SOL    HW1 4568   6.000   0.103   5.977
 1223SOL    HW2 4569   6.081   0.023   6.094
 1224SOL     OW 4570   4.348   5.654   0.972
 1224SOL    HW1 4571   4.336   5.699   1.061
 1224SOL    HW2 4572   4.433   5.601   0.973
 1225SOL     OW 4573   4.638   1.818   0.536
 1225SOL    HW1 4574   4.712   1.855   0.591
 1225SOL    HW2 4575   4.675   1.756   0.467
 1226SOL     OW 4576   6.163   6.223   1.392
 1226SOL    HW1 4577   6.209   6.135   1.397
 1226SOL    HW2 4578   6.211   6.283   1.328
 1227SOL     OW 4579   5.468   4.007   5.483
 1227SOL    HW1 4580   5.393   4.031   5.544
 1227SOL    HW2 4581   5.547   4.066   5.503
 1228SOL     OW 4582   3.621   3.177   2.322
 1228SOL    HW1 4583   3.580   3.230   2.396
 1228SOL    HW2 4584   3.550   3.153   2.255
 1229SOL     OW 4585   1.754   6.150   2.490
 1229SOL    HW1 4586   1.802   6.235   2.471
 1229SOL    HW2 4587   1.764   6.087   2.413
 1230SOL     OW 4588   5.031   5.108   1.511
 1230SOL    HW1 4589   5.044   5.206   1.527
 1230SOL    HW2 4590   4.945   5.093   1.462
 1231SOL     OW 4591   1.911   2.188   6.540
 1231SOL    HW1 4592   1.956   2.213   6.455
 1231SOL    HW2 4593   1.841   2.256   6.562
 1232SOL     OW 4594   3.126   0.579   5.278
 1232SOL    HW1 4595   3.104   0.492   5.235
 1232SOL    HW2 4596   3.049   0.611   5.333
 1233SOL     OW 4597   0.197   5.428   3.995
 1233SOL    HW1 4598   0.154   5.518   3.990
 1233SOL    HW2 4599   0.223   5.409   4.090
 1234SOL     OW 4600   6.752   3.385   6.732
 1234SOL    HW1 4601   6.726   3.289   6.719
 1234SOL    HW2 4602   6.843   3.390   6.772
 1235SOL     OW 4603   6.359   5.082   0.605
 1235SOL    HW1 4604   6.426   5.152   0.580
 1235SOL    HW2 4605   6.276   5.094   0.550
 1236SOL     OW 4606   2.322   0.900   1.173
 1236SOL    HW1 4607   2.374   0.896   1.088
 1236SOL    HW2 4608   2.381   0.933   1.247
 1237SOL     OW 4609   1.240   0.218   4.981
 1237SOL    HW1 4610   1.195   0.134   5.011
 1237SOL    HW2 4611   1.240   0.284   5.056
 1238SOL     OW 4612   0.216   0.071   4.056
 1238SOL    HW1 4613   0.306   0.028   4.055
 1238SOL    HW2 4614   0.168   0.050   3.970
 1239SOL     OW 4615   5.722   5.096   4.371
 1239SOL    HW1 4616   5.813   5.139   4.371
 1239SOL    HW2 4617   5.726   5.011   4.423
 1240SOL     OW 4618   5.473   4.837   2.957
 1240SOL    HW1 4619   5.463   4.785   3.042
 1240SOL    HW2 4620   5.387   4.885   2.938
 1241SOL     OW 4621   5.539   4.971   4.188
 1241SOL    HW1 4622   5.612   5.026   4.227
 1241SOL    HW2 4623   5.576   4.911   4.117
 1242SOL     OW 4624   1.360   4.518   6.970
 1242SOL    HW1 4625   1.441   4.553   7.017
 1242SOL    HW2 4626   1.318   4.446   0.006
 1243SOL     OW 4627   1.006   4.337   4.778
 1243SOL    HW1 4628   0.991   4.249   4.822
 1243SOL    HW2 4629   1.086   4.382   4.819
 1244SOL     OW 4630   5.404   6.195   4.794
 1244SOL    HW1 4631   5.356   6.220   4.709
 1244SOL    HW2 4632   5.482   6.256   4.808
 1245SOL     OW 4633   5.470   6.275   2.221
 1245SOL    HW1 4634   5.372   6.279   2.237
 1245SOL    HW2 4635   5.498   6.181   2.203
 1246SOL     OW 4636   4.859   1.829   0.730
 1246SOL    HW1 4637   4.806   1.793   0.807
 1246SOL    HW2 4638   4.907   1.912   0.758
 1247SOL     OW 4639   6.652   6.723   3.521
 1247SOL    HW1 4640   6.630   6.779   3.441
 1247SOL    HW2 4641   6.580   6.732   3.589
 1248SOL     OW 4642   0.372   6.933   4.909
 1248SOL    HW1 4643   0.308   6.986   4.964
 1248SOL    HW2 4644   0.464   6.969   4.920
 1249SOL     OW 4645   6.933   4.684   0.319
 1249SOL    HW1 4646   0.009   4.653   0.332
 1249SOL    HW2 4647   6.880   4.664   0.401
 1250SOL     OW 4648   5.704   3.003   5.412
 1250SOL    HW1 4649   5.707   2.973   5.508
 1250SOL    HW2 4650   5.796   3.033   5.384
 1251SOL     OW 4651   2.527   0.593   2.433
 1251SOL    HW1 4652   2.574   0.511   2.467
 1251SOL    HW2 4653   2.484   0.572   2.345
 1252SOL     OW 4654   2.092   5.396   0.295
 1252SOL    HW1 4655   2.066   5.356   0.383
 1252SOL    HW2 4656   2.107   5.323   0.229
 1253SOL     OW 4657   3.236   1.183   1.472
 1253SOL    HW1 4658   3.246   1.280   1.493
 1253SOL    HW2 4659   3.314   1.132   1.509
 1254SOL     OW 4660   6.425   1.275   2.423
 1254SOL    HW1 4661   6.347   1.216   2.404
 1254SOL    HW2 4662   6.395   1.355   2.476
 1255SOL     OW 4663   5.439   1.747   4.685
 1255SOL    HW1 4664   5.392   1.695   4.614
 1255SOL    HW2 4665   5.403   1.720   4.775
 1256SOL     OW 4666   0.256   6.266   4.450
 1256SOL    HW1 4667   0.305   6.179   4.446
 1256SOL    HW2 4668   0.278   6.321   4.370
 1257SOL     OW 4669   0.403   4.995   3.636
 1257SOL    HW1 4670   0.393   5.027   3.542
 1257SOL    HW2 4671   0.316   4.958   3.668
 1258SOL     OW 4672   3.291   6.490   4.857
 1258SOL    HW1 4673   3.229   6.411   4.848
 1258SOL    HW2 4674   3.358   6.488   4.782
 1259SOL     OW 4675   5.329   0.132   4.814
 1259SOL    HW1 4676   5.373   0.070   4.880
 1259SOL    HW2 4677   5.277   0.201   4.864
 1260SOL     OW 4678   1.852   0.249   1.876
 1260SOL    HW1 4679   1.933   0.203   1.839
 1260SOL    HW2 4680   1.880   0.321   1.939
 1261SOL     OW 4681   7.000   4.568   6.333
 1261SOL    HW1 4682   0.076   4.575   6.300
 1261SOL    HW2 4683   6.999   4.528   6.424
 1262SOL     OW 4684   5.651   5.525   0.533
 1262SOL    HW1 4685   5.687   5.532   0.626
 1262SOL    HW2 4686   5.696   5.449   0.486
 1263SOL     OW 4687   0.687   2.339   1.305
 1263SOL    HW1 4688   0.685   2.406   1.230
 1263SOL    HW2 4689   0.721   2.383   1.387
 1264SOL     OW 4690   0.955   3.492   3.308
 1264SOL    HW1 4691   1.036   3.548   3.325
 1264SOL    HW2 4692   0.900   3.488   3.392
 1265SOL     OW 4693   6.772   4.558   4.825
 1265SOL    HW1 4694   6.773   4.656   4.807
 1265SOL    HW2 4695   6.791   4.542   4.922
 1266SOL     OW 4696   2.846   1.789   5.249
 1266SOL    HW1 4697   2.807   1.742   5.327
 1266SOL    HW2 4698   2.834   1.733   5.167
 1267SOL     OW 4699   0.181   5.177   3.167
 1267SOL    HW1 4700   0.262   5.210   3.118
 1267SOL    HW2 4701   0.208   5.113   3.239
 1268SOL     OW 4702   5.178   2.683   6.528
 1268SOL    HW1 4703   5.181   2.667   6.627
 1268SOL    HW2 4704   5.266   2.658   6.488
 1269SOL     OW 4705   6.810   5.848   5.341
 1269SOL    HW1 4706   6.836   5.798   5.424
 1269SOL    HW2 4707   6.820   5.789   5.261
 1270SOL     OW 4708   2.146   3.724   4.519
 1270SOL    HW1 4709   2.140   3.773   4.432
 1270SOL    HW2 4710   2.084   3.646   4.517
 1271SOL     OW 4711   3.120   1.776   2.553
 1271SOL    HW1 4712   3.085   1.682   2.559
 1271SOL    HW2 4713   3.044   1.840   2.555
 1272SOL     OW 4714   6.720   5.226   1.612
 1272SOL    HW1 4715   6.721   5.136   1.657
 1272SOL    HW2 4716   6.703   5.297   1.680
 1273SOL     OW 4717   2.507   4.673   6.475
 1273SOL    HW1 4718   2.422   4.639   6.435
 1273SOL    HW2 4719   2.539   4.752   6.424
 1274SOL     OW 4720   6.971   2.819   1.981
 1274SOL    HW1 4721   0.040   2.859   2.006
 1274SOL    HW2 4722   6.901   2.849   2.046
 1275SOL     OW 4723   4.380   0.937   4.774
 1275SOL    HW1 4724   4.385   1.002   4.699
 1275SOL    HW2 4725   4.472   0.911   4.803
 1276SOL     OW 4726   0.288   0.796   2.112
 1276SOL    HW1 4727   0.354   0.872   2.109
 1276SOL    HW2 4728   0.206   0.821   2.061
 1277SOL     OW 4729   6.792   0.744   4.645
 1277SOL    HW1 4730   6.866   0.787   4.593
 1277SOL    HW2 4731   6.721   0.812   4.663
 1278SOL     OW 4732   2.130   1.757   5.316
 1278SOL    HW1 4733   2.216   1.710   5.335
 1278SOL    HW2 4734   2.148   1.853   5.296
 1279SOL     OW 4735   2.695   6.121   0.167
 1279SOL    HW1 4736   2.632   6.198   0.182
 1279SOL    HW2 4737   2.643   6.041   0.139
 1280SOL     OW 4738   2.244   0.288   3.042
 1280SOL    HW1 4739   2.252   0.196   3.082
 1280SOL    HW2 4740   2.205   0.281   2.951
 1281SOL     OW 4741   1.554   6.201   3.204
 1281SOL    HW1 4742   1.515   6.176   3.115
 1281SOL    HW2 4743   1.512   6.145   3.276
 1282SOL     OW 4744   0.779   1.592   1.285
 1282SOL    HW1 4745   0.874   1.618   1.265
 1282SOL    HW2 4746   0.725   1.595   1.201
 1283SOL     OW 4747   5.399   4.537   5.296
 1283SOL    HW1 4748   5.444   4.575   5.376
 1283SOL    HW2 4749   5.305   4.512   5.319
 1284SOL     OW 4750   3.068   2.678   1.766
 1284SOL    HW1 4751   3.094   2.647   1.675
 1284SOL    HW2 4752   3.044   2.599   1.823
 1285SOL     OW 4753   4.852   2.647   5.833
 1285SOL    HW1 4754   4.756   2.633   5.808
 1285SOL    HW2 4755   4.911   2.600   5.767
 1286SOL     OW 4756   5.534   4.120   2.217
 1286SOL    HW1 4757   5.436   4.110   2.200
 1286SOL    HW2 4758   5.584   4.056   2.159
 1287SOL     OW 4759   5.810   5.636   6.847
 1287SOL    HW1 4760   5.859   5.569   6.903
 1287SOL    HW2 4761   5.845   5.633   6.753
 1288SOL     OW 4762   0.108   2.787   6.908
 1288SOL    HW1 4763   0.157   2.809   6.993
 1288SOL    HW2 4764   0.087   2.872   6.859
 1289SOL     OW 4765   6.633   6.049   2.447
 1289SOL    HW1 4766   6.542   6.036   2.406
 1289SOL    HW2 4767   6.625   6.110   2.526
 1290SOL     OW 4768   0.821   0.256   6.759
 1290SOL    HW1 4769   0.887   0.214   6.697
 1290SOL    HW2 4770   0.805   0.351   6.732
 1291SOL     OW 4771   1.380   5.673   6.294
 1291SOL    HW1 4772   1.394   5.764   6.254
 1291SOL    HW2 4773   1.443   5.660   6.370
 1292SOL     OW 4774   0.116   4.940   0.844
 1292SOL    HW1 4775   0.207   4.979   0.859
 1292SOL    HW2 4776   0.056   4.963   0.920
 1293SOL     OW 4777   1.776   1.631   0.012
 1293SOL    HW1 4778   1.753   1.680   0.096
 1293SOL    HW2 4779   1.826   1.692   6.969
 1294SOL     OW 4780   0.550   3.205   2.339
 1294SOL    HW1 4781   0.485   3.275   2.369
 1294SOL    HW2 4782   0.618   3.190   2.412
 1295SOL     OW 4783   5.567   3.190   1.858
 1295SOL    HW1 4784   5.496   3.181   1.789
 1295SOL    HW2 4785   5.582   3.102   1.903
 1296SOL     OW 4786   3.567   2.270   6.595
 1296SOL    HW1 4787   3.589   2.328   6.673
 1296SOL    HW2 4788   3.483   2.303   6.552
 1297SOL     OW 4789   6.723   1.625   5.782
 1297SOL    HW1 4790   6.632   1.613   5.743
 1297SOL    HW2 4791   6.789   1.638   5.708
 1298SOL     OW 4792   5.342   3.144   2.415
 1298SOL    HW1 4793   5.359   3.114   2.322
 1298SOL    HW2 4794   5.404   3.097   2.478
 1299SOL     OW 4795   1.451   4.356   3.640
 1299SOL    HW1 4796   1.386   4.430   3.625
 1299SOL    HW2 4797   1.413   4.291   3.706
 1300SOL     OW 4798   2.815   3.679   1.851
 1300SOL    HW1 4799   2.811   3.601   1.914
 1300SOL    HW2 4800   2.722   3.706   1.825
 1301SOL     OW 4801   0.638   6.667   3.922
 1301SOL    HW1 4802   0.666   6.592   3.981
 1301SOL    HW2 4803   0.547   6.650   3.886
 1302SOL     OW 4804   2.914   6.697   5.571
 1302SOL    HW1 4805   2.815   6.695   5.585
 1302SOL    HW2 4806   2.958   6.747   5.646
 1303SOL     OW 4807   3.910   1.604   1.082
 1303SOL    HW1 4808   3.926   1.679   1.018
 1303SOL    HW2 4809   3.817   1.610   1.118
 1304SOL     OW 4810   2.016   0.233   6.153
 1304SOL    HW1 4811   1.937   0.203   6.206
 1304SOL    HW2 4812   2.093   0.171   6.171
 1305SOL     OW 4813   4.840   6.428   4.369
 1305SOL    HW1 4814   4.831   6.415   4.468
 1305SOL    HW2 4815   4.873   6.520   4.350
 1306SOL     OW 4816   0.922   3.959   4.509
 1306SOL    HW1 4817   0.873   3.875   4.487
 1306SOL    HW2 4818   0.874   4.008   4.581
 1307SOL     OW 4819   1.245   3.393   5.103
 1307SOL    HW1 4820   1.176   3.428   5.167
 1307SOL    HW2 4821   1.299   3.322   5.147
 1308SOL     OW 4822   4.194   5.733   4.403
 1308SOL    HW1 4823   4.098   5.760   4.412
 1308SOL    HW2 4824   4.206   5.639   4.436
 1309SOL     OW 4825   5.352   2.758   5.057
 1309SOL    HW1 4826   5.261   2.791   5.033
 1309SOL    HW2 4827   5.396   2.823   5.119
 1310SOL     OW 4828   6.025   4.123   4.213
 1310SOL    HW1 4829   5.952   4.108   4.146
 1310SOL    HW2 4830   6.112   4.139   4.165
 1311SOL     OW 4831   5.915   6.871   4.657
 1311SOL    HW1 4832   5.943   6.791   4.710
 1311SOL    HW2 4833   5.995   6.910   4.611
 1312SOL     OW 4834   1.000   0.066   0.219
 1312SOL    HW1 4835   1.013   0.106   0.310
 1312SOL    HW2 4836   1.088   0.068   0.170
 1313SOL     OW 4837   3.105   5.612   5.100
 1313SOL    HW1 4838   3.196   5.574   5.119
 1313SOL    HW2 4839   3.076   5.670   5.176
 1314SOL     OW 4840   1.458   1.357   5.619
 1314SOL    HW1 4841   1.368   1.327   5.652
 1314SOL    HW2 4842   1.516   1.277   5.604
 1315SOL     OW 4843   2.113   1.354   1.053
 1315SOL    HW1 4844   2.051   1.324   0.979
 1315SOL    HW2 4845   2.203   1.314   1.038
 1316SOL     OW 4846   2.250   0.482   3.530
 1316SOL    HW1 4847   2.223   0.453   3.622
 1316SOL    HW2 4848   2.174   0.466   3.467
 1317SOL     OW 4849   0.718   4.588   4.471
 1317SOL    HW1 4850   0.735   4.545   4.560
 1317SOL    HW2 4851   0.742   4.523   4.398
 1318SOL     OW 4852   0.241   0.930   0.621
 1318SOL    HW1 4853   0.146   0.956   0.610
 1318SOL    HW2 4854   0.249   0.830   0.620
 1319SOL     OW 4855   0.173   1.010   0.942
 1319SOL    HW1 4856   0.193   1.097   0.897
 1319SOL    HW2 4857   0.252   0.983   0.997
 1320SOL     OW 4858   5.877   4.451   6.223
 1320SOL    HW1 4859   5.870   4.551   6.221
 1320SOL    HW2 4860   5.923   4.422   6.307
 1321SOL     OW 4861   4.158   3.504   6.893
 1321SOL    HW1 4862   4.229   3.574   6.886
 1321SOL    HW2 4863   4.091   3.532   6.962
 1322SOL     OW 4864   6.038   1.234   3.679
 1322SOL    HW1 4865   6.070   1.165   3.615
 1322SOL    HW2 4866   5.955   1.278   3.643
 1323SOL     OW 4867   7.002   1.372   5.209
 1323SOL    HW1 4868   6.924   1.315   5.183
 1323SOL    HW2 4869   7.003   1.386   5.308
 1324SOL     OW 4870   1.570   2.666   1.634
 1324SOL    HW1 4871   1.471   2.679   1.627
 1324SOL    HW2 4872   1.602   2.616   1.553
 1325SOL     OW 4873   1.830   6.155   3.363
 1325SOL    HW1 4874   1.833   6.065   3.407
 1325SOL    HW2 4875   1.738   6.170   3.326
 1326SOL     OW 4876   5.139   2.432   4.837
 1326SOL    HW1 4877   5.057   2.481   4.809
 1326SOL    HW2 4878   5.164   2.458   4.930
 1327SOL     OW 4879   2.673   5.447   2.953
 1327SOL    HW1 4880   2.578   5.464   2.980
 1327SOL    HW2 4881   2.691   5.349   2.955
 1328SOL     OW 4882   2.130   1.834   6.290
 1328SOL    HW1 4883   2.077   1.786   6.359
 1328SOL    HW2 4884   2.165   1.920   6.328
 1329SOL     OW 4885   0.672   1.711   0.390
 1329SOL    HW1 4886   0.740   1.718   0.464
 1329SOL    HW2 4887   0.585   1.749   0.421
 1330SOL     OW 4888   6.755   0.997   0.892
 1330SOL    HW1 4889   6.815   0.978   0.970
 1330SOL    HW2 4890   6.665   0.958   0.910
 1331SOL     OW 4891   6.300   0.798   2.083
 1331SOL    HW1 4892   6.225   0.806   2.148
 1331SOL    HW2 4893   6.307   0.881   2.028
 1332SOL     OW 4894   4.238   2.132   1.513
 1332SOL    HW1 4895   4.150   2.132   1.560
 1332SOL    HW2 4896   4.311   2.116   1.579
 1333SOL     OW 4897   3.584   4.191   4.550
 1333SOL    HW1 4898   3.594   4.288   4.573
 1333SOL    HW2 4899   3.674   4.152   4.532
 1334SOL     OW 4900   1.588   4.161   4.663
 1334SOL    HW1 4901   1.672   4.195   4.704
 1334SOL    HW2 4902   1.584   4.061   4.671
 1335SOL     OW 4903   2.384   6.290   2.972
 1335SOL    HW1 4904   2.348   6.379   3.001
 1335SOL    HW2 4905   2.407   6.236   3.053
 1336SOL     OW 4906   1.387   1.897   6.405
 1336SOL    HW1 4907   1.314   1.928   6.466
 1336SOL    HW2 4908   1.351   1.883   6.313
 1337SOL     OW 4909   2.087   2.292   6.307
 1337SOL    HW1 4910   2.131   2.378   6.330
 1337SOL    HW2 4911   2.149   2.216   6.326
 1338SOL     OW 4912   4.185   4.642   6.261
 1338SOL    HW1 4913   4.227   4.556   6.230
 1338SOL    HW2 4914   4.235   4.678   6.339
 1339SOL     OW 4915   0.245   4.372   6.128
 1339SOL    HW1 4916   0.168   4.354   6.067
 1339SOL    HW2 4917   0.247   4.303   6.200
 1340SOL     OW 4918   1.176   2.474   0.151
 1340SOL    HW1 4919   1.262   2.461   0.102
 1340SOL    HW2 4920   1.120   2.392   0.144
 1341SOL     OW 4921   3.503   0.884   4.315
 1341SOL    HW1 4922   3.446   0.965   4.330
 1341SOL    HW2 4923   3.493   0.822   4.393
 1342SOL     OW 4924   0.488   6.217   6.301
 1342SOL    HW1 4925   0.481   6.152   6.377
 1342SOL    HW2 4926   0.540   6.297   6.330
 1343SOL     OW 4927   3.608   6.330   2.274
 1343SOL    HW1 4928   3.649   6.407   2.225
 1343SOL    HW2 4929   3.679   6.264   2.298
 1344SOL     OW 4930   6.474   1.686   2.875
 1344SOL    HW1 4931   6.563   1.653   2.843
 1344SOL    HW2 4932   6.414   1.609   2.893
 1345SOL     OW 4933   0.814   0.934   3.288
 1345SOL    HW1 4934   0.794   1.003   3.358
 1345SOL    HW2 4935   0.867   0.975   3.214
 1346SOL     OW 4936   0.318   6.977   3.625
 1346SOL    HW1 4937   0.351   6.893   3.582
 1346SOL    HW2 4938   0.263   0.010   3.559
 1347SOL     OW 4939   6.423   6.181   2.861
 1347SOL    HW1 4940   6.377   6.244   2.923
 1347SOL    HW2 4941   6.401   6.205   2.766
 1348SOL     OW 4942   5.645   4.343   4.116
 1348SOL    HW1 4943   5.661   4.397   4.034
 1348SOL    HW2 4944   5.556   4.367   4.156
 1349SOL     OW 4945   4.108   2.834   6.917
 1349SOL    HW1 4946   4.132   2.745   6.955
 1349SOL    HW2 4947   4.012   2.835   6.891
 1350SOL     OW 4948   3.343   6.284   6.945
 1350SOL    HW1 4949   3.253   6.242   6.963
 1350SOL    HW2 4950   3.413   6.235   6.997
 1351SOL     OW 4951   0.132   0.631   4.448
 1351SOL    HW1 4952   0.094   0.544   4.477
 1351SOL    HW2 4953   0.080   0.706   4.489
 1352SOL     OW 4954   6.694   0.844   3.114
 1352SOL    HW1 4955   6.664   0.895   3.033
 1352SOL    HW2 4956   6.665   0.893   3.197
 1353SOL     OW 4957   0.151   4.022   5.039
 1353SOL    HW1 4958   0.158   4.101   5.099
 1353SOL    HW2 4959   0.144   3.939   5.093
 1354SOL     OW 4960   0.376   0.752   1.481
 1354SOL    HW1 4961   0.332   0.748   1.391
 1354SOL    HW2 4962   0.378   0.847   1.513
 1355SOL     OW 4963   5.442   4.063   0.152
 1355SOL    HW1 4964   5.436   4.145   0.209
 1355SOL    HW2 4965   5.351   4.023   0.142
 1356SOL     OW 4966   3.511   3.919   2.735
 1356SOL    HW1 4967   3.513   3.884   2.641
 1356SOL    HW2 4968   3.582   3.989   2.745
 1357SOL     OW 4969   2.399   3.362   6.202
 1357SOL    HW1 4970   2.404   3.265   6.176
 1357SOL    HW2 4971   2.436   3.418   6.128
 1358SOL     OW 4972   2.137   2.694   6.531
 1358SOL    HW1 4973   2.177   2.781   6.560
 1358SOL    HW2 4974   2.130   2.633   6.609
 1359SOL     OW 4975   6.185   3.751   1.180
 1359SOL    HW1 4976   6.285   3.748   1.177
 1359SOL    HW2 4977   6.155   3.839   1.214
 1360SOL     OW 4978   3.549   3.599   3.347
 1360SOL    HW1 4979   3.506   3.654   3.275
 1360SOL    HW2 4980   3.622   3.652   3.389
 1361SOL     OW 4981   0.827   6.463   6.301
 1361SOL    HW1 4982   0.901   6.426   6.358
 1361SOL    HW2 4983   0.739   6.429   6.336
 1362SOL     OW 4984   2.992   3.324   5.789
 1362SOL    HW1 4985   2.911   3.265   5.794
 1362SOL    HW2 4986   2.964   3.417   5.768
 1363SOL     OW 4987   6.597   6.027   3.180
 1363SOL    HW1 4988   6.674   5.966   3.160
 1363SOL    HW2 4989   6.602   6.108   3.122
 1364SOL     OW 4990   6.685   3.036   0.717
 1364SOL    HW1 4991   6.679   2.977   0.797
 1364SOL    HW2 4992   6.658   2.984   0.635
 1365SOL     OW 4993   0.686   3.254   5.953
 1365SOL    HW1 4994   0.676   3.165   5.909
 1365SOL    HW2 4995   0.716   3.242   6.047
 1366SOL     OW 4996   6.867   2.605   0.668
 1366SOL    HW1 4997   6.837   2.697   0.642
 1366SOL    HW2 4998   6.808   2.537   0.623
 1367SOL     OW 4999   0.624   4.370   3.826
 1367SOL    HW1 5000   0.574   4.450   3.858
 1367SOL    HW2 5001   0.577   4.331   3.747
 1368SOL     OW 5002   6.832   0.225   4.594
 1368SOL    HW1 5003   6.929   0.245   4.604
 1368SOL    HW2 5004   6.814   0.193   4.501
 1369SOL     OW 5005   1.817   5.991   2.299
 1369SOL    HW1 5006   1.809   5.893   2.283
 1369SOL    HW2 5007   1.766   6.041   2.228
 1370SOL     OW 5008   6.756   1.966   4.166
 1370SOL    HW1 5009   6.708   1.952   4.079
 1370SOL    HW2 5010   6.852   1.985   4.148
 1371SOL     OW 5011   5.902   1.074   4.626
 1371SOL    HW1 5012   5.810   1.037   4.637
 1371SOL    HW2 5013   5.899   1.174   4.630
 1372SOL     OW 5014   6.528   2.954   0.329
 1372SOL    HW1 5015   6.543   2.856   0.338
 1372SOL    HW2 5016   6.469   2.986   0.403
 1373SOL     OW 5017   4.506   2.647   1.638
 1373SOL    HW1 5018   4.558   2.682   1.716
 1373SOL    HW2 5019   4.513   2.712   1.562
 1374SOL     OW 5020   4.759   3.538   0.355
 1374SOL    HW1 5021   4.678   3.586   0.322
 1374SOL    HW2 5022   4.738   3.489   0.439
 1375SOL     OW 5023   0.038   6.091   5.363
 1375SOL    HW1 5024   6.986   6.076   5.432
 1375SOL    HW2 5025   0.044   6.188   5.342
 1376SOL     OW 5026   2.904   4.977   6.055
 1376SOL    HW1 5027   2.826   5.014   6.003
 1376SOL    HW2 5028   2.981   5.040   6.049
 1377SOL     OW 5029   1.278   2.411   3.439
 1377SOL    HW1 5030   1.248   2.437   3.531
 1377SOL    HW2 5031   1.339   2.331   3.445
 1378SOL     OW 5032   3.740   2.045   4.689
 1378SOL    HW1 5033   3.665   2.088   4.740
 1378SOL    HW2 5034   3.753   2.093   4.602
 1379SOL     OW 5035   5.291   5.075   1.423
 1379SOL    HW1 5036   5.298   4.977   1.403
 1379SOL    HW2 5037   5.195   5.099   1.441
 1380SOL     OW 5038   6.490   6.248   1.665
 1380SOL    HW1 5039   6.506   6.340   1.630
 1380SOL    HW2 5040   6.552   6.229   1.741
 1381SOL     OW 5041   6.097   2.414   5.674
 1381SOL    HW1 5042   6.113   2.360   5.757
 1381SOL    HW2 5043   6.017   2.377   5.626
 1382SOL     OW 5044   4.558   2.759   1.394
 1382SOL    HW1 5045   4.489   2.735   1.325
 1382SOL    HW2 5046   4.548   2.855   1.418
 1383SOL     OW 5047   1.523   0.365   2.148
 1383SOL    HW1 5048   1.583   0.315   2.212
 1383SOL    HW2 5049   1.451   0.304   2.116
 1384SOL     OW 5050   5.026   0.534   0.472
 1384SOL    HW1 5051   5.035   0.491   0.382
 1384SOL    HW2 5052   4.941   0.505   0.515
 1385SOL     OW 5053   1.596   5.210   3.652
 1385SOL    HW1 5054   1.588   5.258   3.739
 1385SOL    HW2 5055   1.692   5.188   3.635
 1386SOL     OW 5056   3.009   6.491   4.192
 1386SOL    HW1 5057   3.026   6.429   4.269
 1386SOL    HW2 5058   2.964   6.574   4.225
 1387SOL     OW 5059   3.869   5.744   1.491
 1387SOL    HW1 5060   3.911   5.744   1.400
 1387SOL    HW2 5061   3.836   5.836   1.512
 1388SOL     OW 5062   6.098   0.600   1.539
 1388SOL    HW1 5063   6.029   0.602   1.466
 1388SOL    HW2 5064   6.053   0.586   1.627
 1389SOL     OW 5065   6.468   1.244   3.108
 1389SOL    HW1 5066   6.375   1.207   3.116
 1389SOL    HW2 5067   6.509   1.250   3.199
 1390SOL     OW 5068   1.033   3.275   6.539
 1390SOL    HW1 5069   0.936   3.251   6.546
 1390SOL    HW2 5070   1.089   3.198   6.571
 1391SOL     OW 5071   6.872   1.384   3.987
 1391SOL    HW1 5072   6.827   1.369   4.075
 1391SOL    HW2 5073   6.842   1.471   3.949
 1392SOL     OW 5074   5.575   4.918   5.860
 1392SOL    HW1 5075   5.600   4.866   5.941
 1392SOL    HW2 5076   5.579   5.016   5.880
 1393SOL     OW 5077   5.937   5.911   5.326
 1393SOL    HW1 5078   6.012   5.930   5.389
 1393SOL    HW2 5079   5.948   5.968   5.244
 1394SOL     OW 5080   3.115   6.073   5.502
 1394SOL    HW1 5081   3.027   6.120   5.509
 1394SOL    HW2 5082   3.121   6.027   5.413
 1395SOL     OW 5083   2.941   4.212   5.728
 1395SOL    HW1 5084   2.988   4.146   5.786
 1395SOL    HW2 5085   2.902   4.166   5.648
 1396SOL     OW 5086   0.881   0.054   3.784
 1396SOL    HW1 5087   0.821   0.041   3.706
 1396SOL    HW2 5088   0.862   0.142   3.827
 1397SOL     OW 5089   6.273   0.336   4.685
 1397SOL    HW1 5090   6.325   0.392   4.750
 1397SOL    HW2 5091   6.269   0.242   4.717
 1398SOL     OW 5092   1.706   0.969   4.824
 1398SOL    HW1 5093   1.782   1.012   4.774
 1398SOL    HW2 5094   1.679   0.885   4.778
 1399SOL     OW 5095   3.725   6.586   1.422
 1399SOL    HW1 5096   3.818   6.571   1.388
 1399SOL    HW2 5097   3.691   6.503   1.465
 1400SOL     OW 5098   0.207   1.812   3.240
 1400SOL    HW1 5099   0.246   1.852   3.323
 1400SOL    HW2 5100   0.278   1.763   3.190
 1401SOL     OW 5101   0.512   1.485   5.463
 1401SOL    HW1 5102   0.520   1.457   5.559
 1401SOL    HW2 5103   0.424   1.531   5.449
 1402SOL     OW 5104   6.905   3.671   6.825
 1402SOL    HW1 5105   6.856   3.758   6.825
 1402SOL    HW2 5106   6.896   3.627   6.914
 1403SOL     OW 5107   3.506   1.156   1.952
 1403SOL    HW1 5108   3.594   1.170   1.906
 1403SOL    HW2 5109   3.492   1.230   2.018
 1404SOL     OW 5110   5.686   0.420   0.302
 1404SOL    HW1 5111   5.749   0.378   0.237
 1404SOL    HW2 5112   5.680   0.518   0.284
 1405SOL     OW 5113   2.172   3.971   0.893
 1405SOL    HW1 5114   2.102   4.040   0.913
 1405SOL    HW2 5115   2.148   3.885   0.938
 1406SOL     OW 5116   1.644   5.342   1.633
 1406SOL    HW1 5117   1.572   5.406   1.661
 1406SOL    HW2 5118   1.734   5.384   1.647
 1407SOL     OW 5119   0.464   1.367   1.984
 1407SOL    HW1 5120   0.551   1.417   1.977
 1407SOL    HW2 5121   0.479   1.272   1.956
 1408SOL     OW 5122   5.240   0.533   5.832
 1408SOL    HW1 5123   5.242   0.623   5.876
 1408SOL    HW2 5124   5.318   0.479   5.865
 1409SOL     OW 5125   0.669   6.891   5.169
 1409SOL    HW1 5126   0.694   6.934   5.255
 1409SOL    HW2 5127   0.675   6.958   5.095
 1410SOL     OW 5128   1.977   3.672   6.486
 1410SOL    HW1 5129   1.931   3.752   6.525
 1410SOL    HW2 5130   1.998   3.689   6.390
 1411SOL     OW 5131   2.669   6.373   3.085
 1411SOL    HW1 5132   2.651   6.296   3.023
 1411SOL    HW2 5133   2.650   6.459   3.038
 1412SOL     OW 5134   0.410   2.422   6.738
 1412SOL    HW1 5135   0.510   2.432   6.741
 1412SOL    HW2 5136   0.386   2.327   6.755
 1413SOL     OW 5137   1.704   0.765   5.043
 1413SOL    HW1 5138   1.714   0.815   4.957
 1413SOL    HW2 5139   1.729   0.669   5.029
 1414SOL     OW 5140   2.758   1.023   1.663
 1414SOL    HW1 5141   2.830   0.997   1.599
 1414SOL    HW2 5142   2.725   1.115   1.642
 1415SOL     OW 5143   2.683   0.268   4.506
 1415SOL    HW1 5144   2.756   0.286   4.572
 1415SOL    HW2 5145   2.600   0.240   4.555
 1416SOL     OW 5146   4.652   4.348   3.596
 1416SOL    HW1 5147   4.680   4.277   3.531
 1416SOL    HW2 5148   4.553   4.361   3.590
 1417SOL     OW 5149   2.268   2.244   0.201
 1417SOL    HW1 5150   2.329   2.187   0.256
 1417SOL    HW2 5151   2.212   2.301   0.261
 1418SOL     OW 5152   3.085   3.088   3.296
 1418SOL    HW1 5153   3.174   3.045   3.315
 1418SOL    HW2 5154   3.028   3.082   3.378
 1419SOL     OW 5155   3.479   6.464   4.648
 1419SOL    HW1 5156   3.470   6.458   4.549
 1419SOL    HW2 5157   3.509   6.556   4.674
 1420SOL     OW 5158   1.569   6.506   1.798
 1420SOL    HW1 5159   1.572   6.476   1.894
 1420SOL    HW2 5160   1.615   6.595   1.790
 1421SOL     OW 5161   1.699   2.712   2.979
 1421SOL    HW1 5162   1.695   2.721   3.079
 1421SOL    HW2 5163   1.613   2.675   2.945
 1422SOL     OW 5164   2.550   4.520   1.866
 1422SOL    HW1 5165   2.502   4.560   1.788
 1422SOL    HW2 5166   2.634   4.571   1.884
 1423SOL     OW 5167   5.179   6.288   2.161
 1423SOL    HW1 5168   5.083   6.278   2.188
 1423SOL    HW2 5169   5.207   6.384   2.171
 1424SOL     OW 5170   6.114   4.413   4.796
 1424SOL    HW1 5171   6.100   4.353   4.874
 1424SOL    HW2 5172   6.157   4.498   4.827
 1425SOL     OW 5173   1.721   6.267   4.147
 1425SOL    HW1 5174   1.686   6.180   4.180
 1425SOL    HW2 5175   1.707   6.337   4.217
 1426SOL     OW 5176   1.051   2.793   5.608
 1426SOL    HW1 5177   1.059   2.870   5.672
 1426SOL    HW2 5178   1.112   2.720   5.636
 1427SOL     OW 5179   0.258   6.662   2.729
 1427SOL    HW1 5180   0.179   6.609   2.698
 1427SOL    HW2 5181   0.245   6.688   2.825
 1428SOL     OW 5182   5.677   2.319   1.033
 1428SOL    HW1 5183   5.588   2.301   0.992
 1428SOL    HW2 5184   5.724   2.233   1.050
 1429SOL     OW 5185   6.265   2.057   0.465
 1429SOL    HW1 5186   6.232   2.048   0.559
 1429SOL    HW2 5187   6.360   2.026   0.461
 1430SOL     OW 5188   1.753   4.366   3.592
 1430SOL    HW1 5189   1.809   4.347   3.673
 1430SOL    HW2 5190   1.669   4.412   3.620
 1431SOL     OW 5191   2.381   2.155   1.277
 1431SOL    HW1 5192   2.432   2.101   1.344
 1431SOL    HW2 5193   2.388   2.252   1.301
 1432SOL     OW 5194   2.656   1.665   3.532
 1432SOL    HW1 5195   2.748   1.637   3.559
 1432SOL    HW2 5196   2.589   1.601   3.572
 1433SOL     OW 5197   4.415   1.359   4.153
 1433SOL    HW1 5198   4.349   1.390   4.221
 1433SOL    HW2 5199   4.475   1.289   4.193
 1434SOL     OW 5200   6.590   0.899   5.444
 1434SOL    HW1 5201   6.677   0.893   5.493
 1434SOL    HW2 5202   6.574   0.814   5.394
 1435SOL     OW 5203   6.069   0.906   2.210
 1435SOL    HW1 5204   6.115   0.983   2.166
 1435SOL    HW2 5205   5.987   0.938   2.257
 1436SOL     OW 5206   5.172   4.000   0.127
 1436SOL    HW1 5207   5.178   3.917   0.182
 1436SOL    HW2 5208   5.115   3.983   0.046
 1437SOL     OW 5209   2.318   2.670   3.958
 1437SOL    HW1 5210   2.414   2.679   3.985
 1437SOL    HW2 5211   2.285   2.759   3.927
 1438SOL     OW 5212   3.350   6.210   1.355
 1438SOL    HW1 5213   3.373   6.129   1.410
 1438SOL    HW2 5214   3.286   6.268   1.405
 1439SOL     OW 5215   6.987   5.876   2.109
 1439SOL    HW1 5216   0.021   5.840   2.032
 1439SOL    HW2 5217   6.970   5.803   2.175
 1440SOL     OW 5218   3.212   3.624   1.327
 1440SOL    HW1 5219   3.276   3.562   1.373
 1440SOL    HW2 5220   3.150   3.570   1.270
 1441SOL     OW 5221   5.946   0.655   2.182
 1441SOL    HW1 5222   5.877   0.681   2.115
 1441SOL    HW2 5223   5.994   0.736   2.214
 1442SOL     OW 5224   6.496   5.938   0.172
 1442SOL    HW1 5225   6.400   5.954   0.195
 1442SOL    HW2 5226   6.554   5.981   0.240
 1443SOL     OW 5227   0.386   2.399   2.384
 1443SOL    HW1 5228   0.406   2.348   2.468
 1443SOL    HW2 5229   0.330   2.479   2.407
 1444SOL     OW 5230   5.376   0.128   0.607
 1444SOL    HW1 5231   5.455   0.069   0.591
 1444SOL    HW2 5232   5.405   0.211   0.655
 1445SOL     OW 5233   0.736   3.060   2.791
 1445SOL    HW1 5234   0.664   2.994   2.771
 1445SOL    HW2 5235   0.820   3.012   2.815
 1446SOL     OW 5236   0.189   0.277   6.974
 1446SOL    HW1 5237   0.238   0.239   6.895
 1446SOL    HW2 5238   0.091   0.270   6.957
 1447SOL     OW 5239   5.517   5.029   3.532
 1447SOL    HW1 5240   5.587   5.073   3.476
 1447SOL    HW2 5241   5.498   5.086   3.613
 1448SOL     OW 5242   6.864   2.561   5.012
 1448SOL    HW1 5243   6.797   2.488   5.022
 1448SOL    HW2 5244   6.881   2.578   4.915
 1449SOL     OW 5245   0.997   3.972   5.471
 1449SOL    HW1 5246   1.083   4.004   5.432
 1449SOL    HW2 5247   1.002   3.874   5.490
 1450SOL     OW 5248   0.893   2.994   6.065
 1450SOL    HW1 5249   0.856   2.908   6.099
 1450SOL    HW2 5250   0.895   3.061   6.140
 1451SOL     OW 5251   1.259   6.161   2.304
 1451SOL    HW1 5252   1.226   6.246   2.345
 1451SOL    HW2 5253   1.188   6.123   2.245
 1452SOL     OW 5254   4.718   2.675   5.334
 1452SOL    HW1 5255   4.696   2.609   5.406
 1452SOL    HW2 5256   4.650   2.748   5.335
 1453SOL     OW 5257   0.596   4.379   5.258
 1453SOL    HW1 5258   0.658   4.383   5.336
 1453SOL    HW2 5259   0.575   4.283   5.237
 1454SOL     OW 5260   2.162   1.860   3.004
 1454SOL    HW1 5261   2.251   1.831   2.970
 1454SOL    HW2 5262   2.095   1.857   2.930
 1455SOL     OW 5263   1.508   6.068   2.574
 1455SOL    HW1 5264   1.449   6.050   2.496
 1455SOL    HW2 5265   1.592   6.112   2.543
 1456SOL     OW 5266   6.615   6.193   6.318
 1456SOL    HW1 5267   6.689   6.175   6.383
 1456SOL    HW2 5268   6.544   6.248   6.362
 1457SOL     OW 5269   0.597   4.442   0.860
 1457SOL    HW1 5270   0.522   4.470   0.800
 1457SOL    HW2 5271   0.684   4.471   0.820
 1458SOL     OW 5272   5.297   4.975   5.070
 1458SOL    HW1 5273   5.299   5.002   4.974
 1458SOL    HW2 5274   5.364   4.903   5.087
 1459SOL     OW 5275   4.168   6.489   6.074
 1459SOL    HW1 5276   4.080   6.521   6.037
 1459SOL    HW2 5277   4.193   6.403   6.030
 1460SOL     OW 5278   1.485   6.857   4.618
 1460SOL    HW1 5279   1.571   6.869   4.567
 1460SOL    HW2 5280   1.473   6.931   4.683
 1461SOL     OW 5281   0.294   3.500   3.190
 1461SOL    HW1 5282   0.207   3.529   3.151
 1461SOL    HW2 5283   0.365   3.565   3.164
 1462SOL     OW 5284   0.899   0.942   6.371
 1462SOL    HW1 5285   0.953   0.936   6.287
 1462SOL    HW2 5286   0.957   0.918   6.450
 1463SOL     OW 5287   1.461   4.867   5.751
 1463SOL    HW1 5288   1.448   4.919   5.836
 1463SOL    HW2 5289   1.483   4.772   5.774
 1464SOL     OW 5290   6.859   4.121   3.245
 1464SOL    HW1 5291   6.888   4.119   3.150
 1464SOL    HW2 5292   6.813   4.036   3.269
 1465SOL     OW 5293   1.615   2.222   3.927
 1465SOL    HW1 5294   1.611   2.136   3.977
 1465SOL    HW2 5295   1.650   2.294   3.987
 1466SOL     OW 5296   4.023   2.174   2.180
 1466SOL    HW1 5297   3.981   2.155   2.091
 1466SOL    HW2 5298   3.955   2.164   2.252
 1467SOL     OW 5299   1.968   1.608   4.311
 1467SOL    HW1 5300   2.007   1.696   4.340
 1467SOL    HW2 5301   1.928   1.562   4.391
 1468SOL     OW 5302   2.051   5.409   1.897
 1468SOL    HW1 5303   2.118   5.479   1.874
 1468SOL    HW2 5304   1.967   5.424   1.845
 1469SOL     OW 5305   6.849   5.867   3.188
 1469SOL    HW1 5306   6.917   5.929   3.148
 1469SOL    HW2 5307   6.826   5.796   3.123
 1470SOL     OW 5308   0.108   2.730   0.823
 1470SOL    HW1 5309   0.041   2.785   0.774
 1470SOL    HW2 5310   0.061   2.660   0.876
 1471SOL     OW 5311   0.746   0.135   0.717
 1471SOL    HW1 5312   0.818   0.065   0.715
 1471SOL    HW2 5313   0.768   0.208   0.652
 1472SOL     OW 5314   2.460   6.142   6.598
 1472SOL    HW1 5315   2.551   6.160   6.562
 1472SOL    HW2 5316   2.419   6.228   6.630
 1473SOL     OW 5317   2.860   5.572   4.499
 1473SOL    HW1 5318   2.796   5.603   4.429
 1473SOL    HW2 5319   2.852   5.473   4.510
 1474SOL     OW 5320   4.407   4.806   1.716
 1474SOL    HW1 5321   4.451   4.779   1.802
 1474SOL    HW2 5322   4.350   4.730   1.683
 1475SOL     OW 5323   5.142   1.189   0.051
 1475SOL    HW1 5324   5.114   1.227   0.139
 1475SOL    HW2 5325   5.141   1.089   0.057
 1476SOL     OW 5326   3.001   1.245   1.367
 1476SOL    HW1 5327   3.006   1.233   1.268
 1476SOL    HW2 5328   3.086   1.214   1.409
 1477SOL     OW 5329   4.113   0.263   0.365
 1477SOL    HW1 5330   4.094   0.201   0.442
 1477SOL    HW2 5331   4.211   0.271   0.352
 1478SOL     OW 5332   5.770   6.412   5.318
 1478SOL    HW1 5333   5.690   6.380   5.268
 1478SOL    HW2 5334   5.742   6.447   5.407
 1479SOL     OW 5335   3.741   3.813   1.739
 1479SOL    HW1 5336   3.655   3.835   1.785
 1479SOL    HW2 5337   3.785   3.897   1.707
 1480SOL     OW 5338   2.287   6.801   6.376
 1480SOL    HW1 5339   2.272   6.834   6.469
 1480SOL    HW2 5340   2.371   6.842   6.340
 1481SOL     OW 5341   5.613   2.840   5.634
 1481SOL    HW1 5342   5.528   2.806   5.674
 1481SOL    HW2 5343   5.633   2.791   5.549
 1482SOL     OW 5344   4.511   0.646   0.535
 1482SOL    HW1 5345   4.506   0.575   0.604
 1482SOL    HW2 5346   4.579   0.621   0.466
 1483SOL     OW 5347   5.301   2.223   5.380
 1483SOL    HW1 5348   5.377   2.244   5.319
 1483SOL    HW2 5349   5.331   2.233   5.475
 1484SOL     OW 5350   3.639   5.219   4.079
 1484SOL    HW1 5351   3.648   5.141   4.017
 1484SOL    HW2 5352   3.670   5.302   4.032
 1485SOL     OW 5353   5.323   0.925   3.732
 1485SOL    HW1 5354   5.353   1.014   3.767
 1485SOL    HW2 5355   5.247   0.938   3.668
 1486SOL     OW 5356   4.697   6.859   3.588
 1486SOL    HW1 5357   4.626   6.860   3.518
 1486SOL    HW2 5358   4.684   6.780   3.648
 1487SOL     OW 5359   0.630   0.851   6.709
 1487SOL    HW1 5360   0.724   0.817   6.701
 1487SOL    HW2 5361   0.631   0.951   6.706
 1488SOL     OW 5362   6.111   0.640   3.320
 1488SOL    HW1 5363   6.120   0.544   3.296
 1488SOL    HW2 5364   6.124   0.697   3.239
 1489SOL     OW 5365   3.787   4.748   6.448
 1489SOL    HW1 5366   3.716   4.769   6.381
 1489SOL    HW2 5367   3.833   4.833   6.474
 1490SOL     OW 5368   0.334   3.243   1.161
 1490SOL    HW1 5369   0.251   3.273   1.113
 1490SOL    HW2 5370   0.360   3.152   1.128
 1491SOL     OW 5371   6.757   3.964   2.151
 1491SOL    HW1 5372   6.816   4.043   2.160
 1491SOL    HW2 5373   6.742   3.945   2.054
 1492SOL     OW 5374   6.774   0.382   2.082
 1492SOL    HW1 5375   6.742   0.448   2.150
 1492SOL    HW2 5376   6.695   0.339   2.038
 1493SOL     OW 5377   3.979   1.287   6.407
 1493SOL    HW1 5378   3.897   1.344   6.405
 1493SOL    HW2 5379   3.999   1.260   6.501
 1494SOL     OW 5380   5.643   2.519   6.593
 1494SOL    HW1 5381   5.649   2.436   6.649
 1494SOL    HW2 5382   5.630   2.598   6.653
 1495SOL     OW 5383   6.456   3.536   3.340
 1495SOL    HW1 5384   6.461   3.587   3.253
 1495SOL    HW2 5385   6.471   3.599   3.416
 1496SOL     OW 5386   0.330   0.166   0.180
 1496SOL    HW1 5387   0.254   0.189   0.120
 1496SOL    HW2 5388   0.308   0.191   0.274
 1497SOL     OW 5389   5.157   2.689   2.345
 1497SOL    HW1 5390   5.197   2.770   2.387
 1497SOL    HW2 5391   5.060   2.706   2.325
 1498SOL     OW 5392   2.504   4.825   1.244
 1498SOL    HW1 5393   2.586   4.770   1.260
 1498SOL    HW2 5394   2.513   4.913   1.290
 1499SOL     OW 5395   0.446   3.660   5.723
 1499SOL    HW1 5396   0.512   3.585   5.727
 1499SOL    HW2 5397   0.437   3.701   5.813
 1500SOL     OW 5398   1.291   6.097   6.957
 1500SOL    HW1 5399   1.251   6.115   0.029
 1500SOL    HW2 5400   1.380   6.053   6.968
 1501SOL     OW 5401   6.146   1.723   6.843
 1501SOL    HW1 5402   6.122   1.709   6.747
 1501SOL    HW2 5403   6.062   1.743   6.895
 1502SOL     OW 5404   5.847   1.405   6.467
 1502SOL    HW1 5405   5.867   1.367   6.557
 1502SOL    HW2 5406   5.898   1.490   6.454
 1503SOL     OW 5407   0.885   2.853   2.523
 1503SOL    HW1 5408   0.827   2.779   2.558
 1503SOL    HW2 5409   0.835   2.902   2.451
 1504SOL     OW 5410   0.702   0.016   3.601
 1504SOL    HW1 5411   0.655   0.035   3.688
 1504SOL    HW2 5412   0.640   0.035   3.525
 1505SOL     OW 5413   5.608   6.425   5.588
 1505SOL    HW1 5414   5.559   6.345   5.623
 1505SOL    HW2 5415   5.586   6.504   5.646
 1506SOL     OW 5416   1.317   0.542   0.930
 1506SOL    HW1 5417   1.372   0.625   0.922
 1506SOL    HW2 5418   1.226   0.565   0.965
 1507SOL     OW 5419   0.783   1.505   4.390
 1507SOL    HW1 5420   0.828   1.566   4.454
 1507SOL    HW2 5421   0.684   1.509   4.402
 1508SOL     OW 5422   0.856   1.688   0.736
 1508SOL    HW1 5423   0.837   1.737   0.821
 1508SOL    HW2 5424   0.828   1.592   0.746
 1509SOL     OW 5425   5.169   1.249   5.198
 1509SOL    HW1 5426   5.091   1.189   5.187
 1509SOL    HW2 5427   5.185   1.300   5.113
 1510SOL     OW 5428   4.429   0.126   4.031
 1510SOL    HW1 5429   4.525   0.145   4.051
 1510SOL    HW2 5430   4.378   0.119   4.116
 1511SOL     OW 5431   3.191   3.881   4.005
 1511SOL    HW1 5432   3.201   3.977   3.978
 1511SOL    HW2 5433   3.279   3.845   4.035
 1512SOL     OW 5434   5.895   5.424   1.180
 1512SOL    HW1 5435   5.831   5.437   1.256
 1512SOL    HW2 5436   5.845   5.392   1.099
 1513SOL     OW 5437   3.276   0.164   4.969
 1513SOL    HW1 5438   3.294   0.070   4.999
 1513SOL    HW2 5439   3.292   0.171   4.871
 1514SOL     OW 5440   3.574   2.545   5.426
 1514SOL    HW1 5441   3.611   2.480   5.493
 1514SOL    HW2 5442   3.634   2.548   5.346
 1515SOL     OW 5443   6.533   1.667   2.435
 1515SOL    HW1 5444   6.510   1.614   2.516
 1515SOL    HW2 5445   6.560   1.606   2.361
 1516SOL     OW 5446   6.244   5.585   5.163
 1516SOL    HW1 5447   6.314   5.515   5.170
 1516SOL    HW2 5448   6.157   5.549   5.197
 1517SOL     OW 5449   4.120   7.014   3.245
 1517SOL    HW1 5450   4.173   0.048   3.312
 1517SOL    HW2 5451   4.029   6.997   3.281
 1518SOL     OW 5452   6.137   2.962   0.378
 1518SOL    HW1 5453   6.207   2.897   0.407
 1518SOL    HW2 5454   6.065   2.966   0.448
 1519SOL     OW 5455   0.348   5.110   0.633
 1519SOL    HW1 5456   0.340   5.059   0.719
 1519SOL    HW2 5457   0.295   5.195   0.639
 1520SOL     OW 5458   0.465   4.578   1.462
 1520SOL    HW1 5459   0.525   4.507   1.498
 1520SOL    HW2 5460   0.484   4.665   1.509
 1521SOL     OW 5461   2.092   4.994   0.532
 1521SOL    HW1 5462   2.166   5.021   0.470
 1521SOL    HW2 5463   2.005   5.027   0.497
 1522SOL     OW 5464   5.365   5.213   4.455
 1522SOL    HW1 5465   5.378   5.114   4.457
 1522SOL    HW2 5466   5.281   5.234   4.405
 1523SOL     OW 5467   3.575   0.084   6.792
 1523SOL    HW1 5468   3.512   0.084   6.713
 1523SOL    HW2 5469   3.649   0.150   6.776
 1524SOL     OW 5470   2.952   2.191   2.400
 1524SOL    HW1 5471   3.012   2.166   2.324
 1524SOL    HW2 5472   2.873   2.242   2.364
 1525SOL     OW 5473   6.006   2.626   1.133
 1525SOL    HW1 5474   5.998   2.566   1.213
 1525SOL    HW2 5475   6.029   2.718   1.162
 1526SOL     OW 5476   0.440   1.172   6.892
 1526SOL    HW1 5477   0.471   1.266   6.905
 1526SOL    HW2 5478   0.340   1.169   6.900
 1527SOL     OW 5479   4.028   1.103   4.625
 1527SOL    HW1 5480   3.936   1.113   4.663
 1527SOL    HW2 5481   4.041   1.008   4.596
 1528SOL     OW 5482   4.360   4.894   1.033
 1528SOL    HW1 5483   4.330   4.844   1.114
 1528SOL    HW2 5484   4.384   4.988   1.059
 1529SOL     OW 5485   4.975   1.332   6.867
 1529SOL    HW1 5486   5.005   1.301   6.957
 1529SOL    HW2 5487   4.900   1.275   6.835
 1530SOL     OW 5488   3.445   0.655   1.515
 1530SOL    HW1 5489   3.480   0.717   1.445
 1530SOL    HW2 5490   3.521   0.624   1.573
 1531SOL     OW 5491   4.469   0.573   4.730
 1531SOL    HW1 5492   4.512   0.505   4.789
 1531SOL    HW2 5493   4.394   0.616   4.779
 1532SOL     OW 5494   3.421   4.531   5.798
 1532SOL    HW1 5495   3.505   4.519   5.852
 1532SOL    HW2 5496   3.407   4.451   5.740
 1533SOL     OW 5497   5.768   5.898   0.496
 1533SOL    HW1 5498   5.763   5.860   0.589
 1533SOL    HW2 5499   5.769   5.998   0.501
 1534SOL     OW 5500   4.061   5.380   6.855
 1534SOL    HW1 5501   4.076   5.479   6.859
 1534SOL    HW2 5502   4.109   5.342   6.776
 1535SOL     OW 5503   5.582   6.037   4.944
 1535SOL    HW1 5504   5.536   6.110   4.893
 1535SOL    HW2 5505   5.583   5.954   4.889
 1536SOL     OW 5506   4.251   4.767   0.128
 1536SOL    HW1 5507   4.280   4.855   0.166
 1536SOL    HW2 5508   4.194   4.719   0.195
 1537SOL     OW 5509   3.989   5.838   3.856
 1537SOL    HW1 5510   4.084   5.849   3.828
 1537SOL    HW2 5511   3.943   5.774   3.794
 1538SOL     OW 5512   3.305   0.999   0.006
 1538SOL    HW1 5513   3.376   1.052   6.979
 1538SOL    HW2 5514   3.286   0.916   6.972
 1539SOL     OW 5515   4.952   3.229   1.928
 1539SOL    HW1 5516   4.863   3.184   1.942
 1539SOL    HW2 5517   5.021   3.182   1.983
 1540SOL     OW 5518   1.161   7.006   5.087
 1540SOL    HW1 5519   1.094   6.933   5.098
 1540SOL    HW2 5520   1.226   7.004   5.163
 1541SOL     OW 5521   3.346   3.174   4.258
 1541SOL    HW1 5522   3.283   3.201   4.331
 1541SOL    HW2 5523   3.323   3.224   4.174
 1542SOL     OW 5524   6.433   6.892   2.047
 1542SOL    HW1 5525   6.349   6.945   2.039
 1542SOL    HW2 5526   6.493   6.933   2.115
 1543SOL     OW 5527   3.784   5.186   6.344
 1543SOL    HW1 5528   3.698   5.178   6.293
 1543SOL    HW2 5529   3.852   5.233   6.287
 1544SOL     OW 5530   3.078   3.847   3.747
 1544SOL    HW1 5531   3.086   3.844   3.847
 1544SOL    HW2 5532   3.167   3.868   3.707
 1545SOL     OW 5533   6.225   1.061   2.442
 1545SOL    HW1 5534   6.170   1.086   2.521
 1545SOL    HW2 5535   6.208   0.966   2.418
 1546SOL     OW 5536   5.427   5.786   6.051
 1546SOL    HW1 5537   5.426   5.687   6.040
 1546SOL    HW2 5538   5.413   5.830   5.963
 1547SOL     OW 5539   1.846   3.999   1.218
 1547SOL    HW1 5540   1.870   4.088   1.259
 1547SOL    HW2 5541   1.867   3.926   1.283
 1548SOL     OW 5542   6.083   3.541   0.065
 1548SOL    HW1 5543   6.023   3.594   0.124
 1548SOL    HW2 5544   6.092   3.448   0.102
 1549SOL     OW 5545   4.376   1.466   3.680
 1549SOL    HW1 5546   4.310   1.394   3.656
 1549SOL    HW2 5547   4.445   1.428   3.742
 1550SOL     OW 5548   3.052   3.152   1.564
 1550SOL    HW1 5549   3.095   3.239   1.588
 1550SOL    HW2 5550   3.060   3.089   1.641
 1551SOL     OW 5551   1.218   5.305   7.011
 1551SOL    HW1 5552   1.150   5.308   6.937
 1551SOL    HW2 5553   1.206   5.384   0.052
 1552SOL     OW 5554   2.041   5.202   0.829
 1552SOL    HW1 5555   2.124   5.153   0.806
 1552SOL    HW2 5556   2.063   5.280   0.889
 1553SOL     OW 5557   6.997   1.434   6.234
 1553SOL    HW1 5558   0.034   1.416   6.153
 1553SOL    HW2 5559   6.970   1.531   6.236
 1554SOL     OW 5560   2.874   2.017   3.751
 1554SOL    HW1 5561   2.818   2.037   3.832
 1554SOL    HW2 5562   2.860   2.088   3.683
 1555SOL     OW 5563   5.999   3.111   6.682
 1555SOL    HW1 5564   6.001   3.106   6.582
 1555SOL    HW2 5565   5.935   3.182   6.711
 1556SOL     OW 5566   1.712   1.109   6.143
 1556SOL    HW1 5567   1.647   1.042   6.106
 1556SOL    HW2 5568   1.732   1.177   6.073
 1557SOL     OW 5569   1.874   3.964   5.820
 1557SOL    HW1 5570   1.802   3.895   5.811
 1557SOL    HW2 5571   1.962   3.921   5.801
 1558SOL     OW 5572   6.323   0.348   4.392
 1558SOL    HW1 5573   6.273   0.354   4.478
 1558SOL    HW2 5574   6.258   0.342   4.316
 1559SOL     OW 5575   1.368   3.392   6.699
 1559SOL    HW1 5576   1.341   3.445   6.620
 1559SOL    HW2 5577   1.329   3.300   6.693
 1560SOL     OW 5578   0.411   0.693   6.772
 1560SOL    HW1 5579   0.387   0.651   6.685
 1560SOL    HW2 5580   0.484   0.760   6.759
 1561SOL     OW 5581   4.985   6.162   3.484
 1561SOL    HW1 5582   4.904   6.216   3.463
 1561SOL    HW2 5583   5.020   6.187   3.574
 1562SOL     OW 5584   4.407   6.083   2.258
 1562SOL    HW1 5585   4.385   6.168   2.306
 1562SOL    HW2 5586   4.507   6.073   2.253
 1563SOL     OW 5587   3.186   0.587   5.680
 1563SOL    HW1 5588   3.251   0.663   5.685
 1563SOL    HW2 5589   3.226   0.513   5.626
 1564SOL     OW 5590   1.374   0.709   3.260
 1564SOL    HW1 5591   1.277   0.721   3.239
 1564SOL    HW2 5592   1.421   0.797   3.251
 1565SOL     OW 5593   4.664   4.247   2.788
 1565SOL    HW1 5594   4.689   4.240   2.691
 1565SOL    HW2 5595   4.706   4.173   2.839
 1566SOL     OW 5596   5.908   3.226   3.053
 1566SOL    HW1 5597   5.924   3.275   3.139
 1566SOL    HW2 5598   5.819   3.181   3.056
 1567SOL     OW 5599   5.871   5.961   7.015
 1567SOL    HW1 5600   5.930   6.041   7.014
 1567SOL    HW2 5601   5.811   5.962   6.935
 1568SOL     OW 5602   1.420   0.658   0.518
 1568SOL    HW1 5603   1.390   0.569   0.553
 1568SOL    HW2 5604   1.485   0.645   0.444
 1569SOL     OW 5605   4.650   6.000   3.570
 1569SOL    HW1 5606   4.630   6.074   3.506
 1569SOL    HW2 5607   4.740   5.962   3.550
 1570SOL     OW 5608   2.482   1.186   1.243
 1570SOL    HW1 5609   2.478   1.104   1.300
 1570SOL    HW2 5610   2.544   1.252   1.284
 1571SOL     OW 5611   6.045   3.433   0.858
 1571SOL    HW1 5612   5.988   3.410   0.780
 1571SOL    HW2 5613   6.019   3.377   0.937
 1572SOL     OW 5614   0.258   0.692   2.977
 1572SOL    HW1 5615   0.192   0.665   3.047
 1572SOL    HW2 5616   0.351   0.680   3.012
 1573SOL     OW 5617   5.130   0.759   1.855
 1573SOL    HW1 5618   5.043   0.732   1.815
 1573SOL    HW2 5619   5.173   0.680   1.899
 1574SOL     OW 5620   0.437   2.294   1.403
 1574SOL    HW1 5621   0.424   2.199   1.433
 1574SOL    HW2 5622   0.528   2.304   1.364
 1575SOL     OW 5623   2.778   2.192   0.474
 1575SOL    HW1 5624   2.806   2.207   0.379
 1575SOL    HW2 5625   2.728   2.271   0.507
 1576SOL     OW 5626   5.998   5.801   4.366
 1576SOL    HW1 5627   5.978   5.895   4.335
 1576SOL    HW2 5628   6.039   5.750   4.291
 1577SOL     OW 5629   2.597   1.669   5.065
 1577SOL    HW1 5630   2.684   1.672   5.016
 1577SOL    HW2 5631   2.549   1.756   5.054
 1578SOL     OW 5632   5.715   3.370   5.653
 1578SOL    HW1 5633   5.720   3.420   5.567
 1578SOL    HW2 5634   5.641   3.302   5.648
 1579SOL     OW 5635   0.305   1.401   3.594
 1579SOL    HW1 5636   0.305   1.352   3.680
 1579SOL    HW2 5637   0.212   1.425   3.568
 1580SOL     OW 5638   2.661   3.987   5.340
 1580SOL    HW1 5639   2.675   3.942   5.252
 1580SOL    HW2 5640   2.574   4.038   5.338
 1581SOL     OW 5641   6.446   4.705   4.114
 1581SOL    HW1 5642   6.542   4.732   4.126
 1581SOL    HW2 5643   6.440   4.605   4.117
 1582SOL     OW 5644   0.800   4.964   4.425
 1582SOL    HW1 5645   0.828   4.917   4.341
 1582SOL    HW2 5646   0.816   4.905   4.504
 1583SOL     OW 5647   1.907   2.649   4.135
 1583SOL    HW1 5648   1.926   2.708   4.057
 1583SOL    HW2 5649   1.901   2.704   4.218
 1584SOL     OW 5650   2.147   6.729   5.331
 1584SOL    HW1 5651   2.150   6.727   5.431
 1584SOL    HW2 5652   2.060   6.691   5.300
 1585SOL     OW 5653   5.407   2.156   3.126
 1585SOL    HW1 5654   5.459   2.141   3.042
 1585SOL    HW2 5655   5.426   2.081   3.190
 1586SOL     OW 5656   4.058   3.944   1.984
 1586SOL    HW1 5657   4.154   3.961   2.003
 1586SOL    HW2 5658   4.027   4.004   1.910
 1587SOL     OW 5659   2.839   5.202   6.274
 1587SOL    HW1 5660   2.914   5.186   6.209
 1587SOL    HW2 5661   2.876   5.241   6.358
 1588SOL     OW 5662   4.750   1.764   2.881
 1588SOL    HW1 5663   4.836   1.780   2.929
 1588SOL    HW2 5664   4.681   1.828   2.915
 1589SOL     OW 5665   5.706   3.559   3.551
 1589SOL    HW1 5666   5.609   3.583   3.555
 1589SOL    HW2 5667   5.730   3.528   3.459
 1590SOL     OW 5668   1.758   6.289   6.504
 1590SOL    HW1 5669   1.757   6.259   6.599
 1590SOL    HW2 5670   1.834   6.354   6.490
 1591SOL     OW 5671   0.754   4.702   2.745
 1591SOL    HW1 5672   0.840   4.716   2.793
 1591SOL    HW2 5673   0.703   4.628   2.789
 1592SOL     OW 5674   3.047   3.433   1.204
 1592SOL    HW1 5675   2.988   3.514   1.207
 1592SOL    HW2 5676   2.992   3.352   1.225
 1593SOL     OW 5677   0.797   6.117   5.208
 1593SOL    HW1 5678   0.892   6.141   5.228
 1593SOL    HW2 5679   0.778   6.025   5.241
 1594SOL     OW 5680   0.253   5.513   3.002
 1594SOL    HW1 5681   0.212   5.454   2.932
 1594SOL    HW2 5682   0.180   5.559   3.052
 1595SOL     OW 5683   0.381   4.957   6.372
 1595SOL    HW1 5684   0.382   5.048   6.328
 1595SOL    HW2 5685   0.287   4.933   6.395
 1596SOL     OW 5686   1.448   4.155   5.119
 1596SOL    HW1 5687   1.514   4.099   5.069
 1596SOL    HW2 5688   1.496   4.212   5.185
 1597SOL     OW 5689   2.459   5.911   0.843
 1597SOL    HW1 5690   2.530   5.982   0.846
 1597SOL    HW2 5691   2.395   5.925   0.918
 1598SOL     OW 5692   0.905   3.755   0.638
 1598SOL    HW1 5693   0.826   3.703   0.671
 1598SOL    HW2 5694   0.875   3.822   0.570
 1599SOL     OW 5695   4.400   3.928   6.142
 1599SOL    HW1 5696   4.349   3.896   6.062
 1599SOL    HW2 5697   4.379   3.870   6.221
 1600SOL     OW 5698   5.295   1.652   4.945
 1600SOL    HW1 5699   5.301   1.692   5.036
 1600SOL    HW2 5700   5.247   1.564   4.950
 1601SOL     OW 5701   2.052   4.597   4.419
 1601SOL    HW1 5702   2.144   4.560   4.434
 1601SOL    HW2 5703   1.984   4.528   4.444
 1602SOL     OW 5704   1.800   5.878   3.466
 1602SOL    HW1 5705   1.703   5.853   3.471
 1602SOL    HW2 5706   1.847   5.816   3.403
 1603SOL     OW 5707   1.185   6.815   1.875
 1603SOL    HW1 5708   1.183   6.897   1.817
 1603SOL    HW2 5709   1.124   6.828   1.953
 1604SOL     OW 5710   5.696   5.200   6.353
 1604SOL    HW1 5711   5.626   5.143   6.397
 1604SOL    HW2 5712   5.784   5.152   6.354
 1605SOL     OW 5713   6.849   0.335   2.538
 1605SOL    HW1 5714   6.784   0.380   2.477
 1605SOL    HW2 5715   6.830   0.237   2.542
 1606SOL     OW 5716   4.436   0.368   5.282
 1606SOL    HW1 5717   4.481   0.457   5.297
 1606SOL    HW2 5718   4.343   0.372   5.317
 1607SOL     OW 5719   4.665   2.753   0.986
 1607SOL    HW1 5720   4.650   2.689   1.062
 1607SOL    HW2 5721   4.763   2.772   0.977
 1608SOL     OW 5722   1.941   6.981   6.451
 1608SOL    HW1 5723   1.984   6.916   6.514
 1608SOL    HW2 5724   1.928   6.938   6.362
 1609SOL     OW 5725   6.394   2.508   6.236
 1609SOL    HW1 5726   6.355   2.428   6.190
 1609SOL    HW2 5727   6.433   2.480   6.324
 1610SOL     OW 5728   5.781   4.499   4.592
 1610SOL    HW1 5729   5.749   4.410   4.559
 1610SOL    HW2 5730   5.786   4.497   4.692
 1611SOL     OW 5731   3.405   2.890   2.111
 1611SOL    HW1 5732   3.499   2.883   2.077
 1611SOL    HW2 5733   3.341   2.869   2.036
 1612SOL     OW 5734   2.392   1.631   5.404
 1612SOL    HW1 5735   2.446   1.715   5.401
 1612SOL    HW2 5736   2.452   1.552   5.403
 1613SOL     OW 5737   1.996   6.235   0.921
 1613SOL    HW1 5738   2.026   6.248   0.826
 1613SOL    HW2 5739   1.899   6.260   0.928
 1614SOL     OW 5740   6.567   3.115   6.905
 1614SOL    HW1 5741   6.619   3.032   6.925
 1614SOL    HW2 5742   6.535   3.113   6.811
 1615SOL     OW 5743   6.946   4.812   0.048
 1615SOL    HW1 5744   6.956   4.763   6.981
 1615SOL    HW2 5745   6.922   4.748   0.121
 1616SOL     OW 5746   4.331   2.151   6.749
 1616SOL    HW1 5747   4.383   2.235   6.735
 1616SOL    HW2 5748   4.388   2.085   6.797
 1617SOL     OW 5749   6.362   0.634   2.391
 1617SOL    HW1 5750   6.349   0.542   2.355
 1617SOL    HW2 5751   6.442   0.676   2.347
 1618SOL     OW 5752   0.161   3.634   1.830
 1618SOL    HW1 5753   0.134   3.698   1.758
 1618SOL    HW2 5754   0.079   3.598   1.875
 1619SOL     OW 5755   0.783   3.493   4.320
 1619SOL    HW1 5756   0.719   3.423   4.291
 1619SOL    HW2 5757   0.875   3.469   4.291
 1620SOL     OW 5758   1.740   6.017   0.826
 1620SOL    HW1 5759   1.692   5.975   0.748
 1620SOL    HW2 5760   1.821   6.066   0.793
 1621SOL     OW 5761   0.725   0.510   6.673
 1621SOL    HW1 5762   0.759   0.546   6.760
 1621SOL    HW2 5763   0.737   0.580   6.602
 1622SOL     OW 5764   1.580   2.023   4.557
 1622SOL    HW1 5765   1.529   1.986   4.635
 1622SOL    HW2 5766   1.531   2.101   4.520
 1623SOL     OW 5767   2.456   3.113   6.399
 1623SOL    HW1 5768   2.524   3.120   6.326
 1623SOL    HW2 5769   2.389   3.043   6.375
 1624SOL     OW 5770   2.720   0.863   6.206
 1624SOL    HW1 5771   2.692   0.863   6.302
 1624SOL    HW2 5772   2.651   0.816   6.151
 1625SOL     OW 5773   1.245   4.966   1.656
 1625SOL    HW1 5774   1.237   4.875   1.615
 1625SOL    HW2 5775   1.333   4.973   1.703
 1626SOL     OW 5776   2.274   2.500   7.010
 1626SOL    HW1 5777   2.292   2.444   0.073
 1626SOL    HW2 5778   2.303   2.594   0.009
 1627SOL     OW 5779   6.093   1.792   4.297
 1627SOL    HW1 5780   6.019   1.849   4.333
 1627SOL    HW2 5781   6.171   1.850   4.273
 1628SOL     OW 5782   3.208   4.928   0.647
 1628SOL    HW1 5783   3.206   4.903   0.550
 1628SOL    HW2 5784   3.128   4.890   0.694
 1629SOL     OW 5785   3.179   2.089   4.497
 1629SOL    HW1 5786   3.177   2.111   4.399
 1629SOL    HW2 5787   3.273   2.091   4.530
 1630SOL     OW 5788   0.647   5.794   5.035
 1630SOL    HW1 5789   0.690   5.830   5.118
 1630SOL    HW2 5790   0.718   5.765   4.971
 1631SOL     OW 5791   6.608   0.373   5.610
 1631SOL    HW1 5792   6.630   0.470   5.625
 1631SOL    HW2 5793   6.668   0.316   5.667
 1632SOL     OW 5794   0.881   0.803   6.733
 1632SOL    HW1 5795   0.974   0.809   6.698
 1632SOL    HW2 5796   0.866   0.713   6.775
 1633SOL     OW 5797   5.626   2.549   2.628
 1633SOL    HW1 5798   5.570   2.632   2.631
 1633SOL    HW2 5799   5.625   2.512   2.535
 1634SOL     OW 5800   3.954   5.347   6.485
 1634SOL    HW1 5801   3.873   5.290   6.472
 1634SOL    HW2 5802   3.941   5.435   6.438
 1635SOL     OW 5803   6.521   5.408   5.053
 1635SOL    HW1 5804   6.465   5.401   4.971
 1635SOL    HW2 5805   6.572   5.493   5.052
 1636SOL     OW 5806   2.336   4.989   1.700
 1636SOL    HW1 5807   2.329   5.057   1.773
 1636SOL    HW2 5808   2.425   4.943   1.706
 1637SOL     OW 5809   7.013   2.483   2.602
 1637SOL    HW1 5810   6.987   2.498   2.698
 1637SOL    HW2 5811   0.028   2.569   2.563
 1638SOL     OW 5812   6.923   3.106   4.009
 1638SOL    HW1 5813   6.874   3.193   4.013
 1638SOL    HW2 5814   6.930   3.076   3.914
 1639SOL     OW 5815   5.411   5.418   2.912
 1639SOL    HW1 5816   5.449   5.343   2.858
 1639SOL    HW2 5817   5.465   5.501   2.897
 1640SOL     OW 5818   6.057   1.909   0.603
 1640SOL    HW1 5819   6.082   1.842   0.533
 1640SOL    HW2 5820   5.959   1.906   0.619
 1641SOL     OW 5821   5.470   3.065   3.608
 1641SOL    HW1 5822   5.512   3.014   3.533
 1641SOL    HW2 5823   5.411   3.137   3.571
 1642SOL     OW 5824   6.823   3.174   0.108
 1642SOL    HW1 5825   6.841   3.125   0.023
 1642SOL    HW2 5826   6.908   3.215   0.143
 1643SOL     OW 5827   3.898   6.539   5.107
 1643SOL    HW1 5828   3.927   6.604   5.177
 1643SOL    HW2 5829   3.936   6.566   5.019
 1644SOL     OW 5830   3.108   1.991   1.535
 1644SOL    HW1 5831   3.125   2.005   1.437
 1644SOL    HW2 5832   3.161   2.058   1.587
 1645SOL     OW 5833   2.862   6.111   5.876
 1645SOL    HW1 5834   2.919   6.194   5.877
 1645SOL    HW2 5835   2.776   6.130   5.829
 1646SOL     OW 5836   2.948   5.274   1.237
 1646SOL    HW1 5837   2.889   5.235   1.166
 1646SOL    HW2 5838   2.896   5.342   1.289
 1647SOL     OW 5839   6.004   2.521   3.211
 1647SOL    HW1 5840   6.052   2.607   3.193
 1647SOL    HW2 5841   6.057   2.445   3.175
 1648SOL     OW 5842   5.329   6.992   1.971
 1648SOL    HW1 5843   5.382   6.930   2.030
 1648SOL    HW2 5844   5.353   6.974   1.875
 1649SOL     OW 5845   3.013   0.599   2.856
 1649SOL    HW1 5846   3.012   0.673   2.923
 1649SOL    HW2 5847   3.044   0.634   2.768
 1650SOL     OW 5848   2.814   0.068   3.970
 1650SOL    HW1 5849   2.835   6.996   3.933
 1650SOL    HW2 5850   2.760   0.058   4.053
 1651SOL     OW 5851   0.505   0.248   0.419
 1651SOL    HW1 5852   0.501   0.339   0.379
 1651SOL    HW2 5853   0.595   0.208   0.401
 1652SOL     OW 5854   3.040   2.018   0.876
 1652SOL    HW1 5855   3.007   2.100   0.923
 1652SOL    HW2 5856   3.136   2.003   0.899
 1653SOL     OW 5857   0.079   5.236   1.105
 1653SOL    HW1 5858   0.083   5.320   1.160
 1653SOL    HW2 5859   0.137   5.166   1.147
 1654SOL     OW 5860   6.418   3.114   2.617
 1654SOL    HW1 5861   6.350   3.183   2.593
 1654SOL    HW2 5862   6.385   3.024   2.587
 1655SOL     OW 5863   5.513   4.781   6.179
 1655SOL    HW1 5864   5.498   4.776   6.278
 1655SOL    HW2 5865   5.575   4.856   6.158
 1656SOL     OW 5866   1.268   4.540   3.504
 1656SOL    HW1 5867   1.331   4.522   3.428
 1656SOL    HW2 5868   1.273   4.637   3.529
 1657SOL     OW 5869   1.202   1.260   5.636
 1657SOL    HW1 5870   1.208   1.161   5.628
 1657SOL    HW2 5871   1.135   1.284   5.706
 1658SOL     OW 5872   5.882   6.375   3.140
 1658SOL    HW1 5873   5.922   6.342   3.054
 1658SOL    HW2 5874   5.905   6.312   3.214
 1659SOL     OW 5875   3.374   2.226   6.942
 1659SOL    HW1 5876   3.461   2.190   6.907
 1659SOL    HW2 5877   3.392   2.284   0.003
 1660SOL     OW 5878   0.731   5.499   3.823
 1660SOL    HW1 5879   0.795   5.471   3.895
 1660SOL    HW2 5880   0.719   5.424   3.759
 1661SOL     OW 5881   3.372   1.782   2.465
 1661SOL    HW1 5882   3.391   1.695   2.511
 1661SOL    HW2 5883   3.281   1.814   2.489
 1662SOL     OW 5884   6.426   1.975   3.427
 1662SOL    HW1 5885   6.363   2.031   3.372
 1662SOL    HW2 5886   6.378   1.893   3.459
 1663SOL     OW 5887   2.926   0.175   3.390
 1663SOL    HW1 5888   2.995   0.109   3.358
 1663SOL    HW2 5889   2.925   0.254   3.329
 1664SOL     OW 5890   2.046   0.370   4.212
 1664SOL    HW1 5891   2.078   0.435   4.144
 1664SOL    HW2 5892   2.104   0.289   4.211
 1665SOL     OW 5893   0.173   1.604   2.524
 1665SOL    HW1 5894   0.085   1.604   2.476
 1665SOL    HW2 5895   0.224   1.522   2.500
 1666SOL     OW 5896   5.894   2.779   6.728
 1666SOL    HW1 5897   5.916   2.820   6.817
 1666SOL    HW2 5898   5.953   2.820   6.658
 1667SOL     OW 5899   6.020   6.496   0.084
 1667SOL    HW1 5900   6.104   6.496   0.030
 1667SOL    HW2 5901   5.941   6.499   0.023
 1668SOL     OW 5902   4.600   0.203   5.063
 1668SOL    HW1 5903   4.647   0.123   5.026
 1668SOL    HW2 5904   4.555   0.179   5.149
 1669SOL     OW 5905   5.849   6.089   0.245
 1669SOL    HW1 5906   5.774   6.155   0.257
 1669SOL    HW2 5907   5.842   6.046   0.155
 1670SOL     OW 5908   6.191   5.300   5.992
 1670SOL    HW1 5909   6.119   5.233   6.004
 1670SOL    HW2 5910   6.262   5.287   6.062
 1671SOL     OW 5911   4.420   2.883   1.012
 1671SOL    HW1 5912   4.378   2.898   0.922
 1671SOL    HW2 5913   4.514   2.850   0.999
 1672SOL     OW 5914   1.902   4.086   2.485
 1672SOL    HW1 5915   1.919   4.095   2.583
 1672SOL    HW2 5916   1.911   4.176   2.441
 1673SOL     OW 5917   6.077   3.104   5.068
 1673SOL    HW1 5918   6.116   3.014   5.082
 1673SOL    HW2 5919   5.980   3.103   5.095
 1674SOL     OW 5920   1.419   4.227   0.800
 1674SOL    HW1 5921   1.518   4.213   0.810
 1674SOL    HW2 5922   1.377   4.142   0.771
 1675SOL     OW 5923   4.616   1.193   6.437
 1675SOL    HW1 5924   4.620   1.270   6.374
 1675SOL    HW2 5925   4.525   1.150   6.433
 1676SOL     OW 5926   2.316   1.660   2.517
 1676SOL    HW1 5927   2.229   1.629   2.478
 1676SOL    HW2 5928   2.299   1.739   2.576
 1677SOL     OW 5929   5.936   2.222   5.883
 1677SOL    HW1 5930   5.943   2.264   5.974
 1677SOL    HW2 5931   5.846   2.242   5.844
 1678SOL     OW 5932   5.535   5.673   2.847
 1678SOL    HW1 5933   5.527   5.699   2.943
 1678SOL    HW2 5934   5.628   5.692   2.814
 1679SOL     OW 5935   1.279   3.532   5.407
 1679SOL    HW1 5936   1.370   3.556   5.373
 1679SOL    HW2 5937   1.239   3.612   5.452
 1680SOL     OW 5938   0.865   1.459   4.138
 1680SOL    HW1 5939   0.820   1.483   4.224
 1680SOL    HW2 5940   0.850   1.363   4.117
 1681SOL     OW 5941   6.589   5.205   1.248
 1681SOL    HW1 5942   6.523   5.269   1.288
 1681SOL    HW2 5943   6.618   5.240   1.158
 1682SOL     OW 5944   0.073   3.177   4.893
 1682SOL    HW1 5945   0.013   3.099   4.876
 1682SOL    HW2 5946   0.169   3.147   4.887
 1683SOL     OW 5947   4.398   5.131   1.185
 1683SOL    HW1 5948   4.494   5.129   1.156
 1683SOL    HW2 5949   4.355   5.214   1.151
 1684SOL     OW 5950   0.899   6.697   4.648
 1684SOL    HW1 5951   0.841   6.762   4.698
 1684SOL    HW2 5952   0.889   6.606   4.688
 1685SOL     OW 5953   1.821   1.485   6.714
 1685SOL    HW1 5954   1.837   1.548   6.790
 1685SOL    HW2 5955   1.900   1.486   6.653
 1686SOL     OW 5956   1.308   5.328   5.196
 1686SOL    HW1 5957   1.320   5.402   5.262
 1686SOL    HW2 5958   1.396   5.282   5.182
 1687SOL     OW 5959   1.660   4.486   1.919
 1687SOL    HW1 5960   1.710   4.573   1.924
 1687SOL    HW2 5961   1.685   4.437   1.836
 1688SOL     OW 5962   1.280   1.480   2.964
 1688SOL    HW1 5963   1.226   1.549   2.917
 1688SOL    HW2 5964   1.373   1.478   2.928
 1689SOL     OW 5965   3.287   1.973   2.004
 1689SOL    HW1 5966   3.379   2.002   1.978
 1689SOL    HW2 5967   3.237   1.943   1.923
 1690SOL     OW 5968   1.541   1.695   2.319
 1690SOL    HW1 5969   1.441   1.689   2.327
 1690SOL    HW2 5970   1.579   1.739   2.400
 1691SOL     OW 5971   5.400   3.650   3.288
 1691SOL    HW1 5972   5.409   3.638   3.189
 1691SOL    HW2 5973   5.459   3.725   3.318
 1692SOL     OW 5974   0.022   7.013   1.418
 1692SOL    HW1 5975   0.095   6.944   1.418
 1692SOL    HW2 5976   7.015   0.017   1.512
 1693SOL     OW 5977   2.001   2.795   3.611
 1693SOL    HW1 5978   1.967   2.706   3.579
 1693SOL    HW2 5979   2.101   2.797   3.605
 1694SOL     OW 5980   4.162   5.817   4.831
 1694SOL    HW1 5981   4.119   5.908   4.833
 1694SOL    HW2 5982   4.214   5.803   4.915
 1695SOL     OW 5983   2.130   2.256   5.450
 1695SOL    HW1 5984   2.070   2.191   5.497
 1695SOL    HW2 5985   2.094   2.348   5.459
 1696SOL     OW 5986   5.042   5.591   0.249
 1696SOL    HW1 5987   5.070   5.605   0.154
 1696SOL    HW2 5988   5.011   5.677   0.288
 1697SOL     OW 5989   0.947   7.004   1.332
 1697SOL    HW1 5990   0.920   6.914   1.366
 1697SOL    HW2 5991   1.036   6.997   1.286
 1698SOL     OW 5992   5.134   1.804   1.107
 1698SOL    HW1 5993   5.108   1.847   1.193
 1698SOL    HW2 5994   5.121   1.868   1.032
 1699SOL     OW 5995   2.494   2.982   1.202
 1699SOL    HW1 5996   2.529   2.971   1.295
 1699SOL    HW2 5997   2.567   2.962   1.137
 1700SOL     OW 5998   6.583   2.250   3.247
 1700SOL    HW1 5999   6.494   2.205   3.259
 1700SOL    HW2 6000   6.636   2.201   3.178
 1701SOL     OW 6001   5.474   2.326   4.776
 1701SOL    HW1 6002   5.441   2.283   4.860
 1701SOL    HW2 6003   5.556   2.278   4.745
 1702SOL     OW 6004   6.353   3.544   1.574
 1702SOL    HW1 6005   6.295   3.614   1.617
 1702SOL    HW2 6006   6.433   3.588   1.535
 1703SOL     OW 6007   3.104   3.802   1.524
 1703SOL    HW1 6008   3.137   3.749   1.446
 1703SOL    HW2 6009   3.061   3.741   1.590
 1704SOL     OW 6010   0.756   1.362   0.937
 1704SOL    HW1 6011   0.741   1.301   0.859
 1704SOL    HW2 6012   0.847   1.404   0.929
 1705SOL     OW 6013   3.487   2.345   1.365
 1705SOL    HW1 6014   3.534   2.420   1.412
 1705SOL    HW2 6015   3.505   2.351   1.266
 1706SOL     OW 6016   4.233   0.563   0.701
 1706SOL    HW1 6017   4.257   0.587   0.607
 1706SOL    HW2 6018   4.144   0.601   0.724
 1707SOL     OW 6019   4.435   1.688   2.556
 1707SOL    HW1 6020   4.527   1.679   2.595
 1707SOL    HW2 6021   4.400   1.779   2.577
 1708SOL     OW 6022   6.633   6.258   3.019
 1708SOL    HW1 6023   6.670   6.350   3.002
 1708SOL    HW2 6024   6.578   6.229   2.941
 1709SOL     OW 6025   2.403   6.901   2.362
 1709SOL    HW1 6026   2.468   6.872   2.292
 1709SOL    HW2 6027   2.371   6.994   2.341
 1710SOL     OW 6028   0.244   4.297   3.473
 1710SOL    HW1 6029   0.216   4.384   3.433
 1710SOL    HW2 6030   0.168   4.232   3.466
 1711SOL     OW 6031   1.230   4.700   5.028
 1711SOL    HW1 6032   1.222   4.627   4.959
 1711SOL    HW2 6033   1.317   4.748   5.016
 1712SOL     OW 6034   0.458   4.083   0.233
 1712SOL    HW1 6035   0.446   4.168   0.183
 1712SOL    HW2 6036   0.368   4.044   0.254
 1713SOL     OW 6037   2.209   2.633   1.734
 1713SOL    HW1 6038   2.130   2.674   1.688
 1713SOL    HW2 6039   2.182   2.546   1.776
 1714SOL     OW 6040   3.819   1.843   6.859
 1714SOL    HW1 6041   3.875   1.846   6.777
 1714SOL    HW2 6042   3.877   1.859   6.940
 1715SOL     OW 6043   0.100   3.154   3.313
 1715SOL    HW1 6044   0.094   3.064   3.270
 1715SOL    HW2 6045   0.009   3.191   3.327
 1716SOL     OW 6046   6.190   0.487   1.266
 1716SOL    HW1 6047   6.256   0.482   1.191
 1716SOL    HW2 6048   6.231   0.534   1.344
 1717SOL     OW 6049   2.219   5.988   0.012
 1717SOL    HW1 6050   2.185   6.027   0.096
 1717SOL    HW2 6051   2.280   6.053   6.985
 1718SOL     OW 6052   2.194   3.541   0.018
 1718SOL    HW1 6053   2.194   3.461   0.078
 1718SOL    HW2 6054   2.100   3.561   7.009
 1719SOL     OW 6055   2.019   3.130   1.376
 1719SOL    HW1 6056   1.996   3.131   1.279
 1719SOL    HW2 6057   2.041   3.223   1.406
 1720SOL     OW 6058   6.718   1.908   0.754
 1720SOL    HW1 6059   6.685   1.818   0.781
 1720SOL    HW2 6060   6.738   1.908   0.656
 1721SOL     OW 6061   1.527   6.080   2.879
 1721SOL    HW1 6062   1.448   6.110   2.932
 1721SOL    HW2 6063   1.500   6.066   2.784
 1722SOL     OW 6064   5.879   0.287   2.690
 1722SOL    HW1 6065   5.826   0.240   2.761
 1722SOL    HW2 6066   5.817   0.320   2.618
 1723SOL     OW 6067   6.363   2.276   2.843
 1723SOL    HW1 6068   6.372   2.187   2.888
 1723SOL    HW2 6069   6.415   2.275   2.757
 1724SOL     OW 6070   6.060   0.779   0.337
 1724SOL    HW1 6071   6.021   0.867   0.364
 1724SOL    HW2 6072   6.003   0.705   0.372
 1725SOL     OW 6073   3.688   4.503   0.361
 1725SOL    HW1 6074   3.712   4.406   0.364
 1725SOL    HW2 6075   3.699   4.537   0.268
 1726SOL     OW 6076   6.523   4.724   4.645
 1726SOL    HW1 6077   6.613   4.732   4.603
 1726SOL    HW2 6078   6.462   4.674   4.583
 1727SOL     OW 6079   4.019   3.915   4.728
 1727SOL    HW1 6080   4.106   3.934   4.772
 1727SOL    HW2 6081   4.028   3.926   4.629
 1728SOL     OW 6082   4.944   4.525   4.551
 1728SOL    HW1 6083   5.029   4.507   4.599
 1728SOL    HW2 6084   4.954   4.504   4.454
 1729SOL     OW 6085   1.562   3.739   3.188
 1729SOL    HW1 6086   1.642   3.693   3.149
 1729SOL    HW2 6087   1.532   3.689   3.269
 1730SOL     OW 6088   6.700   1.524   4.887
 1730SOL    HW1 6089   6.637   1.519   4.809
 1730SOL    HW2 6090   6.792   1.500   4.857
 1731SOL     OW 6091   1.923   4.981   2.032
 1731SOL    HW1 6092   1.984   4.914   2.076
 1731SOL    HW2 6093   1.924   4.967   1.933
 1732SOL     OW 6094   2.183   4.818   0.079
 1732SOL    HW1 6095   2.281   4.828   0.060
 1732SOL    HW2 6096   2.143   4.755   0.013
 1733SOL     OW 6097   1.016   3.800   2.240
 1733SOL    HW1 6098   0.961   3.829   2.162
 1733SOL    HW2 6099   1.067   3.879   2.275
 1734SOL     OW 6100   4.315   2.789   1.242
 1734SOL    HW1 6101   4.354   2.844   1.168
 1734SOL    HW2 6102   4.262   2.848   1.302
 1735SOL     OW 6103   6.073   5.808   1.720
 1735SOL    HW1 6104   6.082   5.843   1.627
 1735SOL    HW2 6105   6.020   5.723   1.718
 1736SOL     OW 6106   4.752   2.990   6.919
 1736SOL    HW1 6107   4.779   3.075   6.965
 1736SOL    HW2 6108   4.785   2.912   6.971
 1737SOL     OW 6109   2.300   0.060   3.738
 1737SOL    HW1 6110   2.359   0.011   3.674
 1737SOL    HW2 6111   2.348   0.140   3.773
 1738SOL     OW 6112   2.050   2.676   2.785
 1738SOL    HW1 6113   1.953   2.684   2.764
 1738SOL    HW2 6114   2.093   2.766   2.776
 1739SOL     OW 6115   4.431   2.337   4.966
 1739SOL    HW1 6116   4.479   2.371   5.047
 1739SOL    HW2 6117   4.333   2.351   4.977
 1740SOL     OW 6118   6.938   0.960   6.606
 1740SOL    HW1 6119   6.964   1.047   6.647
 1740SOL    HW2 6120   6.927   0.972   6.507
 1741SOL     OW 6121   2.269   0.774   2.771
 1741SOL    HW1 6122   2.339   0.741   2.706
 1741SOL    HW2 6123   2.307   0.773   2.863
 1742SOL     OW 6124   4.862   6.683   6.083
 1742SOL    HW1 6125   4.793   6.704   6.153
 1742SOL    HW2 6126   4.828   6.712   5.993
 1743SOL     OW 6127   2.180   0.918   2.175
 1743SOL    HW1 6128   2.277   0.942   2.170
 1743SOL    HW2 6129   2.127   0.979   2.116
 1744SOL     OW 6130   2.125   0.606   1.238
 1744SOL    HW1 6131   2.077   0.600   1.325
 1744SOL    HW2 6132   2.210   0.658   1.251
 1745SOL     OW 6133   6.719   1.661   4.138
 1745SOL    HW1 6134   6.801   1.667   4.195
 1745SOL    HW2 6135   6.641   1.633   4.195
 1746SOL     OW 6136   2.842   5.947   6.147
 1746SOL    HW1 6137   2.912   5.985   6.207
 1746SOL    HW2 6138   2.817   6.014   6.077
 1747SOL     OW 6139   4.956   0.094   1.999
 1747SOL    HW1 6140   5.050   0.104   1.967
 1747SOL    HW2 6141   4.907   0.180   1.986
 1748SOL     OW 6142   6.068   1.736   3.902
 1748SOL    HW1 6143   6.036   1.649   3.865
 1748SOL    HW2 6144   6.092   1.797   3.826
 1749SOL     OW 6145   3.801   0.055   6.474
 1749SOL    HW1 6146   3.826   6.984   6.511
 1749SOL    HW2 6147   3.796   0.122   6.549
 1750SOL     OW 6148   5.508   1.338   2.751
 1750SOL    HW1 6149   5.581   1.395   2.787
 1750SOL    HW2 6150   5.507   1.251   2.799
 1751SOL     OW 6151   2.577   4.662   5.056
 1751SOL    HW1 6152   2.555   4.618   5.144
 1751SOL    HW2 6153   2.671   4.638   5.031
 1752SOL     OW 6154   6.473   2.010   0.836
 1752SOL    HW1 6155   6.559   2.004   0.784
 1752SOL    HW2 6156   6.396   2.014   0.773
 1753SOL     OW 6157   0.819   0.233   0.042
 1753SOL    HW1 6158   0.881   0.194   0.110
 1753SOL    HW2 6159   0.866   0.241   6.972
 1754SOL     OW 6160   3.645   3.837   0.400
 1754SOL    HW1 6161   3.687   3.776   0.333
 1754SOL    HW2 6162   3.580   3.785   0.456
 1755SOL     OW 6163   5.427   4.430   1.698
 1755SOL    HW1 6164   5.356   4.404   1.763
 1755SOL    HW2 6165   5.449   4.527   1.710
 1756SOL     OW 6166   5.998   4.927   4.336
 1756SOL    HW1 6167   5.919   4.878   4.374
 1756SOL    HW2 6168   6.058   4.862   4.291
 1757SOL     OW 6169   1.837   6.557   4.921
 1757SOL    HW1 6170   1.914   6.544   4.983
 1757SOL    HW2 6171   1.860   6.629   4.855
 1758SOL     OW 6172   3.155   1.262   3.149
 1758SOL    HW1 6173   3.216   1.308   3.214
 1758SOL    HW2 6174   3.137   1.322   3.071
 1759SOL     OW 6175   0.473   4.667   6.377
 1759SOL    HW1 6176   0.547   4.647   6.313
 1759SOL    HW2 6177   0.462   4.766   6.385
 1760SOL     OW 6178   6.319   1.707   1.403
 1760SOL    HW1 6179   6.229   1.673   1.430
 1760SOL    HW2 6180   6.313   1.754   1.315
 1761SOL     OW 6181   6.718   0.879   0.646
 1761SOL    HW1 6182   6.646   0.934   0.602
 1761SOL    HW2 6183   6.759   0.932   0.720
 1762SOL     OW 6184   6.227   2.076   5.402
 1762SOL    HW1 6185   6.290   2.012   5.358
 1762SOL    HW2 6186   6.255   2.170   5.383
 1763SOL     OW 6187   2.089   3.815   4.244
 1763SOL    HW1 6188   2.118   3.785   4.154
 1763SOL    HW2 6189   2.138   3.898   4.270
 1764SOL     OW 6190   2.196   3.826   2.987
 1764SOL    HW1 6191   2.290   3.806   3.014
 1764SOL    HW2 6192   2.152   3.743   2.953
 1765SOL     OW 6193   2.981   1.252   6.711
 1765SOL    HW1 6194   3.008   1.306   6.791
 1765SOL    HW2 6195   3.062   1.232   6.656
 1766SOL     OW 6196   5.669   2.796   4.782
 1766SOL    HW1 6197   5.577   2.780   4.817
 1766SOL    HW2 6198   5.709   2.709   4.752
 1767SOL     OW 6199   5.128   4.052   2.623
 1767SOL    HW1 6200   5.031   4.029   2.624
 1767SOL    HW2 6201   5.177   3.984   2.569
 1768SOL     OW 6202   4.635   0.343   4.775
 1768SOL    HW1 6203   4.689   0.370   4.856
 1768SOL    HW2 6204   4.615   0.245   4.780
 1769SOL     OW 6205   3.935   1.999   4.330
 1769SOL    HW1 6206   3.994   1.942   4.386
 1769SOL    HW2 6207   3.976   2.089   4.317
 1770SOL     OW 6208   1.640   5.482   4.641
 1770SOL    HW1 6209   1.656   5.561   4.700
 1770SOL    HW2 6210   1.575   5.506   4.568
 1771SOL     OW 6211   2.647   5.733   6.902
 1771SOL    HW1 6212   2.587   5.770   6.831
 1771SOL    HW2 6213   2.741   5.762   6.885
 1772SOL     OW 6214   3.614   0.014   4.010
 1772SOL    HW1 6215   3.634   0.112   4.011
 1772SOL    HW2 6216   3.675   6.986   4.074
 1773SOL     OW 6217   2.419   5.151   5.784
 1773SOL    HW1 6218   2.432   5.126   5.688
 1773SOL    HW2 6219   2.445   5.247   5.797
 1774SOL     OW 6220   4.411   5.517   1.945
 1774SOL    HW1 6221   4.509   5.501   1.943
 1774SOL    HW2 6222   4.385   5.557   2.033
 1775SOL     OW 6223   1.246   3.879   2.753
 1775SOL    HW1 6224   1.331   3.873   2.807
 1775SOL    HW2 6225   1.256   3.825   2.670
 1776SOL     OW 6226   3.831   6.478   4.463
 1776SOL    HW1 6227   3.907   6.420   4.432
 1776SOL    HW2 6228   3.778   6.508   4.384
 1777SOL     OW 6229   3.932   5.628   6.410
 1777SOL    HW1 6230   4.005   5.664   6.352
 1777SOL    HW2 6231   3.926   5.682   6.494
 1778SOL     OW 6232   4.394   3.641   5.661
 1778SOL    HW1 6233   4.432   3.578   5.594
 1778SOL    HW2 6234   4.368   3.590   5.743
 1779SOL     OW 6235   4.416   0.254   4.468
 1779SOL    HW1 6236   4.375   0.216   4.551
 1779SOL    HW2 6237   4.515   0.261   4.479
 1780SOL     OW 6238   3.540   3.056   7.004
 1780SOL    HW1 6239   3.538   3.060   0.085
 1780SOL    HW2 6240   3.635   3.063   6.973
 1781SOL     OW 6241   3.810   6.286   2.600
 1781SOL    HW1 6242   3.824   6.336   2.685
 1781SOL    HW2 6243   3.785   6.191   2.621
 1782SOL     OW 6244   3.011   1.668   2.853
 1782SOL    HW1 6245   3.063   1.751   2.871
 1782SOL    HW2 6246   2.953   1.681   2.772
 1783SOL     OW 6247   2.117   5.664   5.888
 1783SOL    HW1 6248   2.084   5.757   5.905
 1783SOL    HW2 6249   2.188   5.641   5.954
 1784SOL     OW 6250   4.326   1.186   6.363
 1784SOL    HW1 6251   4.368   1.250   6.427
 1784SOL    HW2 6252   4.265   1.124   6.412
 1785SOL     OW 6253   5.990   3.906   2.790
 1785SOL    HW1 6254   6.007   3.807   2.793
 1785SOL    HW2 6255   5.944   3.930   2.705
 1786SOL     OW 6256   2.376   2.900   0.127
 1786SOL    HW1 6257   2.285   2.859   0.119
 1786SOL    HW2 6258   2.368   2.990   0.170
 1787SOL     OW 6259   2.606   1.373   5.008
 1787SOL    HW1 6260   2.690   1.365   4.955
 1787SOL    HW2 6261   2.582   1.469   5.019
 1788SOL     OW 6262   2.829   3.823   6.445
 1788SOL    HW1 6263   2.765   3.899   6.434
 1788SOL    HW2 6264   2.791   3.756   6.509
 1789SOL     OW 6265   5.806   1.660   2.174
 1789SOL    HW1 6266   5.853   1.668   2.086
 1789SOL    HW2 6267   5.870   1.676   2.248
 1790SOL     OW 6268   3.977   6.284   3.818
 1790SOL    HW1 6269   4.020   6.372   3.799
 1790SOL    HW2 6270   3.955   6.238   3.732
 1791SOL     OW 6271   6.406   0.477   3.514
 1791SOL    HW1 6272   6.474   0.470   3.587
 1791SOL    HW2 6273   6.418   0.564   3.467
 1792SOL     OW 6274   6.212   3.317   5.285
 1792SOL    HW1 6275   6.252   3.237   5.240
 1792SOL    HW2 6276   6.286   3.373   5.323
 1793SOL     OW 6277   6.065   6.821   3.858
 1793SOL    HW1 6278   6.163   6.802   3.854
 1793SOL    HW2 6279   6.051   6.919   3.876
 1794SOL     OW 6280   5.224   6.341   5.720
 1794SOL    HW1 6281   5.132   6.321   5.688
 1794SOL    HW2 6282   5.290   6.286   5.670
 1795SOL     OW 6283   1.108   2.250   1.336
 1795SOL    HW1 6284   1.135   2.309   1.259
 1795SOL    HW2 6285   1.016   2.214   1.320
 1796SOL     OW 6286   2.682   0.743   5.548
 1796SOL    HW1 6287   2.742   0.663   5.542
 1796SOL    HW2 6288   2.592   0.719   5.512
 1797SOL     OW 6289   1.566   6.988   0.273
 1797SOL    HW1 6290   1.557   0.064   0.304
 1797SOL    HW2 6291   1.643   6.981   0.209
 1798SOL     OW 6292   4.535   2.310   3.889
 1798SOL    HW1 6293   4.542   2.395   3.837
 1798SOL    HW2 6294   4.599   2.313   3.966
 1799SOL     OW 6295   0.041   2.756   5.392
 1799SOL    HW1 6296   6.974   2.795   5.425
 1799SOL    HW2 6297   0.054   2.665   5.433
 1800SOL     OW 6298   4.201   4.659   1.597
 1800SOL    HW1 6299   4.250   4.644   1.512
 1800SOL    HW2 6300   4.146   4.742   1.590
 1801SOL     OW 6301   0.333   0.058   1.617
 1801SOL    HW1 6302   0.315   0.025   1.524
 1801SOL    HW2 6303   0.305   7.006   1.683
 1802SOL     OW 6304   5.234   5.499   4.488
 1802SOL    HW1 6305   5.316   5.490   4.544
 1802SOL    HW2 6306   5.205   5.408   4.457
 1803SOL     OW 6307   0.191   5.449   6.520
 1803SOL    HW1 6308   0.203   5.479   6.615
 1803SOL    HW2 6309   0.267   5.482   6.465
 1804SOL     OW 6310   2.344   3.701   5.269
 1804SOL    HW1 6311   2.324   3.742   5.358
 1804SOL    HW2 6312   2.371   3.774   5.205
 1805SOL     OW 6313   5.583   4.090   6.191
 1805SOL    HW1 6314   5.604   4.113   6.286
 1805SOL    HW2 6315   5.503   4.142   6.161
 1806SOL     OW 6316   0.534   0.117   6.811
 1806SOL    HW1 6317   0.554   0.102   6.908
 1806SOL    HW2 6318   0.618   0.119   6.758
 1807SOL     OW 6319   5.035   2.793   4.528
 1807SOL    HW1 6320   5.041   2.803   4.628
 1807SOL    HW2 6321   5.005   2.879   4.488
 1808SOL     OW 6322   0.498   4.168   5.546
 1808SOL    HW1 6323   0.407   4.162   5.507
 1808SOL    HW2 6324   0.500   4.239   5.616
 1809SOL     OW 6325   2.385   2.370   4.831
 1809SOL    HW1 6326   2.414   2.370   4.926
 1809SOL    HW2 6327   2.406   2.458   4.789
 1810SOL     OW 6328   2.659   6.725   3.925
 1810SOL    HW1 6329   2.611   6.777   3.996
 1810SOL    HW2 6330   2.734   6.779   3.888
 1811SOL     OW 6331   5.737   6.127   3.069
 1811SOL    HW1 6332   5.734   6.073   3.153
 1811SOL    HW2 6333   5.650   6.176   3.058
 1812SOL     OW 6334   4.006   6.134   4.815
 1812SOL    HW1 6335   4.052   6.198   4.877
 1812SOL    HW2 6336   3.944   6.076   4.867
 1813SOL     OW 6337   6.196   4.466   0.765
 1813SOL    HW1 6338   6.191   4.371   0.734
 1813SOL    HW2 6339   6.267   4.514   0.715
 1814SOL     OW 6340   5.201   0.049   2.199
 1814SOL    HW1 6341   5.256   0.008   2.126
 1814SOL    HW2 6342   5.104   0.031   2.182
 1815SOL     OW 6343   0.632   2.010   2.290
 1815SOL    HW1 6344   0.581   2.092   2.263
 1815SOL    HW2 6345   0.687   1.979   2.213
 1816SOL     OW 6346   2.845   3.443   0.896
 1816SOL    HW1 6347   2.810   3.415   0.807
 1816SOL    HW2 6348   2.937   3.480   0.885
 1817SOL     OW 6349   2.628   6.867   2.214
 1817SOL    HW1 6350   2.662   6.813   2.138
 1817SOL    HW2 6351   2.641   6.965   2.195
 1818SOL     OW 6352   1.245   0.027   3.030
 1818SOL    HW1 6353   1.197   0.025   2.943
 1818SOL    HW2 6354   1.304   6.966   3.038
 1819SOL     OW 6355   0.819   4.415   2.092
 1819SOL    HW1 6356   0.738   4.356   2.089
 1819SOL    HW2 6357   0.829   4.462   2.005
 1820SOL     OW 6358   3.922   1.197   3.028
 1820SOL    HW1 6359   3.986   1.243   3.090
 1820SOL    HW2 6360   3.928   1.239   2.937
 1821SOL     OW 6361   1.285   1.664   2.377
 1821SOL    HW1 6362   1.200   1.663   2.325
 1821SOL    HW2 6363   1.312   1.570   2.399
 1822SOL     OW 6364   3.448   2.643   1.016
 1822SOL    HW1 6365   3.479   2.735   1.042
 1822SOL    HW2 6366   3.378   2.612   1.080
 1823SOL     OW 6367   3.649   5.999   3.565
 1823SOL    HW1 6368   3.631   6.011   3.467
 1823SOL    HW2 6369   3.633   5.904   3.591
 1824SOL     OW 6370   3.880   2.401   1.191
 1824SOL    HW1 6371   3.945   2.415   1.116
 1824SOL    HW2 6372   3.892   2.474   1.259
 1825SOL     OW 6373   1.151   0.306   2.298
 1825SOL    HW1 6374   1.098   0.390   2.312
 1825SOL    HW2 6375   1.089   0.231   2.277
 1826SOL     OW 6376   3.059   1.581   1.282
 1826SOL    HW1 6377   3.030   1.649   1.350
 1826SOL    HW2 6378   2.982   1.520   1.261
 1827SOL     OW 6379   0.306   4.935   2.101
 1827SOL    HW1 6380   0.277   4.855   2.153
 1827SOL    HW2 6381   0.398   4.962   2.130
 1828SOL     OW 6382   0.357   2.653   6.899
 1828SOL    HW1 6383   0.376   2.594   6.821
 1828SOL    HW2 6384   0.287   2.720   6.874
 1829SOL     OW 6385   4.980   0.158   3.012
 1829SOL    HW1 6386   4.996   0.061   2.996
 1829SOL    HW2 6387   4.883   0.180   2.998
 1830SOL     OW 6388   5.407   5.804   3.641
 1830SOL    HW1 6389   5.399   5.704   3.645
 1830SOL    HW2 6390   5.498   5.831   3.671
 1831SOL     OW 6391   5.743   6.581   2.852
 1831SOL    HW1 6392   5.683   6.609   2.777
 1831SOL    HW2 6393   5.690   6.531   2.920
 1832SOL     OW 6394   5.405   1.799   1.075
 1832SOL    HW1 6395   5.427   1.771   1.169
 1832SOL    HW2 6396   5.306   1.796   1.061
 1833SOL     OW 6397   5.470   0.489   4.525
 1833SOL    HW1 6398   5.527   0.417   4.565
 1833SOL    HW2 6399   5.376   0.456   4.517
 1834SOL     OW 6400   3.366   4.194   0.106
 1834SOL    HW1 6401   3.413   4.234   0.027
 1834SOL    HW2 6402   3.430   4.137   0.158
 1835SOL     OW 6403   1.209   4.110   1.454
 1835SOL    HW1 6404   1.120   4.150   1.474
 1835SOL    HW2 6405   1.200   4.011   1.440
 1836SOL     OW 6406   6.955   2.240   1.057
 1836SOL    HW1 6407   6.974   2.321   1.112
 1836SOL    HW2 6408   6.955   2.264   0.960
 1837SOL     OW 6409   0.440   1.900   4.027
 1837SOL    HW1 6410   0.448   1.998   4.010
 1837SOL    HW2 6411   0.496   1.875   4.107
 1838SOL     OW 6412   0.300   1.729   3.860
 1838SOL    HW1 6413   0.374   1.662   3.855
 1838SOL    HW2 6414   0.335   1.814   3.901
 1839SOL     OW 6415   4.841   2.580   4.948
 1839SOL    HW1 6416   4.852   2.534   5.036
 1839SOL    HW2 6417   4.754   2.555   4.907
 1840SOL     OW 6418   2.941   6.276   1.786
 1840SOL    HW1 6419   2.966   6.266   1.883
 1840SOL    HW2 6420   3.019   6.311   1.735
 1841SOL     OW 6421   1.968   3.478   4.511
 1841SOL    HW1 6422   1.929   3.473   4.419
 1841SOL    HW2 6423   1.895   3.492   4.578
 1842SOL     OW 6424   0.329   5.335   1.008
 1842SOL    HW1 6425   0.244   5.382   0.984
 1842SOL    HW2 6426   0.349   5.350   1.105
 1843SOL     OW 6427   1.521   2.376   4.734
 1843SOL    HW1 6428   1.615   2.380   4.700
 1843SOL    HW2 6429   1.511   2.435   4.814
 1844SOL     OW 6430   3.943   1.618   5.287
 1844SOL    HW1 6431   4.033   1.638   5.248
 1844SOL    HW2 6432   3.874   1.625   5.215
 1845SOL     OW 6433   2.412   0.306   6.732
 1845SOL    HW1 6434   2.503   0.325   6.695
 1845SOL    HW2 6435   2.416   0.306   6.832
 1846SOL     OW 6436   4.081   1.957   6.781
 1846SOL    HW1 6437   4.146   1.916   6.845
 1846SOL    HW2 6438   4.084   1.907   6.694
 1847SOL     OW 6439   1.402   0.672   6.538
 1847SOL    HW1 6440   1.326   0.737   6.536
 1847SOL    HW2 6441   1.385   0.600   6.471
 1848SOL     OW 6442   1.786   5.717   2.615
 1848SOL    HW1 6443   1.881   5.697   2.641
 1848SOL    HW2 6444   1.745   5.776   2.685
 1849SOL     OW 6445   4.184   0.950   0.664
 1849SOL    HW1 6446   4.136   0.972   0.749
 1849SOL    HW2 6447   4.124   0.969   0.586
 1850SOL     OW 6448   6.045   1.955   2.849
 1850SOL    HW1 6449   6.078   1.950   2.944
 1850SOL    HW2 6450   6.121   1.937   2.786
 1851SOL     OW 6451   0.571   1.534   1.091
 1851SOL    HW1 6452   0.623   1.464   1.043
 1851SOL    HW2 6453   0.527   1.495   1.172
 1852SOL     OW 6454   4.619   3.742   0.981
 1852SOL    HW1 6455   4.569   3.765   0.898
 1852SOL    HW2 6456   4.555   3.732   1.057
 1853SOL     OW 6457   0.796   3.412   2.029
 1853SOL    HW1 6458   0.698   3.396   2.029
 1853SOL    HW2 6459   0.844   3.326   2.012
 1854SOL     OW 6460   2.785   5.732   4.147
 1854SOL    HW1 6461   2.760   5.810   4.204
 1854SOL    HW2 6462   2.723   5.727   4.069
 1855SOL     OW 6463   4.680   4.508   0.116
 1855SOL    HW1 6464   4.760   4.524   0.173
 1855SOL    HW2 6465   4.710   4.479   0.025
 1856SOL     OW 6466   6.003   3.034   5.718
 1856SOL    HW1 6467   5.985   3.128   5.750
 1856SOL    HW2 6468   5.927   2.975   5.746
 1857SOL     OW 6469   4.307   1.227   5.258
 1857SOL    HW1 6470   4.239   1.232   5.331
 1857SOL    HW2 6471   4.394   1.194   5.296
 1858SOL     OW 6472   5.805   3.143   3.615
 1858SOL    HW1 6473   5.870   3.137   3.691
 1858SOL    HW2 6474   5.831   3.078   3.544
 1859SOL     OW 6475   4.077   2.022   3.812
 1859SOL    HW1 6476   4.076   1.927   3.779
 1859SOL    HW2 6477   4.148   2.032   3.881
 1860SOL     OW 6478   6.945   1.302   3.743
 1860SOL    HW1 6479   6.962   1.206   3.722
 1860SOL    HW2 6480   6.928   1.311   3.841
 1861SOL     OW 6481   4.652   6.455   2.064
 1861SOL    HW1 6482   4.583   6.519   2.030
 1861SOL    HW2 6483   4.717   6.503   2.122
 1862SOL     OW 6484   2.120   0.059   0.153
 1862SOL    HW1 6485   2.168   0.063   0.241
 1862SOL    HW2 6486   2.129   6.986   0.115
 1863SOL     OW 6487   2.634   2.891   0.415
 1863SOL    HW1 6488   2.603   2.967   0.472
 1863SOL    HW2 6489   2.554   2.843   0.378
 1864SOL     OW 6490   0.805   7.018   5.374
 1864SOL    HW1 6491   0.740   0.036   5.441
 1864SOL    HW2 6492   0.885   6.982   5.422
 1865SOL     OW 6493   3.813   0.801   5.589
 1865SOL    HW1 6494   3.849   0.744   5.515
 1865SOL    HW2 6495   3.794   0.893   5.555
 1866SOL     OW 6496   4.279   4.657   2.147
 1866SOL    HW1 6497   4.362   4.603   2.133
 1866SOL    HW2 6498   4.259   4.664   2.245
 1867SOL     OW 6499   0.839   3.640   0.315
 1867SOL    HW1 6500   0.832   3.548   0.353
 1867SOL    HW2 6501   0.749   3.684   0.316
 1868SOL     OW 6502   5.353   4.804   6.734
 1868SOL    HW1 6503   5.422   4.734   6.717
 1868SOL    HW2 6504   5.290   4.809   6.657
 1869SOL     OW 6505   6.366   1.881   5.303
 1869SOL    HW1 6506   6.372   1.791   5.347
 1869SOL    HW2 6507   6.420   1.880   5.219
 1870SOL     OW 6508   1.885   4.136   5.610
 1870SOL    HW1 6509   1.927   4.226   5.624
 1870SOL    HW2 6510   1.892   4.082   5.694
 1871SOL     OW 6511   1.251   6.770   0.918
 1871SOL    HW1 6512   1.157   6.742   0.938
 1871SOL    HW2 6513   1.312   6.727   0.985
 1872SOL     OW 6514   3.234   4.178   6.720
 1872SOL    HW1 6515   3.259   4.260   6.771
 1872SOL    HW2 6516   3.317   4.123   6.704
 1873SOL     OW 6517   4.433   1.425   5.544
 1873SOL    HW1 6518   4.501   1.358   5.514
 1873SOL    HW2 6519   4.342   1.392   5.523
 1874SOL     OW 6520   2.742   1.639   1.198
 1874SOL    HW1 6521   2.711   1.696   1.274
 1874SOL    HW2 6522   2.781   1.697   1.127
 1875SOL     OW 6523   1.117   0.622   6.724
 1875SOL    HW1 6524   1.195   0.635   6.785
 1875SOL    HW2 6525   1.052   0.558   6.765
 1876SOL     OW 6526   3.333   0.258   6.103
 1876SOL    HW1 6527   3.427   0.279   6.131
 1876SOL    HW2 6528   3.331   0.243   6.004
 1877SOL     OW 6529   0.216   0.288   3.460
 1877SOL    HW1 6530   0.220   0.359   3.390
 1877SOL    HW2 6531   0.304   0.279   3.505
 1878SOL     OW 6532   6.774   1.656   3.873
 1878SOL    HW1 6533   6.725   1.663   3.960
 1878SOL    HW2 6534   6.733   1.719   3.807
 1879SOL     OW 6535   1.170   3.772   4.256
 1879SOL    HW1 6536   1.088   3.716   4.269
 1879SOL    HW2 6537   1.224   3.771   4.340
 1880SOL     OW 6538   0.089   0.770   4.924
 1880SOL    HW1 6539   0.038   0.855   4.931
 1880SOL    HW2 6540   0.141   0.755   5.008
 1881SOL     OW 6541   6.024   2.035   2.030
 1881SOL    HW1 6542   5.953   2.011   2.097
 1881SOL    HW2 6543   6.040   1.957   1.969
 1882SOL     OW 6544   1.461   4.497   6.436
 1882SOL    HW1 6545   1.435   4.407   6.401
 1882SOL    HW2 6546   1.503   4.550   6.363
 1883SOL     OW 6547   6.342   2.145   2.551
 1883SOL    HW1 6548   6.324   2.095   2.467
 1883SOL    HW2 6549   6.439   2.170   2.556
 1884SOL     OW 6550   1.578   1.878   1.089
 1884SOL    HW1 6551   1.626   1.923   1.014
 1884SOL    HW2 6552   1.592   1.931   1.173
 1885SOL     OW 6553   1.574   1.902   5.981
 1885SOL    HW1 6554   1.650   1.951   5.938
 1885SOL    HW2 6555   1.544   1.829   5.920
 1886SOL     OW 6556   1.999   0.214   1.509
 1886SOL    HW1 6557   1.917   0.227   1.564
 1886SOL    HW2 6558   1.974   0.202   1.413
 1887SOL     OW 6559   0.566   5.572   5.767
 1887SOL    HW1 6560   0.644   5.613   5.720
 1887SOL    HW2 6561   0.579   5.578   5.866
 1888SOL     OW 6562   3.302   1.952   6.948
 1888SOL    HW1 6563   3.341   2.044   6.945
 1888SOL    HW2 6564   3.246   1.942   0.012
 1889SOL     OW 6565   0.144   3.278   3.835
 1889SOL    HW1 6566   0.116   3.268   3.930
 1889SOL    HW2 6567   0.148   3.375   3.811
 1890SOL     OW 6568   0.733   5.634   4.315
 1890SOL    HW1 6569   0.828   5.635   4.344
 1890SOL    HW2 6570   0.713   5.547   4.270
 1891SOL     OW 6571   4.241   2.741   1.655
 1891SOL    HW1 6572   4.260   2.836   1.679
 1891SOL    HW2 6573   4.328   2.694   1.637
 1892SOL     OW 6574   0.275   0.578   1.919
 1892SOL    HW1 6575   0.306   0.638   1.992
 1892SOL    HW2 6576   0.179   0.553   1.934
 1893SOL     OW 6577   3.682   2.944   2.053
 1893SOL    HW1 6578   3.737   2.902   1.981
 1893SOL    HW2 6579   3.737   2.952   2.136
 1894SOL     OW 6580   3.441   3.762   4.079
 1894SOL    HW1 6581   3.523   3.729   4.033
 1894SOL    HW2 6582   3.466   3.831   4.147
 1895SOL     OW 6583   4.110   0.019   0.979
 1895SOL    HW1 6584   4.158   0.101   1.006
 1895SOL    HW2 6585   4.175   6.970   0.943
 1896SOL     OW 6586   6.422   1.384   0.484
 1896SOL    HW1 6587   6.427   1.397   0.385
 1896SOL    HW2 6588   6.513   1.368   0.521
 1897SOL     OW 6589   1.676   4.743   2.215
 1897SOL    HW1 6590   1.767   4.703   2.215
 1897SOL    HW2 6591   1.608   4.670   2.207
 1898SOL     OW 6592   2.299   4.139   2.317
 1898SOL    HW1 6593   2.259   4.161   2.228
 1898SOL    HW2 6594   2.393   4.173   2.320
 1899SOL     OW 6595   1.049   0.927   0.062
 1899SOL    HW1 6596   0.972   0.986   0.037
 1899SOL    HW2 6597   1.115   0.925   7.005
 1900SOL     OW 6598   2.671   0.896   6.482
 1900SOL    HW1 6599   2.739   0.924   6.550
 1900SOL    HW2 6600   2.646   0.800   6.499
 1901SOL     OW 6601   2.669   2.433   0.940
 1901SOL    HW1 6602   2.605   2.373   0.893
 1901SOL    HW2 6603   2.629   2.464   1.027
 1902SOL     OW 6604   2.431   0.602   4.717
 1902SOL    HW1 6605   2.470   0.511   4.704
 1902SOL    HW2 6606   2.502   0.671   4.705
 1903SOL     OW 6607   0.790   3.493   3.097
 1903SOL    HW1 6608   0.864   3.503   3.164
 1903SOL    HW2 6609   0.731   3.417   3.124
 1904SOL     OW 6610   5.614   5.282   2.747
 1904SOL    HW1 6611   5.640   5.185   2.747
 1904SOL    HW2 6612   5.684   5.335   2.795
 1905SOL     OW 6613   0.742   0.498   3.384
 1905SOL    HW1 6614   0.738   0.475   3.481
 1905SOL    HW2 6615   0.730   0.416   3.329
 1906SOL     OW 6616   2.572   0.677   5.814
 1906SOL    HW1 6617   2.645   0.729   5.771
 1906SOL    HW2 6618   2.563   0.588   5.769
 1907SOL     OW 6619   4.645   2.575   1.191
 1907SOL    HW1 6620   4.592   2.612   1.267
 1907SOL    HW2 6621   4.625   2.478   1.180
 1908SOL     OW 6622   3.977   6.681   6.394
 1908SOL    HW1 6623   3.915   6.618   6.347
 1908SOL    HW2 6624   4.071   6.650   6.384
 1909SOL     OW 6625   0.805   3.038   3.782
 1909SOL    HW1 6626   0.753   2.992   3.710
 1909SOL    HW2 6627   0.764   3.018   3.871
 1910SOL     OW 6628   6.451   6.092   5.711
 1910SOL    HW1 6629   6.403   6.122   5.629
 1910SOL    HW2 6630   6.499   6.006   5.693
 1911SOL     OW 6631   6.786   3.698   4.613
 1911SOL    HW1 6632   6.878   3.696   4.651
 1911SOL    HW2 6633   6.725   3.747   4.676
 1912SOL     OW 6634   2.771   5.484   2.672
 1912SOL    HW1 6635   2.742   5.471   2.767
 1912SOL    HW2 6636   2.742   5.573   2.639
 1913SOL     OW 6637   2.060   6.631   4.503
 1913SOL    HW1 6638   2.156   6.616   4.527
 1913SOL    HW2 6639   2.020   6.546   4.470
 1914SOL     OW 6640   4.137   3.952   6.573
 1914SOL    HW1 6641   4.223   3.901   6.576
 1914SOL    HW2 6642   4.150   4.042   6.613
 1915SOL     OW 6643   4.848   2.932   5.754
 1915SOL    HW1 6644   4.853   2.833   5.769
 1915SOL    HW2 6645   4.794   2.950   5.672
 1916SOL     OW 6646   4.454   6.473   1.431
 1916SOL    HW1 6647   4.377   6.410   1.446
 1916SOL    HW2 6648   4.429   6.540   1.362
 1917SOL     OW 6649   2.765   3.877   0.107
 1917SOL    HW1 6650   2.713   3.898   0.190
 1917SOL    HW2 6651   2.702   3.846   0.035
 1918SOL     OW 6652   1.156   0.973   4.693
 1918SOL    HW1 6653   1.192   1.058   4.732
 1918SOL    HW2 6654   1.108   0.993   4.608
 1919SOL     OW 6655   2.013   1.751   1.004
 1919SOL    HW1 6656   2.041   1.708   1.090
 1919SOL    HW2 6657   1.952   1.689   0.954
 1920SOL     OW 6658   5.944   2.944   2.284
 1920SOL    HW1 6659   5.876   3.010   2.253
 1920SOL    HW2 6660   5.899   2.867   2.329
 1921SOL     OW 6661   1.015   2.925   0.079
 1921SOL    HW1 6662   1.073   2.844   0.086
 1921SOL    HW2 6663   0.922   2.899   0.054
 1922SOL     OW 6664   3.173   3.466   1.912
 1922SOL    HW1 6665   3.183   3.368   1.933
 1922SOL    HW2 6666   3.078   3.493   1.925
 1923SOL     OW 6667   4.811   0.847   0.349
 1923SOL    HW1 6668   4.852   0.821   0.436
 1923SOL    HW2 6669   4.714   0.823   0.349
 1924SOL     OW 6670   4.623   0.230   0.941
 1924SOL    HW1 6671   4.720   0.238   0.965
 1924SOL    HW2 6672   4.615   0.200   0.847
 1925SOL     OW 6673   0.736   4.270   1.680
 1925SOL    HW1 6674   0.653   4.257   1.627
 1925SOL    HW2 6675   0.738   4.205   1.756
 1926SOL     OW 6676   3.569   0.042   1.794
 1926SOL    HW1 6677   3.588   0.056   1.697
 1926SOL    HW2 6678   3.583   0.127   1.844
 1927SOL     OW 6679   2.412   3.898   0.769
 1927SOL    HW1 6680   2.427   3.810   0.815
 1927SOL    HW2 6681   2.324   3.936   0.800
 1928SOL     OW 6682   4.784   5.096   3.980
 1928SOL    HW1 6683   4.882   5.114   3.971
 1928SOL    HW2 6684   4.763   5.078   4.076
 1929SOL     OW 6685   2.709   0.835   2.087
 1929SOL    HW1 6686   2.747   0.744   2.067
 1929SOL    HW2 6687   2.777   0.905   2.065
 1930SOL     OW 6688   5.100   3.131   6.363
 1930SOL    HW1 6689   5.043   3.153   6.442
 1930SOL    HW2 6690   5.100   3.032   6.349
 1931SOL     OW 6691   0.992   1.730   6.645
 1931SOL    HW1 6692   1.008   1.648   6.701
 1931SOL    HW2 6693   0.920   1.711   6.579
 1932SOL     OW 6694   4.574   2.579   3.085
 1932SOL    HW1 6695   4.496   2.517   3.090
 1932SOL    HW2 6696   4.622   2.579   3.173
 1933SOL     OW 6697   0.482   1.971   0.040
 1933SOL    HW1 6698   0.466   1.994   0.136
 1933SOL    HW2 6699   0.424   1.893   0.015
 1934SOL     OW 6700   0.337   0.255   5.899
 1934SOL    HW1 6701   0.435   0.273   5.908
 1934SOL    HW2 6702   0.314   0.169   5.945
 1935SOL     OW 6703   4.723   4.369   3.857
 1935SOL    HW1 6704   4.705   4.392   3.762
 1935SOL    HW2 6705   4.644   4.394   3.914
 1936SOL     OW 6706   5.132   3.802   3.969
 1936SOL    HW1 6707   5.126   3.894   4.008
 1936SOL    HW2 6708   5.220   3.761   3.994
 1937SOL     OW 6709   4.570   6.064   6.853
 1937SOL    HW1 6710   4.509   5.994   6.816
 1937SOL    HW2 6711   4.631   6.097   6.780
 1938SOL     OW 6712   1.358   2.670   6.717
 1938SOL    HW1 6713   1.272   2.681   6.768
 1938SOL    HW2 6714   1.338   2.661   6.620
 1939SOL     OW 6715   0.614   5.571   4.613
 1939SOL    HW1 6716   0.630   5.502   4.683
 1939SOL    HW2 6717   0.661   5.545   4.528
 1940SOL     OW 6718   5.940   4.468   1.763
 1940SOL    HW1 6719   5.878   4.389   1.764
 1940SOL    HW2 6720   5.959   4.496   1.857
 1941SOL     OW 6721   0.243   2.705   3.538
 1941SOL    HW1 6722   0.315   2.768   3.511
 1941SOL    HW2 6723   0.270   2.611   3.514
 1942SOL     OW 6724   5.369   3.493   2.525
 1942SOL    HW1 6725   5.438   3.451   2.467
 1942SOL    HW2 6726   5.399   3.584   2.553
 1943SOL     OW 6727   0.968   1.318   2.050
 1943SOL    HW1 6728   1.028   1.263   2.109
 1943SOL    HW2 6729   1.022   1.392   2.009
 1944SOL     OW 6730   6.908   3.398   0.731
 1944SOL    HW1 6731   6.921   3.495   0.715
 1944SOL    HW2 6732   6.814   3.373   0.709
 1945SOL     OW 6733   4.080   6.605   0.828
 1945SOL    HW1 6734   4.032   6.616   0.742
 1945SOL    HW2 6735   4.015   6.607   0.904
 1946SOL     OW 6736   6.255   5.966   1.145
 1946SOL    HW1 6737   6.214   5.904   1.078
 1946SOL    HW2 6738   6.235   5.932   1.237
 1947SOL     OW 6739   6.195   4.617   3.491
 1947SOL    HW1 6740   6.264   4.572   3.548
 1947SOL    HW2 6741   6.104   4.585   3.518
 1948SOL     OW 6742   5.857   3.935   3.035
 1948SOL    HW1 6743   5.909   3.920   2.951
 1948SOL    HW2 6744   5.763   3.958   3.011
 1949SOL     OW 6745   3.927   4.038   0.465
 1949SOL    HW1 6746   4.014   4.070   0.428
 1949SOL    HW2 6747   3.907   4.089   0.549
 1950SOL     OW 6748   3.777   3.939   3.925
 1950SOL    HW1 6749   3.809   3.922   3.832
 1950SOL    HW2 6750   3.700   4.003   3.922
 1951SOL     OW 6751   6.697   4.419   5.659
 1951SOL    HW1 6752   6.719   4.516   5.661
 1951SOL    HW2 6753   6.774   4.368   5.620
 1952SOL     OW 6754   5.128   4.044   1.179
 1952SOL    HW1 6755   5.213   4.094   1.161
 1952SOL    HW2 6756   5.118   3.970   1.113
 1953SOL     OW 6757   0.270   1.213   6.514
 1953SOL    HW1 6758   0.247   1.205   6.417
 1953SOL    HW2 6759   0.187   1.199   6.569
 1954SOL     OW 6760   4.901   0.429   1.664
 1954SOL    HW1 6761   4.937   0.428   1.757
 1954SOL    HW2 6762   4.880   0.336   1.636
 1955SOL     OW 6763   0.739   1.527   2.061
 1955SOL    HW1 6764   0.800   1.596   2.102
 1955SOL    HW2 6765   0.784   1.484   1.983
 1956SOL     OW 6766   5.466   1.078   2.852
 1956SOL    HW1 6767   5.537   1.009   2.836
 1956SOL    HW2 6768   5.415   1.055   2.934
 1957SOL     OW 6769   5.243   2.863   3.677
 1957SOL    HW1 6770   5.336   2.899   3.679
 1957SOL    HW2 6771   5.244   2.766   3.703
 1958SOL     OW 6772   4.444   1.643   0.849
 1958SOL    HW1 6773   4.400   1.651   0.760
 1958SOL    HW2 6774   4.381   1.675   0.920
 1959SOL     OW 6775   6.937   6.748   4.105
 1959SOL    HW1 6776   6.971   6.737   4.011
 1959SOL    HW2 6777   7.006   6.717   4.170
 1960SOL     OW 6778   6.205   3.165   3.006
 1960SOL    HW1 6779   6.110   3.182   3.032
 1960SOL    HW2 6780   6.221   3.067   3.005
 1961SOL     OW 6781   6.330   4.695   4.853
 1961SOL    HW1 6782   6.359   4.609   4.895
 1961SOL    HW2 6783   6.388   4.715   4.774
 1962SOL     OW 6784   1.572   5.799   2.871
 1962SOL    HW1 6785   1.653   5.760   2.916
 1962SOL    HW2 6786   1.581   5.898   2.866
 1963SOL     OW 6787   1.133   1.160   1.569
 1963SOL    HW1 6788   1.107   1.164   1.473
 1963SOL    HW2 6789   1.190   1.079   1.585
 1964SOL     OW 6790   5.510   4.694   1.730
 1964SOL    HW1 6791   5.552   4.690   1.820
 1964SOL    HW2 6792   5.579   4.680   1.660
 1965SOL     OW 6793   0.737   3.920   3.818
 1965SOL    HW1 6794   0.712   4.010   3.852
 1965SOL    HW2 6795   0.828   3.896   3.850
 1966SOL     OW 6796   1.498   5.016   1.363
 1966SOL    HW1 6797   1.538   5.047   1.277
 1966SOL    HW2 6798   1.459   4.925   1.351
 1967SOL     OW 6799   6.758   1.993   3.854
 1967SOL    HW1 6800   6.848   1.972   3.816
 1967SOL    HW2 6801   6.688   1.938   3.807
 1968SOL     OW 6802   2.337   1.245   5.748
 1968SOL    HW1 6803   2.435   1.238   5.733
 1968SOL    HW2 6804   2.307   1.339   5.736
 1969SOL     OW 6805   3.143   0.817   1.338
 1969SOL    HW1 6806   3.178   0.786   1.426
 1969SOL    HW2 6807   3.211   0.878   1.296
 1970SOL     OW 6808   6.268   6.159   4.912
 1970SOL    HW1 6809   6.274   6.060   4.926
 1970SOL    HW2 6810   6.172   6.187   4.915
 1971SOL     OW 6811   1.628   6.841   5.772
 1971SOL    HW1 6812   1.673   6.907   5.833
 1971SOL    HW2 6813   1.559   6.888   5.717
 1972SOL     OW 6814   5.789   2.479   1.597
 1972SOL    HW1 6815   5.708   2.530   1.569
 1972SOL    HW2 6816   5.869   2.513   1.547
 1973SOL     OW 6817   2.838   3.623   1.185
 1973SOL    HW1 6818   2.791   3.566   1.117
 1973SOL    HW2 6819   2.859   3.712   1.145
 1974SOL     OW 6820   4.277   6.628   4.608
 1974SOL    HW1 6821   4.346   6.677   4.555
 1974SOL    HW2 6822   4.233   6.559   4.551
 1975SOL     OW 6823   2.086   3.231   3.209
 1975SOL    HW1 6824   2.181   3.199   3.208
 1975SOL    HW2 6825   2.027   3.162   3.251
 1976SOL     OW 6826   6.511   0.284   6.501
 1976SOL    HW1 6827   6.590   0.223   6.492
 1976SOL    HW2 6828   6.462   0.289   6.414
 1977SOL     OW 6829   2.481   3.759   6.490
 1977SOL    HW1 6830   2.479   3.853   6.524
 1977SOL    HW2 6831   2.544   3.752   6.413
 1978SOL     OW 6832   2.671   6.561   2.569
 1978SOL    HW1 6833   2.730   6.553   2.649
 1978SOL    HW2 6834   2.600   6.629   2.586
 1979SOL     OW 6835   5.932   5.242   6.612
 1979SOL    HW1 6836   5.980   5.154   6.610
 1979SOL    HW2 6837   5.850   5.234   6.669
 1980SOL     OW 6838   2.705   0.700   1.673
 1980SOL    HW1 6839   2.709   0.789   1.627
 1980SOL    HW2 6840   2.641   0.704   1.749
 1981SOL     OW 6841   5.048   2.516   3.077
 1981SOL    HW1 6842   4.974   2.474   3.024
 1981SOL    HW2 6843   5.008   2.573   3.149
 1982SOL     OW 6844   6.769   3.585   3.848
 1982SOL    HW1 6845   6.796   3.556   3.756
 1982SOL    HW2 6846   6.670   3.594   3.853
 1983SOL     OW 6847   0.509   0.240   0.815
 1983SOL    HW1 6848   0.441   0.241   0.742
 1983SOL    HW2 6849   0.584   0.179   0.790
 1984SOL     OW 6850   5.363   2.724   5.624
 1984SOL    HW1 6851   5.406   2.636   5.603
 1984SOL    HW2 6852   5.320   2.760   5.541
 1985SOL     OW 6853   6.199   5.072   1.411
 1985SOL    HW1 6854   6.230   4.977   1.404
 1985SOL    HW2 6855   6.223   5.121   1.327
 1986SOL     OW 6856   3.218   1.292   6.557
 1986SOL    HW1 6857   3.200   1.232   6.479
 1986SOL    HW2 6858   3.191   1.385   6.534
 1987SOL     OW 6859   1.408   1.142   4.103
 1987SOL    HW1 6860   1.493   1.194   4.107
 1987SOL    HW2 6861   1.403   1.094   4.015
 1988SOL     OW 6862   0.304   1.946   1.036
 1988SOL    HW1 6863   0.218   1.929   0.988
 1988SOL    HW2 6864   0.292   2.022   1.101
 1989SOL     OW 6865   2.734   5.747   5.510
 1989SOL    HW1 6866   2.696   5.655   5.513
 1989SOL    HW2 6867   2.675   5.810   5.561
 1990SOL     OW 6868   3.961   0.684   0.176
 1990SOL    HW1 6869   4.009   0.724   0.254
 1990SOL    HW2 6870   3.947   0.586   0.191
 1991SOL     OW 6871   3.066   5.851   0.156
 1991SOL    HW1 6872   3.149   5.833   0.208
 1991SOL    HW2 6873   3.011   5.767   0.150
 1992SOL     OW 6874   6.732   6.714   0.128
 1992SOL    HW1 6875   6.747   6.705   0.226
 1992SOL    HW2 6876   6.645   6.670   0.104
 1993SOL     OW 6877   1.930   2.965   4.987
 1993SOL    HW1 6878   1.993   3.019   4.931
 1993SOL    HW2 6879   1.884   2.898   4.928
 1994SOL     OW 6880   4.143   3.363   0.640
 1994SOL    HW1 6881   4.046   3.365   0.616
 1994SOL    HW2 6882   4.189   3.289   0.590
 1995SOL     OW 6883   5.384   1.951   4.960
 1995SOL    HW1 6884   5.319   2.009   4.911
 1995SOL    HW2 6885   5.335   1.889   5.021
 1996SOL     OW 6886   3.171   1.956   1.276
 1996SOL    HW1 6887   3.183   1.894   1.198
 1996SOL    HW2 6888   3.251   2.015   1.285
 1997SOL     OW 6889   3.264   1.348   3.763
 1997SOL    HW1 6890   3.227   1.412   3.830
 1997SOL    HW2 6891   3.191   1.288   3.731
 1998SOL     OW 6892   1.197   3.049   1.843
 1998SOL    HW1 6893   1.199   3.032   1.942
 1998SOL    HW2 6894   1.222   3.145   1.826
 1999SOL     OW 6895   0.791   0.476   5.636
 1999SOL    HW1 6896   0.765   0.557   5.689
 1999SOL    HW2 6897   0.732   0.468   5.556
 2000SOL     OW 6898   3.636   3.813   6.178
 2000SOL    HW1 6899   3.604   3.727   6.216
 2000SOL    HW2 6900   3.633   3.884   6.248
 2001SOL     OW 6901   1.541   1.851   6.756
 2001SOL    HW1 6902   1.474   1.779   6.772
 2001SOL    HW2 6903   1.607   1.821   6.687
 2002SOL     OW 6904   0.152   5.686   1.050
 2002SOL    HW1 6905   0.234   5.724   1.006
 2002SOL    HW2 6906   0.073   5.741   1.025
 2003SOL     OW 6907   6.347   4.941   2.020
 2003SOL    HW1 6908   6.398   5.016   1.977
 2003SOL    HW2 6909   6.309   4.973   2.108
 2004SOL     OW 6910   3.459   0.213   3.678
 2004SOL    HW1 6911   3.521   0.282   3.716
 2004SOL    HW2 6912   3.510   0.156   3.613
 2005SOL     OW 6913   0.240   6.077   0.458
 2005SOL    HW1 6914   0.322   6.133   0.466
 2005SOL    HW2 6915   0.217   6.065   0.361
 2006SOL     OW 6916   5.517   0.358   3.796
 2006SOL    HW1 6917   5.553   0.428   3.859
 2006SOL    HW2 6918   5.510   0.396   3.704
 2007SOL     OW 6919   4.802   4.164   0.995
 2007SOL    HW1 6920   4.748   4.213   1.064
 2007SOL    HW2 6921   4.845   4.084   1.037
 2008SOL     OW 6922   2.152   3.967   3.781
 2008SOL    HW1 6923   2.197   3.996   3.696
 2008SOL    HW2 6924   2.054   3.960   3.766
 2009SOL     OW 6925   6.468   6.216   2.084
 2009SOL    HW1 6926   6.504   6.152   2.016
 2009SOL    HW2 6927   6.507   6.307   2.068
 2010SOL     OW 6928   1.735   2.341   1.936
 2010SOL    HW1 6929   1.652   2.395   1.952
 2010SOL    HW2 6930   1.809   2.402   1.908
 2011SOL     OW 6931   6.978   6.588   5.616
 2011SOL    HW1 6932   6.996   6.612   5.712
 2011SOL    HW2 6933   0.046   6.564   5.572
 2012SOL     OW 6934   1.491   3.223   2.328
 2012SOL    HW1 6935   1.560   3.174   2.383
 2012SOL    HW2 6936   1.528   3.313   2.302
 2013SOL     OW 6937   0.377   2.682   3.241
 2013SOL    HW1 6938   0.434   2.666   3.321
 2013SOL    HW2 6939   0.371   2.780   3.223
 2014SOL     OW 6940   3.072   0.305   3.593
 2014SOL    HW1 6941   3.046   0.316   3.689
 2014SOL    HW2 6942   2.994   0.270   3.541
 2015SOL     OW 6943   3.767   0.960   1.875
 2015SOL    HW1 6944   3.719   1.047   1.865
 2015SOL    HW2 6945   3.752   0.924   1.967
 2016SOL     OW 6946   1.862   6.130   5.476
 2016SOL    HW1 6947   1.850   6.103   5.380
 2016SOL    HW2 6948   1.819   6.219   5.491
 2017SOL     OW 6949   4.023   6.830   3.037
 2017SOL    HW1 6950   4.000   6.889   2.960
 2017SOL    HW2 6951   4.046   6.886   3.117
 2018SOL     OW 6952   0.022   2.057   3.198
 2018SOL    HW1 6953   0.054   1.964   3.212
 2018SOL    HW2 6954   0.056   2.091   3.110
 2019SOL     OW 6955   6.434   4.738   6.295
 2019SOL    HW1 6956   6.342   4.707   6.270
 2019SOL    HW2 6957   6.500   4.665   6.277
 2020SOL     OW 6958   1.551   6.166   5.765
 2020SOL    HW1 6959   1.486   6.163   5.689
 2020SOL    HW2 6960   1.500   6.172   5.851
 2021SOL     OW 6961   6.223   6.495   3.436
 2021SOL    HW1 6962   6.221   6.505   3.536
 2021SOL    HW2 6963   6.257   6.404   3.413
 2022SOL     OW 6964   2.059   4.139   5.000
 2022SOL    HW1 6965   2.155   4.116   4.984
 2022SOL    HW2 6966   2.002   4.061   4.978
 2023SOL     OW 6967   0.368   0.513   7.001
 2023SOL    HW1 6968   0.323   0.582   6.944
 2023SOL    HW2 6969   0.311   0.431   7.005
 2024SOL     OW 6970   0.263   5.673   4.363
 2024SOL    HW1 6971   0.297   5.652   4.454
 2024SOL    HW2 6972   0.334   5.655   4.295
 2025SOL     OW 6973   2.365   0.938   4.468
 2025SOL    HW1 6974   2.336   0.844   4.488
 2025SOL    HW2 6975   2.327   1.000   4.537
 2026SOL     OW 6976   5.762   0.621   6.371
 2026SOL    HW1 6977   5.691   0.691   6.381
 2026SOL    HW2 6978   5.849   0.666   6.349
 2027SOL     OW 6979   0.735   5.539   1.676
 2027SOL    HW1 6980   0.756   5.441   1.681
 2027SOL    HW2 6981   0.703   5.570   1.766
 2028SOL     OW 6982   3.706   6.046   2.665
 2028SOL    HW1 6983   3.655   5.982   2.608
 2028SOL    HW2 6984   3.713   6.010   2.758
 2029SOL     OW 6985   0.070   2.077   6.566
 2029SOL    HW1 6986   7.002   2.043   6.530
 2029SOL    HW2 6987   0.063   2.176   6.580
 2030SOL     OW 6988   3.067   5.886   3.241
 2030SOL    HW1 6989   3.056   5.787   3.232
 2030SOL    HW2 6990   2.981   5.931   3.216
 2031SOL     OW 6991   6.816   5.368   3.102
 2031SOL    HW1 6992   6.718   5.367   3.083
 2031SOL    HW2 6993   6.853   5.459   3.083
 2032SOL     OW 6994   3.483   1.609   6.528
 2032SOL    HW1 6995   3.562   1.607   6.589
 2032SOL    HW2 6996   3.407   1.654   6.575
 2033SOL     OW 6997   1.947   0.836   1.046
 2033SOL    HW1 6998   1.903   0.850   0.957
 2033SOL    HW2 6999   1.999   0.751   1.044
 2034SOL     OW 7000   0.687   5.346   5.617
 2034SOL    HW1 7001   0.615   5.409   5.647
 2034SOL    HW2 7002   0.691   5.344   5.517
 2035SOL     OW 7003   6.167   6.845   2.217
 2035SOL    HW1 7004   6.194   6.886   2.130
 2035SOL    HW2 7005   6.109   6.765   2.199
 2036SOL     OW 7006   0.983   3.314   2.604
 2036SOL    HW1 7007   0.961   3.370   2.684
 2036SOL    HW2 7008   1.081   3.316   2.588
 2037SOL     OW 7009   0.334   2.847   6.275
 2037SOL    HW1 7010   0.347   2.781   6.202
 2037SOL    HW2 7011   0.384   2.931   6.254
 2038SOL     OW 7012   2.476   1.808   6.442
 2038SOL    HW1 7013   2.407   1.735   6.442
 2038SOL    HW2 7014   2.522   1.811   6.531
 2039SOL     OW 7015   6.963   6.132   2.616
 2039SOL    HW1 7016   6.901   6.199   2.657
 2039SOL    HW2 7017   6.911   6.071   2.556
 2040SOL     OW 7018   2.378   2.777   0.378
 2040SOL    HW1 7019   2.313   2.813   0.311
 2040SOL    HW2 7020   2.397   2.681   0.358
 2041SOL     OW 7021   1.957   6.828   5.954
 2041SOL    HW1 7022   1.996   6.814   6.045
 2041SOL    HW2 7023   1.860   6.851   5.962
 2042SOL     OW 7024   4.536   0.396   6.279
 2042SOL    HW1 7025   4.627   0.434   6.299
 2042SOL    HW2 7026   4.534   0.365   6.184
 2043SOL     OW 7027   0.001   3.012   1.265
 2043SOL    HW1 7028   6.934   2.974   1.230
 2043SOL    HW2 7029   0.033   2.956   1.342
 2044SOL     OW 7030   5.271   1.038   0.713
 2044SOL    HW1 7031   5.177   1.073   0.710
 2044SOL    HW2 7032   5.278   0.956   0.656
 2045SOL     OW 7033   1.982   5.769   6.160
 2045SOL    HW1 7034   2.019   5.847   6.109
 2045SOL    HW2 7035   1.986   5.788   6.258
 2046SOL     OW 7036   1.082   1.564   5.143
 2046SOL    HW1 7037   0.983   1.548   5.135
 2046SOL    HW2 7038   1.106   1.649   5.098
 2047SOL     OW 7039   6.281   2.159   0.186
 2047SOL    HW1 7040   6.246   2.086   0.245
 2047SOL    HW2 7041   6.311   2.236   0.242
 2048SOL     OW 7042   1.074   1.082   4.472
 2048SOL    HW1 7043   1.157   1.055   4.423
 2048SOL    HW2 7044   1.043   1.171   4.438
 2049SOL     OW 7045   4.697   1.241   4.781
 2049SOL    HW1 7046   4.610   1.261   4.826
 2049SOL    HW2 7047   4.720   1.315   4.718
 2050SOL     OW 7048   0.814   1.197   4.109
 2050SOL    HW1 7049   0.760   1.161   4.185
 2050SOL    HW2 7050   0.897   1.143   4.098
 2051SOL     OW 7051   3.040   6.633   1.066
 2051SOL    HW1 7052   3.129   6.640   1.112
 2051SOL    HW2 7053   3.046   6.675   0.976
 2052SOL     OW 7054   1.791   4.376   6.822
 2052SOL    HW1 7055   1.740   4.458   6.850
 2052SOL    HW2 7056   1.751   4.295   6.865
 2053SOL     OW 7057   0.919   5.433   4.003
 2053SOL    HW1 7058   0.885   5.345   4.034
 2053SOL    HW2 7059   1.001   5.458   4.055
 2054SOL     OW 7060   3.206   3.292   3.582
 2054SOL    HW1 7061   3.133   3.360   3.568
 2054SOL    HW2 7062   3.292   3.328   3.545
 2055SOL     OW 7063   1.755   2.317   5.144
 2055SOL    HW1 7064   1.670   2.363   5.120
 2055SOL    HW2 7065   1.816   2.316   5.065
 2056SOL     OW 7066   3.901   4.728   0.953
 2056SOL    HW1 7067   3.830   4.710   1.021
 2056SOL    HW2 7068   3.991   4.711   0.993
 2057SOL     OW 7069   5.270   2.356   4.612
 2057SOL    HW1 7070   5.217   2.404   4.681
 2057SOL    HW2 7071   5.357   2.326   4.652
 2058SOL     OW 7072   1.068   6.490   3.521
 2058SOL    HW1 7073   1.044   6.586   3.507
 2058SOL    HW2 7074   0.995   6.445   3.572
 2059SOL     OW 7075   2.633   0.080   5.864
 2059SOL    HW1 7076   2.590   7.009   5.873
 2059SOL    HW2 7077   2.573   0.150   5.901
 2060SOL     OW 7078   1.434   3.482   0.132
 2060SOL    HW1 7079   1.377   3.495   0.052
 2060SOL    HW2 7080   1.484   3.566   0.151
 2061SOL     OW 7081   1.798   1.950   2.208
 2061SOL    HW1 7082   1.849   2.029   2.242
 2061SOL    HW2 7083   1.811   1.872   2.269
 2062SOL     OW 7084   6.448   5.307   5.288
 2062SOL    HW1 7085   6.474   5.341   5.197
 2062SOL    HW2 7086   6.503   5.354   5.358
 2063SOL     OW 7087   1.390   0.483   5.566
 2063SOL    HW1 7088   1.313   0.527   5.522
 2063SOL    HW2 7089   1.457   0.456   5.497
 2064SOL     OW 7090   0.374   2.649   4.296
 2064SOL    HW1 7091   0.333   2.717   4.235
 2064SOL    HW2 7092   0.396   2.692   4.383
 2065SOL     OW 7093   4.684   2.988   5.540
 2065SOL    HW1 7094   4.593   3.008   5.575
 2065SOL    HW2 7095   4.677   2.958   5.444
 2066SOL     OW 7096   5.836   3.062   5.990
 2066SOL    HW1 7097   5.832   2.978   5.936
 2066SOL    HW2 7098   5.884   3.132   5.938
 2067SOL     OW 7099   6.522   4.829   1.430
 2067SOL    HW1 7100   6.482   4.816   1.520
 2067SOL    HW2 7101   6.485   4.762   1.367
 2068SOL     OW 7102   3.699   0.707   3.707
 2068SOL    HW1 7103   3.647   0.774   3.761
 2068SOL    HW2 7104   3.718   0.745   3.617
 2069SOL     OW 7105   0.010   1.950   4.102
 2069SOL    HW1 7106   0.027   1.904   4.015
 2069SOL    HW2 7107   0.088   1.934   4.164
 2070SOL     OW 7108   0.852   3.645   1.896
 2070SOL    HW1 7109   0.849   3.556   1.943
 2070SOL    HW2 7110   0.783   3.647   1.824
 2071SOL     OW 7111   6.095   1.562   6.309
 2071SOL    HW1 7112   6.035   1.628   6.265
 2071SOL    HW2 7113   6.190   1.578   6.281
 2072SOL     OW 7114   3.912   4.592   5.354
 2072SOL    HW1 7115   3.854   4.530   5.301
 2072SOL    HW2 7116   4.007   4.561   5.350
 2073SOL     OW 7117   3.491   6.036   0.429
 2073SOL    HW1 7118   3.470   5.951   0.477
 2073SOL    HW2 7119   3.590   6.047   0.422
 2074SOL     OW 7120   1.740   3.561   5.549
 2074SOL    HW1 7121   1.753   3.464   5.571
 2074SOL    HW2 7122   1.827   3.610   5.560
 2075SOL     OW 7123   6.990   2.254   2.164
 2075SOL    HW1 7124   6.948   2.271   2.254
 2075SOL    HW2 7125   0.070   2.244   2.174
 2076SOL     OW 7126   5.206   6.037   4.894
 2076SOL    HW1 7127   5.290   6.089   4.877
 2076SOL    HW2 7128   5.157   6.025   4.807
 2077SOL     OW 7129   7.014   3.515   1.079
 2077SOL    HW1 7130   6.945   3.572   1.123
 2077SOL    HW2 7131   7.016   3.425   1.122
 2078SOL     OW 7132   2.138   3.871   5.712
 2078SOL    HW1 7133   2.206   3.886   5.640
 2078SOL    HW2 7134   2.166   3.918   5.796
 2079SOL     OW 7135   5.453   1.541   1.608
 2079SOL    HW1 7136   5.419   1.597   1.683
 2079SOL    HW2 7137   5.389   1.467   1.589
 2080SOL     OW 7138   2.721   2.478   5.498
 2080SOL    HW1 7139   2.821   2.468   5.498
 2080SOL    HW2 7140   2.695   2.549   5.563
 2081SOL     OW 7141   7.014   6.901   3.317
 2081SOL    HW1 7142   6.974   6.900   3.225
 2081SOL    HW2 7143   0.005   6.807   3.350
 2082SOL     OW 7144   0.437   6.225   2.566
 2082SOL    HW1 7145   0.511   6.193   2.625
 2082SOL    HW2 7146   0.363   6.157   2.565
 2083SOL     OW 7147   6.696   5.938   4.316
 2083SOL    HW1 7148   6.666   6.026   4.353
 2083SOL    HW2 7149   6.781   5.911   4.360
 2084SOL     OW 7150   0.568   1.600   2.290
 2084SOL    HW1 7151   0.645   1.536   2.291
 2084SOL    HW2 7152   0.561   1.647   2.378
 2085SOL     OW 7153   5.167   5.274   0.380
 2085SOL    HW1 7154   5.205   5.222   0.304
 2085SOL    HW2 7155   5.217   5.360   0.390
 2086SOL     OW 7156   4.455   0.376   0.020
 2086SOL    HW1 7157   4.513   0.446   6.997
 2086SOL    HW2 7158   4.359   0.403   0.011
 2087SOL     OW 7159   4.205   2.247   6.964
 2087SOL    HW1 7160   4.248   2.211   6.881
 2087SOL    HW2 7161   4.122   2.296   6.939
 2088SOL     OW 7162   7.003   5.504   5.079
 2088SOL    HW1 7163   7.010   5.459   5.167
 2088SOL    HW2 7164   0.043   5.585   5.078
 2089SOL     OW 7165   2.745   3.149   5.822
 2089SOL    HW1 7166   2.702   3.122   5.908
 2089SOL    HW2 7167   2.781   3.068   5.776
 2090SOL     OW 7168   4.459   3.567   5.277
 2090SOL    HW1 7169   4.407   3.648   5.250
 2090SOL    HW2 7170   4.556   3.583   5.261
 2091SOL     OW 7171   6.248   5.958   1.881
 2091SOL    HW1 7172   6.242   5.892   1.956
 2091SOL    HW2 7173   6.209   5.917   1.798
 2092SOL     OW 7174   4.355   3.805   1.138
 2092SOL    HW1 7175   4.283   3.756   1.089
 2092SOL    HW2 7176   4.376   3.756   1.223
 2093SOL     OW 7177   3.943   2.182   2.727
 2093SOL    HW1 7178   4.022   2.164   2.786
 2093SOL    HW2 7179   3.864   2.205   2.784
 2094SOL     OW 7180   5.394   2.788   6.909
 2094SOL    HW1 7181   5.483   2.743   6.895
 2094SOL    HW2 7182   5.349   2.748   6.988
 2095SOL     OW 7183   5.620   6.401   3.868
 2095SOL    HW1 7184   5.641   6.474   3.802
 2095SOL    HW2 7185   5.591   6.319   3.818
 2096SOL     OW 7186   4.208   6.442   2.067
 2096SOL    HW1 7187   4.111   6.467   2.076
 2096SOL    HW2 7188   4.262   6.524   2.051
 2097SOL     OW 7189   1.698   4.963   6.444
 2097SOL    HW1 7190   1.754   4.880   6.435
 2097SOL    HW2 7191   1.630   4.949   6.516
 2098SOL     OW 7192   3.401   6.479   3.069
 2098SOL    HW1 7193   3.366   6.403   3.013
 2098SOL    HW2 7194   3.344   6.560   3.055
 2099SOL     OW 7195   5.353   1.003   0.335
 2099SOL    HW1 7196   5.447   1.024   0.362
 2099SOL    HW2 7197   5.327   1.061   0.257
 2100SOL     OW 7198   5.757   1.158   0.486
 2100SOL    HW1 7199   5.687   1.228   0.502
 2100SOL    HW2 7200   5.713   1.069   0.473
 2101SOL     OW 7201   0.336   6.503   2.074
 2101SOL    HW1 7202   0.415   6.559   2.101
 2101SOL    HW2 7203   0.299   6.538   1.988
 2102SOL     OW 7204   3.887   3.413   0.673
 2102SOL    HW1 7205   3.858   3.415   0.768
 2102SOL    HW2 7206   3.838   3.485   0.622
 2103SOL     OW 7207   3.304   5.895   6.976
 2103SOL    HW1 7208   3.263   5.832   0.023
 2103SOL    HW2 7209   3.250   5.980   6.974
 2104SOL     OW 7210   1.232   4.688   3.125
 2104SOL    HW1 7211   1.204   4.704   3.219
 2104SOL    HW2 7212   1.175   4.616   3.085
 2105SOL     OW 7213   5.543   4.586   6.757
 2105SOL    HW1 7214   5.639   4.564   6.739
 2105SOL    HW2 7215   5.529   4.600   6.855
 2106SOL     OW 7216   5.009   3.711   2.595
 2106SOL    HW1 7217   4.928   3.757   2.632
 2106SOL    HW2 7218   4.993   3.613   2.593
 2107SOL     OW 7219   5.450   3.708   5.066
 2107SOL    HW1 7220   5.413   3.759   5.143
 2107SOL    HW2 7221   5.389   3.716   4.987
 2108SOL     OW 7222   5.572   6.495   5.902
 2108SOL    HW1 7223   5.589   6.570   5.966
 2108SOL    HW2 7224   5.483   6.454   5.923
 2109SOL     OW 7225   2.966   5.488   2.977
 2109SOL    HW1 7226   2.998   5.395   2.995
 2109SOL    HW2 7227   2.870   5.486   2.950
 2110SOL     OW 7228   3.682   0.762   6.826
 2110SOL    HW1 7229   3.780   0.781   6.815
 2110SOL    HW2 7230   3.645   0.731   6.738
 2111SOL     OW 7231   1.040   2.988   5.817
 2111SOL    HW1 7232   1.124   3.028   5.853
 2111SOL    HW2 7233   0.971   2.985   5.890
 2112SOL     OW 7234   0.639   1.999   0.656
 2112SOL    HW1 7235   0.644   2.071   0.586
 2112SOL    HW2 7236   0.624   1.911   0.612
 2113SOL     OW 7237   1.766   0.147   4.541
 2113SOL    HW1 7238   1.712   0.068   4.513
 2113SOL    HW2 7239   1.777   0.209   4.464
 2114SOL     OW 7240   1.902   2.671   0.010
 2114SOL    HW1 7241   1.813   2.649   0.051
 2114SOL    HW2 7242   1.904   2.639   6.934
 2115SOL     OW 7243   0.308   5.623   3.483
 2115SOL    HW1 7244   0.261   5.613   3.571
 2115SOL    HW2 7245   0.247   5.593   3.409
 2116SOL     OW 7246   0.685   2.382   6.775
 2116SOL    HW1 7247   0.752   2.356   6.845
 2116SOL    HW2 7248   0.703   2.332   6.691
 2117SOL     OW 7249   5.685   1.421   2.141
 2117SOL    HW1 7250   5.740   1.501   2.166
 2117SOL    HW2 7251   5.630   1.442   2.060
 2118SOL     OW 7252   6.191   3.133   2.063
 2118SOL    HW1 7253   6.119   3.200   2.074
 2118SOL    HW2 7254   6.151   3.042   2.051
 2119SOL     OW 7255   3.036   0.347   6.765
 2119SOL    HW1 7256   3.003   0.275   6.826
 2119SOL    HW2 7257   3.131   0.327   6.739
 2120SOL     OW 7258   5.834   1.611   0.986
 2120SOL    HW1 7259   5.803   1.614   0.891
 2120SOL    HW2 7260   5.928   1.576   0.989
 2121SOL     OW 7261   1.974   1.125   6.553
 2121SOL    HW1 7262   1.884   1.135   6.512
 2121SOL    HW2 7263   2.025   1.054   6.504
 2122SOL     OW 7264   5.887   0.537   5.216
 2122SOL    HW1 7265   5.942   0.600   5.161
 2122SOL    HW2 7266   5.934   0.519   5.303
 2123SOL     OW 7267   1.298   5.764   3.274
 2123SOL    HW1 7268   1.284   5.699   3.199
 2123SOL    HW2 7269   1.284   5.857   3.240
 2124SOL     OW 7270   3.340   2.848   5.837
 2124SOL    HW1 7271   3.269   2.915   5.856
 2124SOL    HW2 7272   3.355   2.842   5.738
 2125SOL     OW 7273   1.876   6.066   2.722
 2125SOL    HW1 7274   1.848   6.106   2.635
 2125SOL    HW2 7275   1.822   6.106   2.796
 2126SOL     OW 7276   3.962   3.839   6.799
 2126SOL    HW1 7277   4.025   3.875   6.729
 2126SOL    HW2 7278   3.877   3.811   6.755
 2127SOL     OW 7279   0.479   2.606   5.866
 2127SOL    HW1 7280   0.450   2.671   5.796
 2127SOL    HW2 7281   0.573   2.578   5.848
 2128SOL     OW 7282   5.374   2.954   1.778
 2128SOL    HW1 7283   5.318   2.882   1.735
 2128SOL    HW2 7284   5.368   2.945   1.877
 2129SOL     OW 7285   5.064   4.483   3.943
 2129SOL    HW1 7286   5.147   4.454   3.897
 2129SOL    HW2 7287   4.986   4.430   3.910
 2130SOL     OW 7288   2.005   0.855   2.672
 2130SOL    HW1 7289   2.001   0.899   2.582
 2130SOL    HW2 7290   2.099   0.826   2.690
 2131SOL     OW 7291   5.760   1.994   6.015
 2131SOL    HW1 7292   5.791   2.045   5.934
 2131SOL    HW2 7293   5.839   1.957   6.063
 2132SOL     OW 7294   2.787   1.888   6.756
 2132SOL    HW1 7295   2.811   1.829   6.833
 2132SOL    HW2 7296   2.688   1.904   6.756
 2133SOL     OW 7297   2.610   2.251   1.707
 2133SOL    HW1 7298   2.645   2.344   1.701
 2133SOL    HW2 7299   2.515   2.252   1.737
 2134SOL     OW 7300   0.732   6.624   4.985
 2134SOL    HW1 7301   0.671   6.647   5.060
 2134SOL    HW2 7302   0.767   6.531   4.998
 2135SOL     OW 7303   0.553   1.124   3.526
 2135SOL    HW1 7304   0.615   1.165   3.459
 2135SOL    HW2 7305   0.458   1.144   3.499
 2136SOL     OW 7306   0.610   3.281   4.206
 2136SOL    HW1 7307   0.543   3.208   4.213
 2136SOL    HW2 7308   0.687   3.251   4.149
 2137SOL     OW 7309   1.653   0.122   5.266
 2137SOL    HW1 7310   1.582   0.140   5.199
 2137SOL    HW2 7311   1.674   0.024   5.267
 2138SOL     OW 7312   0.247   2.831   0.553
 2138SOL    HW1 7313   0.278   2.925   0.536
 2138SOL    HW2 7314   0.159   2.834   0.600
 2139SOL     OW 7315   3.207   0.672   5.001
 2139SOL    HW1 7316   3.185   0.587   5.049
 2139SOL    HW2 7317   3.139   0.741   5.025
 2140SOL     OW 7318   2.477   5.967   3.550
 2140SOL    HW1 7319   2.418   6.048   3.547
 2140SOL    HW2 7320   2.488   5.930   3.458
 2141SOL     OW 7321   5.734   2.111   0.690
 2141SOL    HW1 7322   5.763   2.016   0.693
 2141SOL    HW2 7323   5.813   2.169   0.669
 2142SOL     OW 7324   1.933   2.325   3.566
 2142SOL    HW1 7325   1.906   2.326   3.470
 2142SOL    HW2 7326   2.032   2.314   3.572
 2143SOL     OW 7327   3.436   6.890   1.590
 2143SOL    HW1 7328   3.522   6.865   1.546
 2143SOL    HW2 7329   3.453   6.930   1.680
 2144SOL     OW 7330   0.781   0.885   3.724
 2144SOL    HW1 7331   0.697   0.867   3.775
 2144SOL    HW2 7332   0.779   0.836   3.637
 2145SOL     OW 7333   3.261   5.154   3.258
 2145SOL    HW1 7334   3.342   5.107   3.294
 2145SOL    HW2 7335   3.225   5.217   3.326
 2146SOL     OW 7336   3.460   2.929   2.382
 2146SOL    HW1 7337   3.440   2.896   2.289
 2146SOL    HW2 7338   3.539   2.879   2.418
 2147SOL     OW 7339   0.835   1.751   6.116
 2147SOL    HW1 7340   0.814   1.670   6.062
 2147SOL    HW2 7341   0.877   1.821   6.057
 2148SOL     OW 7342   5.129   3.674   2.846
 2148SOL    HW1 7343   5.122   3.687   2.747
 2148SOL    HW2 7344   5.139   3.576   2.866
 2149SOL     OW 7345   4.019   1.282   2.402
 2149SOL    HW1 7346   4.055   1.354   2.342
 2149SOL    HW2 7347   4.091   1.215   2.420
 2150SOL     OW 7348   3.453   2.055   3.489
 2150SOL    HW1 7349   3.379   2.100   3.441
 2150SOL    HW2 7350   3.427   1.960   3.510
 2151SOL     OW 7351   3.904   2.961   5.734
 2151SOL    HW1 7352   3.915   2.952   5.833
 2151SOL    HW2 7353   3.831   3.026   5.715
 2152SOL     OW 7354   6.033   6.515   1.837
 2152SOL    HW1 7355   6.061   6.530   1.742
 2152SOL    HW2 7356   5.947   6.464   1.838
 2153SOL     OW 7357   4.451   1.984   3.672
 2153SOL    HW1 7358   4.422   1.946   3.760
 2153SOL    HW2 7359   4.551   1.992   3.670
 2154SOL     OW 7360   2.685   5.881   4.729
 2154SOL    HW1 7361   2.591   5.852   4.749
 2154SOL    HW2 7362   2.694   5.979   4.749
 2155SOL     OW 7363   0.751   4.365   0.343
 2155SOL    HW1 7364   0.773   4.272   0.315
 2155SOL    HW2 7365   0.822   4.399   0.405
 2156SOL     OW 7366   1.926   0.441   2.045
 2156SOL    HW1 7367   1.989   0.503   1.999
 2156SOL    HW2 7368   1.867   0.492   2.108
 2157SOL     OW 7369   0.278   1.233   4.937
 2157SOL    HW1 7370   0.291   1.137   4.960
 2157SOL    HW2 7371   0.239   1.281   5.015
 2158SOL     OW 7372   3.862   0.020   1.448
 2158SOL    HW1 7373   3.841   6.964   1.511
 2158SOL    HW2 7374   3.828   0.106   1.486
 2159SOL     OW 7375   1.217   6.913   4.824
 2159SOL    HW1 7376   1.301   6.961   4.799
 2159SOL    HW2 7377   1.196   6.931   4.920
 2160SOL     OW 7378   3.090   4.438   0.960
 2160SOL    HW1 7379   3.060   4.343   0.945
 2160SOL    HW2 7380   3.019   4.487   1.011
 2161SOL     OW 7381   5.256   3.168   3.223
 2161SOL    HW1 7382   5.266   3.118   3.310
 2161SOL    HW2 7383   5.347   3.183   3.184
 2162SOL     OW 7384   1.674   0.713   6.603
 2162SOL    HW1 7385   1.576   0.691   6.597
 2162SOL    HW2 7386   1.705   0.748   6.515
 2163SOL     OW 7387   1.717   1.393   0.528
 2163SOL    HW1 7388   1.789   1.453   0.492
 2163SOL    HW2 7389   1.653   1.371   0.454
 2164SOL     OW 7390   1.745   1.132   6.835
 2164SOL    HW1 7391   1.822   1.108   6.894
 2164SOL    HW2 7392   1.776   1.196   6.764
 2165SOL     OW 7393   1.964   6.985   3.127
 2165SOL    HW1 7394   1.927   6.912   3.184
 2165SOL    HW2 7395   1.903   0.046   3.132
 2166SOL     OW 7396   1.175   2.377   5.629
 2166SOL    HW1 7397   1.212   2.470   5.618
 2166SOL    HW2 7398   1.191   2.346   5.722
 2167SOL     OW 7399   3.819   0.946   2.418
 2167SOL    HW1 7400   3.912   0.922   2.390
 2167SOL    HW2 7401   3.793   1.032   2.375
 2168SOL     OW 7402   5.829   3.859   4.238
 2168SOL    HW1 7403   5.811   3.956   4.227
 2168SOL    HW2 7404   5.766   3.806   4.182
 2169SOL     OW 7405   4.881   2.288   6.368
 2169SOL    HW1 7406   4.894   2.386   6.383
 2169SOL    HW2 7407   4.959   2.252   6.317
 2170SOL     OW 7408   4.300   5.009   5.028
 2170SOL    HW1 7409   4.226   5.069   4.998
 2170SOL    HW2 7410   4.302   4.926   4.972
 2171SOL     OW 7411   0.007   2.987   0.110
 2171SOL    HW1 7412   6.972   2.931   0.048
 2171SOL    HW2 7413   6.975   3.001   0.195
 2172SOL     OW 7414   3.148   1.063   0.683
 2172SOL    HW1 7415   3.054   1.083   0.711
 2172SOL    HW2 7416   3.203   1.040   0.763
 2173SOL     OW 7417   5.384   1.595   5.852
 2173SOL    HW1 7418   5.426   1.598   5.943
 2173SOL    HW2 7419   5.348   1.685   5.828
 2174SOL     OW 7420   0.112   4.868   5.291
 2174SOL    HW1 7421   0.211   4.881   5.292
 2174SOL    HW2 7422   0.085   4.816   5.210
 2175SOL     OW 7423   2.374   0.637   4.222
 2175SOL    HW1 7424   2.346   0.633   4.318
 2175SOL    HW2 7425   2.422   0.552   4.198
 2176SOL     OW 7426   2.160   2.501   3.256
 2176SOL    HW1 7427   2.244   2.462   3.295
 2176SOL    HW2 7428   2.083   2.441   3.276
 2177SOL     OW 7429   0.364   2.561   0.732
 2177SOL    HW1 7430   0.297   2.613   0.785
 2177SOL    HW2 7431   0.318   2.483   0.688
 2178SOL     OW 7432   0.823   4.636   0.201
 2178SOL    HW1 7433   0.775   4.724   0.197
 2178SOL    HW2 7434   0.919   4.650   0.175
 2179SOL     OW 7435   1.533   5.385   4.317
 2179SOL    HW1 7436   1.604   5.455   4.316
 2179SOL    HW2 7437   1.575   5.295   4.326
 2180SOL     OW 7438   3.335   3.784   2.915
 2180SOL    HW1 7439   3.399   3.838   2.861
 2180SOL    HW2 7440   3.242   3.821   2.904
 2181SOL     OW 7441   5.376   5.504   5.761
 2181SOL    HW1 7442   5.331   5.523   5.674
 2181SOL    HW2 7443   5.398   5.406   5.767
 2182SOL     OW 7444   0.042   2.781   6.327
 2182SOL    HW1 7445   6.999   2.785   6.406
 2182SOL    HW2 7446   0.135   2.761   6.358
 2183SOL     OW 7447   3.798   2.940   0.774
 2183SOL    HW1 7448   3.816   2.927   0.677
 2183SOL    HW2 7449   3.740   3.020   0.787
 2184SOL     OW 7450   3.751   2.333   6.335
 2184SOL    HW1 7451   3.723   2.356   6.242
 2184SOL    HW2 7452   3.670   2.317   6.391
 2185SOL     OW 7453   1.743   0.853   1.459
 2185SOL    HW1 7454   1.756   0.894   1.549
 2185SOL    HW2 7455   1.830   0.851   1.411
 2186SOL     OW 7456   0.675   5.791   3.175
 2186SOL    HW1 7457   0.757   5.747   3.211
 2186SOL    HW2 7458   0.664   5.881   3.218
 2187SOL     OW 7459   7.009   1.601   6.874
 2187SOL    HW1 7460   6.992   1.616   6.972
 2187SOL    HW2 7461   0.082   1.563   6.862
 2188SOL     OW 7462   5.622   7.005   3.409
 2188SOL    HW1 7463   5.624   6.912   3.371
 2188SOL    HW2 7464   5.639   7.001   3.507
 2189SOL     OW 7465   2.032   6.342   6.552
 2189SOL    HW1 7466   1.991   6.432   6.568
 2189SOL    HW2 7467   2.079   6.312   6.636
 2190SOL     OW 7468   5.725   1.833   1.803
 2190SOL    HW1 7469   5.696   1.773   1.729
 2190SOL    HW2 7470   5.811   1.799   1.841
 2191SOL     OW 7471   3.083   2.850   6.184
 2191SOL    HW1 7472   3.100   2.848   6.283
 2191SOL    HW2 7473   3.154   2.798   6.137
 2192SOL     OW 7474   4.647   5.629   5.260
 2192SOL    HW1 7475   4.622   5.537   5.230
 2192SOL    HW2 7476   4.596   5.651   5.343
 2193SOL     OW 7477   0.805   5.042   5.287
 2193SOL    HW1 7478   0.756   5.042   5.200
 2193SOL    HW2 7479   0.853   4.955   5.299
 2194SOL     OW 7480   2.287   6.837   0.783
 2194SOL    HW1 7481   2.369   6.816   0.731
 2194SOL    HW2 7482   2.311   6.891   0.864
 2195SOL     OW 7483   1.083   5.434   2.637
 2195SOL    HW1 7484   1.119   5.414   2.545
 2195SOL    HW2 7485   0.985   5.415   2.638
 2196SOL     OW 7486   3.381   2.001   6.343
 2196SOL    HW1 7487   3.359   2.045   6.430
 2196SOL    HW2 7488   3.427   2.067   6.283
 2197SOL     OW 7489   5.040   4.910   1.223
 2197SOL    HW1 7490   5.053   4.811   1.218
 2197SOL    HW2 7491   4.997   4.934   1.310
 2198SOL     OW 7492   6.580   3.591   0.493
 2198SOL    HW1 7493   6.614   3.670   0.544
 2198SOL    HW2 7494   6.615   3.507   0.535
 2199SOL     OW 7495   4.553   0.295   1.368
 2199SOL    HW1 7496   4.559   0.380   1.421
 2199SOL    HW2 7497   4.514   0.314   1.278
 2200SOL     OW 7498   3.511   0.401   4.621
 2200SOL    HW1 7499   3.426   0.357   4.590
 2200SOL    HW2 7500   3.581   0.331   4.637
 2201SOL     OW 7501   5.798   3.566   1.967
 2201SOL    HW1 7502   5.808   3.653   1.919
 2201SOL    HW2 7503   5.709   3.526   1.947
 2202SOL     OW 7504   4.743   5.683   3.658
 2202SOL    HW1 7505   4.709   5.683   3.564
 2202SOL    HW2 7506   4.797   5.766   3.674
 2203SOL     OW 7507   3.559   1.765   3.340
 2203SOL    HW1 7508   3.516   1.855   3.334
 2203SOL    HW2 7509   3.644   1.766   3.287
 2204SOL     OW 7510   3.220   2.607   0.400
 2204SOL    HW1 7511   3.167   2.589   0.317
 2204SOL    HW2 7512   3.183   2.687   0.446
 2205SOL     OW 7513   2.929   6.968   0.887
 2205SOL    HW1 7514   2.943   0.035   0.937
 2205SOL    HW2 7515   3.006   6.907   0.904
 2206SOL     OW 7516   2.360   3.136   6.837
 2206SOL    HW1 7517   2.315   3.211   6.788
 2206SOL    HW2 7518   2.438   3.104   6.783
 2207SOL     OW 7519   1.191   4.413   6.384
 2207SOL    HW1 7520   1.132   4.362   6.321
 2207SOL    HW2 7521   1.258   4.466   6.331
 2208SOL     OW 7522   0.229   3.191   1.926
 2208SOL    HW1 7523   0.155   3.196   1.859
 2208SOL    HW2 7524   0.297   3.261   1.906
 2209SOL     OW 7525   0.758   5.839   6.664
 2209SOL    HW1 7526   0.745   5.792   6.752
 2209SOL    HW2 7527   0.669   5.857   6.622
 2210SOL     OW 7528   0.862   6.138   4.262
 2210SOL    HW1 7529   0.927   6.210   4.238
 2210SOL    HW2 7530   0.819   6.102   4.180
 2211SOL     OW 7531   6.000   1.535   5.639
 2211SOL    HW1 7532   6.082   1.494   5.678
 2211SOL    HW2 7533   5.944   1.464   5.597
 2212SOL     OW 7534   1.759   0.154   6.235
 2212SOL    HW1 7535   1.705   0.130   6.316
 2212SOL    HW2 7536   1.702   0.204   6.170
 2213SOL     OW 7537   3.689   1.629   3.598
 2213SOL    HW1 7538   3.759   1.662   3.534
 2213SOL    HW2 7539   3.650   1.543   3.563
 2214SOL     OW 7540   4.902   0.005   4.671
 2214SOL    HW1 7541   4.986   7.002   4.721
 2214SOL    HW2 7542   4.915   7.006   4.573
 2215SOL     OW 7543   6.308   2.355   5.303
 2215SOL    HW1 7544   6.262   2.440   5.326
 2215SOL    HW2 7545   6.387   2.342   5.362
 2216SOL     OW 7546   1.641   6.608   1.419
 2216SOL    HW1 7547   1.551   6.580   1.389
 2216SOL    HW2 7548   1.677   6.542   1.485
 2217SOL     OW 7549   4.051   0.380   1.095
 2217SOL    HW1 7550   4.077   0.340   1.007
 2217SOL    HW2 7551   4.091   0.327   1.170
 2218SOL     OW 7552   0.555   5.697   0.061
 2218SOL    HW1 7553   0.481   5.642   0.099
 2218SOL    HW2 7554   0.554   5.787   0.104
 2219SOL     OW 7555   1.782   3.966   3.210
 2219SOL    HW1 7556   1.831   3.908   3.144
 2219SOL    HW2 7557   1.696   3.922   3.236
 2220SOL     OW 7558   0.618   1.046   6.243
 2220SOL    HW1 7559   0.561   0.993   6.306
 2220SOL    HW2 7560   0.679   1.105   6.294
 2221SOL     OW 7561   6.537   2.489   1.529
 2221SOL    HW1 7562   6.554   2.587   1.514
 2221SOL    HW2 7563   6.516   2.473   1.625
 2222SOL     OW 7564   4.666   6.831   2.502
 2222SOL    HW1 7565   4.604   6.797   2.431
 2222SOL    HW2 7566   4.714   6.911   2.468
 2223SOL     OW 7567   5.812   5.451   2.852
 2223SOL    HW1 7568   5.815   5.543   2.811
 2223SOL    HW2 7569   5.881   5.445   2.924
 2224SOL     OW 7570   1.279   4.482   1.303
 2224SOL    HW1 7571   1.211   4.409   1.316
 2224SOL    HW2 7572   1.339   4.486   1.383
 2225SOL     OW 7573   6.202   4.986   2.254
 2225SOL    HW1 7574   6.231   4.898   2.292
 2225SOL    HW2 7575   6.102   4.990   2.252
 2226SOL     OW 7576   3.850   4.161   0.706
 2226SOL    HW1 7577   3.905   4.241   0.730
 2226SOL    HW2 7578   3.754   4.188   0.695
 2227SOL     OW 7579   6.761   4.019   5.130
 2227SOL    HW1 7580   6.709   4.086   5.077
 2227SOL    HW2 7581   6.747   4.036   5.228
 2228SOL     OW 7582   3.345   4.510   6.394
 2228SOL    HW1 7583   3.369   4.518   6.490
 2228SOL    HW2 7584   3.428   4.512   6.338
 2229SOL     OW 7585   4.616   1.016   3.498
 2229SOL    HW1 7586   4.642   1.101   3.451
 2229SOL    HW2 7587   4.518   1.001   3.488
 2230SOL     OW 7588   1.130   6.523   6.117
 2230SOL    HW1 7589   1.166   6.503   6.208
 2230SOL    HW2 7590   1.055   6.588   6.124
 2231SOL     OW 7591   2.393   7.004   1.506
 2231SOL    HW1 7592   2.382   6.965   1.414
 2231SOL    HW2 7593   2.475   0.042   1.508
 2232SOL     OW 7594   6.092   2.727   2.815
 2232SOL    HW1 7595   6.149   2.781   2.877
 2232SOL    HW2 7596   6.044   2.656   2.866
 2233SOL     OW 7597   4.101   0.251   0.062
 2233SOL    HW1 7598   4.126   0.157   0.086
 2233SOL    HW2 7599   4.038   0.287   0.130
 2234SOL     OW 7600   3.912   1.828   0.910
 2234SOL    HW1 7601   3.954   1.805   0.822
 2234SOL    HW2 7602   3.904   1.927   0.918
 2235SOL     OW 7603   1.402   6.497   0.769
 2235SOL    HW1 7604   1.489   6.524   0.810
 2235SOL    HW2 7605   1.346   6.449   0.836
 2236SOL     OW 7606   0.424   4.233   1.324
 2236SOL    HW1 7607   0.461   4.179   1.249
 2236SOL    HW2 7608   0.354   4.296   1.290
 2237SOL     OW 7609   6.328   2.766   4.359
 2237SOL    HW1 7610   6.261   2.702   4.398
 2237SOL    HW2 7611   6.418   2.721   4.356
 2238SOL     OW 7612   1.051   5.387   1.712
 2238SOL    HW1 7613   0.960   5.385   1.754
 2238SOL    HW2 7614   1.092   5.477   1.726
 2239SOL     OW 7615   4.316   5.158   3.239
 2239SOL    HW1 7616   4.280   5.075   3.281
 2239SOL    HW2 7617   4.408   5.140   3.204
 2240SOL     OW 7618   5.625   4.676   2.280
 2240SOL    HW1 7619   5.558   4.747   2.301
 2240SOL    HW2 7620   5.603   4.632   2.193
 2241SOL     OW 7621   0.619   0.078   2.184
 2241SOL    HW1 7622   0.542   0.141   2.171
 2241SOL    HW2 7623   0.657   0.054   2.095
 2242SOL     OW 7624   4.707   1.667   2.628
 2242SOL    HW1 7625   4.706   1.718   2.715
 2242SOL    HW2 7626   4.796   1.679   2.584
 2243SOL     OW 7627   2.384   6.248   5.467
 2243SOL    HW1 7628   2.335   6.246   5.554
 2243SOL    HW2 7629   2.401   6.155   5.436
 2244SOL     OW 7630   2.932   0.860   4.376
 2244SOL    HW1 7631   3.007   0.867   4.441
 2244SOL    HW2 7632   2.851   0.906   4.412
 2245SOL     OW 7633   1.332   1.390   2.042
 2245SOL    HW1 7634   1.409   1.435   1.997
 2245SOL    HW2 7635   1.247   1.417   1.998
 2246SOL     OW 7636   0.825   4.129   5.659
 2246SOL    HW1 7637   0.810   4.213   5.608
 2246SOL    HW2 7638   0.885   4.068   5.607
 2247SOL     OW 7639   1.831   2.130   5.965
 2247SOL    HW1 7640   1.851   2.032   5.957
 2247SOL    HW2 7641   1.916   2.181   5.956
 2248SOL     OW 7642   5.121   3.343   5.351
 2248SOL    HW1 7643   5.024   3.336   5.330
 2248SOL    HW2 7644   5.175   3.330   5.268
 2249SOL     OW 7645   5.082   5.544   3.820
 2249SOL    HW1 7646   4.987   5.539   3.850
 2249SOL    HW2 7647   5.141   5.503   3.890
 2250SOL     OW 7648   6.628   4.691   0.048
 2250SOL    HW1 7649   6.579   4.713   0.133
 2250SOL    HW2 7650   6.671   4.773   0.012
 2251SOL     OW 7651   6.046   0.741   6.896
 2251SOL    HW1 7652   6.141   0.765   6.913
 2251SOL    HW2 7653   6.026   0.748   6.798
 2252SOL     OW 7654   4.574   2.500   5.512
 2252SOL    HW1 7655   4.481   2.483   5.478
 2252SOL    HW2 7656   4.609   2.418   5.556
 2253SOL     OW 7657   2.411   3.551   6.863
 2253SOL    HW1 7658   2.326   3.537   6.914
 2253SOL    HW2 7659   2.388   3.572   6.767
 2254SOL     OW 7660   2.383   3.888   5.880
 2254SOL    HW1 7661   2.432   3.816   5.833
 2254SOL    HW2 7662   2.435   3.973   5.876
 2255SOL     OW 7663   5.943   2.718   1.476
 2255SOL    HW1 7664   5.952   2.733   1.574
 2255SOL    HW2 7665   5.846   2.719   1.451
 2256SOL     OW 7666   4.051   4.879   1.548
 2256SOL    HW1 7667   3.958   4.902   1.519
 2256SOL    HW2 7668   4.114   4.949   1.514
 2257SOL     OW 7669   1.885   4.280   3.802
 2257SOL    HW1 7670   1.895   4.265   3.900
 2257SOL    HW2 7671   1.955   4.228   3.753
 2258SOL     OW 7672   1.699   5.679   4.316
 2258SOL    HW1 7673   1.662   5.711   4.228
 2258SOL    HW2 7674   1.715   5.758   4.376
 2259SOL     OW 7675   5.185   3.649   6.756
 2259SOL    HW1 7676   5.181   3.661   6.657
 2259SOL    HW2 7677   5.126   3.572   6.782
 2260SOL     OW 7678   5.444   5.303   1.078
 2260SOL    HW1 7679   5.472   5.285   0.984
 2260SOL    HW2 7680   5.353   5.264   1.094
 2261SOL     OW 7681   5.101   6.088   6.822
 2261SOL    HW1 7682   5.122   6.006   6.770
 2261SOL    HW2 7683   5.071   6.160   6.761
 2262SOL     OW 7684   4.724   2.191   3.402
 2262SOL    HW1 7685   4.674   2.257   3.459
 2262SOL    HW2 7686   4.805   2.160   3.450
 2263SOL     OW 7687   0.807   4.955   5.980
 2263SOL    HW1 7688   0.780   5.035   6.034
 2263SOL    HW2 7689   0.905   4.941   5.988
 2264SOL     OW 7690   3.610   3.342   4.066
 2264SOL    HW1 7691   3.661   3.423   4.094
 2264SOL    HW2 7692   3.573   3.356   3.974
 2265SOL     OW 7693   0.073   0.140   1.995
 2265SOL    HW1 7694   0.014   0.088   1.934
 2265SOL    HW2 7695   0.122   0.078   2.057
 2266SOL     OW 7696   5.752   0.105   0.587
 2266SOL    HW1 7697   5.688   0.034   0.617
 2266SOL    HW2 7698   5.844   0.081   0.618
 2267SOL     OW 7699   6.108   2.740   5.792
 2267SOL    HW1 7700   6.064   2.762   5.879
 2267SOL    HW2 7701   6.096   2.643   5.772
 2268SOL     OW 7702   0.058   5.730   6.642
 2268SOL    HW1 7703   0.092   5.714   6.549
 2268SOL    HW2 7704   6.983   5.697   6.649
 2269SOL     OW 7705   6.559   5.228   5.813
 2269SOL    HW1 7706   6.506   5.307   5.843
 2269SOL    HW2 7707   6.628   5.257   5.746
 2270SOL     OW 7708   3.737   3.651   1.496
 2270SOL    HW1 7709   3.724   3.689   1.404
 2270SOL    HW2 7710   3.725   3.723   1.564
 2271SOL     OW 7711   6.734   4.298   2.124
 2271SOL    HW1 7712   6.800   4.368   2.098
 2271SOL    HW2 7713   6.776   4.232   2.186
 2272SOL     OW 7714   6.305   2.005   6.209
 2272SOL    HW1 7715   6.255   1.945   6.272
 2272SOL    HW2 7716   6.341   1.951   6.133
 2273SOL     OW 7717   0.641   1.615   2.878
 2273SOL    HW1 7718   0.546   1.629   2.907
 2273SOL    HW2 7719   0.653   1.519   2.850
 2274SOL     OW 7720   0.870   3.133   4.121
 2274SOL    HW1 7721   0.877   3.216   4.066
 2274SOL    HW2 7722   0.815   3.065   4.072
 2275SOL     OW 7723   5.164   6.877   3.805
 2275SOL    HW1 7724   5.208   6.862   3.893
 2275SOL    HW2 7725   5.124   6.969   3.803
 2276SOL     OW 7726   4.650   4.892   1.572
 2276SOL    HW1 7727   4.564   4.921   1.615
 2276SOL    HW2 7728   4.667   4.796   1.593
 2277SOL     OW 7729   3.355   3.439   0.098
 2277SOL    HW1 7730   3.413   3.402   0.170
 2277SOL    HW2 7731   3.264   3.457   0.135
 2278SOL     OW 7732   5.704   6.037   1.410
 2278SOL    HW1 7733   5.784   6.096   1.397
 2278SOL    HW2 7734   5.674   6.042   1.505
 2279SOL     OW 7735   5.863   3.545   4.583
 2279SOL    HW1 7736   5.938   3.510   4.639
 2279SOL    HW2 7737   5.892   3.629   4.536
 2280SOL     OW 7738   6.005   6.589   6.713
 2280SOL    HW1 7739   6.013   6.629   6.804
 2280SOL    HW2 7740   6.019   6.490   6.719
 2281SOL     OW 7741   3.773   2.686   0.820
 2281SOL    HW1 7742   3.779   2.784   0.801
 2281SOL    HW2 7743   3.687   2.649   0.782
 2282SOL     OW 7744   4.293   5.618   2.704
 2282SOL    HW1 7745   4.368   5.683   2.720
 2282SOL    HW2 7746   4.213   5.646   2.756
 2283SOL     OW 7747   6.680   2.764   3.204
 2283SOL    HW1 7748   6.732   2.850   3.207
 2283SOL    HW2 7749   6.727   2.695   3.258
 2284SOL     OW 7750   1.997   2.805   2.298
 2284SOL    HW1 7751   2.094   2.791   2.322
 2284SOL    HW2 7752   1.942   2.733   2.341
 2285SOL     OW 7753   1.864   4.427   0.174
 2285SOL    HW1 7754   1.892   4.441   0.269
 2285SOL    HW2 7755   1.840   4.331   0.160
 2286SOL     OW 7756   6.619   6.199   4.451
 2286SOL    HW1 7757   6.530   6.243   4.438
 2286SOL    HW2 7758   6.623   6.158   4.542
 2287SOL     OW 7759   2.307   2.748   2.032
 2287SOL    HW1 7760   2.323   2.679   1.962
 2287SOL    HW2 7761   2.365   2.728   2.112
 2288SOL     OW 7762   0.155   6.293   3.900
 2288SOL    HW1 7763   0.255   6.290   3.896
 2288SOL    HW2 7764   0.121   6.209   3.942
 2289SOL     OW 7765   5.688   2.072   1.947
 2289SOL    HW1 7766   5.704   2.046   2.042
 2289SOL    HW2 7767   5.737   2.010   1.887
 2290SOL     OW 7768   2.988   3.145   2.870
 2290SOL    HW1 7769   2.916   3.198   2.913
 2290SOL    HW2 7770   3.072   3.153   2.924
 2291SOL     OW 7771   2.104   3.031   0.773
 2291SOL    HW1 7772   2.134   3.075   0.858
 2291SOL    HW2 7773   2.184   3.006   0.719
 2292SOL     OW 7774   4.218   2.235   3.221
 2292SOL    HW1 7775   4.286   2.279   3.162
 2292SOL    HW2 7776   4.233   2.262   3.316
 2293SOL     OW 7777   6.062   1.256   6.915
 2293SOL    HW1 7778   6.032   1.161   6.923
 2293SOL    HW2 7779   6.027   1.309   6.992
 2294SOL     OW 7780   0.738   2.295   5.722
 2294SOL    HW1 7781   0.816   2.356   5.717
 2294SOL    HW2 7782   0.751   2.218   5.659
 2295SOL     OW 7783   6.068   6.416   1.554
 2295SOL    HW1 7784   6.092   6.343   1.490
 2295SOL    HW2 7785   6.124   6.496   1.535
 2296SOL     OW 7786   2.942   5.672   3.841
 2296SOL    HW1 7787   2.895   5.584   3.833
 2296SOL    HW2 7788   2.917   5.714   3.928
 2297SOL     OW 7789   4.138   4.460   5.352
 2297SOL    HW1 7790   4.189   4.426   5.273
 2297SOL    HW2 7791   4.199   4.466   5.431
 2298SOL     OW 7792   3.900   3.475   4.058
 2298SOL    HW1 7793   3.916   3.378   4.044
 2298SOL    HW2 7794   3.981   3.518   4.098
 2299SOL     OW 7795   5.334   3.008   4.592
 2299SOL    HW1 7796   5.257   3.041   4.537
 2299SOL    HW2 7797   5.398   2.960   4.532
 2300SOL     OW 7798   3.883   6.473   2.167
 2300SOL    HW1 7799   3.903   6.537   2.093
 2300SOL    HW2 7800   3.873   6.380   2.130
 2301SOL     OW 7801   3.615   3.144   4.468
 2301SOL    HW1 7802   3.548   3.184   4.406
 2301SOL    HW2 7803   3.580   3.148   4.562
 2302SOL     OW 7804   4.681   2.356   0.498
 2302SOL    HW1 7805   4.744   2.391   0.428
 2302SOL    HW2 7806   4.627   2.281   0.459
 2303SOL     OW 7807   3.764   2.361   0.855
 2303SOL    HW1 7808   3.767   2.457   0.827
 2303SOL    HW2 7809   3.679   2.319   0.822
 2304SOL     OW 7810   5.949   6.059   1.802
 2304SOL    HW1 7811   5.964   5.999   1.880
 2304SOL    HW2 7812   6.037   6.089   1.765
 2305SOL     OW 7813   1.935   1.062   5.242
 2305SOL    HW1 7814   1.935   1.147   5.189
 2305SOL    HW2 7815   1.936   1.083   5.340
 2306SOL     OW 7816   1.792   5.570   3.620
 2306SOL    HW1 7817   1.881   5.611   3.641
 2306SOL    HW2 7818   1.806   5.488   3.563
 2307SOL     OW 7819   0.142   2.320   5.270
 2307SOL    HW1 7820   0.051   2.335   5.310
 2307SOL    HW2 7821   0.177   2.407   5.234
 2308SOL     OW 7822   2.591   4.847   1.709
 2308SOL    HW1 7823   2.678   4.805   1.681
 2308SOL    HW2 7824   2.558   4.803   1.793
 2309SOL     OW 7825   1.650   6.172   5.217
 2309SOL    HW1 7826   1.740   6.213   5.204
 2309SOL    HW2 7827   1.648   6.081   5.177
 2310SOL     OW 7828   4.898   6.586   1.847
 2310SOL    HW1 7829   4.942   6.500   1.821
 2310SOL    HW2 7830   4.948   6.626   1.924
 2311SOL     OW 7831   2.401   6.231   0.899
 2311SOL    HW1 7832   2.439   6.175   0.972
 2311SOL    HW2 7833   2.414   6.328   0.921
 2312SOL     OW 7834   3.329   5.069   2.761
 2312SOL    HW1 7835   3.233   5.085   2.737
 2312SOL    HW2 7836   3.373   5.018   2.688
 2313SOL     OW 7837   4.765   5.092   2.278
 2313SOL    HW1 7838   4.814   5.100   2.191
 2313SOL    HW2 7839   4.824   5.126   2.352
 2314SOL     OW 7840   2.586   5.764   3.980
 2314SOL    HW1 7841   2.501   5.784   4.027
 2314SOL    HW2 7842   2.567   5.748   3.883
 2315SOL     OW 7843   4.317   3.185   6.711
 2315SOL    HW1 7844   4.218   3.184   6.719
 2315SOL    HW2 7845   4.347   3.108   6.654
 2316SOL     OW 7846   5.708   2.970   2.830
 2316SOL    HW1 7847   5.669   3.037   2.894
 2316SOL    HW2 7848   5.667   2.880   2.847
 2317SOL     OW 7849   1.183   5.200   3.724
 2317SOL    HW1 7850   1.115   5.255   3.676
 2317SOL    HW2 7851   1.260   5.258   3.751
 2318SOL     OW 7852   0.101   1.054   3.706
 2318SOL    HW1 7853   0.035   1.046   3.780
 2318SOL    HW2 7854   0.175   1.115   3.734
 2319SOL     OW 7855   1.349   3.940   4.129
 2319SOL    HW1 7856   1.314   4.014   4.071
 2319SOL    HW2 7857   1.280   3.868   4.136
 2320SOL     OW 7858   6.701   3.319   4.561
 2320SOL    HW1 7859   6.772   3.374   4.518
 2320SOL    HW2 7860   6.728   3.223   4.562
 2321SOL     OW 7861   3.371   6.508   5.337
 2321SOL    HW1 7862   3.396   6.414   5.357
 2321SOL    HW2 7863   3.278   6.526   5.370
 2322SOL     OW 7864   2.515   0.398   5.408
 2322SOL    HW1 7865   2.498   0.496   5.408
 2322SOL    HW2 7866   2.429   0.348   5.418
 2323SOL     OW 7867   5.177   5.261   1.762
 2323SOL    HW1 7868   5.101   5.216   1.808
 2323SOL    HW2 7869   5.212   5.335   1.820
 2324SOL     OW 7870   0.079   5.434   3.326
 2324SOL    HW1 7871   0.129   5.375   3.262
 2324SOL    HW2 7872   0.005   5.382   3.368
 2325SOL     OW 7873   0.120   4.030   0.594
 2325SOL    HW1 7874   0.176   4.102   0.555
 2325SOL    HW2 7875   0.104   3.959   0.525
 2326SOL     OW 7876   1.654   5.241   6.853
 2326SOL    HW1 7877   1.574   5.232   6.794
 2326SOL    HW2 7878   1.733   5.267   6.798
 2327SOL     OW 7879   4.936   2.488   4.587
 2327SOL    HW1 7880   5.012   2.456   4.530
 2327SOL    HW2 7881   4.953   2.582   4.615
 2328SOL     OW 7882   4.967   0.147   3.529
 2328SOL    HW1 7883   4.982   0.183   3.437
 2328SOL    HW2 7884   4.962   0.047   3.525
 2329SOL     OW 7885   0.524   6.190   3.967
 2329SOL    HW1 7886   0.516   6.173   3.869
 2329SOL    HW2 7887   0.580   6.118   4.008
 2330SOL     OW 7888   0.574   4.210   2.879
 2330SOL    HW1 7889   0.581   4.284   2.812
 2330SOL    HW2 7890   0.480   4.202   2.910
 2331SOL     OW 7891   0.919   4.378   5.076
 2331SOL    HW1 7892   0.827   4.411   5.053
 2331SOL    HW2 7893   0.960   4.336   4.995
 2332SOL     OW 7894   5.522   2.428   5.715
 2332SOL    HW1 7895   5.455   2.357   5.693
 2332SOL    HW2 7896   5.611   2.385   5.734
 2333SOL     OW 7897   0.777   5.758   3.876
 2333SOL    HW1 7898   0.823   5.767   3.964
 2333SOL    HW2 7899   0.751   5.663   3.860
 2334SOL     OW 7900   3.002   0.046   0.056
 2334SOL    HW1 7901   3.091   0.091   0.055
 2334SOL    HW2 7902   2.987   0.003   0.145
 2335SOL     OW 7903   5.298   6.862   4.057
 2335SOL    HW1 7904   5.270   6.780   4.105
 2335SOL    HW2 7905   5.327   6.931   4.123
 2336SOL     OW 7906   5.390   1.978   6.110
 2336SOL    HW1 7907   5.452   2.055   6.099
 2336SOL    HW2 7908   5.326   1.997   6.184
 2337SOL     OW 7909   5.314   6.901   3.094
 2337SOL    HW1 7910   5.310   6.968   3.168
 2337SOL    HW2 7911   5.327   6.809   3.132
 2338SOL     OW 7912   0.991   6.315   6.737
 2338SOL    HW1 7913   1.006   6.218   6.754
 2338SOL    HW2 7914   1.077   6.365   6.750
 2339SOL     OW 7915   3.722   4.242   0.335
 2339SOL    HW1 7916   3.796   4.183   0.367
 2339SOL    HW2 7917   3.664   4.192   0.271
 2340SOL     OW 7918   3.239   5.571   4.783
 2340SOL    HW1 7919   3.164   5.608   4.838
 2340SOL    HW2 7920   3.240   5.472   4.790
 2341SOL     OW 7921   5.770   4.968   0.423
 2341SOL    HW1 7922   5.760   5.030   0.345
 2341SOL    HW2 7923   5.687   4.973   0.479
 2342SOL     OW 7924   5.979   0.274   5.577
 2342SOL    HW1 7925   5.910   0.323   5.523
 2342SOL    HW2 7926   5.991   0.319   5.665
 2343SOL     OW 7927   1.112   6.537   1.278
 2343SOL    HW1 7928   1.198   6.589   1.281
 2343SOL    HW2 7929   1.045   6.580   1.338
 2344SOL     OW 7930   1.951   2.360   2.934
 2344SOL    HW1 7931   1.886   2.391   2.864
 2344SOL    HW2 7932   2.005   2.438   2.966
 2345SOL     OW 7933   2.182   1.359   4.607
 2345SOL    HW1 7934   2.256   1.402   4.659
 2345SOL    HW2 7935   2.107   1.424   4.596
 2346SOL     OW 7936   5.327   4.114   5.753
 2346SOL    HW1 7937   5.283   4.146   5.837
 2346SOL    HW2 7938   5.290   4.024   5.728
 2347SOL     OW 7939   1.629   2.994   1.978
 2347SOL    HW1 7940   1.542   3.041   1.967
 2347SOL    HW2 7941   1.654   2.992   2.075
 2348SOL     OW 7942   2.446   6.843   1.926
 2348SOL    HW1 7943   2.428   6.836   1.828
 2348SOL    HW2 7944   2.373   6.798   1.976
 2349SOL     OW 7945   5.430   5.747   5.557
 2349SOL    HW1 7946   5.396   5.654   5.570
 2349SOL    HW2 7947   5.352   5.809   5.544
 2350SOL     OW 7948   2.173   6.711   5.593
 2350SOL    HW1 7949   2.139   6.780   5.657
 2350SOL    HW2 7950   2.116   6.629   5.598
 2351SOL     OW 7951   2.159   5.414   4.326
 2351SOL    HW1 7952   2.217   5.494   4.310
 2351SOL    HW2 7953   2.185   5.341   4.263
 2352SOL     OW 7954   0.624   3.462   2.724
 2352SOL    HW1 7955   0.709   3.502   2.757
 2352SOL    HW2 7956   0.642   3.408   2.641
 2353SOL     OW 7957   3.057   3.970   5.849
 2353SOL    HW1 7958   3.051   3.995   5.945
 2353SOL    HW2 7959   3.152   3.972   5.819
 2354SOL     OW 7960   4.038   2.393   0.925
 2354SOL    HW1 7961   4.091   2.454   0.866
 2354SOL    HW2 7962   3.956   2.363   0.877
 2355SOL     OW 7963   0.387   6.358   0.804
 2355SOL    HW1 7964   0.433   6.421   0.866
 2355SOL    HW2 7965   0.454   6.300   0.758
 2356SOL     OW 7966   2.795   5.112   3.430
 2356SOL    HW1 7967   2.863   5.065   3.486
 2356SOL    HW2 7968   2.823   5.111   3.334
 2357SOL     OW 7969   6.535   4.135   1.644
 2357SOL    HW1 7970   6.492   4.134   1.734
 2357SOL    HW2 7971   6.477   4.185   1.580
 2358SOL     OW 7972   3.687   2.281   6.075
 2358SOL    HW1 7973   3.669   2.368   6.029
 2358SOL    HW2 7974   3.785   2.262   6.073
 2359SOL     OW 7975   1.512   1.510   5.920
 2359SOL    HW1 7976   1.423   1.506   5.967
 2359SOL    HW2 7977   1.523   1.429   5.863
 2360SOL     OW 7978   4.227   4.308   0.583
 2360SOL    HW1 7979   4.162   4.381   0.567
 2360SOL    HW2 7980   4.212   4.234   0.517
 2361SOL     OW 7981   3.905   6.340   1.724
 2361SOL    HW1 7982   3.956   6.269   1.677
 2361SOL    HW2 7983   3.907   6.324   1.823
 2362SOL     OW 7984   4.120   6.435   4.190
 2362SOL    HW1 7985   4.130   6.436   4.290
 2362SOL    HW2 7986   4.175   6.507   4.150
 2363SOL     OW 7987   3.170   3.949   0.468
 2363SOL    HW1 7988   3.129   4.039   0.452
 2363SOL    HW2 7989   3.263   3.947   0.432
 2364SOL     OW 7990   4.636   1.865   1.992
 2364SOL    HW1 7991   4.607   1.833   2.082
 2364SOL    HW2 7992   4.633   1.789   1.927
 2365SOL     OW 7993   4.887   3.559   3.461
 2365SOL    HW1 7994   4.793   3.545   3.429
 2365SOL    HW2 7995   4.902   3.504   3.543
 2366SOL     OW 7996   2.769   4.726   5.323
 2366SOL    HW1 7997   2.721   4.654   5.374
 2366SOL    HW2 7998   2.815   4.686   5.244
 2367SOL     OW 7999   0.844   4.582   5.632
 2367SOL    HW1 8000   0.820   4.651   5.564
 2367SOL    HW2 8001   0.808   4.609   5.722
 2368SOL     OW 8002   5.644   6.138   4.468
 2368SOL    HW1 8003   5.721   6.094   4.512
 2368SOL    HW2 8004   5.631   6.100   4.377
 2369SOL     OW 8005   3.189   1.879   3.950
 2369SOL    HW1 8006   3.256   1.867   4.024
 2369SOL    HW2 8007   3.099   1.897   3.989
 2370SOL     OW 8008   5.511   2.514   1.456
 2370SOL    HW1 8009   5.528   2.490   1.360
 2370SOL    HW2 8010   5.470   2.436   1.502
 2371SOL     OW 8011   1.056   0.042   2.828
 2371SOL    HW1 8012   0.983   0.109   2.815
 2371SOL    HW2 8013   1.016   6.970   2.845
 2372SOL     OW 8014   6.483   1.322   6.076
 2372SOL    HW1 8015   6.419   1.388   6.036
 2372SOL    HW2 8016   6.465   1.313   6.174
 2373SOL     OW 8017   5.892   6.568   6.126
 2373SOL    HW1 8018   5.867   6.472   6.136
 2373SOL    HW2 8019   5.809   6.623   6.120
 2374SOL     OW 8020   5.539   6.031   2.408
 2374SOL    HW1 8021   5.584   5.953   2.363
 2374SOL    HW2 8022   5.608   6.087   2.454
 2375SOL     OW 8023   1.096   0.522   3.948
 2375SOL    HW1 8024   1.006   0.557   3.922
 2375SOL    HW2 8025   1.107   0.527   4.047
 2376SOL     OW 8026   5.847   1.528   2.904
 2376SOL    HW1 8027   5.811   1.608   2.858
 2376SOL    HW2 8028   5.916   1.484   2.846
 2377SOL     OW 8029   3.946   4.905   5.889
 2377SOL    HW1 8030   3.851   4.884   5.865
 2377SOL    HW2 8031   3.980   4.977   5.828
 2378SOL     OW 8032   0.369   1.003   0.288
 2378SOL    HW1 8033   0.324   1.085   0.322
 2378SOL    HW2 8034   0.302   0.944   0.243
 2379SOL     OW 8035   6.914   5.020   1.053
 2379SOL    HW1 8036   6.989   5.077   1.085
 2379SOL    HW2 8037   6.865   4.982   1.131
 2380SOL     OW 8038   4.968   4.507   4.957
 2380SOL    HW1 8039   5.032   4.563   4.904
 2380SOL    HW2 8040   4.885   4.559   4.975
 2381SOL     OW 8041   2.868   5.308   4.514
 2381SOL    HW1 8042   2.782   5.282   4.471
 2381SOL    HW2 8043   2.897   5.236   4.577
 2382SOL     OW 8044   0.887   5.845   1.615
 2382SOL    HW1 8045   0.825   5.866   1.690
 2382SOL    HW2 8046   0.959   5.784   1.647
 2383SOL     OW 8047   4.841   5.413   5.330
 2383SOL    HW1 8048   4.846   5.510   5.304
 2383SOL    HW2 8049   4.916   5.392   5.393
 2384SOL     OW 8050   0.663   1.882   1.820
 2384SOL    HW1 8051   0.696   1.966   1.775
 2384SOL    HW2 8052   0.730   1.809   1.806
 2385SOL     OW 8053   0.867   2.142   1.230
 2385SOL    HW1 8054   0.847   2.044   1.227
 2385SOL    HW2 8055   0.783   2.193   1.249
 2386SOL     OW 8056   4.425   5.858   4.367
 2386SOL    HW1 8057   4.343   5.806   4.392
 2386SOL    HW2 8058   4.451   5.835   4.273
 2387SOL     OW 8059   1.512   1.490   4.081
 2387SOL    HW1 8060   1.533   1.510   3.985
 2387SOL    HW2 8061   1.465   1.568   4.122
 2388SOL     OW 8062   6.421   1.658   5.458
 2388SOL    HW1 8063   6.444   1.574   5.508
 2388SOL    HW2 8064   6.323   1.675   5.466
 2389SOL     OW 8065   6.053   4.614   4.352
 2389SOL    HW1 8066   6.028   4.518   4.365
 2389SOL    HW2 8067   6.043   4.662   4.439
 2390SOL     OW 8068   4.574   4.098   5.884
 2390SOL    HW1 8069   4.474   4.101   5.883
 2390SOL    HW2 8070   4.609   4.101   5.790
 2391SOL     OW 8071   3.893   3.819   6.087
 2391SOL    HW1 8072   3.950   3.856   6.160
 2391SOL    HW2 8073   3.799   3.812   6.118
 2392SOL     OW 8074   3.507   5.550   4.876
 2392SOL    HW1 8075   3.408   5.567   4.868
 2392SOL    HW2 8076   3.523   5.466   4.927
 2393SOL     OW 8077   3.409   5.356   1.287
 2393SOL    HW1 8078   3.421   5.293   1.364
 2393SOL    HW2 8079   3.398   5.304   1.202
 2394SOL     OW 8080   0.838   2.477   3.175
 2394SOL    HW1 8081   0.890   2.393   3.192
 2394SOL    HW2 8082   0.888   2.534   3.109
 2395SOL     OW 8083   0.137   2.110   5.057
 2395SOL    HW1 8084   0.065   2.178   5.043
 2395SOL    HW2 8085   0.194   2.137   5.135
 2396SOL     OW 8086   6.665   1.334   5.392
 2396SOL    HW1 8087   6.633   1.347   5.298
 2396SOL    HW2 8088   6.719   1.250   5.398
 2397SOL     OW 8089   0.286   5.251   5.183
 2397SOL    HW1 8090   0.358   5.183   5.197
 2397SOL    HW2 8091   0.246   5.238   5.092
 2398SOL     OW 8092   2.748   5.993   3.516
 2398SOL    HW1 8093   2.653   5.996   3.546
 2398SOL    HW2 8094   2.802   5.942   3.583
 2399SOL     OW 8095   2.899   2.252   4.127
 2399SOL    HW1 8096   2.984   2.288   4.091
 2399SOL    HW2 8097   2.835   2.236   4.051
 2400SOL     OW 8098   0.874   4.000   0.478
 2400SOL    HW1 8099   0.788   4.034   0.517
 2400SOL    HW2 8100   0.951   4.038   0.529
 2401SOL     OW 8101   3.582   0.097   5.547
 2401SOL    HW1 8102   3.526   0.095   5.464
 2401SOL    HW2 8103   3.586   0.190   5.582
 2402SOL     OW 8104   0.692   3.103   2.065
 2402SOL    HW1 8105   0.626   3.176   2.076
 2402SOL    HW2 8106   0.780   3.141   2.035
 2403SOL     OW 8107   3.724   3.751   2.949
 2403SOL    HW1 8108   3.664   3.794   3.017
 2403SOL    HW2 8109   3.677   3.672   2.908
 2404SOL     OW 8110   6.700   1.834   1.032
 2404SOL    HW1 8111   6.617   1.802   1.079
 2404SOL    HW2 8112   6.674   1.883   0.949
 2405SOL     OW 8113   2.304   4.024   0.375
 2405SOL    HW1 8114   2.330   3.928   0.384
 2405SOL    HW2 8115   2.339   4.060   0.289
 2406SOL     OW 8116   2.351   6.909   4.996
 2406SOL    HW1 8117   2.402   6.828   4.967
 2406SOL    HW2 8118   2.401   6.991   4.970
 2407SOL     OW 8119   3.504   1.311   3.910
 2407SOL    HW1 8120   3.420   1.311   3.855
 2407SOL    HW2 8121   3.513   1.224   3.958
 2408SOL     OW 8122   2.596   6.376   4.765
 2408SOL    HW1 8123   2.503   6.370   4.728
 2408SOL    HW2 8124   2.644   6.453   4.723
 2409SOL     OW 8125   2.217   2.638   1.364
 2409SOL    HW1 8126   2.178   2.715   1.415
 2409SOL    HW2 8127   2.156   2.559   1.372
 2410SOL     OW 8128   6.892   3.790   5.853
 2410SOL    HW1 8129   6.860   3.806   5.759
 2410SOL    HW2 8130   6.879   3.694   5.876
 2411SOL     OW 8131   2.604   3.729   6.932
 2411SOL    HW1 8132   2.517   3.680   6.920
 2411SOL    HW2 8133   2.656   3.727   6.847
 2412SOL     OW 8134   3.594   1.978   6.604
 2412SOL    HW1 8135   3.585   2.077   6.612
 2412SOL    HW2 8136   3.543   1.933   6.677
 2413SOL     OW 8137   6.913   3.088   6.464
 2413SOL    HW1 8138   6.917   3.125   6.371
 2413SOL    HW2 8139   6.998   3.110   6.512
 2414SOL     OW 8140   6.190   2.409   4.689
 2414SOL    HW1 8141   6.237   2.322   4.702
 2414SOL    HW2 8142   6.117   2.419   4.757
 2415SOL     OW 8143   2.721   6.131   0.661
 2415SOL    HW1 8144   2.688   6.221   0.691
 2415SOL    HW2 8145   2.764   6.084   0.738
 2416SOL     OW 8146   6.564   3.506   2.948
 2416SOL    HW1 8147   6.515   3.429   2.989
 2416SOL    HW2 8148   6.657   3.479   2.926
 2417SOL     OW 8149   3.556   3.874   1.100
 2417SOL    HW1 8150   3.576   3.941   1.027
 2417SOL    HW2 8151   3.542   3.923   1.186
 2418SOL     OW 8152   5.099   4.141   5.935
 2418SOL    HW1 8153   5.014   4.154   5.987
 2418SOL    HW2 8154   5.098   4.052   5.892
 2419SOL     OW 8155   1.953   6.410   4.340
 2419SOL    HW1 8156   1.951   6.339   4.269
 2419SOL    HW2 8157   1.860   6.442   4.358
 2420SOL     OW 8158   2.061   4.403   2.569
 2420SOL    HW1 8159   1.976   4.388   2.620
 2420SOL    HW2 8160   2.137   4.415   2.633
 2421SOL     OW 8161   2.865   7.006   4.661
 2421SOL    HW1 8162   2.909   6.952   4.733
 2421SOL    HW2 8163   2.901   6.979   4.572
 2422SOL     OW 8164   4.203   6.082   1.030
 2422SOL    HW1 8165   4.141   6.014   0.992
 2422SOL    HW2 8166   4.251   6.129   0.956
 2423SOL     OW 8167   2.080   4.704   2.037
 2423SOL    HW1 8168   2.025   4.678   1.958
 2423SOL    HW2 8169   2.174   4.719   2.008
 2424SOL     OW 8170   5.443   1.368   6.183
 2424SOL    HW1 8171   5.380   1.440   6.211
 2424SOL    HW2 8172   5.403   1.316   6.107
 2425SOL     OW 8173   4.755   5.303   5.584
 2425SOL    HW1 8174   4.764   5.341   5.492
 2425SOL    HW2 8175   4.729   5.206   5.577
 2426SOL     OW 8176   1.330   5.041   5.329
 2426SOL    HW1 8177   1.399   5.083   5.389
 2426SOL    HW2 8178   1.353   5.061   5.234
 2427SOL     OW 8179   5.172   0.739   6.291
 2427SOL    HW1 8180   5.141   0.662   6.236
 2427SOL    HW2 8181   5.231   0.706   6.365
 2428SOL     OW 8182   0.239   0.814   3.558
 2428SOL    HW1 8183   0.239   0.808   3.458
 2428SOL    HW2 8184   0.219   0.908   3.586
 2429SOL     OW 8185   5.364   5.729   2.007
 2429SOL    HW1 8186   5.378   5.788   2.086
 2429SOL    HW2 8187   5.410   5.768   1.927
 2430SOL     OW 8188   6.072   2.641   6.909
 2430SOL    HW1 8189   6.033   2.550   6.927
 2430SOL    HW2 8190   6.000   2.710   6.917
 2431SOL     OW 8191   6.713   2.177   1.656
 2431SOL    HW1 8192   6.715   2.277   1.668
 2431SOL    HW2 8193   6.801   2.146   1.621
 2432SOL     OW 8194   3.491   5.154   2.050
 2432SOL    HW1 8195   3.547   5.104   2.115
 2432SOL    HW2 8196   3.447   5.231   2.096
 2433SOL     OW 8197   6.812   3.864   0.062
 2433SOL    HW1 8198   6.892   3.913   0.097
 2433SOL    HW2 8199   6.762   3.823   0.139
 2434SOL     OW 8200   4.044   1.786   3.090
 2434SOL    HW1 8201   4.094   1.771   3.176
 2434SOL    HW2 8202   3.952   1.817   3.111
 2435SOL     OW 8203   5.135   6.656   6.805
 2435SOL    HW1 8204   5.199   6.707   6.862
 2435SOL    HW2 8205   5.109   6.712   6.726
 2436SOL     OW 8206   2.348   1.724   1.241
 2436SOL    HW1 8207   2.278   1.661   1.207
 2436SOL    HW2 8208   2.369   1.792   1.171
 2437SOL     OW 8209   6.657   5.523   2.042
 2437SOL    HW1 8210   6.671   5.622   2.052
 2437SOL    HW2 8211   6.735   5.474   2.078
 2438SOL     OW 8212   2.831   1.689   4.660
 2438SOL    HW1 8213   2.832   1.761   4.591
 2438SOL    HW2 8214   2.795   1.605   4.621
 2439SOL     OW 8215   0.610   5.721   0.541
 2439SOL    HW1 8216   0.689   5.751   0.488
 2439SOL    HW2 8217   0.627   5.629   0.578
 2440SOL     OW 8218   4.653   1.009   5.284
 2440SOL    HW1 8219   4.686   0.914   5.283
 2440SOL    HW2 8220   4.596   1.026   5.203
 2441SOL     OW 8221   5.993   0.366   6.935
 2441SOL    HW1 8222   6.083   0.340   6.901
 2441SOL    HW2 8223   5.929   0.374   6.859
 2442SOL     OW 8224   4.788   4.018   2.296
 2442SOL    HW1 8225   4.870   4.058   2.253
 2442SOL    HW2 8226   4.812   3.930   2.337
 2443SOL     OW 8227   2.190   2.245   0.640
 2443SOL    HW1 8228   2.166   2.166   0.584
 2443SOL    HW2 8229   2.136   2.244   0.724
 2444SOL     OW 8230   3.752   5.506   0.926
 2444SOL    HW1 8231   3.745   5.468   1.018
 2444SOL    HW2 8232   3.704   5.446   0.862
 2445SOL     OW 8233   0.661   2.289   0.933
 2445SOL    HW1 8234   0.588   2.223   0.914
 2445SOL    HW2 8235   0.744   2.262   0.883
 2446SOL     OW 8236   1.779   3.880   1.664
 2446SOL    HW1 8237   1.810   3.943   1.735
 2446SOL    HW2 8238   1.683   3.856   1.680
 2447SOL     OW 8239   3.252   0.452   0.864
 2447SOL    HW1 8240   3.153   0.443   0.856
 2447SOL    HW2 8241   3.273   0.536   0.913
 2448SOL     OW 8242   6.016   1.975   4.004
 2448SOL    HW1 8243   6.044   1.884   3.973
 2448SOL    HW2 8244   6.078   2.006   4.076
 2449SOL     OW 8245   1.645   4.194   2.042
 2449SOL    HW1 8246   1.662   4.243   2.127
 2449SOL    HW2 8247   1.557   4.147   2.046
 2450SOL     OW 8248   2.058   5.468   6.523
 2450SOL    HW1 8249   2.125   5.393   6.517
 2450SOL    HW2 8250   2.013   5.480   6.435
 2451SOL     OW 8251   0.957   6.995   4.749
 2451SOL    HW1 8252   1.050   6.959   4.738
 2451SOL    HW2 8253   0.915   7.006   4.659
 2452SOL     OW 8254   2.439   2.517   3.625
 2452SOL    HW1 8255   2.489   2.517   3.538
 2452SOL    HW2 8256   2.497   2.480   3.697
 2453SOL     OW 8257   0.498   1.425   0.038
 2453SOL    HW1 8258   0.565   1.459   6.991
 2453SOL    HW2 8259   0.544   1.402   0.124
 2454SOL     OW 8260   4.072   5.453   1.069
 2454SOL    HW1 8261   3.986   5.403   1.075
 2454SOL    HW2 8262   4.062   5.529   1.006
 2455SOL     OW 8263   3.831   1.050   0.419
 2455SOL    HW1 8264   3.915   0.996   0.415
 2455SOL    HW2 8265   3.759   1.004   0.367
 2456SOL     OW 8266   1.302   4.842   6.996
 2456SOL    HW1 8267   1.389   4.854   0.025
 2456SOL    HW2 8268   1.319   4.828   6.899
 2457SOL     OW 8269   5.512   1.781   5.298
 2457SOL    HW1 8270   5.477   1.783   5.204
 2457SOL    HW2 8271   5.524   1.686   5.328
 2458SOL     OW 8272   0.949   0.387   2.890
 2458SOL    HW1 8273   0.995   0.317   2.946
 2458SOL    HW2 8274   0.988   0.387   2.798
 2459SOL     OW 8275   2.370   6.226   0.410
 2459SOL    HW1 8276   2.388   6.134   0.444
 2459SOL    HW2 8277   2.404   6.294   0.476
 2460SOL     OW 8278   1.562   1.219   0.024
 2460SOL    HW1 8279   1.463   1.207   0.026
 2460SOL    HW2 8280   1.598   1.181   6.957
 2461SOL     OW 8281   3.912   0.737   4.104
 2461SOL    HW1 8282   3.910   0.655   4.047
 2461SOL    HW2 8283   4.006   0.768   4.115
 2462SOL     OW 8284   0.589   4.855   0.941
 2462SOL    HW1 8285   0.536   4.775   0.971
 2462SOL    HW2 8286   0.683   4.827   0.923
 2463SOL     OW 8287   6.793   1.216   6.941
 2463SOL    HW1 8288   6.823   1.278   6.868
 2463SOL    HW2 8289   6.709   1.170   6.914
 2464SOL     OW 8290   0.143   2.246   2.682
 2464SOL    HW1 8291   0.076   2.186   2.638
 2464SOL    HW2 8292   0.130   2.340   2.650
 2465SOL     OW 8293   0.515   4.936   5.648
 2465SOL    HW1 8294   0.570   4.872   5.594
 2465SOL    HW2 8295   0.471   5.003   5.588
 2466SOL     OW 8296   1.806   1.767   1.683
 2466SOL    HW1 8297   1.874   1.840   1.678
 2466SOL    HW2 8298   1.723   1.800   1.725
 2467SOL     OW 8299   5.032   1.317   6.076
 2467SOL    HW1 8300   5.094   1.294   6.151
 2467SOL    HW2 8301   4.980   1.400   6.100
 2468SOL     OW 8302   3.903   0.455   5.968
 2468SOL    HW1 8303   3.932   0.550   5.955
 2468SOL    HW2 8304   3.811   0.443   5.931
 2469SOL     OW 8305   4.007   2.552   5.563
 2469SOL    HW1 8306   3.918   2.508   5.557
 2469SOL    HW2 8307   4.078   2.482   5.572
 2470SOL     OW 8308   3.987   4.612   0.164
 2470SOL    HW1 8309   4.037   4.641   0.082
 2470SOL    HW2 8310   3.906   4.671   0.175
 2471SOL     OW 8311   3.883   6.675   1.051
 2471SOL    HW1 8312   3.882   6.775   1.057
 2471SOL    HW2 8313   3.793   6.640   1.077
 2472SOL     OW 8314   4.943   2.496   4.124
 2472SOL    HW1 8315   4.967   2.572   4.185
 2472SOL    HW2 8316   4.994   2.503   4.039
 2473SOL     OW 8317   0.957   4.287   4.452
 2473SOL    HW1 8318   1.015   4.207   4.434
 2473SOL    HW2 8319   0.932   4.289   4.549
 2474SOL     OW 8320   0.871   5.678   0.928
 2474SOL    HW1 8321   0.950   5.738   0.914
 2474SOL    HW2 8322   0.882   5.627   1.013
 2475SOL     OW 8323   5.147   0.240   0.716
 2475SOL    HW1 8324   5.180   0.334   0.718
 2475SOL    HW2 8325   5.223   0.178   0.699
 2476SOL     OW 8326   5.623   0.628   2.232
 2476SOL    HW1 8327   5.665   0.539   2.217
 2476SOL    HW2 8328   5.645   0.661   2.324
 2477SOL     OW 8329   3.811   0.468   3.495
 2477SOL    HW1 8330   3.789   0.449   3.591
 2477SOL    HW2 8331   3.731   0.509   3.450
 2478SOL     OW 8332   4.459   1.424   2.957
 2478SOL    HW1 8333   4.500   1.444   2.868
 2478SOL    HW2 8334   4.484   1.495   3.023
 2479SOL     OW 8335   0.896   2.630   1.324
 2479SOL    HW1 8336   0.898   2.568   1.403
 2479SOL    HW2 8337   0.802   2.654   1.303
 2480SOL     OW 8338   3.512   2.859   1.176
 2480SOL    HW1 8339   3.486   2.943   1.129
 2480SOL    HW2 8340   3.607   2.836   1.155
 2481SOL     OW 8341   3.645   0.530   1.639
 2481SOL    HW1 8342   3.695   0.450   1.674
 2481SOL    HW2 8343   3.640   0.600   1.711
 2482SOL     OW 8344   5.226   3.713   0.012
 2482SOL    HW1 8345   5.324   3.723   7.013
 2482SOL    HW2 8346   5.184   3.658   6.959
 2483SOL     OW 8347   0.903   2.569   0.070
 2483SOL    HW1 8348   0.852   2.607   0.148
 2483SOL    HW2 8349   0.996   2.547   0.100
 2484SOL     OW 8350   4.153   0.905   1.563
 2484SOL    HW1 8351   4.106   0.978   1.612
 2484SOL    HW2 8352   4.142   0.819   1.613
 2485SOL     OW 8353   5.953   2.077   6.931
 2485SOL    HW1 8354   6.042   2.049   6.896
 2485SOL    HW2 8355   5.881   2.024   6.888
 2486SOL     OW 8356   0.385   4.892   5.246
 2486SOL    HW1 8357   0.424   4.810   5.289
 2486SOL    HW2 8358   0.452   4.931   5.182
 2487SOL     OW 8359   4.501   6.057   0.874
 2487SOL    HW1 8360   4.583   6.113   0.866
 2487SOL    HW2 8361   4.492   6.023   0.967
 2488SOL     OW 8362   0.007   4.143   1.852
 2488SOL    HW1 8363   6.979   4.111   1.934
 2488SOL    HW2 8364   6.963   4.141   1.774
 2489SOL     OW 8365   0.740   6.410   4.052
 2489SOL    HW1 8366   0.691   6.326   4.026
 2489SOL    HW2 8367   0.724   6.429   4.149
 2490SOL     OW 8368   0.683   6.061   1.210
 2490SOL    HW1 8369   0.673   6.152   1.249
 2490SOL    HW2 8370   0.664   6.063   1.112
 2491SOL     OW 8371   3.993   4.457   1.671
 2491SOL    HW1 8372   3.894   4.463   1.680
 2491SOL    HW2 8373   4.034   4.547   1.681
 2492SOL     OW 8374   5.031   3.518   1.286
 2492SOL    HW1 8375   5.079   3.547   1.204
 2492SOL    HW2 8376   5.008   3.597   1.342
 2493SOL     OW 8377   0.107   0.162   1.105
 2493SOL    HW1 8378   0.121   0.063   1.105
 2493SOL    HW2 8379   0.165   0.204   1.174
 2494SOL     OW 8380   5.919   3.816   1.906
 2494SOL    HW1 8381   5.944   3.841   1.999
 2494SOL    HW2 8382   5.861   3.888   1.867
 2495SOL     OW 8383   5.326   5.901   3.211
 2495SOL    HW1 8384   5.312   5.816   3.262
 2495SOL    HW2 8385   5.366   5.880   3.122
 2496SOL     OW 8386   0.299   3.559   6.911
 2496SOL    HW1 8387   0.233   3.612   6.964
 2496SOL    HW2 8388   0.348   3.497   6.972
 2497SOL     OW 8389   0.819   0.318   0.549
 2497SOL    HW1 8390   0.834   0.303   0.451
 2497SOL    HW2 8391   0.761   0.399   0.561
 2498SOL     OW 8392   3.410   2.831   5.578
 2498SOL    HW1 8393   3.316   2.833   5.541
 2498SOL    HW2 8394   3.468   2.776   5.518
 2499SOL     OW 8395   6.027   3.041   1.717
 2499SOL    HW1 8396   6.067   2.950   1.732
 2499SOL    HW2 8397   6.086   3.095   1.659
 2500SOL     OW 8398   3.536   3.588   6.318
 2500SOL    HW1 8399   3.507   3.503   6.275
 2500SOL    HW2 8400   3.537   3.576   6.418
 2501SOL     OW 8401   5.428   5.582   6.936
 2501SOL    HW1 8402   5.476   5.620   7.015
 2501SOL    HW2 8403   5.478   5.605   6.853
 2502SOL     OW 8404   1.909   6.705   4.720
 2502SOL    HW1 8405   1.865   6.795   4.722
 2502SOL    HW2 8406   1.930   6.679   4.626
 2503SOL     OW 8407   3.593   6.690   5.232
 2503SOL    HW1 8408   3.596   6.607   5.175
 2503SOL    HW2 8409   3.516   6.684   5.296
 2504SOL     OW 8410   3.681   5.433   2.372
 2504SOL    HW1 8411   3.609   5.474   2.316
 2504SOL    HW2 8412   3.695   5.488   2.454
 2505SOL     OW 8413   0.411   5.801   3.292
 2505SOL    HW1 8414   0.398   5.729   3.360
 2505SOL    HW2 8415   0.508   5.822   3.283
 2506SOL     OW 8416   6.313   3.809   6.330
 2506SOL    HW1 8417   6.246   3.793   6.403
 2506SOL    HW2 8418   6.334   3.723   6.284
 2507SOL     OW 8419   0.360   3.651   0.274
 2507SOL    HW1 8420   0.273   3.620   0.314
 2507SOL    HW2 8421   0.395   3.581   0.213
 2508SOL     OW 8422   2.831   1.951   4.567
 2508SOL    HW1 8423   2.863   2.030   4.515
 2508SOL    HW2 8424   2.771   1.981   4.641
 2509SOL     OW 8425   6.642   4.238   0.391
 2509SOL    HW1 8426   6.687   4.298   0.324
 2509SOL    HW2 8427   6.704   4.164   0.415
 2510SOL     OW 8428   3.562   4.239   0.776
 2510SOL    HW1 8429   3.592   4.334   0.769
 2510SOL    HW2 8430   3.463   4.234   0.770
 2511SOL     OW 8431   2.243   1.099   4.667
 2511SOL    HW1 8432   2.262   1.111   4.764
 2511SOL    HW2 8433   2.171   1.161   4.639
 2512SOL     OW 8434   4.058   4.199   5.413
 2512SOL    HW1 8435   3.962   4.171   5.415
 2512SOL    HW2 8436   4.065   4.293   5.379
 2513SOL     OW 8437   1.800   5.650   5.203
 2513SOL    HW1 8438   1.709   5.662   5.165
 2513SOL    HW2 8439   1.850   5.582   5.150
 2514SOL     OW 8440   0.637   3.315   4.487
 2514SOL    HW1 8441   0.705   3.387   4.488
 2514SOL    HW2 8442   0.614   3.291   4.393
 2515SOL     OW 8443   1.695   0.085   1.414
 2515SOL    HW1 8444   1.703   0.125   1.505
 2515SOL    HW2 8445   1.643   7.018   1.421
 2516SOL     OW 8446   4.937   1.095   2.415
 2516SOL    HW1 8447   5.016   1.111   2.475
 2516SOL    HW2 8448   4.949   1.146   2.330
 2517SOL     OW 8449   1.770   0.204   5.755
 2517SOL    HW1 8450   1.809   0.221   5.665
 2517SOL    HW2 8451   1.698   0.272   5.773
 2518SOL     OW 8452   1.696   5.040   1.166
 2518SOL    HW1 8453   1.740   4.956   1.197
 2518SOL    HW2 8454   1.762   5.116   1.171
 2519SOL     OW 8455   3.532   1.150   1.457
 2519SOL    HW1 8456   3.614   1.093   1.442
 2519SOL    HW2 8457   3.550   1.215   1.531
 2520SOL     OW 8458   3.345   1.804   6.717
 2520SOL    HW1 8459   3.354   1.838   6.811
 2520SOL    HW2 8460   3.306   1.876   6.659
 2521SOL     OW 8461   3.197   1.896   5.682
 2521SOL    HW1 8462   3.188   1.974   5.620
 2521SOL    HW2 8463   3.235   1.926   5.769
 2522SOL     OW 8464   1.464   1.613   5.528
 2522SOL    HW1 8465   1.482   1.533   5.586
 2522SOL    HW2 8466   1.504   1.598   5.438
 2523SOL     OW 8467   1.885   3.563   1.201
 2523SOL    HW1 8468   1.866   3.471   1.234
 2523SOL    HW2 8469   1.918   3.620   1.277
 2524SOL     OW 8470   6.999   6.444   4.472
 2524SOL    HW1 8471   6.996   6.355   4.518
 2524SOL    HW2 8472   6.925   6.502   4.506
 2525SOL     OW 8473   1.327   3.167   4.818
 2525SOL    HW1 8474   1.316   3.217   4.732
 2525SOL    HW2 8475   1.241   3.166   4.868
 2526SOL     OW 8476   1.697   4.655   6.454
 2526SOL    HW1 8477   1.603   4.634   6.479
 2526SOL    HW2 8478   1.759   4.607   6.516
 2527SOL     OW 8479   5.208   5.882   5.597
 2527SOL    HW1 8480   5.165   5.907   5.684
 2527SOL    HW2 8481   5.214   5.963   5.539
 2528SOL     OW 8482   5.480   4.315   5.626
 2528SOL    HW1 8483   5.438   4.256   5.694
 2528SOL    HW2 8484   5.565   4.273   5.594
 2529SOL     OW 8485   0.593   6.753   0.094
 2529SOL    HW1 8486   0.671   6.790   0.043
 2529SOL    HW2 8487   0.595   6.788   0.188
 2530SOL     OW 8488   2.406   5.983   5.390
 2530SOL    HW1 8489   2.435   5.927   5.312
 2530SOL    HW2 8490   2.424   5.934   5.475
 2531SOL     OW 8491   6.084   6.305   5.874
 2531SOL    HW1 8492   5.987   6.325   5.878
 2531SOL    HW2 8493   6.135   6.387   5.846
 2532SOL     OW 8494   0.129   6.301   0.837
 2532SOL    HW1 8495   0.105   6.211   0.799
 2532SOL    HW2 8496   0.227   6.315   0.830
 2533SOL     OW 8497   4.826   0.608   3.639
 2533SOL    HW1 8498   4.886   0.636   3.715
 2533SOL    HW2 8499   4.793   0.690   3.592
 2534SOL     OW 8500   4.050   1.202   1.475
 2534SOL    HW1 8501   4.142   1.214   1.438
 2534SOL    HW2 8502   3.986   1.260   1.424
 2535SOL     OW 8503   3.614   2.388   6.834
 2535SOL    HW1 8504   3.677   2.397   6.911
 2535SOL    HW2 8505   3.521   2.412   6.863
 2536SOL     OW 8506   1.873   0.504   6.429
 2536SOL    HW1 8507   1.906   0.412   6.451
 2536SOL    HW2 8508   1.800   0.498   6.360
 2537SOL     OW 8509   3.139   0.018   6.453
 2537SOL    HW1 8510   3.196   0.023   6.371
 2537SOL    HW2 8511   3.073   0.093   6.452
 2538SOL     OW 8512   0.300   3.615   4.068
 2538SOL    HW1 8513   0.309   3.548   4.142
 2538SOL    HW2 8514   0.389   3.625   4.022
 2539SOL     OW 8515   4.994   0.989   4.658
 2539SOL    HW1 8516   4.970   1.064   4.597
 2539SOL    HW2 8517   4.939   0.909   4.635
 2540SOL     OW 8518   4.253   1.901   2.963
 2540SOL    HW1 8519   4.276   1.850   2.880
 2540SOL    HW2 8520   4.180   1.854   3.012
 2541SOL     OW 8521   2.937   0.019   5.112
 2541SOL    HW1 8522   2.840   0.042   5.124
 2541SOL    HW2 8523   2.944   6.952   5.061
 2542SOL     OW 8524   3.437   3.378   6.183
 2542SOL    HW1 8525   3.421   3.445   6.110
 2542SOL    HW2 8526   3.353   3.365   6.235
 2543SOL     OW 8527   0.401   0.706   4.483
 2543SOL    HW1 8528   0.319   0.650   4.477
 2543SOL    HW2 8529   0.482   0.650   4.463
 2544SOL     OW 8530   0.374   5.831   0.628
 2544SOL    HW1 8531   0.338   5.905   0.572
 2544SOL    HW2 8532   0.459   5.797   0.587
 2545SOL     OW 8533   1.479   6.500   2.372
 2545SOL    HW1 8534   1.411   6.572   2.354
 2545SOL    HW2 8535   1.565   6.543   2.400
 2546SOL     OW 8536   6.897   1.975   1.245
 2546SOL    HW1 8537   6.803   1.952   1.224
 2546SOL    HW2 8538   6.929   2.046   1.181
 2547SOL     OW 8539   0.622   3.785   0.315
 2547SOL    HW1 8540   0.542   3.725   0.322
 2547SOL    HW2 8541   0.593   3.880   0.307
 2548SOL     OW 8542   0.501   6.776   4.503
 2548SOL    HW1 8543   0.560   6.792   4.582
 2548SOL    HW2 8544   0.477   6.679   4.498
 2549SOL     OW 8545   1.166   0.442   1.806
 2549SOL    HW1 8546   1.176   0.439   1.906
 2549SOL    HW2 8547   1.246   0.398   1.764
 2550SOL     OW 8548   6.430   6.884   0.372
 2550SOL    HW1 8549   6.476   6.945   0.437
 2550SOL    HW2 8550   6.356   6.933   0.327
 2551SOL     OW 8551   3.274   4.651   0.216
 2551SOL    HW1 8552   3.296   4.748   0.209
 2551SOL    HW2 8553   3.177   4.637   0.194
 2552SOL     OW 8554   2.274   6.137   4.510
 2552SOL    HW1 8555   2.292   6.195   4.430
 2552SOL    HW2 8556   2.179   6.107   4.508
 2553SOL     OW 8557   4.102   3.400   6.051
 2553SOL    HW1 8558   4.050   3.348   5.983
 2553SOL    HW2 8559   4.164   3.338   6.099
 2554SOL     OW 8560   2.521   0.946   0.100
 2554SOL    HW1 8561   2.482   0.968   0.189
 2554SOL    HW2 8562   2.466   0.875   0.057
 2555SOL     OW 8563   5.827   1.712   4.195
 2555SOL    HW1 8564   5.912   1.695   4.245
 2555SOL    HW2 8565   5.829   1.804   4.155
 2556SOL     OW 8566   4.194   6.063   0.264
 2556SOL    HW1 8567   4.172   5.982   0.210
 2556SOL    HW2 8568   4.232   6.035   0.352
 2557SOL     OW 8569   1.482   3.575   0.415
 2557SOL    HW1 8570   1.505   3.633   0.337
 2557SOL    HW2 8571   1.400   3.522   0.394
 2558SOL     OW 8572   4.944   1.106   5.261
 2558SOL    HW1 8573   4.845   1.093   5.260
 2558SOL    HW2 8574   4.986   1.031   5.313
 2559SOL     OW 8575   1.184   4.506   5.439
 2559SOL    HW1 8576   1.126   4.439   5.392
 2559SOL    HW2 8577   1.266   4.523   5.384
 2560SOL     OW 8578   6.347   2.520   5.876
 2560SOL    HW1 8579   6.372   2.610   5.839
 2560SOL    HW2 8580   6.261   2.528   5.927
 2561SOL     OW 8581   2.487   4.923   5.030
 2561SOL    HW1 8582   2.544   4.996   5.068
 2561SOL    HW2 8583   2.534   4.836   5.039
 2562SOL     OW 8584   2.382   4.858   0.999
 2562SOL    HW1 8585   2.359   4.769   0.960
 2562SOL    HW2 8586   2.448   4.846   1.073
 2563SOL     OW 8587   3.908   1.285   1.226
 2563SOL    HW1 8588   3.866   1.226   1.157
 2563SOL    HW2 8589   4.003   1.303   1.200
 2564SOL     OW 8590   1.677   5.528   6.952
 2564SOL    HW1 8591   1.668   5.428   6.945
 2564SOL    HW2 8592   1.695   5.566   6.862
 2565SOL     OW 8593   1.390   0.665   6.829
 2565SOL    HW1 8594   1.451   0.699   6.758
 2565SOL    HW2 8595   1.392   0.565   6.829
 2566SOL     OW 8596   2.357   6.780   1.670
 2566SOL    HW1 8597   2.390   6.693   1.632
 2566SOL    HW2 8598   2.366   6.852   1.601
 2567SOL     OW 8599   1.053   0.578   0.952
 2567SOL    HW1 8600   1.031   0.645   1.024
 2567SOL    HW2 8601   0.985   0.506   0.952
 2568SOL     OW 8602   4.525   2.165   0.135
 2568SOL    HW1 8603   4.493   2.121   0.051
 2568SOL    HW2 8604   4.487   2.257   0.141
 2569SOL     OW 8605   3.338   0.673   3.086
 2569SOL    HW1 8606   3.296   0.617   3.015
 2569SOL    HW2 8607   3.317   0.769   3.069
 2570SOL     OW 8608   5.853   0.657   5.539
 2570SOL    HW1 8609   5.924   0.725   5.518
 2570SOL    HW2 8610   5.763   0.697   5.525
 2571SOL     OW 8611   1.794   4.833   3.741
 2571SOL    HW1 8612   1.852   4.754   3.721
 2571SOL    HW2 8613   1.850   4.915   3.749
 2572SOL     OW 8614   3.009   5.365   2.538
 2572SOL    HW1 8615   2.918   5.390   2.571
 2572SOL    HW2 8616   3.008   5.269   2.508
 2573SOL     OW 8617   0.779   1.888   1.210
 2573SOL    HW1 8618   0.744   1.882   1.304
 2573SOL    HW2 8619   0.704   1.871   1.146
 2574SOL     OW 8620   5.129   3.529   1.015
 2574SOL    HW1 8621   5.199   3.521   0.945
 2574SOL    HW2 8622   5.063   3.455   1.006
 2575SOL     OW 8623   5.725   5.459   6.523
 2575SOL    HW1 8624   5.719   5.373   6.471
 2575SOL    HW2 8625   5.821   5.479   6.542
 2576SOL     OW 8626   4.169   6.415   4.474
 2576SOL    HW1 8627   4.252   6.399   4.528
 2576SOL    HW2 8628   4.103   6.343   4.492
 2577SOL     OW 8629   2.823   5.247   2.076
 2577SOL    HW1 8630   2.773   5.201   2.003
 2577SOL    HW2 8631   2.920   5.248   2.055
 2578SOL     OW 8632   3.699   1.473   3.847
 2578SOL    HW1 8633   3.619   1.415   3.864
 2578SOL    HW2 8634   3.680   1.535   3.772
 2579SOL     OW 8635   1.049   6.054   3.976
 2579SOL    HW1 8636   1.063   5.986   4.048
 2579SOL    HW2 8637   1.113   6.036   3.901
 2580SOL     OW 8638   2.469   4.431   7.014
 2580SOL    HW1 8639   2.387   4.447   0.050
 2580SOL    HW2 8640   2.547   4.419   0.056
 2581SOL     OW 8641   1.791   5.459   0.600
 2581SOL    HW1 8642   1.761   5.523   0.670
 2581SOL    HW2 8643   1.807   5.508   0.514
 2582SOL     OW 8644   6.857   3.878   1.582
 2582SOL    HW1 8645   6.830   3.857   1.488
 2582SOL    HW2 8646   6.855   3.977   1.596
 2583SOL     OW 8647   0.698   0.613   6.422
 2583SOL    HW1 8648   0.646   0.687   6.379
 2583SOL    HW2 8649   0.644   0.529   6.420
 2584SOL     OW 8650   4.205   5.115   5.756
 2584SOL    HW1 8651   4.145   5.062   5.696
 2584SOL    HW2 8652   4.193   5.213   5.738
 2585SOL     OW 8653   2.593   4.297   6.754
 2585SOL    HW1 8654   2.651   4.243   6.815
 2585SOL    HW2 8655   2.591   4.392   6.787
 2586SOL     OW 8656   2.899   1.164   5.704
 2586SOL    HW1 8657   2.894   1.135   5.609
 2586SOL    HW2 8658   2.963   1.106   5.754
 2587SOL     OW 8659   6.593   1.230   3.374
 2587SOL    HW1 8660   6.658   1.286   3.427
 2587SOL    HW2 8661   6.514   1.208   3.431
 2588SOL     OW 8662   4.044   2.294   5.276
 2588SOL    HW1 8663   3.968   2.322   5.336
 2588SOL    HW2 8664   4.095   2.375   5.247
 2589SOL     OW 8665   1.219   6.711   6.561
 2589SOL    HW1 8666   1.142   6.774   6.569
 2589SOL    HW2 8667   1.195   6.635   6.501
 2590SOL     OW 8668   2.825   5.189   0.154
 2590SOL    HW1 8669   2.788   5.101   0.122
 2590SOL    HW2 8670   2.844   5.183   0.252
 2591SOL     OW 8671   6.785   5.056   3.480
 2591SOL    HW1 8672   6.790   5.040   3.579
 2591SOL    HW2 8673   6.839   4.986   3.433
 2592SOL     OW 8674   2.634   4.010   6.366
 2592SOL    HW1 8675   2.582   4.018   6.280
 2592SOL    HW2 8676   2.624   4.094   6.418
 2593SOL     OW 8677   3.283   5.654   0.663
 2593SOL    HW1 8678   3.249   5.592   0.592
 2593SOL    HW2 8679   3.207   5.708   0.699
 2594SOL     OW 8680   2.483   4.031   6.151
 2594SOL    HW1 8681   2.402   4.046   6.209
 2594SOL    HW2 8682   2.464   4.064   6.059
 2595SOL     OW 8683   0.531   1.799   4.270
 2595SOL    HW1 8684   0.575   1.814   4.359
 2595SOL    HW2 8685   0.484   1.711   4.271
 2596SOL     OW 8686   1.962   2.910   1.054
 2596SOL    HW1 8687   2.060   2.908   1.034
 2596SOL    HW2 8688   1.926   2.817   1.052
 2597SOL     OW 8689   6.817   5.092   6.617
 2597SOL    HW1 8690   6.819   5.156   6.694
 2597SOL    HW2 8691   6.911   5.067   6.593
 2598SOL     OW 8692   6.710   1.629   1.829
 2598SOL    HW1 8693   6.697   1.645   1.927
 2598SOL    HW2 8694   6.796   1.670   1.800
 2599SOL     OW 8695   1.635   6.418   1.158
 2599SOL    HW1 8696   1.693   6.351   1.204
 2599SOL    HW2 8697   1.539   6.395   1.173
 2600SOL     OW 8698   6.014   3.268   4.035
 2600SOL    HW1 8699   6.077   3.238   4.107
 2600SOL    HW2 8700   5.927   3.296   4.076
 2601SOL     OW 8701   1.642   2.174   2.115
 2601SOL    HW1 8702   1.709   2.105   2.142
 2601SOL    HW2 8703   1.685   2.241   2.054
 2602SOL     OW 8704   1.616   5.127   4.354
 2602SOL    HW1 8705   1.618   5.110   4.256
 2602SOL    HW2 8706   1.698   5.088   4.397
 2603SOL     OW 8707   2.365   0.963   2.468
 2603SOL    HW1 8708   2.410   0.970   2.379
 2603SOL    HW2 8709   2.280   1.016   2.467
 2604SOL     OW 8710   5.484   1.744   2.148
 2604SOL    HW1 8711   5.387   1.732   2.170
 2604SOL    HW2 8712   5.529   1.655   2.148
 2605SOL     OW 8713   1.672   3.697   2.562
 2605SOL    HW1 8714   1.646   3.782   2.516
 2605SOL    HW2 8715   1.624   3.621   2.519
 2606SOL     OW 8716   5.610   5.375   1.298
 2606SOL    HW1 8717   5.615   5.474   1.285
 2606SOL    HW2 8718   5.563   5.334   1.219
 2607SOL     OW 8719   1.912   2.124   1.185
 2607SOL    HW1 8720   1.930   2.080   1.097
 2607SOL    HW2 8721   1.901   2.053   1.255
 2608SOL     OW 8722   2.445   5.646   6.503
 2608SOL    HW1 8723   2.500   5.714   6.553
 2608SOL    HW2 8724   2.372   5.611   6.562
 2609SOL     OW 8725   0.463   1.257   1.160
 2609SOL    HW1 8726   0.421   1.280   1.072
 2609SOL    HW2 8727   0.408   1.296   1.234
 2610SOL     OW 8728   1.136   4.817   4.017
 2610SOL    HW1 8729   1.068   4.803   3.945
 2610SOL    HW2 8730   1.189   4.900   3.997
 2611SOL     OW 8731   4.396   6.257   0.218
 2611SOL    HW1 8732   4.318   6.209   0.258
 2611SOL    HW2 8733   4.372   6.352   0.203
 2612SOL     OW 8734   5.110   6.742   4.567
 2612SOL    HW1 8735   5.169   6.684   4.623
 2612SOL    HW2 8736   5.166   6.806   4.516
 2613SOL     OW 8737   1.519   5.344   6.197
 2613SOL    HW1 8738   1.501   5.360   6.100
 2613SOL    HW2 8739   1.575   5.262   6.208
 2614SOL     OW 8740   5.999   0.745   6.347
 2614SOL    HW1 8741   5.972   0.823   6.292
 2614SOL    HW2 8742   6.085   0.708   6.313
 2615SOL     OW 8743   1.228   3.311   1.762
 2615SOL    HW1 8744   1.208   3.387   1.824
 2615SOL    HW2 8745   1.305   3.336   1.703
 2616SOL     OW 8746   0.910   0.921   5.147
 2616SOL    HW1 8747   0.817   0.904   5.112
 2616SOL    HW2 8748   0.951   0.997   5.097
 2617SOL     OW 8749   5.556   0.506   1.044
 2617SOL    HW1 8750   5.574   0.554   0.958
 2617SOL    HW2 8751   5.471   0.454   1.037
 2618SOL     OW 8752   1.032   5.671   4.648
 2618SOL    HW1 8753   1.075   5.761   4.645
 2618SOL    HW2 8754   0.942   5.679   4.691
 2619SOL     OW 8755   4.295   1.646   2.003
 2619SOL    HW1 8756   4.356   1.602   2.069
 2619SOL    HW2 8757   4.226   1.580   1.973
 2620SOL     OW 8758   6.146   6.197   2.008
 2620SOL    HW1 8759   6.226   6.139   1.991
 2620SOL    HW2 8760   6.094   6.207   1.923
 2621SOL     OW 8761   0.425   5.549   2.582
 2621SOL    HW1 8762   0.458   5.643   2.580
 2621SOL    HW2 8763   0.333   5.547   2.622
 2622SOL     OW 8764   2.884   2.837   5.956
 2622SOL    HW1 8765   2.796   2.855   6.000
 2622SOL    HW2 8766   2.958   2.854   6.021
 2623SOL     OW 8767   0.214   6.795   3.954
 2623SOL    HW1 8768   0.290   6.811   4.017
 2623SOL    HW2 8769   0.185   6.882   3.914
 2624SOL     OW 8770   6.544   2.121   4.765
 2624SOL    HW1 8771   6.620   2.151   4.822
 2624SOL    HW2 8772   6.571   2.039   4.713
 2625SOL     OW 8773   2.140   4.964   5.348
 2625SOL    HW1 8774   2.196   4.962   5.265
 2625SOL    HW2 8775   2.197   4.946   5.428
 2626SOL     OW 8776   6.581   6.719   5.255
 2626SOL    HW1 8777   6.675   6.693   5.278
 2626SOL    HW2 8778   6.566   6.815   5.280
 2627SOL     OW 8779   0.876   0.169   6.415
 2627SOL    HW1 8780   0.833   0.218   6.339
 2627SOL    HW2 8781   0.879   0.071   6.395
 2628SOL     OW 8782   1.608   3.407   3.709
 2628SOL    HW1 8783   1.516   3.418   3.747
 2628SOL    HW2 8784   1.627   3.482   3.646
 2629SOL     OW 8785   3.350   3.970   3.281
 2629SOL    HW1 8786   3.367   4.012   3.371
 2629SOL    HW2 8787   3.251   3.963   3.266
 2630SOL     OW 8788   3.423   0.933   3.049
 2630SOL    HW1 8789   3.441   0.914   2.952
 2630SOL    HW2 8790   3.484   1.006   3.080
 2631SOL     OW 8791   5.459   0.486   6.206
 2631SOL    HW1 8792   5.530   0.449   6.266
 2631SOL    HW2 8793   5.401   0.411   6.174
 2632SOL     OW 8794   5.669   4.706   1.515
 2632SOL    HW1 8795   5.636   4.758   1.436
 2632SOL    HW2 8796   5.726   4.630   1.483
 2633SOL     OW 8797   6.712   2.617   5.403
 2633SOL    HW1 8798   6.715   2.692   5.338
 2633SOL    HW2 8799   6.699   2.654   5.495
 2634SOL     OW 8800   6.889   6.051   4.744
 2634SOL    HW1 8801   6.977   6.090   4.716
 2634SOL    HW2 8802   6.891   5.952   4.734
 2635SOL     OW 8803   5.542   5.216   3.764
 2635SOL    HW1 8804   5.636   5.194   3.793
 2635SOL    HW2 8805   5.512   5.300   3.809
 2636SOL     OW 8806   3.720   0.761   5.870
 2636SOL    HW1 8807   3.747   0.764   5.774
 2636SOL    HW2 8808   3.738   0.849   5.913
 2637SOL     OW 8809   0.121   2.133   3.527
 2637SOL    HW1 8810   0.100   2.220   3.483
 2637SOL    HW2 8811   0.145   2.149   3.623
 2638SOL     OW 8812   0.868   0.130   4.541
 2638SOL    HW1 8813   0.845   0.225   4.520
 2638SOL    HW2 8814   0.878   0.078   4.456
 2639SOL     OW 8815   4.542   5.112   4.952
 2639SOL    HW1 8816   4.469   5.049   4.980
 2639SOL    HW2 8817   4.593   5.143   5.032
 2640SOL     OW 8818   0.481   0.216   5.106
 2640SOL    HW1 8819   0.506   0.198   5.011
 2640SOL    HW2 8820   0.543   0.285   5.145
 2641SOL     OW 8821   5.479   2.532   0.039
 2641SOL    HW1 8822   5.429   2.462   7.007
 2641SOL    HW2 8823   5.577   2.524   0.019
 2642SOL     OW 8824   6.697   1.253   4.517
 2642SOL    HW1 8825   6.793   1.279   4.510
 2642SOL    HW2 8826   6.682   1.166   4.470
 2643SOL     OW 8827   0.690   2.964   4.006
 2643SOL    HW1 8828   0.600   2.954   4.050
 2643SOL    HW2 8829   0.748   2.887   4.031
 2644SOL     OW 8830   4.538   5.495   4.811
 2644SOL    HW1 8831   4.554   5.577   4.867
 2644SOL    HW2 8832   4.474   5.517   4.738
 2645SOL     OW 8833   4.868   5.037   3.627
 2645SOL    HW1 8834   4.819   5.118   3.660
 2645SOL    HW2 8835   4.966   5.050   3.640
 2646SOL     OW 8836   0.591   3.899   6.092
 2646SOL    HW1 8837   0.611   3.812   6.046
 2646SOL    HW2 8838   0.647   3.906   6.174
 2647SOL     OW 8839   5.494   0.200   1.644
 2647SOL    HW1 8840   5.472   0.294   1.619
 2647SOL    HW2 8841   5.593   0.187   1.638
 2648SOL     OW 8842   0.887   0.236   4.093
 2648SOL    HW1 8843   0.834   0.156   4.122
 2648SOL    HW2 8844   0.959   0.255   4.160
 2649SOL     OW 8845   5.157   2.819   1.647
 2649SOL    HW1 8846   5.099   2.841   1.726
 2649SOL    HW2 8847   5.117   2.860   1.565
 2650SOL     OW 8848   2.958   6.369   5.022
 2650SOL    HW1 8849   2.988   6.352   5.115
 2650SOL    HW2 8850   2.917   6.460   5.016
 2651SOL     OW 8851   3.903   1.896   5.909
 2651SOL    HW1 8852   3.905   1.896   6.008
 2651SOL    HW2 8853   3.811   1.919   5.877
 2652SOL     OW 8854   4.999   3.597   5.455
 2652SOL    HW1 8855   4.927   3.630   5.395
 2652SOL    HW2 8856   5.040   3.515   5.416
 2653SOL     OW 8857   3.571   5.947   6.410
 2653SOL    HW1 8858   3.592   5.871   6.349
 2653SOL    HW2 8859   3.472   5.955   6.421
 2654SOL     OW 8860   5.211   6.751   0.485
 2654SOL    HW1 8861   5.208   6.673   0.423
 2654SOL    HW2 8862   5.286   6.739   0.550
 2655SOL     OW 8863   4.939   6.031   3.266
 2655SOL    HW1 8864   4.902   5.938   3.262
 2655SOL    HW2 8865   4.953   6.057   3.362
 2656SOL     OW 8866   3.730   5.950   3.916
 2656SOL    HW1 8867   3.814   5.930   3.866
 2656SOL    HW2 8868   3.684   5.864   3.940
 2657SOL     OW 8869   2.117   3.739   0.600
 2657SOL    HW1 8870   2.028   3.784   0.597
 2657SOL    HW2 8871   2.133   3.703   0.692
 2658SOL     OW 8872   4.211   4.149   6.236
 2658SOL    HW1 8873   4.145   4.082   6.268
 2658SOL    HW2 8874   4.291   4.103   6.198
 2659SOL     OW 8875   5.135   2.053   5.188
 2659SOL    HW1 8876   5.198   2.111   5.240
 2659SOL    HW2 8877   5.070   2.011   5.251
 2660SOL     OW 8878   0.994   1.503   1.008
 2660SOL    HW1 8879   1.031   1.455   1.088
 2660SOL    HW2 8880   0.976   1.598   1.032
 2661SOL     OW 8881   1.543   0.421   1.451
 2661SOL    HW1 8882   1.594   0.487   1.507
 2661SOL    HW2 8883   1.452   0.457   1.431
 2662SOL     OW 8884   3.522   0.827   3.292
 2662SOL    HW1 8885   3.458   0.813   3.216
 2662SOL    HW2 8886   3.486   0.896   3.354
 2663SOL     OW 8887   3.303   6.867   5.686
 2663SOL    HW1 8888   3.295   6.769   5.701
 2663SOL    HW2 8889   3.397   6.896   5.708
 2664SOL     OW 8890   3.730   2.744   5.277
 2664SOL    HW1 8891   3.826   2.738   5.250
 2664SOL    HW2 8892   3.723   2.750   5.377
 2665SOL     OW 8893   2.289   3.428   5.358
 2665SOL    HW1 8894   2.357   3.356   5.342
 2665SOL    HW2 8895   2.316   3.510   5.307
 2666SOL     OW 8896   1.923   3.824   2.852
 2666SOL    HW1 8897   1.996   3.802   2.787
 2666SOL    HW2 8898   1.842   3.769   2.831
 2667SOL     OW 8899   6.562   4.121   3.814
 2667SOL    HW1 8900   6.516   4.034   3.833
 2667SOL    HW2 8901   6.577   4.170   3.900
 2668SOL     OW 8902   5.484   1.473   4.807
 2668SOL    HW1 8903   5.474   1.504   4.902
 2668SOL    HW2 8904   5.548   1.535   4.760
 2669SOL     OW 8905   2.230   6.707   0.410
 2669SOL    HW1 8906   2.317   6.753   0.427
 2669SOL    HW2 8907   2.239   6.649   0.329
 2670SOL     OW 8908   6.979   1.584   5.953
 2670SOL    HW1 8909   6.879   1.578   5.955
 2670SOL    HW2 8910   7.008   1.663   6.008
 2671SOL     OW 8911   3.675   5.625   5.940
 2671SOL    HW1 8912   3.685   5.705   5.881
 2671SOL    HW2 8913   3.765   5.588   5.962
 2672SOL     OW 8914   3.774   1.242   1.870
 2672SOL    HW1 8915   3.787   1.318   1.933
 2672SOL    HW2 8916   3.773   1.277   1.776
 2673SOL     OW 8917   4.972   0.186   2.620
 2673SOL    HW1 8918   4.974   0.284   2.639
 2673SOL    HW2 8919   4.896   0.144   2.670
 2674SOL     OW 8920   0.982   5.431   3.244
 2674SOL    HW1 8921   1.079   5.455   3.236
 2674SOL    HW2 8922   0.966   5.344   3.196
 2675SOL     OW 8923   6.926   6.014   3.762
 2675SOL    HW1 8924   6.947   5.948   3.691
 2675SOL    HW2 8925   7.001   6.019   3.828
 2676SOL     OW 8926   3.146   3.969   2.817
 2676SOL    HW1 8927   3.191   4.019   2.891
 2676SOL    HW2 8928   3.155   4.021   2.732
 2677SOL     OW 8929   2.166   4.640   1.269
 2677SOL    HW1 8930   2.113   4.712   1.225
 2677SOL    HW2 8931   2.263   4.663   1.264
 2678SOL     OW 8932   6.055   2.582   2.490
 2678SOL    HW1 8933   6.096   2.503   2.443
 2678SOL    HW2 8934   6.057   2.566   2.589
 2679SOL     OW 8935   1.451   5.435   1.834
 2679SOL    HW1 8936   1.400   5.355   1.865
 2679SOL    HW2 8937   1.534   5.445   1.889
 2680SOL     OW 8938   1.055   2.144   6.712
 2680SOL    HW1 8939   1.064   2.183   6.620
 2680SOL    HW2 8940   1.061   2.216   6.780
 2681SOL     OW 8941   1.166   2.895   5.352
 2681SOL    HW1 8942   1.095   2.849   5.405
 2681SOL    HW2 8943   1.240   2.923   5.414
 2682SOL     OW 8944   4.678   4.254   2.265
 2682SOL    HW1 8945   4.711   4.161   2.279
 2682SOL    HW2 8946   4.639   4.262   2.173
 2683SOL     OW 8947   2.285   4.195   2.842
 2683SOL    HW1 8948   2.320   4.165   2.930
 2683SOL    HW2 8949   2.295   4.122   2.775
 2684SOL     OW 8950   5.873   6.243   2.273
 2684SOL    HW1 8951   5.804   6.307   2.308
 2684SOL    HW2 8952   5.913   6.193   2.350
 2685SOL     OW 8953   6.936   5.206   5.005
 2685SOL    HW1 8954   6.986   5.289   4.980
 2685SOL    HW2 8955   6.877   5.178   4.929
 2686SOL     OW 8956   1.745   1.241   4.645
 2686SOL    HW1 8957   1.831   1.215   4.689
 2686SOL    HW2 8958   1.758   1.245   4.546
 2687SOL     OW 8959   4.092   1.490   1.938
 2687SOL    HW1 8960   4.075   1.482   1.840
 2687SOL    HW2 8961   4.056   1.408   1.984
 2688SOL     OW 8962   3.459   2.359   0.160
 2688SOL    HW1 8963   3.541   2.406   0.192
 2688SOL    HW2 8964   3.473   2.260   0.168
 2689SOL     OW 8965   0.685   4.126   2.627
 2689SOL    HW1 8966   0.659   4.207   2.574
 2689SOL    HW2 8967   0.704   4.154   2.721
 2690SOL     OW 8968   3.266   1.775   6.271
 2690SOL    HW1 8969   3.319   1.860   6.266
 2690SOL    HW2 8970   3.328   1.697   6.281
 2691SOL     OW 8971   0.025   4.342   4.614
 2691SOL    HW1 8972   0.098   4.281   4.584
 2691SOL    HW2 8973   6.956   4.313   4.574
 2692SOL     OW 8974   2.681   5.709   2.549
 2692SOL    HW1 8975   2.620   5.739   2.475
 2692SOL    HW2 8976   2.669   5.767   2.629
 2693SOL     OW 8977   1.582   5.730   3.749
 2693SOL    HW1 8978   1.612   5.818   3.785
 2693SOL    HW2 8979   1.659   5.685   3.702
 2694SOL     OW 8980   3.699   6.593   3.176
 2694SOL    HW1 8981   3.624   6.576   3.240
 2694SOL    HW2 8982   3.683   6.680   3.128
 2695SOL     OW 8983   6.643   6.685   2.607
 2695SOL    HW1 8984   6.576   6.612   2.617
 2695SOL    HW2 8985   6.645   6.716   2.511
 2696SOL     OW 8986   4.866   4.128   6.312
 2696SOL    HW1 8987   4.947   4.187   6.312
 2696SOL    HW2 8988   4.885   4.045   6.366
 2697SOL     OW 8989   4.158   1.207   1.064
 2697SOL    HW1 8990   4.255   1.191   1.080
 2697SOL    HW2 8991   4.145   1.301   1.032
 2698SOL     OW 8992   1.473   4.600   5.814
 2698SOL    HW1 8993   1.379   4.609   5.780
 2698SOL    HW2 8994   1.503   4.506   5.803
 2699SOL     OW 8995   3.077   5.828   2.277
 2699SOL    HW1 8996   3.090   5.730   2.266
 2699SOL    HW2 8997   3.057   5.849   2.373
 2700SOL     OW 8998   2.941   2.052   1.198
 2700SOL    HW1 8999   3.027   2.027   1.245
 2700SOL    HW2 9000   2.890   1.969   1.176
 2701SOL     OW 9001   5.127   3.164   4.443
 2701SOL    HW1 9002   5.149   3.259   4.464
 2701SOL    HW2 9003   5.033   3.144   4.470
 2702SOL     OW 9004   2.536   1.848   4.494
 2702SOL    HW1 9005   2.631   1.875   4.476
 2702SOL    HW2 9006   2.474   1.921   4.465
 2703SOL     OW 9007   1.837   5.604   1.411
 2703SOL    HW1 9008   1.741   5.631   1.412
 2703SOL    HW2 9009   1.844   5.507   1.385
 2704SOL     OW 9010   6.431   5.360   3.465
 2704SOL    HW1 9011   6.367   5.386   3.392
 2704SOL    HW2 9012   6.456   5.264   3.455
 2705SOL     OW 9013   0.302   0.805   5.216
 2705SOL    HW1 9014   0.317   0.902   5.231
 2705SOL    HW2 9015   0.266   0.763   5.299
 2706SOL     OW 9016   6.536   4.428   4.429
 2706SOL    HW1 9017   6.587   4.422   4.514
 2706SOL    HW2 9018   6.449   4.475   4.445
 2707SOL     OW 9019   3.806   0.150   2.710
 2707SOL    HW1 9020   3.809   0.246   2.684
 2707SOL    HW2 9021   3.731   0.104   2.662
 2708SOL     OW 9022   5.887   2.693   0.161
 2708SOL    HW1 9023   5.882   2.768   0.095
 2708SOL    HW2 9024   5.833   2.716   0.241
 2709SOL     OW 9025   4.954   7.006   6.120
 2709SOL    HW1 9026   4.881   0.022   6.062
 2709SOL    HW2 9027   4.957   6.906   6.114
 2710SOL     OW 9028   1.258   3.430   4.060
 2710SOL    HW1 9029   1.278   3.366   3.987
 2710SOL    HW2 9030   1.342   3.453   4.109
 2711SOL     OW 9031   3.730   1.888   3.624
 2711SOL    HW1 9032   3.687   1.802   3.596
 2711SOL    HW2 9033   3.791   1.870   3.701
 2712SOL     OW 9034   3.968   5.632   2.204
 2712SOL    HW1 9035   4.027   5.554   2.186
 2712SOL    HW2 9036   3.996   5.676   2.289
 2713SOL     OW 9037   4.569   4.414   6.255
 2713SOL    HW1 9038   4.493   4.378   6.309
 2713SOL    HW2 9039   4.654   4.407   6.307
 2714SOL     OW 9040   3.005   3.510   6.536
 2714SOL    HW1 9041   2.970   3.465   6.453
 2714SOL    HW2 9042   2.996   3.448   6.614
 2715SOL     OW 9043   5.158   1.282   1.349
 2715SOL    HW1 9044   5.143   1.362   1.291
 2715SOL    HW2 9045   5.255   1.262   1.355
 2716SOL     OW 9046   4.141   2.146   2.914
 2716SOL    HW1 9047   4.172   2.201   2.992
 2716SOL    HW2 9048   4.193   2.061   2.910
 2717SOL     OW 9049   0.998   1.284   2.434
 2717SOL    HW1 9050   0.987   1.383   2.423
 2717SOL    HW2 9051   0.990   1.239   2.345
 2718SOL     OW 9052   0.275   0.613   6.548
 2718SOL    HW1 9053   0.294   0.626   6.450
 2718SOL    HW2 9054   0.270   0.515   6.567
 2719SOL     OW 9055   1.854   4.348   2.764
 2719SOL    HW1 9056   1.823   4.255   2.747
 2719SOL    HW2 9057   1.777   4.411   2.760
 2720SOL     OW 9058   1.074   0.263   5.350
 2720SOL    HW1 9059   1.125   0.317   5.283
 2720SOL    HW2 9060   1.065   0.315   5.435
 2721SOL     OW 9061   3.007   6.329   1.399
 2721SOL    HW1 9062   2.968   6.354   1.310
 2721SOL    HW2 9063   2.987   6.233   1.418
 2722SOL     OW 9064   4.589   5.739   6.839
 2722SOL    HW1 9065   4.560   5.649   6.808
 2722SOL    HW2 9066   4.669   5.730   6.899
 2723SOL     OW 9067   3.561   6.598   0.404
 2723SOL    HW1 9068   3.465   6.609   0.429
 2723SOL    HW2 9069   3.597   6.686   0.372
 2724SOL     OW 9070   1.146   6.124   0.217
 2724SOL    HW1 9071   1.137   6.039   0.270
 2724SOL    HW2 9072   1.062   6.177   0.224
 2725SOL     OW 9073   4.915   3.844   4.193
 2725SOL    HW1 9074   4.886   3.900   4.116
 2725SOL    HW2 9075   5.001   3.798   4.170
 2726SOL     OW 9076   0.655   1.623   1.681
 2726SOL    HW1 9077   0.719   1.556   1.719
 2726SOL    HW2 9078   0.573   1.628   1.738
 2727SOL     OW 9079   2.192   4.136   4.019
 2727SOL    HW1 9080   2.207   4.058   3.957
 2727SOL    HW2 9081   2.174   4.102   4.111
 2728SOL     OW 9082   5.195   5.682   6.347
 2728SOL    HW1 9083   5.255   5.757   6.374
 2728SOL    HW2 9084   5.182   5.619   6.424
 2729SOL     OW 9085   5.322   6.129   5.937
 2729SOL    HW1 9086   5.366   6.062   5.877
 2729SOL    HW2 9087   5.247   6.173   5.888
 2730SOL     OW 9088   0.322   5.707   2.191
 2730SOL    HW1 9089   0.269   5.716   2.107
 2730SOL    HW2 9090   0.411   5.667   2.170
 2731SOL     OW 9091   3.148   3.015   3.609
 2731SOL    HW1 9092   3.108   3.014   3.701
 2731SOL    HW2 9093   3.162   3.110   3.581
 2732SOL     OW 9094   4.549   1.416   0.973
 2732SOL    HW1 9095   4.642   1.403   0.940
 2732SOL    HW2 9096   4.498   1.473   0.908
 2733SOL     OW 9097   6.809   1.074   5.703
 2733SOL    HW1 9098   6.859   1.153   5.736
 2733SOL    HW2 9099   6.852   0.990   5.738
 2734SOL     OW 9100   3.520   6.023   1.718
 2734SOL    HW1 9101   3.435   6.070   1.695
 2734SOL    HW2 9102   3.513   5.981   1.808
 2735SOL     OW 9103   1.574   2.215   0.446
 2735SOL    HW1 9104   1.632   2.139   0.475
 2735SOL    HW2 9105   1.541   2.197   0.353
 2736SOL     OW 9106   5.345   6.064   3.556
 2736SOL    HW1 9107   5.345   5.964   3.558
 2736SOL    HW2 9108   5.309   6.096   3.468
 2737SOL     OW 9109   2.986   1.772   6.275
 2737SOL    HW1 9110   3.085   1.769   6.291
 2737SOL    HW2 9111   2.940   1.799   6.360
 2738SOL     OW 9112   5.849   0.872   1.629
 2738SOL    HW1 9113   5.882   0.938   1.562
 2738SOL    HW2 9114   5.822   0.920   1.713
 2739SOL     OW 9115   1.168   5.290   1.456
 2739SOL    HW1 9116   1.169   5.220   1.528
 2739SOL    HW2 9117   1.167   5.381   1.498
 2740SOL     OW 9118   0.255   6.034   2.585
 2740SOL    HW1 9119   0.158   6.055   2.579
 2740SOL    HW2 9120   0.274   5.985   2.670
 2741SOL     OW 9121   0.944   2.410   4.567
 2741SOL    HW1 9122   0.923   2.348   4.642
 2741SOL    HW2 9123   0.957   2.358   4.483
 2742SOL     OW 9124   3.393   4.625   1.625
 2742SOL    HW1 9125   3.407   4.534   1.587
 2742SOL    HW2 9126   3.464   4.645   1.693
 2743SOL     OW 9127   6.760   4.659   1.968
 2743SOL    HW1 9128   6.661   4.674   1.964
 2743SOL    HW2 9129   6.778   4.568   2.007
 2744SOL     OW 9130   3.003   3.226   2.373
 2744SOL    HW1 9131   3.078   3.159   2.372
 2744SOL    HW2 9132   2.953   3.219   2.460
 2745SOL     OW 9133   6.721   1.423   5.968
 2745SOL    HW1 9134   6.705   1.487   5.893
 2745SOL    HW2 9135   6.642   1.424   6.030
 2746SOL     OW 9136   0.870   0.708   3.940
 2746SOL    HW1 9137   0.860   0.795   3.892
 2746SOL    HW2 9138   0.906   0.724   4.032
 2747SOL     OW 9139   3.549   5.444   0.309
 2747SOL    HW1 9140   3.637   5.484   0.335
 2747SOL    HW2 9141   3.529   5.467   0.213
 2748SOL     OW 9142   4.781   0.574   1.285
 2748SOL    HW1 9143   4.863   0.626   1.261
 2748SOL    HW2 9144   4.747   0.527   1.204
 2749SOL     OW 9145   1.154   3.182   0.491
 2749SOL    HW1 9146   1.087   3.142   0.429
 2749SOL    HW2 9147   1.210   3.249   0.442
 2750SOL     OW 9148   2.665   5.317   2.497
 2750SOL    HW1 9149   2.726   5.240   2.479
 2750SOL    HW2 9150   2.708   5.378   2.565
 2751SOL     OW 9151   2.036   2.253   1.604
 2751SOL    HW1 9152   2.114   2.195   1.582
 2751SOL    HW2 9153   1.975   2.203   1.666
 2752SOL     OW 9154   3.789   4.667   5.582
 2752SOL    HW1 9155   3.821   4.621   5.499
 2752SOL    HW2 9156   3.724   4.739   5.558
 2753SOL     OW 9157   6.154   6.490   4.831
 2753SOL    HW1 9158   6.241   6.441   4.837
 2753SOL    HW2 9159   6.081   6.432   4.867
 2754SOL     OW 9160   0.228   6.281   6.892
 2754SOL    HW1 9161   0.296   6.255   6.960
 2754SOL    HW2 9162   0.268   6.275   6.800
 2755SOL     OW 9163   2.752   6.970   2.698
 2755SOL    HW1 9164   2.674   6.911   2.677
 2755SOL    HW2 9165   2.819   6.963   2.624
 2756SOL     OW 9166   4.946   6.447   0.589
 2756SOL    HW1 9167   5.023   6.473   0.530
 2756SOL    HW2 9168   4.955   6.493   0.677
 2757SOL     OW 9169   1.152   5.125   0.698
 2757SOL    HW1 9170   1.176   5.048   0.640
 2757SOL    HW2 9171   1.064   5.107   0.742
 2758SOL     OW 9172   5.389   7.005   5.026
 2758SOL    HW1 9173   5.433   0.052   5.087
 2758SOL    HW2 9174   5.454   6.974   4.956
 2759SOL     OW 9175   5.266   6.614   4.165
 2759SOL    HW1 9176   5.179   6.567   4.184
 2759SOL    HW2 9177   5.341   6.563   4.206
 2760SOL     OW 9178   1.969   5.558   2.224
 2760SOL    HW1 9179   2.020   5.558   2.310
 2760SOL    HW2 9180   2.003   5.484   2.165
 2761SOL     OW 9181   1.124   5.511   3.638
 2761SOL    HW1 9182   1.221   5.497   3.621
 2761SOL    HW2 9183   1.108   5.522   3.737
 2762SOL     OW 9184   1.074   7.017   5.480
 2762SOL    HW1 9185   1.108   0.049   5.559
 2762SOL    HW2 9186   1.065   0.061   5.402
 2763SOL     OW 9187   5.573   2.262   3.623
 2763SOL    HW1 9188   5.502   2.297   3.562
 2763SOL    HW2 9189   5.597   2.332   3.690
 2764SOL     OW 9190   5.495   0.091   1.331
 2764SOL    HW1 9191   5.551   0.059   1.406
 2764SOL    HW2 9192   5.423   0.152   1.366
 2765SOL     OW 9193   5.107   1.327   1.939
 2765SOL    HW1 9194   5.056   1.252   1.897
 2765SOL    HW2 9195   5.153   1.293   2.022
 2766SOL     OW 9196   6.217   1.531   0.574
 2766SOL    HW1 9197   6.301   1.481   0.554
 2766SOL    HW2 9198   6.236   1.601   0.643
 2767SOL     OW 9199   6.651   4.467   6.555
 2767SOL    HW1 9200   6.707   4.385   6.556
 2767SOL    HW2 9201   6.556   4.444   6.573
 2768SOL     OW 9202   5.678   1.002   0.100
 2768SOL    HW1 9203   5.670   1.093   0.141
 2768SOL    HW2 9204   5.592   0.952   0.111
 2769SOL     OW 9205   6.485   4.312   3.088
 2769SOL    HW1 9206   6.425   4.348   3.160
 2769SOL    HW2 9207   6.430   4.265   3.019
 2770SOL     OW 9208   1.302   5.354   0.572
 2770SOL    HW1 9209   1.242   5.281   0.604
 2770SOL    HW2 9210   1.302   5.356   0.472
 2771SOL     OW 9211   5.083   1.335   0.973
 2771SOL    HW1 9212   5.096   1.280   0.891
 2771SOL    HW2 9213   5.022   1.286   1.036
 2772SOL     OW 9214   4.318   2.761   0.221
 2772SOL    HW1 9215   4.370   2.832   0.269
 2772SOL    HW2 9216   4.314   2.679   0.278
 2773SOL     OW 9217   4.361   3.403   5.846
 2773SOL    HW1 9218   4.400   3.449   5.926
 2773SOL    HW2 9219   4.301   3.329   5.877
 2774SOL     OW 9220   5.846   2.666   2.330
 2774SOL    HW1 9221   5.912   2.647   2.402
 2774SOL    HW2 9222   5.894   2.683   2.244
 2775SOL     OW 9223   6.944   6.241   1.184
 2775SOL    HW1 9224   6.932   6.172   1.113
 2775SOL    HW2 9225   6.869   6.308   1.179
 2776SOL     OW 9226   4.332   5.378   5.686
 2776SOL    HW1 9227   4.358   5.362   5.781
 2776SOL    HW2 9228   4.412   5.409   5.634
 2777SOL     OW 9229   3.157   0.937   2.562
 2777SOL    HW1 9230   3.184   0.976   2.650
 2777SOL    HW2 9231   3.237   0.898   2.517
 2778SOL     OW 9232   1.553   1.138   5.512
 2778SOL    HW1 9233   1.636   1.134   5.456
 2778SOL    HW2 9234   1.495   1.060   5.492
 2779SOL     OW 9235   4.900   0.019   0.671
 2779SOL    HW1 9236   4.875   6.945   0.698
 2779SOL    HW2 9237   4.999   0.029   0.670
 2780SOL     OW 9238   5.941   5.530   5.858
 2780SOL    HW1 9239   5.975   5.529   5.952
 2780SOL    HW2 9240   5.855   5.581   5.855
 2781SOL     OW 9241   6.125   5.463   1.764
 2781SOL    HW1 9242   6.145   5.462   1.862
 2781SOL    HW2 9243   6.208   5.440   1.713
 2782SOL     OW 9244   2.983   2.757   6.451
 2782SOL    HW1 9245   3.044   2.801   6.517
 2782SOL    HW2 9246   2.895   2.737   6.495
 2783SOL     OW 9247   6.097   3.483   4.720
 2783SOL    HW1 9248   6.158   3.435   4.657
 2783SOL    HW2 9249   6.072   3.423   4.795
 2784SOL     OW 9250   2.247   2.651   1.093
 2784SOL    HW1 9251   2.254   2.662   1.192
 2784SOL    HW2 9252   2.182   2.578   1.072
 2785SOL     OW 9253   6.647   1.295   0.184
 2785SOL    HW1 9254   6.698   1.373   0.147
 2785SOL    HW2 9255   6.550   1.319   0.189
 2786SOL     OW 9256   3.889   0.094   0.834
 2786SOL    HW1 9257   3.807   0.049   0.870
 2786SOL    HW2 9258   3.967   0.072   0.891
 2787SOL     OW 9259   2.282   4.193   6.585
 2787SOL    HW1 9260   2.210   4.126   6.601
 2787SOL    HW2 9261   2.256   4.281   6.624
 2788SOL     OW 9262   2.686   4.288   0.465
 2788SOL    HW1 9263   2.643   4.375   0.440
 2788SOL    HW2 9264   2.618   4.229   0.507
 2789SOL     OW 9265   1.345   1.849   3.989
 2789SOL    HW1 9266   1.383   1.921   4.047
 2789SOL    HW2 9267   1.323   1.769   4.044
 2790SOL     OW 9268   4.061   5.258   2.517
 2790SOL    HW1 9269   3.976   5.228   2.473
 2790SOL    HW2 9270   4.074   5.355   2.500
 2791SOL     OW 9271   1.904   4.672   4.720
 2791SOL    HW1 9272   1.911   4.603   4.792
 2791SOL    HW2 9273   1.890   4.626   4.632
 2792SOL     OW 9274   1.466   0.754   5.604
 2792SOL    HW1 9275   1.414   0.670   5.612
 2792SOL    HW2 9276   1.537   0.756   5.675
 2793SOL     OW 9277   4.986   1.627   2.566
 2793SOL    HW1 9278   5.022   1.620   2.473
 2793SOL    HW2 9279   4.936   1.544   2.589
 2794SOL     OW 9280   0.348   2.618   0.409
 2794SOL    HW1 9281   0.269   2.562   0.385
 2794SOL    HW2 9282   0.323   2.680   0.483
 2795SOL     OW 9283   2.967   4.048   1.216
 2795SOL    HW1 9284   2.932   4.016   1.304
 2795SOL    HW2 9285   3.063   4.020   1.207
 2796SOL     OW 9286   6.403   4.157   2.392
 2796SOL    HW1 9287   6.460   4.134   2.470
 2796SOL    HW2 9288   6.367   4.249   2.403
 2797SOL     OW 9289   5.141   5.702   4.638
 2797SOL    HW1 9290   5.160   5.616   4.592
 2797SOL    HW2 9291   5.078   5.757   4.581
 2798SOL     OW 9292   0.694   4.060   3.091
 2798SOL    HW1 9293   0.626   3.993   3.121
 2798SOL    HW2 9294   0.660   4.108   3.010
 2799SOL     OW 9295   0.386   5.566   6.336
 2799SOL    HW1 9296   0.485   5.556   6.340
 2799SOL    HW2 9297   0.352   5.535   6.248
 2800SOL     OW 9298   4.328   4.384   6.404
 2800SOL    HW1 9299   4.261   4.325   6.359
 2800SOL    HW2 9300   4.356   4.342   6.491
 2801SOL     OW 9301   4.235   5.949   3.148
 2801SOL    HW1 9302   4.184   6.015   3.093
 2801SOL    HW2 9303   4.331   5.951   3.121
 2802SOL     OW 9304   3.963   2.427   6.476
 2802SOL    HW1 9305   3.879   2.397   6.430
 2802SOL    HW2 9306   4.019   2.346   6.498
 2803SOL     OW 9307   2.151   6.133   5.902
 2803SOL    HW1 9308   2.064   6.109   5.858
 2803SOL    HW2 9309   2.149   6.102   5.997
 2804SOL     OW 9310   0.103   4.531   3.335
 2804SOL    HW1 9311   0.126   4.596   3.263
 2804SOL    HW2 9312   0.080   4.581   3.419
 2805SOL     OW 9313   4.546   3.386   1.648
 2805SOL    HW1 9314   4.587   3.305   1.691
 2805SOL    HW2 9315   4.616   3.457   1.639
 2806SOL     OW 9316   5.681   5.425   3.111
 2806SOL    HW1 9317   5.770   5.408   3.154
 2806SOL    HW2 9318   5.691   5.424   3.012
 2807SOL     OW 9319   5.437   4.678   3.666
 2807SOL    HW1 9320   5.355   4.719   3.625
 2807SOL    HW2 9321   5.434   4.689   3.766
 2808SOL     OW 9322   4.623   1.205   3.107
 2808SOL    HW1 9323   4.558   1.275   3.076
 2808SOL    HW2 9324   4.646   1.223   3.203
 2809SOL     OW 9325   6.532   2.773   1.452
 2809SOL    HW1 9326   6.452   2.760   1.393
 2809SOL    HW2 9327   6.507   2.829   1.530
 2810SOL     OW 9328   3.591   6.674   4.750
 2810SOL    HW1 9329   3.656   6.735   4.704
 2810SOL    HW2 9330   3.600   6.683   4.849
 2811SOL     OW 9331   0.856   1.158   2.659
 2811SOL    HW1 9332   0.884   1.205   2.743
 2811SOL    HW2 9333   0.901   1.200   2.580
 2812SOL     OW 9334   4.955   3.491   1.999
 2812SOL    HW1 9335   4.980   3.548   1.920
 2812SOL    HW2 9336   4.932   3.399   1.968
 2813SOL     OW 9337   5.657   6.671   6.126
 2813SOL    HW1 9338   5.655   6.687   6.224
 2813SOL    HW2 9339   5.659   6.759   6.078
 2814SOL     OW 9340   4.254   3.376   6.365
 2814SOL    HW1 9341   4.307   3.400   6.446
 2814SOL    HW2 9342   4.197   3.453   6.337
 2815SOL     OW 9343   6.563   0.906   4.673
 2815SOL    HW1 9344   6.550   0.971   4.598
 2815SOL    HW2 9345   6.479   0.853   4.687
 2816SOL     OW 9346   6.274   6.544   3.735
 2816SOL    HW1 9347   6.334   6.557   3.815
 2816SOL    HW2 9348   6.186   6.508   3.765
 2817SOL     OW 9349   1.710   0.561   0.982
 2817SOL    HW1 9350   1.719   0.515   1.070
 2817SOL    HW2 9351   1.673   0.497   0.915
 2818SOL     OW 9352   0.021   5.005   6.482
 2818SOL    HW1 9353   6.968   4.976   6.419
 2818SOL    HW2 9354   0.087   4.931   6.493
 2819SOL     OW 9355   0.444   2.122   0.851
 2819SOL    HW1 9356   0.478   2.065   0.776
 2819SOL    HW2 9357   0.419   2.063   0.929
 2820SOL     OW 9358   0.375   2.465   2.819
 2820SOL    HW1 9359   0.321   2.535   2.773
 2820SOL    HW2 9360   0.351   2.375   2.782
 2821SOL     OW 9361   2.704   4.255   6.008
 2821SOL    HW1 9362   2.754   4.335   6.041
 2821SOL    HW2 9363   2.738   4.173   6.053
 2822SOL     OW 9364   4.083   2.943   0.288
 2822SOL    HW1 9365   4.010   2.983   0.232
 2822SOL    HW2 9366   4.123   2.865   0.239
 2823SOL     OW 9367   2.098   6.791   1.409
 2823SOL    HW1 9368   2.167   6.727   1.443
 2823SOL    HW2 9369   2.107   6.799   1.310
 2824SOL     OW 9370   2.236   1.089   4.928
 2824SOL    HW1 9371   2.310   1.070   4.993
 2824SOL    HW2 9372   2.189   1.003   4.905
 2825SOL     OW 9373   6.545   6.781   0.654
 2825SOL    HW1 9374   6.585   6.715   0.718
 2825SOL    HW2 9375   6.522   6.733   0.569
 2826SOL     OW 9376   5.572   1.795   6.069
 2826SOL    HW1 9377   5.633   1.864   6.029
 2826SOL    HW2 9378   5.486   1.838   6.094
 2827SOL     OW 9379   6.588   1.392   5.118
 2827SOL    HW1 9380   6.630   1.480   5.094
 2827SOL    HW2 9381   6.545   1.352   5.037
 2828SOL     OW 9382   3.594   1.027   5.954
 2828SOL    HW1 9383   3.691   1.051   5.946
 2828SOL    HW2 9384   3.540   1.111   5.962
 2829SOL     OW 9385   3.932   4.727   6.213
 2829SOL    HW1 9386   4.028   4.704   6.230
 2829SOL    HW2 9387   3.879   4.714   6.296
 2830SOL     OW 9388   6.491   4.277   6.314
 2830SOL    HW1 9389   6.440   4.193   6.296
 2830SOL    HW2 9390   6.589   4.258   6.309
 2831SOL     OW 9391   6.831   5.810   5.038
 2831SOL    HW1 9392   6.860   5.793   4.944
 2831SOL    HW2 9393   6.871   5.896   5.069
 2832SOL     OW 9394   0.566   1.609   1.429
 2832SOL    HW1 9395   0.654   1.624   1.384
 2832SOL    HW2 9396   0.581   1.596   1.527
 2833SOL     OW 9397   5.732   1.688   2.436
 2833SOL    HW1 9398   5.656   1.747   2.460
 2833SOL    HW2 9399   5.753   1.699   2.339
 2834SOL     OW 9400   2.878   1.463   6.442
 2834SOL    HW1 9401   2.823   1.383   6.467
 2834SOL    HW2 9402   2.823   1.524   6.386
 2835SOL     OW 9403   0.451   6.865   1.958
 2835SOL    HW1 9404   0.465   6.823   1.869
 2835SOL    HW2 9405   0.524   6.931   1.976
 2836SOL     OW 9406   0.164   6.829   1.746
 2836SOL    HW1 9407   0.080   6.880   1.764
 2836SOL    HW2 9408   0.145   6.754   1.684
 2837SOL     OW 9409   5.527   3.385   2.983
 2837SOL    HW1 9410   5.558   3.479   2.990
 2837SOL    HW2 9411   5.430   3.380   3.004
 2838SOL     OW 9412   2.233   4.299   1.811
 2838SOL    HW1 9413   2.283   4.304   1.898
 2838SOL    HW2 9414   2.297   4.277   1.737
 2839SOL     OW 9415   5.771   1.126   2.063
 2839SOL    HW1 9416   5.772   1.110   2.162
 2839SOL    HW2 9417   5.736   1.218   2.045
 2840SOL     OW 9418   0.017   1.059   4.690
 2840SOL    HW1 9419   0.012   1.030   4.786
 2840SOL    HW2 9420   0.081   1.136   4.682
 2841SOL     OW 9421   0.403   6.823   6.786
 2841SOL    HW1 9422   0.409   6.908   6.733
 2841SOL    HW2 9423   0.421   6.843   6.882
 2842SOL     OW 9424   6.687   2.269   3.902
 2842SOL    HW1 9425   6.589   2.254   3.919
 2842SOL    HW2 9426   6.730   2.183   3.877
 2843SOL     OW 9427   3.222   1.629   4.248
 2843SOL    HW1 9428   3.238   1.530   4.240
 2843SOL    HW2 9429   3.164   1.647   4.327
 2844SOL     OW 9430   1.146   3.567   0.183
 2844SOL    HW1 9431   1.213   3.493   0.177
 2844SOL    HW2 9432   1.057   3.529   0.211
 2845SOL     OW 9433   0.903   3.669   0.977
 2845SOL    HW1 9434   0.943   3.580   0.997
 2845SOL    HW2 9435   0.847   3.663   0.894
 2846SOL     OW 9436   4.783   1.391   0.176
 2846SOL    HW1 9437   4.744   1.314   0.225
 2846SOL    HW2 9438   4.762   1.383   0.079
 2847SOL     OW 9439   5.410   3.309   3.509
 2847SOL    HW1 9440   5.403   3.409   3.512
 2847SOL    HW2 9441   5.496   3.283   3.463
 2848SOL     OW 9442   0.333   4.613   5.537
 2848SOL    HW1 9443   0.355   4.546   5.608
 2848SOL    HW2 9444   0.268   4.680   5.573
 2849SOL     OW 9445   3.502   1.014   1.044
 2849SOL    HW1 9446   3.463   0.934   1.089
 2849SOL    HW2 9447   3.494   1.094   1.104
 2850SOL     OW 9448   3.199   0.855   1.618
 2850SOL    HW1 9449   3.196   0.911   1.701
 2850SOL    HW2 9450   3.282   0.798   1.619
 2851SOL     OW 9451   1.012   4.290   5.316
 2851SOL    HW1 9452   0.936   4.270   5.379
 2851SOL    HW2 9453   0.975   4.325   5.230
 2852SOL     OW 9454   5.821   4.096   6.657
 2852SOL    HW1 9455   5.838   4.157   6.734
 2852SOL    HW2 9456   5.885   4.115   6.583
 2853SOL     OW 9457   2.826   2.568   0.330
 2853SOL    HW1 9458   2.772   2.543   0.249
 2853SOL    HW2 9459   2.822   2.667   0.343
 2854SOL     OW 9460   3.020   1.152   4.144
 2854SOL    HW1 9461   3.085   1.223   4.119
 2854SOL    HW2 9462   3.016   1.084   4.071
 2855SOL     OW 9463   2.144   0.300   5.920
 2855SOL    HW1 9464   2.087   0.285   6.001
 2855SOL    HW2 9465   2.127   0.228   5.854
 2856SOL     OW 9466   2.255   3.051   6.131
 2856SOL    HW1 9467   2.253   2.976   6.197
 2856SOL    HW2 9468   2.171   3.104   6.138
 2857SOL     OW 9469   2.794   1.491   1.483
 2857SOL    HW1 9470   2.868   1.443   1.531
 2857SOL    HW2 9471   2.746   1.551   1.548
 2858SOL     OW 9472   5.975   3.313   2.079
 2858SOL    HW1 9473   5.912   3.314   2.001
 2858SOL    HW2 9474   5.987   3.407   2.112
 2859SOL     OW 9475   5.274   1.442   0.376
 2859SOL    HW1 9476   5.320   1.412   0.292
 2859SOL    HW2 9477   5.343   1.460   0.447
 2860SOL     OW 9478   4.374   1.682   1.098
 2860SOL    HW1 9479   4.316   1.751   1.142
 2860SOL    HW2 9480   4.450   1.659   1.159
 2861SOL     OW 9481   4.462   5.688   5.677
 2861SOL    HW1 9482   4.408   5.706   5.759
 2861SOL    HW2 9483   4.556   5.666   5.703
 2862SOL     OW 9484   5.693   1.465   3.342
 2862SOL    HW1 9485   5.701   1.564   3.333
 2862SOL    HW2 9486   5.696   1.439   3.438
 2863SOL     OW 9487   5.934   0.991   7.008
 2863SOL    HW1 9488   5.854   0.956   0.039
 2863SOL    HW2 9489   5.992   0.914   6.981
 2864SOL     OW 9490   3.901   6.938   1.207
 2864SOL    HW1 9491   3.959   7.003   1.159
 2864SOL    HW2 9492   3.891   6.965   1.303
 2865SOL     OW 9493   4.942   4.308   5.126
 2865SOL    HW1 9494   4.958   4.389   5.070
 2865SOL    HW2 9495   5.028   4.259   5.139
 2866SOL     OW 9496   0.025   0.056   0.171
 2866SOL    HW1 9497   0.058   7.017   0.096
 2866SOL    HW2 9498   0.023   0.003   0.256
 2867SOL     OW 9499   6.045   4.381   2.567
 2867SOL    HW1 9500   6.014   4.444   2.497
 2867SOL    HW2 9501   5.970   4.360   2.630
 2868SOL     OW 9502   0.695   3.551   5.387
 2868SOL    HW1 9503   0.742   3.591   5.466
 2868SOL    HW2 9504   0.761   3.500   5.332
 2869SOL     OW 9505   6.146   1.233   2.649
 2869SOL    HW1 9506   6.237   1.192   2.650
 2869SOL    HW2 9507   6.145   1.313   2.708
 2870SOL     OW 9508   6.487   1.548   4.278
 2870SOL    HW1 9509   6.427   1.530   4.200
 2870SOL    HW2 9510   6.446   1.618   4.336
 2871SOL     OW 9511   2.175   2.061   6.434
 2871SOL    HW1 9512   2.113   2.048   6.512
 2871SOL    HW2 9513   2.269   2.066   6.468
 2872SOL     OW 9514   2.855   1.514   3.907
 2872SOL    HW1 9515   2.829   1.597   3.956
 2872SOL    HW2 9516   2.833   1.434   3.963
 2873SOL     OW 9517   0.653   5.495   3.257
 2873SOL    HW1 9518   0.728   5.440   3.219
 2873SOL    HW2 9519   0.614   5.552   3.185
 2874SOL     OW 9520   5.008   5.016   2.127
 2874SOL    HW1 9521   5.006   4.926   2.083
 2874SOL    HW2 9522   4.998   5.088   2.057
 2875SOL     OW 9523   4.209   6.533   6.340
 2875SOL    HW1 9524   4.197   6.507   6.244
 2875SOL    HW2 9525   4.161   6.469   6.399
 2876SOL     OW 9526   0.960   0.706   2.140
 2876SOL    HW1 9527   0.873   0.664   2.113
 2876SOL    HW2 9528   1.023   0.704   2.062
 2877SOL     OW 9529   3.727   2.766   5.573
 2877SOL    HW1 9530   3.718   2.710   5.656
 2877SOL    HW2 9531   3.712   2.862   5.595
 2878SOL     OW 9532   3.195   5.289   4.818
 2878SOL    HW1 9533   3.100   5.294   4.850
 2878SOL    HW2 9534   3.202   5.222   4.745
 2879SOL     OW 9535   4.888   5.255   0.341
 2879SOL    HW1 9536   4.987   5.272   0.343
 2879SOL    HW2 9537   4.872   5.157   0.329
 2880SOL     OW 9538   6.577   6.655   0.406
 2880SOL    HW1 9539   6.528   6.737   0.377
 2880SOL    HW2 9540   6.534   6.575   0.364
 2881SOL     OW 9541   6.289   6.359   1.162
 2881SOL    HW1 9542   6.193   6.357   1.135
 2881SOL    HW2 9543   6.340   6.287   1.115
 2882SOL     OW 9544   0.707   3.236   2.573
 2882SOL    HW1 9545   0.690   3.180   2.654
 2882SOL    HW2 9546   0.806   3.249   2.561
 2883SOL     OW 9547   3.865   6.932   3.291
 2883SOL    HW1 9548   3.793   6.872   3.257
 2883SOL    HW2 9549   3.880   6.914   3.389
 2884SOL     OW 9550   0.315   6.232   3.248
 2884SOL    HW1 9551   0.408   6.241   3.213
 2884SOL    HW2 9552   0.259   6.309   3.214
 2885SOL     OW 9553   0.275   2.502   3.067
 2885SOL    HW1 9554   0.312   2.523   2.977
 2885SOL    HW2 9555   0.314   2.566   3.135
 2886SOL     OW 9556   2.312   2.888   6.621
 2886SOL    HW1 9557   2.276   2.896   6.714
 2886SOL    HW2 9558   2.399   2.936   6.614
 2887SOL     OW 9559   2.255   6.940   5.232
 2887SOL    HW1 9560   2.291   6.923   5.140
 2887SOL    HW2 9561   2.217   6.855   5.269
 2888SOL     OW 9562   0.152   4.802   6.052
 2888SOL    HW1 9563   0.203   4.880   6.016
 2888SOL    HW2 9564   0.208   4.753   6.118
 2889SOL     OW 9565   1.596   1.065   2.231
 2889SOL    HW1 9566   1.603   1.026   2.323
 2889SOL    HW2 9567   1.667   1.025   2.173
 2890SOL     OW 9568   3.033   0.402   1.090
 2890SOL    HW1 9569   3.002   0.465   1.020
 2890SOL    HW2 9570   3.014   0.440   1.180
 2891SOL     OW 9571   2.474   4.776   3.635
 2891SOL    HW1 9572   2.469   4.697   3.696
 2891SOL    HW2 9573   2.569   4.803   3.623
 2892SOL     OW 9574   4.949   4.062   6.951
 2892SOL    HW1 9575   5.003   4.107   6.880
 2892SOL    HW2 9576   4.883   4.000   6.908
 2893SOL     OW 9577   2.429   6.150   5.965
 2893SOL    HW1 9578   2.414   6.205   6.047
 2893SOL    HW2 9579   2.341   6.137   5.918
 2894SOL     OW 9580   2.841   2.648   6.882
 2894SOL    HW1 9581   2.894   2.733   6.873
 2894SOL    HW2 9582   2.850   2.594   6.798
 2895SOL     OW 9583   3.635   3.062   6.564
 2895SOL    HW1 9584   3.636   3.121   6.483
 2895SOL    HW2 9585   3.729   3.045   6.593
 2896SOL     OW 9586   2.850   5.751   6.555
 2896SOL    HW1 9587   2.871   5.682   6.624
 2896SOL    HW2 9588   2.794   5.709   6.483
 2897SOL     OW 9589   2.473   6.472   3.892
 2897SOL    HW1 9590   2.518   6.543   3.946
 2897SOL    HW2 9591   2.464   6.389   3.947
 2898SOL     OW 9592   4.607   4.603   2.720
 2898SOL    HW1 9593   4.518   4.609   2.763
 2898SOL    HW2 9594   4.633   4.693   2.685
 2899SOL     OW 9595   0.165   0.855   6.474
 2899SOL    HW1 9596   0.131   0.924   6.538
 2899SOL    HW2 9597   0.183   0.769   6.523
 2900SOL     OW 9598   1.175   4.809   5.403
 2900SOL    HW1 9599   1.223   4.721   5.401
 2900SOL    HW2 9600   1.231   4.878   5.357
 2901SOL     OW 9601   1.844   0.362   2.796
 2901SOL    HW1 9602   1.796   0.437   2.749
 2901SOL    HW2 9603   1.828   0.276   2.747
 2902SOL     OW 9604   5.879   6.481   0.498
 2902SOL    HW1 9605   5.824   6.536   0.561
 2902SOL    HW2 9606   5.905   6.536   0.419
 2903SOL     OW 9607   3.273   0.543   1.956
 2903SOL    HW1 9608   3.177   0.525   1.936
 2903SOL    HW2 9609   3.329   0.466   1.925
 2904SOL     OW 9610   2.470   3.191   5.349
 2904SOL    HW1 9611   2.491   3.130   5.273
 2904SOL    HW2 9612   2.465   3.137   5.434
 2905SOL     OW 9613   1.606   1.335   2.601
 2905SOL    HW1 9614   1.541   1.304   2.531
 2905SOL    HW2 9615   1.556   1.354   2.685
 2906SOL     OW 9616   5.329   4.808   1.540
 2906SOL    HW1 9617   5.237   4.780   1.569
 2906SOL    HW2 9618   5.394   4.787   1.613
 2907SOL     OW 9619   6.527   1.432   5.597
 2907SOL    HW1 9620   6.578   1.416   5.512
 2907SOL    HW2 9621   6.533   1.350   5.655
 2908SOL     OW 9622   4.263   6.618   4.038
 2908SOL    HW1 9623   4.346   6.660   4.075
 2908SOL    HW2 9624   4.230   6.674   3.962
 2909SOL     OW 9625   0.522   4.765   4.471
 2909SOL    HW1 9626   0.598   4.701   4.469
 2909SOL    HW2 9627   0.548   4.849   4.423
 2910SOL     OW 9628   3.533   6.305   4.869
 2910SOL    HW1 9629   3.558   6.360   4.790
 2910SOL    HW2 9630   3.460   6.241   4.844
 2911SOL     OW 9631   2.460   5.331   3.735
 2911SOL    HW1 9632   2.400   5.282   3.798
 2911SOL    HW2 9633   2.506   5.267   3.674
 2912SOL     OW 9634   2.685   5.726   0.383
 2912SOL    HW1 9635   2.720   5.814   0.415
 2912SOL    HW2 9636   2.757   5.657   0.390
 2913SOL     OW 9637   1.661   4.303   2.268
 2913SOL    HW1 9638   1.625   4.395   2.254
 2913SOL    HW2 9639   1.760   4.307   2.282
 2914SOL     OW 9640   6.182   4.998   6.184
 2914SOL    HW1 9641   6.162   4.910   6.227
 2914SOL    HW2 9642   6.179   4.987   6.084
 2915SOL     OW 9643   4.686   1.400   4.233
 2915SOL    HW1 9644   4.615   1.467   4.211
 2915SOL    HW2 9645   4.724   1.362   4.149
 2916SOL     OW 9646   6.419   4.790   5.904
 2916SOL    HW1 9647   6.492   4.831   5.850
 2916SOL    HW2 9648   6.339   4.851   5.905
 2917SOL     OW 9649   3.806   0.467   1.039
 2917SOL    HW1 9650   3.897   0.432   1.060
 2917SOL    HW2 9651   3.785   0.449   0.943
 2918SOL     OW 9652   6.957   3.365   2.956
 2918SOL    HW1 9653   6.911   3.288   2.999
 2918SOL    HW2 9654   6.950   3.357   2.857
 2919SOL     OW 9655   6.347   0.210   0.370
 2919SOL    HW1 9656   6.419   0.171   0.429
 2919SOL    HW2 9657   6.271   0.241   0.427
 2920SOL     OW 9658   3.565   2.000   2.488
 2920SOL    HW1 9659   3.493   1.931   2.480
 2920SOL    HW2 9660   3.606   2.017   2.398
 2921SOL     OW 9661   0.075   1.214   2.795
 2921SOL    HW1 9662   0.148   1.155   2.760
 2921SOL    HW2 9663   7.005   1.174   2.774
 2922SOL     OW 9664   5.805   6.487   6.939
 2922SOL    HW1 9665   5.784   6.444   6.851
 2922SOL    HW2 9666   5.721   6.526   6.978
 2923SOL     OW 9667   6.787   5.366   2.614
 2923SOL    HW1 9668   6.781   5.274   2.652
 2923SOL    HW2 9669   6.883   5.389   2.597
 2924SOL     OW 9670   0.620   1.443   6.076
 2924SOL    HW1 9671   0.610   1.353   6.032
 2924SOL    HW2 9672   0.536   1.496   6.064
 2925SOL     OW 9673   5.826   1.173   2.584
 2925SOL    HW1 9674   5.909   1.229   2.588
 2925SOL    HW2 9675   5.835   1.096   2.646
 2926SOL     OW 9676   0.099   1.582   5.100
 2926SOL    HW1 9677   0.048   1.628   5.027
 2926SOL    HW2 9678   0.050   1.500   5.130
 2927SOL     OW 9679   1.269   2.203   2.011
 2927SOL    HW1 9680   1.318   2.222   2.095
 2927SOL    HW2 9681   1.323   2.232   1.932
 2928SOL     OW 9682   6.552   1.587   6.631
 2928SOL    HW1 9683   6.619   1.592   6.705
 2928SOL    HW2 9684   6.509   1.497   6.631
 2929SOL     OW 9685   0.680   0.760   6.170
 2929SOL    HW1 9686   0.669   0.859   6.181
 2929SOL    HW2 9687   0.595   0.720   6.137
 2930SOL     OW 9688   4.898   6.660   4.773
 2930SOL    HW1 9689   4.948   6.737   4.732
 2930SOL    HW2 9690   4.803   6.686   4.790
 2931SOL     OW 9691   5.044   6.073   6.503
 2931SOL    HW1 9692   5.041   5.989   6.558
 2931SOL    HW2 9693   5.101   6.057   6.422
 2932SOL     OW 9694   1.679   4.780   1.661
 2932SOL    HW1 9695   1.672   4.869   1.706
 2932SOL    HW2 9696   1.736   4.719   1.716
 2933SOL     OW 9697   5.373   2.608   4.029
 2933SOL    HW1 9698   5.353   2.664   4.110
 2933SOL    HW2 9699   5.379   2.512   4.057
 2934SOL     OW 9700   3.598   0.599   1.141
 2934SOL    HW1 9701   3.668   0.547   1.092
 2934SOL    HW2 9702   3.513   0.599   1.088
 2935SOL     OW 9703   6.477   3.153   1.235
 2935SOL    HW1 9704   6.479   3.132   1.333
 2935SOL    HW2 9705   6.510   3.246   1.221
 2936SOL     OW 9706   4.930   5.820   1.356
 2936SOL    HW1 9707   4.885   5.903   1.323
 2936SOL    HW2 9708   4.974   5.838   1.444
 2937SOL     OW 9709   2.872   5.106   0.441
 2937SOL    HW1 9710   2.782   5.149   0.439
 2937SOL    HW2 9711   2.862   5.009   0.460
 2938SOL     OW 9712   4.633   4.812   5.405
 2938SOL    HW1 9713   4.601   4.735   5.460
 2938SOL    HW2 9714   4.586   4.812   5.317
 2939SOL     OW 9715   6.800   6.609   4.745
 2939SOL    HW1 9716   6.809   6.687   4.682
 2939SOL    HW2 9717   6.758   6.641   4.830
 2940SOL     OW 9718   5.451   6.720   5.294
 2940SOL    HW1 9719   5.422   6.625   5.304
 2940SOL    HW2 9720   5.452   6.764   5.384
 2941SOL     OW 9721   1.829   2.558   5.681
 2941SOL    HW1 9722   1.911   2.548   5.624
 2941SOL    HW2 9723   1.748   2.548   5.625
 2942SOL     OW 9724   2.729   0.497   2.148
 2942SOL    HW1 9725   2.633   0.521   2.160
 2942SOL    HW2 9726   2.743   0.463   2.055
 2943SOL     OW 9727   5.176   3.374   2.142
 2943SOL    HW1 9728   5.106   3.437   2.107
 2943SOL    HW2 9729   5.257   3.426   2.169
 2944SOL     OW 9730   3.414   5.151   5.830
 2944SOL    HW1 9731   3.344   5.108   5.774
 2944SOL    HW2 9732   3.425   5.100   5.915
 2945SOL     OW 9733   4.148   3.520   2.718
 2945SOL    HW1 9734   4.069   3.581   2.727
 2945SOL    HW2 9735   4.209   3.555   2.648
 2946SOL     OW 9736   6.667   5.797   5.739
 2946SOL    HW1 9737   6.584   5.787   5.684
 2946SOL    HW2 9738   6.644   5.834   5.829
 2947SOL     OW 9739   0.312   3.768   6.707
 2947SOL    HW1 9740   0.331   3.763   6.608
 2947SOL    HW2 9741   0.313   3.675   6.745
 2948SOL     OW 9742   6.275   3.775   5.578
 2948SOL    HW1 9743   6.184   3.795   5.612
 2948SOL    HW2 9744   6.275   3.774   5.478
 2949SOL     OW 9745   1.736   6.225   1.304
 2949SOL    HW1 9746   1.735   6.237   1.403
 2949SOL    HW2 9747   1.815   6.169   1.278
 2950SOL     OW 9748   5.492   3.349   4.384
 2950SOL    HW1 9749   5.404   3.332   4.340
 2950SOL    HW2 9750   5.490   3.315   4.478
 2951SOL     OW 9751   6.944   2.553   6.885
 2951SOL    HW1 9752   7.010   2.628   6.875
 2951SOL    HW2 9753   6.897   2.563   6.973
 2952SOL     OW 9754   0.982   5.037   3.232
 2952SOL    HW1 9755   0.995   5.046   3.134
 2952SOL    HW2 9756   1.014   4.947   3.262
 2953SOL     OW 9757   5.123   2.374   2.132
 2953SOL    HW1 9758   5.172   2.380   2.045
 2953SOL    HW2 9759   5.025   2.384   2.115
 2954SOL     OW 9760   1.132   6.140   1.876
 2954SOL    HW1 9761   1.208   6.195   1.911
 2954SOL    HW2 9762   1.147   6.120   1.780
 2955SOL     OW 9763   0.413   3.053   0.351
 2955SOL    HW1 9764   0.317   3.079   0.362
 2955SOL    HW2 9765   0.467   3.091   0.427
 2956SOL     OW 9766   0.058   5.730   2.896
 2956SOL    HW1 9767   6.989   5.773   2.872
 2956SOL    HW2 9768   0.051   5.689   2.987
 2957SOL     OW 9769   0.345   3.752   1.006
 2957SOL    HW1 9770   0.438   3.758   1.043
 2957SOL    HW2 9771   0.335   3.816   0.929
 2958SOL     OW 9772   2.198   4.502   5.427
 2958SOL    HW1 9773   2.241   4.584   5.463
 2958SOL    HW2 9774   2.170   4.442   5.502
 2959SOL     OW 9775   5.770   4.668   6.441
 2959SOL    HW1 9776   5.749   4.744   6.502
 2959SOL    HW2 9777   5.746   4.582   6.485
 2960SOL     OW 9778   3.118   1.382   6.949
 2960SOL    HW1 9779   3.217   1.384   6.935
 2960SOL    HW2 9780   3.097   1.402   0.026
 2961SOL     OW 9781   5.302   3.154   4.808
 2961SOL    HW1 9782   5.320   3.101   4.724
 2961SOL    HW2 9783   5.321   3.097   4.888
 2962SOL     OW 9784   4.792   0.511   3.284
 2962SOL    HW1 9785   4.891   0.517   3.276
 2962SOL    HW2 9786   4.767   0.435   3.344
 2963SOL     OW 9787   1.647   1.794   5.623
 2963SOL    HW1 9788   1.587   1.740   5.564
 2963SOL    HW2 9789   1.673   1.878   5.575
 2964SOL     OW 9790   1.944   0.002   2.196
 2964SOL    HW1 9791   2.010   6.995   2.125
 2964SOL    HW2 9792   1.978   0.081   2.246
 2965SOL     OW 9793   0.271   1.068   5.362
 2965SOL    HW1 9794   0.314   1.134   5.423
 2965SOL    HW2 9795   0.193   1.027   5.408
 2966SOL     OW 9796   5.763   4.082   3.652
 2966SOL    HW1 9797   5.723   4.154   3.709
 2966SOL    HW2 9798   5.724   3.993   3.679
 2967SOL     OW 9799   5.758   2.970   4.002
 2967SOL    HW1 9800   5.708   3.032   3.941
 2967SOL    HW2 9801   5.851   3.003   4.014
 2968SOL     OW 9802   0.620   3.909   5.548
 2968SOL    HW1 9803   0.640   3.996   5.593
 2968SOL    HW2 9804   0.531   3.875   5.579
 2969SOL     OW 9805   5.543   2.047   5.323
 2969SOL    HW1 9806   5.532   1.948   5.321
 2969SOL    HW2 9807   5.616   2.073   5.259
 2970SOL     OW 9808   1.394   4.179   6.744
 2970SOL    HW1 9809   1.316   4.203   6.685
 2970SOL    HW2 9810   1.395   4.240   6.823
 2971SOL     OW 9811   5.557   3.011   4.382
 2971SOL    HW1 9812   5.652   2.997   4.355
 2971SOL    HW2 9813   5.536   3.109   4.378
 2972SOL     OW 9814   6.536   4.053   0.061
 2972SOL    HW1 9815   6.605   3.983   0.041
 2972SOL    HW2 9816   6.496   4.035   0.151
 2973SOL     OW 9817   5.643   0.538   3.970
 2973SOL    HW1 9818   5.694   0.454   3.988
 2973SOL    HW2 9819   5.580   0.556   4.046
 2974SOL     OW 9820   5.525   3.894   3.635
 2974SOL    HW1 9821   5.558   3.892   3.540
 2974SOL    HW2 9822   5.430   3.864   3.637
 2975SOL     OW 9823   0.286   1.896   4.967
 2975SOL    HW1 9824   0.222   1.970   4.986
 2975SOL    HW2 9825   0.326   1.910   4.876
 2976SOL     OW 9826   4.197   1.368   3.047
 2976SOL    HW1 9827   4.284   1.380   3.000
 2976SOL    HW2 9828   4.127   1.424   3.002
 2977SOL     OW 9829   2.815   6.967   4.247
 2977SOL    HW1 9830   2.748   0.005   4.295
 2977SOL    HW2 9831   2.907   6.987   4.281
 2978SOL     OW 9832   4.555   4.976   6.920
 2978SOL    HW1 9833   4.544   4.904   6.988
 2978SOL    HW2 9834   4.590   4.938   6.835
 2979SOL     OW 9835   3.603   0.333   4.021
 2979SOL    HW1 9836   3.620   0.407   4.086
 2979SOL    HW2 9837   3.532   0.361   3.956
 2980SOL     OW 9838   1.338   6.223   4.611
 2980SOL    HW1 9839   1.258   6.268   4.573
 2980SOL    HW2 9840   1.374   6.156   4.545
 2981SOL     OW 9841   0.701   6.855   6.028
 2981SOL    HW1 9842   0.653   6.913   6.094
 2981SOL    HW2 9843   0.717   6.907   5.944
 2982SOL     OW 9844   4.360   6.502   3.041
 2982SOL    HW1 9845   4.267   6.535   3.058
 2982SOL    HW2 9846   4.401   6.473   3.127
 2983SOL     OW 9847   0.316   0.406   4.128
 2983SOL    HW1 9848   0.258   0.486   4.109
 2983SOL    HW2 9849   0.296   0.372   4.220
 2984SOL     OW 9850   5.809   6.106   1.075
 2984SOL    HW1 9851   5.865   6.143   1.149
 2984SOL    HW2 9852   5.714   6.132   1.090
 2985SOL     OW 9853   0.922   1.916   4.473
 2985SOL    HW1 9854   0.947   1.990   4.535
 2985SOL    HW2 9855   0.931   1.946   4.378
 2986SOL     OW 9856   2.408   4.174   5.624
 2986SOL    HW1 9857   2.501   4.210   5.635
 2986SOL    HW2 9858   2.403   4.119   5.541
 2987SOL     OW 9859   4.914   1.198   4.502
 2987SOL    HW1 9860   4.876   1.290   4.507
 2987SOL    HW2 9861   4.974   1.192   4.422
 2988SOL     OW 9862   0.972   0.107   2.262
 2988SOL    HW1 9863   0.979   0.088   2.164
 2988SOL    HW2 9864   0.878   0.132   2.285
 2989SOL     OW 9865   6.157   5.499   1.160
 2989SOL    HW1 9866   6.214   5.420   1.139
 2989SOL    HW2 9867   6.064   5.469   1.180
 2990SOL     OW 9868   3.906   1.048   3.301
 2990SOL    HW1 9869   3.954   0.969   3.263
 2990SOL    HW2 9870   3.807   1.037   3.286
 2991SOL     OW 9871   0.512   4.342   0.519
 2991SOL    HW1 9872   0.572   4.352   0.440
 2991SOL    HW2 9873   0.523   4.422   0.579
 2992SOL     OW 9874   2.722   5.692   6.058
 2992SOL    HW1 9875   2.810   5.645   6.067
 2992SOL    HW2 9876   2.724   5.775   6.113
 2993SOL     OW 9877   1.261   4.656   1.917
 2993SOL    HW1 9878   1.288   4.566   1.952
 2993SOL    HW2 9879   1.162   4.667   1.925
 2994SOL     OW 9880   4.700   0.680   0.038
 2994SOL    HW1 9881   4.786   0.637   0.065
 2994SOL    HW2 9882   4.679   0.655   6.962
 2995SOL     OW 9883   1.120   2.741   6.812
 2995SOL    HW1 9884   1.094   2.837   6.807
 2995SOL    HW2 9885   1.046   2.684   6.775
 2996SOL     OW 9886   3.129   6.237   5.245
 2996SOL    HW1 9887   3.122   6.305   5.317
 2996SOL    HW2 9888   3.224   6.226   5.218
 2997SOL     OW 9889   4.970   6.080   1.880
 2997SOL    HW1 9890   4.892   6.082   1.942
 2997SOL    HW2 9891   5.045   6.134   1.919
 2998SOL     OW 9892   4.669   5.538   4.354
 2998SOL    HW1 9893   4.729   5.578   4.285
 2998SOL    HW2 9894   4.579   5.521   4.315
 2999SOL     OW 9895   3.397   6.141   3.693
 2999SOL    HW1 9896   3.319   6.176   3.640
 2999SOL    HW2 9897   3.478   6.136   3.634
 3000SOL     OW 9898   1.405   3.390   5.760
 3000SOL    HW1 9899   1.461   3.471   5.745
 3000SOL    HW2 9900   1.459   3.321   5.808
 3001SOL     OW 9901   4.941   6.960   6.759
 3001SOL    HW1 9902   4.980   0.014   6.703
 3001SOL    HW2 9903   4.934   6.877   6.705
 3002SOL     OW 9904   3.728   0.325   5.078
 3002SOL    HW1 9905   3.681   0.350   4.994
 3002SOL    HW2 9906   3.661   0.310   5.151
 3003SOL     OW 9907   2.889   6.448   6.584
 3003SOL    HW1 9908   2.842   6.452   6.496
 3003SOL    HW2 9909   2.866   6.530   6.638
 3004SOL     OW 9910   6.533   3.830   3.911
 3004SOL    HW1 9911   6.506   3.745   3.865
 3004SOL    HW2 9912   6.614   3.813   3.967
 3005SOL     OW 9913   3.313   3.299   1.345
 3005SOL    HW1 9914   3.253   3.269   1.419
 3005SOL    HW2 9915   3.408   3.274   1.366
 3006SOL     OW 9916   6.729   1.557   0.701
 3006SOL    HW1 9917   6.816   1.603   0.685
 3006SOL    HW2 9918   6.721   1.478   0.640
 3007SOL     OW 9919   5.819   5.287   2.248
 3007SOL    HW1 9920   5.792   5.239   2.332
 3007SOL    HW2 9921   5.790   5.235   2.169
 3008SOL     OW 9922   3.725   0.619   6.172
 3008SOL    HW1 9923   3.676   0.535   6.195
 3008SOL    HW2 9924   3.735   0.626   6.073
 3009SOL     OW 9925   0.516   6.968   2.622
 3009SOL    HW1 9926   0.459   0.013   2.673
 3009SOL    HW2 9927   0.457   6.907   2.569
 3010SOL     OW 9928   3.985   6.005   3.286
 3010SOL    HW1 9929   4.074   5.965   3.267
 3010SOL    HW2 9930   3.948   6.046   3.202
 3011SOL     OW 9931   5.980   0.710   6.632
 3011SOL    HW1 9932   5.896   0.658   6.618
 3011SOL    HW2 9933   6.012   0.747   6.545
 3012SOL     OW 9934   0.203   3.182   4.103
 3012SOL    HW1 9935   0.249   3.121   4.039
 3012SOL    HW2 9936   0.271   3.243   4.145
 3013SOL     OW 9937   5.224   6.145   3.284
 3013SOL    HW1 9938   5.133   6.137   3.325
 3013SOL    HW2 9939   5.260   6.053   3.267
 3014SOL     OW 9940   5.433   1.897   4.206
 3014SOL    HW1 9941   5.484   1.981   4.188
 3014SOL    HW2 9942   5.346   1.918   4.249
 3015SOL     OW 9943   3.410   2.536   6.932
 3015SOL    HW1 9944   3.423   2.635   6.932
 3015SOL    HW2 9945   3.315   2.515   6.954
 3016SOL     OW 9946   2.873   5.849   4.539
 3016SOL    HW1 9947   2.806   5.863   4.612
 3016SOL    HW2 9948   2.904   5.754   4.539
 3017SOL     OW 9949   1.179   5.775   1.100
 3017SOL    HW1 9950   1.205   5.859   1.054
 3017SOL    HW2 9951   1.156   5.794   1.196
 3018SOL     OW 9952   3.179   0.646   6.156
 3018SOL    HW1 9953   3.205   0.639   6.252
 3018SOL    HW2 9954   3.187   0.741   6.126
 3019SOL     OW 9955   3.460   6.376   1.152
 3019SOL    HW1 9956   3.415   6.306   1.208
 3019SOL    HW2 9957   3.500   6.333   1.071
 3020SOL     OW 9958   3.686   3.644   1.232
 3020SOL    HW1 9959   3.778   3.613   1.207
 3020SOL    HW2 9960   3.655   3.712   1.165
 3021SOL     OW 9961   2.224   2.214   6.777
 3021SOL    HW1 9962   2.300   2.212   6.713
 3021SOL    HW2 9963   2.183   2.306   6.778
 3022SOL     OW 9964   4.080   6.085   2.397
 3022SOL    HW1 9965   4.134   6.168   2.388
 3022SOL    HW2 9966   4.002   6.088   2.335
 3023SOL     OW 9967   3.473   6.086   3.092
 3023SOL    HW1 9968   3.435   6.138   3.016
 3023SOL    HW2 9969   3.401   6.065   3.158
 3024SOL     OW 9970   2.970   0.936   6.277
 3024SOL    HW1 9971   2.874   0.924   6.253
 3024SOL    HW2 9972   3.023   0.950   6.193
 3025SOL     OW 9973   3.436   2.926   0.849
 3025SOL    HW1 9974   3.362   2.890   0.906
 3025SOL    HW2 9975   3.473   3.008   0.892
 3026SOL     OW 9976   1.151   3.469   0.898
 3026SOL    HW1 9977   1.126   3.392   0.840
 3026SOL    HW2 9978   1.157   3.552   0.843
 3027SOL     OW 9979   4.102   1.004   2.157
 3027SOL    HW1 9980   4.137   1.024   2.248
 3027SOL    HW2 9981   4.037   0.929   2.161
 3028SOL     OW 9982   1.247   4.849   6.705
 3028SOL    HW1 9983   1.292   4.885   6.623
 3028SOL    HW2 9984   1.178   4.782   6.678
 3029SOL     OW 9985   6.700   5.060   5.118
 3029SOL    HW1 9986   6.733   4.965   5.114
 3029SOL    HW2 9987   6.778   5.122   5.125
 3030SOL     OW 9988   0.772   1.578   5.435
 3030SOL    HW1 9989   0.673   1.578   5.427
 3030SOL    HW2 9990   0.813   1.569   5.344
 3031SOL     OW 9991   0.741   3.598   0.749
 3031SOL    HW1 9992   0.647   3.600   0.713
 3031SOL    HW2 9993   0.755   3.513   0.801
 3032SOL     OW 9994   5.491   0.289   0.172
 3032SOL    HW1 9995   5.430   0.338   0.109
 3032SOL    HW2 9996   5.560   0.352   0.207
 3033SOL     OW 9997   0.572   2.651   0.057
 3033SOL    HW1 9998   0.491   2.630   0.001
 3033SOL    HW2 9999   0.543   2.689   0.145
 3034SOL     OW10000   2.041   6.291   3.504
 3034SOL    HW110001   1.985   6.242   3.437
 3034SOL    HW210002   1.989   6.305   3.588
 3035SOL     OW10003   6.788   1.837   0.492
 3035SOL    HW110004   6.852   1.880   0.429
 3035SOL    HW210005   6.753   1.752   0.452
 3036SOL     OW10006   1.969   3.827   6.906
 3036SOL    HW110007   2.059   3.840   6.863
 3036SOL    HW210008   1.899   3.872   6.851
 3037SOL     OW10009   5.787   5.755   5.017
 3037SOL    HW110010   5.704   5.729   4.968
 3037SOL    HW210011   5.867   5.735   4.961
 3038SOL     OW10012   5.618   0.015   6.535
 3038SOL    HW110013   5.633   0.015   6.437
 3038SOL    HW210014   5.704   0.035   6.582
 3039SOL     OW10015   6.654   4.707   2.318
 3039SOL    HW110016   6.666   4.779   2.250
 3039SOL    HW210017   6.572   4.654   2.298
 3040SOL     OW10018   4.628   3.864   6.294
 3040SOL    HW110019   4.712   3.859   6.241
 3040SOL    HW210020   4.560   3.918   6.245
 3041SOL     OW10021   1.792   2.566   6.025
 3041SOL    HW110022   1.784   2.488   6.087
 3041SOL    HW210023   1.797   2.532   5.931
 3042SOL     OW10024   5.347   0.239   1.918
 3042SOL    HW110025   5.346   0.144   1.949
 3042SOL    HW210026   5.368   0.242   1.820
 3043SOL     OW10027   0.542   5.331   0.448
 3043SOL    HW110028   0.509   5.410   0.397
 3043SOL    HW210029   0.481   5.313   0.525
 3044SOL     OW10030   3.562   4.091   5.216
 3044SOL    HW110031   3.641   4.061   5.270
 3044SOL    HW210032   3.594   4.137   5.134
 3045SOL     OW10033   4.633   0.671   2.816
 3045SOL    HW110034   4.641   0.632   2.908
 3045SOL    HW210035   4.537   0.676   2.790
 3046SOL     OW10036   1.029   3.461   5.273
 3046SOL    HW110037   1.096   3.477   5.346
 3046SOL    HW210038   0.984   3.373   5.287
 3047SOL     OW10039   5.412   5.109   2.029
 3047SOL    HW110040   5.477   5.177   1.997
 3047SOL    HW210041   5.375   5.059   1.951
 3048SOL     OW10042   4.128   3.487   1.416
 3048SOL    HW110043   4.148   3.426   1.340
 3048SOL    HW210044   4.106   3.578   1.381
 3049SOL     OW10045   0.608   6.313   1.321
 3049SOL    HW110046   0.516   6.344   1.297
 3049SOL    HW210047   0.654   6.385   1.374
 3050SOL     OW10048   3.244   6.993   3.483
 3050SOL    HW110049   3.242   0.017   3.574
 3050SOL    HW210050   3.272   6.897   3.493
 3051SOL     OW10051   2.287   4.393   6.806
 3051SOL    HW110052   2.362   4.411   6.869
 3051SOL    HW210053   2.208   4.359   6.857
 3052SOL     OW10054   3.729   0.372   3.039
 3052SOL    HW110055   3.661   0.400   2.971
 3052SOL    HW210056   3.684   0.322   3.113
 3053SOL     OW10057   6.417   0.616   6.828
 3053SOL    HW110058   6.372   0.698   6.793
 3053SOL    HW210059   6.492   0.591   6.767
 3054SOL     OW10060   0.148   2.552   6.641
 3054SOL    HW110061   0.231   2.520   6.686
 3054SOL    HW210062   0.171   2.627   6.579
 3055SOL     OW10063   5.386   0.202   3.608
 3055SOL    HW110064   5.410   0.256   3.688
 3055SOL    HW210065   5.339   0.260   3.541
 3056SOL     OW10066   6.763   0.422   0.109
 3056SOL    HW110067   6.772   0.343   0.169
 3056SOL    HW210068   6.851   0.470   0.104
 3057SOL     OW10069   4.196   5.508   2.453
 3057SOL    HW110070   4.260   5.495   2.376
 3057SOL    HW210071   4.247   5.511   2.538
 3058SOL     OW10072   6.551   5.672   1.563
 3058SOL    HW110073   6.545   5.746   1.496
 3058SOL    HW210074   6.563   5.585   1.515
 3059SOL     OW10075   1.690   3.424   5.111
 3059SOL    HW110076   1.674   3.366   5.032
 3059SOL    HW210077   1.749   3.377   5.176
 3060SOL     OW10078   0.314   6.454   0.231
 3060SOL    HW110079   0.370   6.447   0.314
 3060SOL    HW210080   0.286   6.549   0.217
 3061SOL     OW10081   6.984   0.623   5.422
 3061SOL    HW110082   6.906   0.588   5.371
 3061SOL    HW210083   0.008   0.549   5.474
 3062SOL     OW10084   1.449   0.194   1.279
 3062SOL    HW110085   1.524   0.215   1.343
 3062SOL    HW210086   1.401   0.112   1.311
 3063SOL     OW10087   2.229   5.036   2.617
 3063SOL    HW110088   2.132   5.056   2.630
 3063SOL    HW210089   2.280   5.122   2.611
 3064SOL     OW10090   5.790   3.410   3.753
 3064SOL    HW110091   5.771   3.322   3.710
 3064SOL    HW210092   5.782   3.483   3.685
 3065SOL     OW10093   2.223   0.166   6.566
 3065SOL    HW110094   2.284   0.192   6.640
 3065SOL    HW210095   2.141   0.223   6.568
 3066SOL     OW10096   6.094   4.024   0.280
 3066SOL    HW110097   6.158   4.096   0.253
 3066SOL    HW210098   6.144   3.939   0.296
 3067SOL     OW10099   3.182   1.353   4.848
 3067SOL    HW110100   3.133   1.378   4.931
 3067SOL    HW210101   3.276   1.387   4.853
 3068SOL     OW10102   6.336   6.262   0.816
 3068SOL    HW110103   6.283   6.198   0.760
 3068SOL    HW210104   6.430   6.231   0.822
 3069SOL     OW10105   6.877   5.569   1.614
 3069SOL    HW110106   6.852   5.476   1.642
 3069SOL    HW210107   6.881   5.628   1.695
 3070SOL     OW10108   2.095   1.506   2.401
 3070SOL    HW110109   2.014   1.505   2.342
 3070SOL    HW210110   2.069   1.478   2.494
 3071SOL     OW10111   6.883   6.923   3.558
 3071SOL    HW110112   6.926   6.929   3.468
 3071SOL    HW210113   6.861   6.828   3.578
 3072SOL     OW10114   0.717   6.518   1.463
 3072SOL    HW110115   0.703   6.614   1.491
 3072SOL    HW210116   0.793   6.479   1.515
 3073SOL     OW10117   0.504   3.792   5.100
 3073SOL    HW110118   0.555   3.807   5.015
 3073SOL    HW210119   0.568   3.784   5.176
 3074SOL     OW10120   5.377   2.915   0.508
 3074SOL    HW110121   5.285   2.915   0.547
 3074SOL    HW210122   5.444   2.926   0.581
 3075SOL     OW10123   1.719   6.398   1.594
 3075SOL    HW110124   1.653   6.418   1.666
 3075SOL    HW210125   1.812   6.415   1.629
 3076SOL     OW10126   6.399   0.665   4.766
 3076SOL    HW110127   6.360   0.703   4.681
 3076SOL    HW210128   6.474   0.603   4.743
 3077SOL     OW10129   5.415   4.481   2.979
 3077SOL    HW110130   5.394   4.568   3.023
 3077SOL    HW210131   5.454   4.497   2.889
 3078SOL     OW10132   2.195   3.701   1.688
 3078SOL    HW110133   2.171   3.792   1.722
 3078SOL    HW210134   2.245   3.652   1.759
 3079SOL     OW10135   1.756   2.680   5.058
 3079SOL    HW110136   1.769   2.653   5.153
 3079SOL    HW210137   1.697   2.760   5.054
 3080SOL     OW10138   5.822   4.952   1.625
 3080SOL    HW110139   5.798   4.971   1.720
 3080SOL    HW210140   5.766   4.877   1.590
 3081SOL     OW10141   0.833   4.473   6.019
 3081SOL    HW110142   0.917   4.457   6.070
 3081SOL    HW210143   0.855   4.513   5.930
 3082SOL     OW10144   4.047   6.538   3.710
 3082SOL    HW110145   4.084   6.624   3.745
 3082SOL    HW210146   3.948   6.545   3.700
 3083SOL     OW10147   3.848   6.948   2.423
 3083SOL    HW110148   3.771   7.010   2.437
 3083SOL    HW210149   3.931   6.990   2.460
 3084SOL     OW10150   4.713   4.778   4.302
 3084SOL    HW110151   4.694   4.701   4.240
 3084SOL    HW210152   4.702   4.748   4.396
 3085SOL     OW10153   0.118   4.310   3.160
 3085SOL    HW110154   0.045   4.311   3.092
 3085SOL    HW210155   0.100   4.380   3.229
 3086SOL     OW10156   4.509   1.434   2.130
 3086SOL    HW110157   4.472   1.415   2.220
 3086SOL    HW210158   4.490   1.358   2.068
 3087SOL     OW10159   6.920   4.346   4.096
 3087SOL    HW110160   6.987   4.274   4.114
 3087SOL    HW210161   6.928   4.418   4.165
 3088SOL     OW10162   2.865   5.151   5.276
 3088SOL    HW110163   2.937   5.188   5.217
 3088SOL    HW210164   2.878   5.052   5.285
 3089SOL     OW10165   1.098   3.296   6.982
 3089SOL    HW110166   1.174   3.351   6.947
 3089SOL    HW210167   1.134   3.218   0.014
 3090SOL     OW10168   2.116   1.593   1.192
 3090SOL    HW110169   2.108   1.513   1.133
 3090SOL    HW210170   2.045   1.590   1.262
 3091SOL     OW10171   3.255   6.581   0.365
 3091SOL    HW110172   3.181   6.647   0.362
 3091SOL    HW210173   3.218   6.488   0.372
 3092SOL     OW10174   5.361   6.823   0.167
 3092SOL    HW110175   5.313   6.885   0.229
 3092SOL    HW210176   5.450   6.798   0.207
 3093SOL     OW10177   5.613   5.189   5.928
 3093SOL    HW110178   5.649   5.270   5.975
 3093SOL    HW210179   5.522   5.210   5.892
 3094SOL     OW10180   2.991   6.720   5.099
 3094SOL    HW110181   3.077   6.671   5.109
 3094SOL    HW210182   2.920   6.673   5.152
 3095SOL     OW10183   2.348   4.443   4.474
 3095SOL    HW110184   2.301   4.395   4.400
 3095SOL    HW210185   2.363   4.380   4.551
 3096SOL     OW10186   6.605   0.525   4.625
 3096SOL    HW110187   6.678   0.592   4.636
 3096SOL    HW210188   6.598   0.499   4.529
 3097SOL     OW10189   0.850   2.490   0.526
 3097SOL    HW110190   0.768   2.469   0.579
 3097SOL    HW210191   0.832   2.567   0.465
 3098SOL     OW10192   2.737   3.549   1.429
 3098SOL    HW110193   2.660   3.591   1.477
 3098SOL    HW210194   2.761   3.605   1.349
 3099SOL     OW10195   6.805   5.540   4.889
 3099SOL    HW110196   6.858   5.539   4.974
 3099SOL    HW210197   6.860   5.581   4.817
 3100SOL     OW10198   6.986   6.970   4.623
 3100SOL    HW110199   0.054   6.927   4.648
 3100SOL    HW210200   6.994   0.051   4.633
 3101SOL     OW10201   4.303   6.132   5.308
 3101SOL    HW110202   4.215   6.151   5.265
 3101SOL    HW210203   4.377   6.157   5.245
 3102SOL     OW10204   0.877   4.142   1.459
 3102SOL    HW110205   0.839   4.161   1.549
 3102SOL    HW210206   0.829   4.198   1.391
 3103SOL     OW10207   3.634   1.493   0.983
 3103SOL    HW110208   3.618   1.425   0.911
 3103SOL    HW210209   3.571   1.569   0.971
 3104SOL     OW10210   5.850   5.969   4.546
 3104SOL    HW110211   5.908   6.018   4.612
 3104SOL    HW210212   5.902   5.894   4.505
 3105SOL     OW10213   5.829   5.686   3.691
 3105SOL    HW110214   5.788   5.627   3.622
 3105SOL    HW210215   5.844   5.634   3.775
 3106SOL     OW10216   6.618   2.310   2.356
 3106SOL    HW110217   6.551   2.236   2.359
 3106SOL    HW210218   6.710   2.273   2.368
 3107SOL     OW10219   3.896   0.521   4.513
 3107SOL    HW110220   3.994   0.519   4.535
 3107SOL    HW210221   3.846   0.465   4.578
 3108SOL     OW10222   1.662   1.165   4.380
 3108SOL    HW110223   1.758   1.158   4.350
 3108SOL    HW210224   1.610   1.088   4.343
 3109SOL     OW10225   5.399   5.866   2.230
 3109SOL    HW110226   5.420   5.780   2.276
 3109SOL    HW210227   5.437   5.943   2.282
 3110SOL     OW10228   6.951   2.259   3.351
 3110SOL    HW110229   6.977   2.181   3.294
 3110SOL    HW210230   7.004   2.339   3.325
 3111SOL     OW10231   5.841   5.565   3.947
 3111SOL    HW110232   5.770   5.578   4.017
 3111SOL    HW210233   5.877   5.472   3.953
 3112SOL     OW10234   4.573   2.649   5.732
 3112SOL    HW110235   4.476   2.674   5.734
 3112SOL    HW210236   4.593   2.597   5.649
 3113SOL     OW10237   2.429   0.102   4.136
 3113SOL    HW110238   2.483   0.106   4.220
 3113SOL    HW210239   2.458   0.023   4.081
 3114SOL     OW10240   5.543   4.122   6.908
 3114SOL    HW110241   5.499   4.113   6.997
 3114SOL    HW210242   5.491   4.186   6.852
 3115SOL     OW10243   4.212   3.841   0.125
 3115SOL    HW110244   4.133   3.787   0.097
 3115SOL    HW210245   4.234   3.821   0.220
 3116SOL     OW10246   6.878   3.024   6.864
 3116SOL    HW110247   6.809   2.968   6.818
 3116SOL    HW210248   6.961   3.026   6.808
 3117SOL     OW10249   4.542   3.990   5.301
 3117SOL    HW110250   4.466   4.030   5.353
 3117SOL    HW210251   4.601   4.064   5.268
 3118SOL     OW10252   6.993   4.471   6.638
 3118SOL    HW110253   0.037   4.418   6.695
 3118SOL    HW210254   6.956   4.547   6.690
 3119SOL     OW10255   1.920   4.476   4.951
 3119SOL    HW110256   1.822   4.484   4.966
 3119SOL    HW210257   1.968   4.474   5.039
 3120SOL     OW10258   2.311   6.306   4.704
 3120SOL    HW110259   2.290   6.239   4.632
 3120SOL    HW210260   2.230   6.363   4.720
 3121SOL     OW10261   0.374   1.407   2.458
 3121SOL    HW110262   0.442   1.445   2.395
 3121SOL    HW210263   0.345   1.317   2.425
 3122SOL     OW10264   3.533   5.129   6.176
 3122SOL    HW110265   3.550   5.221   6.141
 3122SOL    HW210266   3.464   5.084   6.119
 3123SOL     OW10267   3.183   6.435   3.476
 3123SOL    HW110268   3.099   6.486   3.458
 3123SOL    HW210269   3.260   6.480   3.433
 3124SOL     OW10270   3.942   0.910   5.345
 3124SOL    HW110271   3.905   0.891   5.254
 3124SOL    HW210272   3.908   0.999   5.377
 3125SOL     OW10273   6.241   1.989   5.669
 3125SOL    HW110274   6.164   1.929   5.686
 3125SOL    HW210275   6.232   2.032   5.579
 3126SOL     OW10276   4.808   4.469   6.443
 3126SOL    HW110277   4.882   4.518   6.396
 3126SOL    HW210278   4.846   4.411   6.515
 3127SOL     OW10279   0.840   2.019   3.375
 3127SOL    HW110280   0.759   2.058   3.333
 3127SOL    HW210281   0.818   1.986   3.467
 3128SOL     OW10282   1.694   0.687   0.632
 3128SOL    HW110283   1.596   0.700   0.615
 3128SOL    HW210284   1.746   0.762   0.591
 3129SOL     OW10285   0.739   4.198   6.024
 3129SOL    HW110286   0.786   4.284   6.006
 3129SOL    HW210287   0.647   4.202   5.984
 3130SOL     OW10288   2.360   4.556   2.200
 3130SOL    HW110289   2.365   4.641   2.147
 3130SOL    HW210290   2.273   4.552   2.249
 3131SOL     OW10291   1.099   2.822   3.401
 3131SOL    HW110292   1.020   2.761   3.409
 3131SOL    HW210293   1.109   2.850   3.305
 3132SOL     OW10294   5.314   6.093   5.362
 3132SOL    HW110295   5.385   6.061   5.299
 3132SOL    HW210296   5.263   6.168   5.320
 3133SOL     OW10297   2.307   2.270   4.160
 3133SOL    HW110298   2.360   2.340   4.209
 3133SOL    HW210299   2.220   2.309   4.131
 3134SOL     OW10300   5.240   3.398   1.584
 3134SOL    HW110301   5.333   3.363   1.568
 3134SOL    HW210302   5.244   3.497   1.596
 3135SOL     OW10303   3.912   1.825   4.641
 3135SOL    HW110304   3.880   1.751   4.699
 3135SOL    HW210305   3.833   1.870   4.598
 3136SOL     OW10306   6.284   6.312   6.197
 3136SOL    HW110307   6.229   6.235   6.166
 3136SOL    HW210308   6.328   6.357   6.119
 3137SOL     OW10309   4.867   1.430   3.675
 3137SOL    HW110310   4.806   1.461   3.748
 3137SOL    HW210311   4.834   1.462   3.587
 3138SOL     OW10312   6.046   2.094   4.739
 3138SOL    HW110313   6.028   1.996   4.745
 3138SOL    HW210314   6.144   2.110   4.753
 3139SOL     OW10315   5.205   6.689   6.149
 3139SOL    HW110316   5.243   6.748   6.078
 3139SOL    HW210317   5.119   6.650   6.116
 3140SOL     OW10318   6.458   6.667   6.564
 3140SOL    HW110319   6.515   6.700   6.639
 3140SOL    HW210320   6.516   6.633   6.490
 3141SOL     OW10321   0.752   6.432   6.770
 3141SOL    HW110322   0.757   6.530   6.752
 3141SOL    HW210323   0.838   6.389   6.745
 3142SOL     OW10324   4.729   6.060   0.363
 3142SOL    HW110325   4.685   5.984   0.411
 3142SOL    HW210326   4.766   6.125   0.429
 3143SOL     OW10327   0.212   1.904   6.754
 3143SOL    HW110328   0.159   1.966   6.696
 3143SOL    HW210329   0.253   1.833   6.698
 3144SOL     OW10330   2.266   3.836   1.232
 3144SOL    HW110331   2.234   3.749   1.269
 3144SOL    HW210332   2.231   3.847   1.138
 3145SOL     OW10333   3.088   6.137   2.889
 3145SOL    HW110334   3.124   6.071   2.954
 3145SOL    HW210335   3.064   6.091   2.803
 3146SOL     OW10336   1.334   6.437   3.035
 3146SOL    HW110337   1.314   6.399   3.126
 3146SOL    HW210338   1.403   6.509   3.044
 3147SOL     OW10339   4.156   5.219   0.369
 3147SOL    HW110340   4.235   5.217   0.307
 3147SOL    HW210341   4.085   5.158   0.334
 3148SOL     OW10342   4.074   5.226   3.957
 3148SOL    HW110343   4.169   5.256   3.959
 3148SOL    HW210344   4.014   5.306   3.954
 3149SOL     OW10345   3.348   0.714   5.361
 3149SOL    HW110346   3.352   0.800   5.311
 3149SOL    HW210347   3.283   0.652   5.316
 3150SOL     OW10348   5.264   5.959   4.371
 3150SOL    HW110349   5.218   5.870   4.363
 3150SOL    HW210350   5.323   5.958   4.451
 3151SOL     OW10351   4.550   1.613   6.414
 3151SOL    HW110352   4.627   1.592   6.474
 3151SOL    HW210353   4.584   1.646   6.326
 3152SOL     OW10354   0.332   5.199   1.604
 3152SOL    HW110355   0.360   5.292   1.578
 3152SOL    HW210356   0.389   5.133   1.556
 3153SOL     OW10357   6.094   3.963   1.319
 3153SOL    HW110358   6.137   3.982   1.407
 3153SOL    HW210359   5.995   3.967   1.328
 3154SOL     OW10360   6.725   2.156   6.917
 3154SOL    HW110361   6.804   2.203   6.877
 3154SOL    HW210362   6.646   2.167   6.856
 3155SOL     OW10363   6.708   4.548   1.201
 3155SOL    HW110364   6.627   4.561   1.259
 3155SOL    HW210365   6.703   4.610   1.123
 3156SOL     OW10366   4.064   3.437   3.168
 3156SOL    HW110367   4.079   3.523   3.120
 3156SOL    HW210368   4.002   3.452   3.245
 3157SOL     OW10369   2.167   3.499   4.735
 3157SOL    HW110370   2.198   3.593   4.724
 3157SOL    HW210371   2.100   3.477   4.665
 3158SOL     OW10372   5.077   0.131   1.555
 3158SOL    HW110373   4.986   0.150   1.519
 3158SOL    HW210374   5.146   0.169   1.493
 3159SOL     OW10375   4.872   5.880   6.352
 3159SOL    HW110376   4.793   5.820   6.343
 3159SOL    HW210377   4.953   5.827   6.376
 3160SOL     OW10378   5.984   4.014   6.387
 3160SOL    HW110379   5.931   3.930   6.391
 3160SOL    HW210380   5.943   4.078   6.322
 3161SOL     OW10381   1.544   1.009   2.822
 3161SOL    HW110382   1.599   1.023   2.905
 3161SOL    HW210383   1.599   0.960   2.754
 3162SOL     OW10384   6.860   5.267   6.898
 3162SOL    HW110385   6.896   5.180   6.931
 3162SOL    HW210386   6.908   5.342   6.943
 3163SOL     OW10387   3.877   3.131   6.682
 3163SOL    HW110388   3.927   3.159   6.763
 3163SOL    HW210389   3.895   3.195   6.607
 3164SOL     OW10390   5.561   4.146   1.318
 3164SOL    HW110391   5.501   4.173   1.393
 3164SOL    HW210392   5.609   4.226   1.283
 3165SOL     OW10393   1.017   0.079   1.935
 3165SOL    HW110394   0.960   0.156   1.964
 3165SOL    HW210395   1.022   0.077   1.835
 3166SOL     OW10396   4.765   2.891   6.227
 3166SOL    HW110397   4.724   2.928   6.144
 3166SOL    HW210398   4.694   2.867   6.292
 3167SOL     OW10399   0.149   4.361   1.916
 3167SOL    HW110400   0.207   4.387   1.838
 3167SOL    HW210401   0.087   4.288   1.888
 3168SOL     OW10402   5.685   3.185   0.555
 3168SOL    HW110403   5.705   3.126   0.476
 3168SOL    HW210404   5.629   3.135   0.621
 3169SOL     OW10405   0.939   3.394   5.790
 3169SOL    HW110406   0.842   3.372   5.796
 3169SOL    HW210407   0.980   3.345   5.714
 3170SOL     OW10408   4.218   0.118   6.845
 3170SOL    HW110409   4.280   0.039   6.849
 3170SOL    HW210410   4.225   0.169   6.931
 3171SOL     OW10411   6.609   0.093   2.195
 3171SOL    HW110412   6.594   0.163   2.126
 3171SOL    HW210413   6.700   0.053   2.183
 3172SOL     OW10414   6.735   6.267   4.728
 3172SOL    HW110415   6.785   6.180   4.724
 3172SOL    HW210416   6.743   6.305   4.820
 3173SOL     OW10417   2.066   0.255   2.237
 3173SOL    HW110418   2.058   0.314   2.157
 3173SOL    HW210419   2.085   0.310   2.318
 3174SOL     OW10420   3.152   2.864   5.531
 3174SOL    HW110421   3.165   2.963   5.537
 3174SOL    HW210422   3.070   2.844   5.478
 3175SOL     OW10423   1.109   5.987   6.563
 3175SOL    HW110424   1.072   6.035   6.483
 3175SOL    HW210425   1.089   6.039   6.646
 3176SOL     OW10426   1.629   4.451   6.189
 3176SOL    HW110427   1.683   4.442   6.105
 3176SOL    HW210428   1.553   4.386   6.187
 3177SOL     OW10429   5.579   5.087   5.194
 3177SOL    HW110430   5.513   5.137   5.138
 3177SOL    HW210431   5.547   4.993   5.207
 3178SOL     OW10432   0.596   4.261   2.146
 3178SOL    HW110433   0.546   4.274   2.060
 3178SOL    HW210434   0.636   4.170   2.148
 3179SOL     OW10435   2.066   2.431   2.419
 3179SOL    HW110436   2.098   2.398   2.508
 3179SOL    HW210437   2.143   2.440   2.356
 3180SOL     OW10438   4.958   0.546   5.414
 3180SOL    HW110439   5.002   0.518   5.500
 3180SOL    HW210440   5.005   0.625   5.376
 3181SOL     OW10441   0.483   0.895   3.686
 3181SOL    HW110442   0.526   0.967   3.633
 3181SOL    HW210443   0.411   0.852   3.633
 3182SOL     OW10444   6.977   6.863   5.766
 3182SOL    HW110445   0.044   6.859   5.715
 3182SOL    HW210446   6.965   6.777   5.817
 3183SOL     OW10447   4.640   5.274   1.507
 3183SOL    HW110448   4.564   5.249   1.447
 3183SOL    HW210449   4.712   5.205   1.497
 3184SOL     OW10450   2.647   1.897   2.545
 3184SOL    HW110451   2.625   1.825   2.479
 3184SOL    HW210452   2.573   1.907   2.611
 3185SOL     OW10453   0.390   6.594   5.266
 3185SOL    HW110454   0.483   6.608   5.301
 3185SOL    HW210455   0.392   6.593   5.167
 3186SOL     OW10456   3.704   1.250   2.708
 3186SOL    HW110457   3.724   1.177   2.774
 3186SOL    HW210458   3.721   1.339   2.751
 3187SOL     OW10459   3.487   4.278   6.882
 3187SOL    HW110460   3.493   4.191   6.833
 3187SOL    HW210461   3.564   4.337   6.856
 3188SOL     OW10462   3.736   5.539   2.868
 3188SOL    HW110463   3.639   5.515   2.867
 3188SOL    HW210464   3.775   5.516   2.958
 3189SOL     OW10465   1.117   0.531   3.343
 3189SOL    HW110466   1.033   0.543   3.290
 3189SOL    HW210467   1.094   0.509   3.437
 3190SOL     OW10468   1.609   5.906   1.648
 3190SOL    HW110469   1.652   5.918   1.559
 3190SOL    HW210470   1.609   5.994   1.697
 3191SOL     OW10471   4.090   0.736   1.146
 3191SOL    HW110472   4.144   0.665   1.100
 3191SOL    HW210473   4.137   0.824   1.138
 3192SOL     OW10474   0.822   2.458   1.525
 3192SOL    HW110475   0.894   2.397   1.557
 3192SOL    HW210476   0.772   2.496   1.603
 3193SOL     OW10477   4.404   1.872   6.552
 3193SOL    HW110478   4.474   1.814   6.510
 3193SOL    HW210479   4.448   1.944   6.606
 3194SOL     OW10480   1.586   3.749   6.237
 3194SOL    HW110481   1.564   3.781   6.329
 3194SOL    HW210482   1.524   3.792   6.171
 3195SOL     OW10483   1.380   3.269   3.874
 3195SOL    HW110484   1.359   3.194   3.811
 3195SOL    HW210485   1.470   3.254   3.914
 3196SOL     OW10486   0.369   0.573   5.080
 3196SOL    HW110487   0.353   0.655   5.135
 3196SOL    HW210488   0.322   0.495   5.122
 3197SOL     OW10489   1.522   5.823   3.465
 3197SOL    HW110490   1.476   5.761   3.402
 3197SOL    HW210491   1.533   5.778   3.554
 3198SOL     OW10492   0.413   1.638   6.020
 3198SOL    HW110493   0.479   1.711   6.035
 3198SOL    HW210494   0.348   1.665   5.949
 3199SOL     OW10495   4.634   1.627   1.887
 3199SOL    HW110496   4.702   1.591   1.824
 3199SOL    HW210497   4.636   1.575   1.973
 3200SOL     OW10498   0.320   2.105   0.462
 3200SOL    HW110499   0.405   2.054   0.445
 3200SOL    HW210500   0.306   2.172   0.390
 3201SOL     OW10501   5.594   3.977   3.901
 3201SOL    HW110502   5.573   3.945   3.809
 3201SOL    HW210503   5.650   3.908   3.948
 3202SOL     OW10504   1.659   4.888   1.994
 3202SOL    HW110505   1.659   4.844   2.084
 3202SOL    HW210506   1.743   4.941   1.982
 3203SOL     OW10507   0.039   1.139   1.257
 3203SOL    HW110508   0.048   1.084   1.174
 3203SOL    HW210509   6.961   1.159   1.273
 3204SOL     OW10510   6.538   6.034   1.890
 3204SOL    HW110511   6.451   6.014   1.845
 3204SOL    HW210512   6.594   5.952   1.891
 3205SOL     OW10513   6.692   3.568   5.497
 3205SOL    HW110514   6.610   3.589   5.551
 3205SOL    HW210515   6.667   3.554   5.402
 3206SOL     OW10516   1.033   6.381   5.519
 3206SOL    HW110517   1.101   6.376   5.446
 3206SOL    HW210518   0.986   6.469   5.515
 3207SOL     OW10519   0.778   0.627   5.041
 3207SOL    HW110520   0.801   0.587   4.952
 3207SOL    HW210521   0.722   0.708   5.028
 3208SOL     OW10522   4.265   5.771   5.090
 3208SOL    HW110523   4.254   5.816   5.178
 3208SOL    HW210524   4.230   5.678   5.095
 3209SOL     OW10525   2.670   0.282   3.814
 3209SOL    HW110526   2.668   0.184   3.835
 3209SOL    HW210527   2.760   0.319   3.834
 3210SOL     OW10528   0.264   4.283   2.688
 3210SOL    HW110529   0.254   4.183   2.695
 3210SOL    HW210530   0.286   4.320   2.778
 3211SOL     OW10531   2.111   4.477   1.487
 3211SOL    HW110532   2.134   4.547   1.419
 3211SOL    HW210533   2.154   4.390   1.460
 3212SOL     OW10534   4.484   2.364   6.683
 3212SOL    HW110535   4.472   2.405   6.592
 3212SOL    HW210536   4.481   2.436   6.753
 3213SOL     OW10537   5.791   5.771   3.050
 3213SOL    HW110538   5.779   5.855   3.103
 3213SOL    HW210539   5.733   5.699   3.087
 3214SOL     OW10540   4.293   6.150   6.821
 3214SOL    HW110541   4.345   6.128   6.739
 3214SOL    HW210542   4.351   6.199   6.886
 3215SOL     OW10543   6.347   2.621   6.830
 3215SOL    HW110544   6.249   2.638   6.839
 3215SOL    HW210545   6.367   2.581   6.740
 3216SOL     OW10546   5.505   6.819   3.869
 3216SOL    HW110547   5.430   6.850   3.927
 3216SOL    HW210548   5.470   6.758   3.798
 3217SOL     OW10549   0.060   4.462   2.625
 3217SOL    HW110550   0.130   4.391   2.631
 3217SOL    HW210551   7.014   4.450   2.700
 3218SOL     OW10552   4.008   0.406   2.988
 3218SOL    HW110553   4.060   0.329   3.024
 3218SOL    HW210554   3.910   0.393   3.006
 3219SOL     OW10555   0.247   0.020   3.320
 3219SOL    HW110556   0.242   0.120   3.327
 3219SOL    HW210557   0.155   7.002   3.307
 3220SOL     OW10558   0.034   4.755   5.035
 3220SOL    HW110559   0.099   4.695   4.988
 3220SOL    HW210560   0.021   4.838   4.982
 3221SOL     OW10561   2.748   6.855   3.569
 3221SOL    HW110562   2.784   6.888   3.656
 3221SOL    HW210563   2.743   6.756   3.570
 3222SOL     OW10564   5.386   1.974   2.662
 3222SOL    HW110565   5.301   1.968   2.716
 3222SOL    HW210566   5.421   1.882   2.644
 3223SOL     OW10567   2.505   4.774   5.885
 3223SOL    HW110568   2.473   4.782   5.979
 3223SOL    HW210569   2.562   4.853   5.862
 3224SOL     OW10570   3.911   5.291   0.061
 3224SOL    HW110571   3.962   5.304   6.995
 3224SOL    HW210572   3.917   5.374   0.116
 3225SOL     OW10573   3.065   3.557   0.109
 3225SOL    HW110574   3.034   3.604   0.191
 3225SOL    HW210575   2.994   3.561   0.039
 3226SOL     OW10576   1.707   0.670   4.176
 3226SOL    HW110577   1.661   0.616   4.105
 3226SOL    HW210578   1.753   0.748   4.133
 3227SOL     OW10579   3.772   1.344   5.777
 3227SOL    HW110580   3.745   1.440   5.786
 3227SOL    HW210581   3.819   1.315   5.860
 3228SOL     OW10582   5.339   3.619   4.169
 3228SOL    HW110583   5.264   3.602   4.233
 3228SOL    HW210584   5.415   3.557   4.190
 3229SOL     OW10585   4.553   1.808   5.900
 3229SOL    HW110586   4.532   1.711   5.888
 3229SOL    HW210587   4.495   1.846   5.972
 3230SOL     OW10588   0.597   0.556   3.101
 3230SOL    HW110589   0.581   0.496   3.023
 3230SOL    HW210590   0.577   0.508   3.186
 3231SOL     OW10591   6.067   5.813   0.730
 3231SOL    HW110592   6.143   5.788   0.790
 3231SOL    HW210593   6.090   5.791   0.635
 3232SOL     OW10594   2.768   5.046   4.635
 3232SOL    HW110595   2.743   4.950   4.640
 3232SOL    HW210596   2.688   5.101   4.613
 3233SOL     OW10597   0.283   4.043   1.611
 3233SOL    HW110598   0.318   3.955   1.580
 3233SOL    HW210599   0.218   4.078   1.543
 3234SOL     OW10600   0.337   1.694   6.612
 3234SOL    HW110601   0.359   1.734   6.523
 3234SOL    HW210602   0.411   1.633   6.640
 3235SOL     OW10603   5.506   6.856   2.905
 3235SOL    HW110604   5.424   6.874   2.960
 3235SOL    HW210605   5.587   6.859   2.964
 3236SOL     OW10606   1.148   2.785   2.804
 3236SOL    HW110607   1.241   2.819   2.795
 3236SOL    HW210608   1.133   2.712   2.737
 3237SOL     OW10609   3.921   6.925   4.817
 3237SOL    HW110610   3.989   6.859   4.787
 3237SOL    HW210611   3.868   6.887   4.893
 3238SOL     OW10612   6.952   6.380   6.244
 3238SOL    HW110613   0.017   6.399   6.193
 3238SOL    HW210614   6.887   6.332   6.184
 3239SOL     OW10615   6.392   0.001   5.740
 3239SOL    HW110616   6.429   6.984   5.655
 3239SOL    HW210617   6.405   6.952   5.813
 3240SOL     OW10618   1.248   0.452   4.533
 3240SOL    HW110619   1.205   0.542   4.521
 3240SOL    HW210620   1.177   0.383   4.542
 3241SOL     OW10621   4.950   1.065   3.987
 3241SOL    HW110622   4.921   1.160   3.998
 3241SOL    HW210623   4.943   1.039   3.891
 3242SOL     OW10624   3.939   6.465   6.737
 3242SOL    HW110625   3.868   6.410   6.692
 3242SOL    HW210626   4.027   6.449   6.690
 3243SOL     OW10627   4.405   5.267   0.255
 3243SOL    HW110628   4.495   5.305   0.276
 3243SOL    HW210629   4.353   5.333   0.200
 3244SOL     OW10630   3.850   6.045   6.155
 3244SOL    HW110631   3.820   6.081   6.244
 3244SOL    HW210632   3.950   6.036   6.155
 3245SOL     OW10633   3.745   2.582   6.719
 3245SOL    HW110634   3.697   2.509   6.767
 3245SOL    HW210635   3.813   2.541   6.658
 3246SOL     OW10636   5.154   6.438   2.920
 3246SOL    HW110637   5.210   6.432   2.838
 3246SOL    HW210638   5.075   6.378   2.911
 3247SOL     OW10639   6.822   2.811   3.635
 3247SOL    HW110640   6.751   2.750   3.600
 3247SOL    HW210641   6.795   2.848   3.723
 3248SOL     OW10642   6.224   3.108   1.510
 3248SOL    HW110643   6.317   3.108   1.548
 3248SOL    HW210644   6.208   3.196   1.464
 3249SOL     OW10645   2.857   4.811   4.850
 3249SOL    HW110646   2.841   4.740   4.919
 3249SOL    HW210647   2.821   4.781   4.762
 3250SOL     OW10648   4.518   6.759   2.305
 3250SOL    HW110649   4.533   6.828   2.235
 3250SOL    HW210650   4.494   6.672   2.262
 3251SOL     OW10651   3.537   2.098   2.779
 3251SOL    HW110652   3.516   2.142   2.692
 3251SOL    HW210653   3.499   2.006   2.780
 3252SOL     OW10654   2.774   1.005   2.715
 3252SOL    HW110655   2.814   0.956   2.638
 3252SOL    HW210656   2.689   1.049   2.685
 3253SOL     OW10657   5.317   2.930   1.231
 3253SOL    HW110658   5.239   2.989   1.214
 3253SOL    HW210659   5.290   2.834   1.219
 3254SOL     OW10660   4.250   4.704   3.507
 3254SOL    HW110661   4.207   4.679   3.594
 3254SOL    HW210662   4.222   4.797   3.482
 3255SOL     OW10663   4.337   5.656   0.369
 3255SOL    HW110664   4.383   5.639   0.456
 3255SOL    HW210665   4.248   5.698   0.385
 3256SOL     OW10666   4.978   0.194   5.768
 3256SOL    HW110667   5.001   0.101   5.738
 3256SOL    HW210668   5.034   0.219   5.847
 3257SOL     OW10669   1.427   2.208   1.193
 3257SOL    HW110670   1.460   2.243   1.281
 3257SOL    HW210671   1.377   2.280   1.146
 3258SOL     OW10672   5.251   6.548   1.877
 3258SOL    HW110673   5.227   6.617   1.945
 3258SOL    HW210674   5.173   6.488   1.861
 3259SOL     OW10675   4.547   6.195   3.953
 3259SOL    HW110676   4.506   6.285   3.936
 3259SOL    HW210677   4.523   6.164   4.045
 3260SOL     OW10678   2.263   1.993   6.976
 3260SOL    HW110679   2.237   1.913   6.921
 3260SOL    HW210680   2.279   2.071   6.916
 3261SOL     OW10681   4.841   6.778   1.206
 3261SOL    HW110682   4.937   6.794   1.186
 3261SOL    HW210683   4.833   6.707   1.276
 3262SOL     OW10684   3.757   1.719   2.891
 3262SOL    HW110685   3.700   1.639   2.876
 3262SOL    HW210686   3.741   1.786   2.819
 3263SOL     OW10687   4.699   6.817   1.917
 3263SOL    HW110688   4.734   6.728   1.889
 3263SOL    HW210689   4.677   6.871   1.836
 3264SOL     OW10690   6.432   4.616   6.917
 3264SOL    HW110691   6.393   4.700   6.878
 3264SOL    HW210692   6.520   4.636   6.959
 3265SOL     OW10693   5.317   0.963   6.267
 3265SOL    HW110694   5.325   0.995   6.362
 3265SOL    HW210695   5.259   0.882   6.264
 3266SOL     OW10696   0.831   1.635   6.446
 3266SOL    HW110697   0.902   1.689   6.400
 3266SOL    HW210698   0.816   1.550   6.396
 3267SOL     OW10699   3.317   1.990   0.897
 3267SOL    HW110700   3.348   1.945   0.981
 3267SOL    HW210701   3.353   2.083   0.894
 3268SOL     OW10702   1.182   4.184   6.544
 3268SOL    HW110703   1.095   4.170   6.591
 3268SOL    HW210704   1.185   4.276   6.506
 3269SOL     OW10705   3.963   4.274   1.110
 3269SOL    HW110706   3.925   4.190   1.072
 3269SOL    HW210707   3.998   4.257   1.203
 3270SOL     OW10708   0.571   5.825   4.449
 3270SOL    HW110709   0.586   5.777   4.536
 3270SOL    HW210710   0.575   5.759   4.374
 3271SOL     OW10711   6.305   2.289   1.102
 3271SOL    HW110712   6.380   2.234   1.138
 3271SOL    HW210713   6.333   2.385   1.098
 3272SOL     OW10714   3.802   0.421   0.771
 3272SOL    HW110715   3.881   0.482   0.779
 3272SOL    HW210716   3.830   0.333   0.734
 3273SOL     OW10717   0.313   6.817   2.529
 3273SOL    HW110718   0.312   6.788   2.433
 3273SOL    HW210719   0.300   6.737   2.588
 3274SOL     OW10720   2.797   2.322   6.088
 3274SOL    HW110721   2.885   2.282   6.113
 3274SOL    HW210722   2.797   2.419   6.109
 3275SOL     OW10723   1.883   0.728   6.829
 3275SOL    HW110724   1.980   0.747   6.848
 3275SOL    HW210725   1.869   0.723   6.730
 3276SOL     OW10726   3.417   6.257   6.614
 3276SOL    HW110727   3.372   6.335   6.571
 3276SOL    HW210728   3.434   6.277   6.710
 3277SOL     OW10729   0.129   5.755   5.017
 3277SOL    HW110730   0.217   5.753   5.066
 3277SOL    HW210731   0.074   5.831   5.052
 3278SOL     OW10732   1.303   0.825   6.013
 3278SOL    HW110733   1.217   0.873   6.029
 3278SOL    HW210734   1.378   0.875   6.057
 3279SOL     OW10735   0.687   0.053   1.030
 3279SOL    HW110736   0.785   0.073   1.016
 3279SOL    HW210737   0.645   0.126   1.083
 3280SOL     OW10738   2.299   4.686   6.194
 3280SOL    HW110739   2.261   4.696   6.286
 3280SOL    HW210740   2.391   4.727   6.191
 3281SOL     OW10741   2.490   5.483   0.317
 3281SOL    HW110742   2.396   5.456   0.298
 3281SOL    HW210743   2.507   5.575   0.280
 3282SOL     OW10744   2.584   5.125   3.598
 3282SOL    HW110745   2.675   5.121   3.558
 3282SOL    HW210746   2.524   5.059   3.553
 3283SOL     OW10747   2.728   0.986   3.541
 3283SOL    HW110748   2.813   0.991   3.489
 3283SOL    HW210749   2.746   1.012   3.636
 3284SOL     OW10750   6.751   4.879   6.799
 3284SOL    HW110751   6.751   4.942   6.721
 3284SOL    HW210752   6.696   4.918   6.873
 3285SOL     OW10753   0.702   1.655   3.364
 3285SOL    HW110754   0.637   1.657   3.440
 3285SOL    HW210755   0.794   1.635   3.399
 3286SOL     OW10756   3.494   3.455   4.652
 3286SOL    HW110757   3.541   3.525   4.706
 3286SOL    HW210758   3.501   3.478   4.555
 3287SOL     OW10759   1.854   5.079   0.414
 3287SOL    HW110760   1.756   5.072   0.393
 3287SOL    HW210761   1.907   5.034   0.342
 3288SOL     OW10762   0.786   5.968   6.181
 3288SOL    HW110763   0.820   5.966   6.275
 3288SOL    HW210764   0.861   5.951   6.118
 3289SOL     OW10765   1.117   6.712   5.273
 3289SOL    HW110766   1.146   6.623   5.307
 3289SOL    HW210767   1.186   6.747   5.210
 3290SOL     OW10768   6.540   5.421   1.481
 3290SOL    HW110769   6.605   5.345   1.477
 3290SOL    HW210770   6.463   5.397   1.540
 3291SOL     OW10771   1.387   6.203   0.342
 3291SOL    HW110772   1.439   6.122   0.369
 3291SOL    HW210773   1.293   6.178   0.322
 3292SOL     OW10774   6.677   6.695   5.658
 3292SOL    HW110775   6.772   6.669   5.677
 3292SOL    HW210776   6.626   6.697   5.744
 3293SOL     OW10777   6.834   1.070   2.790
 3293SOL    HW110778   6.750   1.071   2.736
 3293SOL    HW210779   6.815   1.106   2.882
 3294SOL     OW10780   0.220   0.330   6.496
 3294SOL    HW110781   0.300   0.290   6.542
 3294SOL    HW210782   0.140   0.323   6.556
 3295SOL     OW10783   1.741   3.559   0.565
 3295SOL    HW110784   1.734   3.460   0.569
 3295SOL    HW210785   1.666   3.596   0.511
 3296SOL     OW10786   2.283   6.475   2.580
 3296SOL    HW110787   2.367   6.421   2.582
 3296SOL    HW210788   2.210   6.421   2.538
 3297SOL     OW10789   3.292   2.608   6.404
 3297SOL    HW110790   3.341   2.609   6.491
 3297SOL    HW210791   3.225   2.683   6.402
 3298SOL     OW10792   6.714   3.299   2.507
 3298SOL    HW110793   6.674   3.274   2.419
 3298SOL    HW210794   6.678   3.387   2.536
 3299SOL     OW10795   1.651   0.095   4.931
 3299SOL    HW110796   1.712   0.017   4.946
 3299SOL    HW210797   1.705   0.179   4.921
 3300SOL     OW10798   6.464   6.100   4.665
 3300SOL    HW110799   6.483   6.138   4.756
 3300SOL    HW210800   6.490   6.004   4.663
 3301SOL     OW10801   0.488   3.320   3.259
 3301SOL    HW110802   0.406   3.364   3.222
 3301SOL    HW210803   0.545   3.288   3.183
 3302SOL     OW10804   1.288   4.852   3.549
 3302SOL    HW110805   1.381   4.860   3.585
 3302SOL    HW210806   1.228   4.919   3.594
 3303SOL     OW10807   4.042   3.864   3.722
 3303SOL    HW110808   4.020   3.956   3.755
 3303SOL    HW210809   4.044   3.800   3.798
 3304SOL     OW10810   0.717   6.498   4.299
 3304SOL    HW110811   0.793   6.564   4.300
 3304SOL    HW210812   0.639   6.536   4.349
 3305SOL     OW10813   2.154   1.141   2.498
 3305SOL    HW110814   2.199   1.202   2.563
 3305SOL    HW210815   2.068   1.108   2.537
 3306SOL     OW10816   2.105   4.282   3.212
 3306SOL    HW110817   2.023   4.311   3.164
 3306SOL    HW210818   2.096   4.304   3.310
 3307SOL     OW10819   6.649   5.916   0.643
 3307SOL    HW110820   6.673   5.848   0.712
 3307SOL    HW210821   6.550   5.918   0.631
 3308SOL     OW10822   5.005   6.001   0.731
 3308SOL    HW110823   5.027   5.911   0.692
 3308SOL    HW210824   4.932   5.991   0.799
 3309SOL     OW10825   0.419   5.191   3.053
 3309SOL    HW110826   0.432   5.231   2.962
 3309SOL    HW210827   0.472   5.106   3.059
 3310SOL     OW10828   0.638   5.190   2.599
 3310SOL    HW110829   0.601   5.159   2.686
 3310SOL    HW210830   0.564   5.204   2.534
 3311SOL     OW10831   4.399   6.638   1.219
 3311SOL    HW110832   4.315   6.693   1.213
 3311SOL    HW210833   4.467   6.673   1.155
 3312SOL     OW10834   3.256   3.482   6.395
 3312SOL    HW110835   3.249   3.569   6.345
 3312SOL    HW210836   3.165   3.450   6.419
 3313SOL     OW10837   0.227   4.957   3.957
 3313SOL    HW110838   0.309   5.002   3.992
 3313SOL    HW210839   0.165   5.026   3.918
 3314SOL     OW10840   1.546   3.567   5.288
 3314SOL    HW110841   1.610   3.614   5.349
 3314SOL    HW210842   1.596   3.527   5.212
 3315SOL     OW10843   0.050   1.829   3.862
 3315SOL    HW110844   0.131   1.772   3.850
 3315SOL    HW210845   6.989   1.771   3.876
 3316SOL     OW10846   4.740   2.072   6.799
 3316SOL    HW110847   4.795   1.990   6.811
 3316SOL    HW210848   4.790   2.151   6.834
 3317SOL     OW10849   4.296   2.546   1.036
 3317SOL    HW110850   4.245   2.549   1.122
 3317SOL    HW210851   4.237   2.577   0.961
 3318SOL     OW10852   2.510   5.805   5.220
 3318SOL    HW110853   2.552   5.729   5.269
 3318SOL    HW210854   2.460   5.771   5.141
 3319SOL     OW10855   0.595   6.140   4.749
 3319SOL    HW110856   0.584   6.184   4.660
 3319SOL    HW210857   0.547   6.052   4.747
 3320SOL     OW10858   6.233   1.377   5.688
 3320SOL    HW110859   6.312   1.437   5.677
 3320SOL    HW210860   6.257   1.301   5.748
 3321SOL     OW10861   3.356   3.275   3.193
 3321SOL    HW110862   3.309   3.362   3.178
 3321SOL    HW210863   3.312   3.204   3.139
 3322SOL     OW10864   4.126   1.880   0.694
 3322SOL    HW110865   4.164   1.923   0.776
 3322SOL    HW210866   4.190   1.810   0.661
 3323SOL     OW10867   2.438   4.922   0.257
 3323SOL    HW110868   2.431   4.843   0.318
 3323SOL    HW210869   2.400   5.003   0.302
 3324SOL     OW10870   0.695   3.372   0.218
 3324SOL    HW110871   0.792   3.389   0.203
 3324SOL    HW210872   0.672   3.387   0.314
 3325SOL     OW10873   1.592   2.634   0.995
 3325SOL    HW110874   1.584   2.561   0.927
 3325SOL    HW210875   1.608   2.721   0.949
 3326SOL     OW10876   6.516   1.688   0.778
 3326SOL    HW110877   6.486   1.642   0.861
 3326SOL    HW210878   6.593   1.639   0.738
 3327SOL     OW10879   2.932   6.958   2.222
 3327SOL    HW110880   2.913   6.931   2.128
 3327SOL    HW210881   2.974   0.030   2.223
 3328SOL     OW10882   5.021   0.921   2.126
 3328SOL    HW110883   5.002   0.850   2.193
 3328SOL    HW210884   5.066   0.880   2.046
 3329SOL     OW10885   4.888   0.281   5.324
 3329SOL    HW110886   4.949   0.360   5.321
 3329SOL    HW210887   4.900   0.226   5.240
 3330SOL     OW10888   6.091   6.283   2.566
 3330SOL    HW110889   6.183   6.274   2.528
 3330SOL    HW210890   6.046   6.363   2.526
 3331SOL     OW10891   1.877   3.423   2.581
 3331SOL    HW110892   1.896   3.511   2.624
 3331SOL    HW210893   1.778   3.410   2.576
 3332SOL     OW10894   4.251   5.376   0.643
 3332SOL    HW110895   4.239   5.293   0.589
 3332SOL    HW210896   4.305   5.442   0.591
 3333SOL     OW10897   4.075   3.765   1.332
 3333SOL    HW110898   4.035   3.774   1.423
 3333SOL    HW210899   4.030   3.829   1.269
 3334SOL     OW10900   1.601   1.966   2.816
 3334SOL    HW110901   1.619   1.869   2.836
 3334SOL    HW210902   1.562   2.010   2.897
 3335SOL     OW10903   3.692   4.241   5.020
 3335SOL    HW110904   3.723   4.173   4.953
 3335SOL    HW210905   3.631   4.307   4.975
 3336SOL     OW10906   4.097   6.388   3.459
 3336SOL    HW110907   4.028   6.416   3.392
 3336SOL    HW210908   4.107   6.459   3.529
 3337SOL     OW10909   3.413   3.732   3.161
 3337SOL    HW110910   3.393   3.732   3.063
 3337SOL    HW210911   3.408   3.825   3.196
 3338SOL     OW10912   2.289   1.659   1.743
 3338SOL    HW110913   2.231   1.636   1.665
 3338SOL    HW210914   2.360   1.723   1.713
 3339SOL     OW10915   2.586   0.415   5.712
 3339SOL    HW110916   2.520   0.364   5.767
 3339SOL    HW210917   2.560   0.409   5.615
 3340SOL     OW10918   4.193   1.149   4.392
 3340SOL    HW110919   4.124   1.220   4.375
 3340SOL    HW210920   4.150   1.071   4.438
 3341SOL     OW10921   2.504   4.557   3.087
 3341SOL    HW110922   2.489   4.523   2.994
 3341SOL    HW210923   2.477   4.654   3.092
 3342SOL     OW10924   6.488   0.425   3.164
 3342SOL    HW110925   6.458   0.434   3.259
 3342SOL    HW210926   6.473   0.331   3.133
 3343SOL     OW10927   4.894   5.431   6.552
 3343SOL    HW110928   4.838   5.460   6.474
 3343SOL    HW210929   4.989   5.455   6.536
 3344SOL     OW10930   6.784   2.760   2.278
 3344SOL    HW110931   6.847   2.813   2.335
 3344SOL    HW210932   6.694   2.757   2.322
 3345SOL     OW10933   0.152   5.193   0.160
 3345SOL    HW110934   0.249   5.206   0.140
 3345SOL    HW210935   0.106   5.154   0.079
 3346SOL     OW10936   1.968   1.147   0.027
 3346SOL    HW110937   2.061   1.142   0.062
 3346SOL    HW210938   1.935   1.241   0.031
 3347SOL     OW10939   0.275   3.295   6.271
 3347SOL    HW110940   0.323   3.215   6.236
 3347SOL    HW210941   0.341   3.366   6.295
 3348SOL     OW10942   4.069   3.847   5.849
 3348SOL    HW110943   4.007   3.810   5.918
 3348SOL    HW210944   4.039   3.938   5.823
 3349SOL     OW10945   2.722   4.856   3.536
 3349SOL    HW110946   2.821   4.863   3.549
 3349SOL    HW210947   2.688   4.938   3.488
 3350SOL     OW10948   0.013   3.910   5.470
 3350SOL    HW110949   6.943   3.868   5.488
 3350SOL    HW210950   0.086   3.848   5.500
 3351SOL     OW10951   5.416   1.218   1.355
 3351SOL    HW110952   5.421   1.127   1.314
 3351SOL    HW210953   5.508   1.249   1.379
 3352SOL     OW10954   4.909   2.673   6.726
 3352SOL    HW110955   4.917   2.659   6.627
 3352SOL    HW210956   4.872   2.764   6.744
 3353SOL     OW10957   2.972   0.996   1.496
 3353SOL    HW110958   2.976   1.096   1.493
 3353SOL    HW210959   3.065   0.959   1.495
 3354SOL     OW10960   3.786   3.546   6.032
 3354SOL    HW110961   3.834   3.634   6.032
 3354SOL    HW210962   3.785   3.508   6.125
 3355SOL     OW10963   2.119   0.383   4.897
 3355SOL    HW110964   2.091   0.439   4.819
 3355SOL    HW210965   2.111   0.437   4.981
 3356SOL     OW10966   1.607   6.702   5.174
 3356SOL    HW110967   1.606   6.771   5.246
 3356SOL    HW210968   1.637   6.743   5.088
 3357SOL     OW10969   3.470   3.562   1.715
 3357SOL    HW110970   3.432   3.630   1.778
 3357SOL    HW210971   3.506   3.609   1.634
 3358SOL     OW10972   6.661   0.990   2.435
 3358SOL    HW110973   6.678   1.087   2.451
 3358SOL    HW210974   6.631   0.976   2.341
 3359SOL     OW10975   6.412   6.113   4.079
 3359SOL    HW110976   6.406   6.161   3.992
 3359SOL    HW210977   6.455   6.024   4.066
 3360SOL     OW10978   6.895   3.025   5.716
 3360SOL    HW110979   6.950   2.970   5.778
 3360SOL    HW210980   6.954   3.073   5.652
 3361SOL     OW10981   0.337   0.761   4.752
 3361SOL    HW110982   0.255   0.716   4.787
 3361SOL    HW210983   0.341   0.751   4.653
 3362SOL     OW10984   3.608   1.621   4.058
 3362SOL    HW110985   3.677   1.688   4.087
 3362SOL    HW210986   3.632   1.586   3.967
 3363SOL     OW10987   5.769   3.342   1.388
 3363SOL    HW110988   5.736   3.260   1.341
 3363SOL    HW210989   5.800   3.409   1.320
 3364SOL     OW10990   1.934   4.584   3.505
 3364SOL    HW110991   2.016   4.574   3.562
 3364SOL    HW210992   1.871   4.508   3.524
 3365SOL     OW10993   1.917   3.517   3.804
 3365SOL    HW110994   2.001   3.474   3.838
 3365SOL    HW210995   1.893   3.478   3.716
 3366SOL     OW10996   6.079   3.848   4.147
 3366SOL    HW110997   5.993   3.841   4.197
 3366SOL    HW210998   6.129   3.929   4.178
 3367SOL     OW10999   3.947   3.166   4.283
 3367SOL    HW111000   3.899   3.170   4.371
 3367SOL    HW211001   3.880   3.153   4.210
 3368SOL     OW11002   1.288   5.900   0.585
 3368SOL    HW111003   1.361   5.926   0.522
 3368SOL    HW211004   1.326   5.843   0.658
 3369SOL     OW11005   4.032   2.886   1.102
 3369SOL    HW111006   3.944   2.872   1.147
 3369SOL    HW211007   4.102   2.831   1.149
 3370SOL     OW11008   0.632   5.621   2.197
 3370SOL    HW111009   0.651   5.550   2.264
 3370SOL    HW211010   0.676   5.706   2.225
 3371SOL     OW11011   2.317   2.818   3.302
 3371SOL    HW111012   2.274   2.806   3.213
 3371SOL    HW211013   2.313   2.915   3.328
 3372SOL     OW11014   6.858   3.680   1.267
 3372SOL    HW111015   6.944   3.666   1.316
 3372SOL    HW211016   6.782   3.662   1.329
 3373SOL     OW11017   0.280   2.496   1.082
 3373SOL    HW111018   0.220   2.467   1.157
 3373SOL    HW211019   0.275   2.595   1.072
 3374SOL     OW11020   0.719   0.270   3.865
 3374SOL    HW111021   0.625   0.284   3.897
 3374SOL    HW211022   0.781   0.265   3.943
 3375SOL     OW11023   6.851   4.862   6.322
 3375SOL    HW111024   6.799   4.821   6.397
 3375SOL    HW211025   6.909   4.793   6.280
 3376SOL     OW11026   2.589   3.719   5.410
 3376SOL    HW111027   2.628   3.810   5.393
 3376SOL    HW211028   2.496   3.716   5.374
 3377SOL     OW11029   6.111   4.831   3.072
 3377SOL    HW111030   6.100   4.852   3.169
 3377SOL    HW211031   6.184   4.763   3.061
 3378SOL     OW11032   1.167   6.442   0.298
 3378SOL    HW111033   1.149   6.349   0.268
 3378SOL    HW211034   1.217   6.441   0.385
 3379SOL     OW11035   0.212   4.010   3.433
 3379SOL    HW111036   0.206   3.914   3.459
 3379SOL    HW211037   0.294   4.050   3.475
 3380SOL     OW11038   3.725   4.348   5.918
 3380SOL    HW111039   3.727   4.446   5.939
 3380SOL    HW211040   3.707   4.296   6.002
 3381SOL     OW11041   1.556   3.931   1.187
 3381SOL    HW111042   1.496   4.011   1.192
 3381SOL    HW211043   1.646   3.955   1.222
 3382SOL     OW11044   0.246   2.311   0.878
 3382SOL    HW111045   0.261   2.381   0.948
 3382SOL    HW211046   0.313   2.237   0.890
 3383SOL     OW11047   5.287   5.139   0.156
 3383SOL    HW111048   5.219   5.087   0.104
 3383SOL    HW211049   5.379   5.113   0.127
 3384SOL     OW11050   2.239   4.464   0.143
 3384SOL    HW111051   2.176   4.437   0.070
 3384SOL    HW211052   2.190   4.519   0.211
 3385SOL     OW11053   0.515   1.652   3.603
 3385SOL    HW111054   0.471   1.564   3.617
 3385SOL    HW211055   0.446   1.723   3.592
 3386SOL     OW11056   6.478   4.854   6.558
 3386SOL    HW111057   6.463   4.843   6.459
 3386SOL    HW211058   6.566   4.814   6.582
 3387SOL     OW11059   6.463   0.132   3.737
 3387SOL    HW111060   6.516   0.099   3.815
 3387SOL    HW211061   6.404   0.058   3.704
 3388SOL     OW11062   6.420   3.433   1.154
 3388SOL    HW111063   6.485   3.507   1.135
 3388SOL    HW211064   6.332   3.454   1.111
 3389SOL     OW11065   6.587   6.154   0.830
 3389SOL    HW111066   6.556   6.060   0.844
 3389SOL    HW211067   6.609   6.168   0.733
 3390SOL     OW11068   3.482   6.791   6.209
 3390SOL    HW111069   3.549   6.741   6.155
 3390SOL    HW211070   3.477   6.753   6.301
 3391SOL     OW11071   5.549   3.089   3.876
 3391SOL    HW111072   5.535   3.078   3.777
 3391SOL    HW211073   5.474   3.044   3.925
 3392SOL     OW11074   4.187   0.159   5.610
 3392SOL    HW111075   4.161   0.142   5.515
 3392SOL    HW211076   4.142   0.242   5.642
 3393SOL     OW11077   5.698   6.495   1.196
 3393SOL    HW111078   5.633   6.571   1.193
 3393SOL    HW211079   5.739   6.489   1.287
 3394SOL     OW11080   3.203   5.724   1.794
 3394SOL    HW111081   3.132   5.654   1.799
 3394SOL    HW211082   3.264   5.705   1.717
 3395SOL     OW11083   3.458   0.411   3.213
 3395SOL    HW111084   3.418   0.417   3.122
 3395SOL    HW211085   3.388   0.381   3.279
 3396SOL     OW11086   4.067   1.614   4.294
 3396SOL    HW111087   4.021   1.534   4.332
 3396SOL    HW211088   4.034   1.631   4.201
 3397SOL     OW11089   2.438   5.858   6.701
 3397SOL    HW111090   2.348   5.824   6.675
 3397SOL    HW211091   2.445   5.955   6.678
 3398SOL     OW11092   6.955   1.547   4.582
 3398SOL    HW111093   6.864   1.590   4.574
 3398SOL    HW211094   6.971   1.522   4.677
 3399SOL     OW11095   6.762   5.063   2.326
 3399SOL    HW111096   6.744   5.152   2.283
 3399SOL    HW211097   6.775   4.994   2.255
 3400SOL     OW11098   5.561   2.180   6.058
 3400SOL    HW111099   5.534   2.254   6.119
 3400SOL    HW211100   5.635   2.127   6.100
 3401SOL     OW11101   6.943   3.411   5.476
 3401SOL    HW111102   7.014   3.475   5.446
 3401SOL    HW211103   6.866   3.461   5.514
 3402SOL     OW11104   6.394   4.245   1.414
 3402SOL    HW111105   6.359   4.311   1.348
 3402SOL    HW211106   6.476   4.202   1.377
 3403SOL     OW11107   4.205   6.760   0.077
 3403SOL    HW111108   4.284   6.713   0.116
 3403SOL    HW211109   4.125   6.700   0.080
 3404SOL     OW11110   5.241   3.768   4.899
 3404SOL    HW111111   5.166   3.728   4.951
 3404SOL    HW211112   5.206   3.841   4.840
 3405SOL     OW11113   5.570   6.001   6.150
 3405SOL    HW111114   5.541   6.096   6.165
 3405SOL    HW211115   5.490   5.941   6.158
 3406SOL     OW11116   1.907   4.306   2.012
 3406SOL    HW111117   1.940   4.386   1.961
 3406SOL    HW211118   1.810   4.292   1.992
 3407SOL     OW11119   1.794   4.129   0.512
 3407SOL    HW111120   1.705   4.122   0.467
 3407SOL    HW211121   1.850   4.049   0.489
 3408SOL     OW11122   4.872   2.635   3.731
 3408SOL    HW111123   4.894   2.612   3.636
 3408SOL    HW211124   4.897   2.559   3.791
 3409SOL     OW11125   5.000   0.653   0.828
 3409SOL    HW111126   4.969   0.564   0.795
 3409SOL    HW211127   5.080   0.641   0.886
 3410SOL     OW11128   5.064   0.391   2.445
 3410SOL    HW111129   5.099   0.458   2.511
 3410SOL    HW211130   5.055   0.302   2.490
 3411SOL     OW11131   7.009   2.268   0.456
 3411SOL    HW111132   0.075   2.309   0.491
 3411SOL    HW211133   6.987   2.307   0.367
 3412SOL     OW11134   5.523   3.358   1.514
 3412SOL    HW111135   5.622   3.371   1.511
 3412SOL    HW211136   5.502   3.269   1.556
 3413SOL     OW11137   0.188   2.038   5.962
 3413SOL    HW111138   0.206   2.032   6.060
 3413SOL    HW211139   0.269   2.007   5.911
 3414SOL     OW11140   3.391   3.496   0.583
 3414SOL    HW111141   3.441   3.580   0.601
 3414SOL    HW211142   3.392   3.438   0.664
 3415SOL     OW11143   2.251   2.572   5.146
 3415SOL    HW111144   2.188   2.622   5.206
 3415SOL    HW211145   2.224   2.586   5.051
 3416SOL     OW11146   5.850   0.108   6.659
 3416SOL    HW111147   5.917   0.041   6.691
 3416SOL    HW211148   5.841   0.181   6.727
 3417SOL     OW11149   6.563   6.547   2.992
 3417SOL    HW111150   6.521   6.620   2.938
 3417SOL    HW211151   6.658   6.571   3.012
 3418SOL     OW11152   5.027   4.554   1.186
 3418SOL    HW111153   4.965   4.477   1.202
 3418SOL    HW211154   4.986   4.616   1.119
 3419SOL     OW11155   3.623   5.887   6.108
 3419SOL    HW111156   3.648   5.869   6.012
 3419SOL    HW211157   3.676   5.965   6.141
 3420SOL     OW11158   4.333   2.184   3.502
 3420SOL    HW111159   4.375   2.103   3.542
 3420SOL    HW211160   4.241   2.196   3.541
 3421SOL     OW11161   6.147   2.327   3.495
 3421SOL    HW111162   6.139   2.426   3.483
 3421SOL    HW211163   6.058   2.284   3.480
 3422SOL     OW11164   2.049   7.017   1.073
 3422SOL    HW111165   2.000   0.085   1.079
 3422SOL    HW211166   1.994   6.944   1.115
 3423SOL     OW11167   1.137   4.853   5.678
 3423SOL    HW111168   1.041   4.883   5.688
 3423SOL    HW211169   1.158   4.842   5.581
 3424SOL     OW11170   4.610   0.437   1.623
 3424SOL    HW111171   4.685   0.431   1.688
 3424SOL    HW211172   4.602   0.531   1.590
 3425SOL     OW11173   5.718   3.688   1.346
 3425SOL    HW111174   5.700   3.772   1.294
 3425SOL    HW211175   5.771   3.625   1.290
 3426SOL     OW11176   5.519   2.967   6.747
 3426SOL    HW111177   5.570   2.922   6.674
 3426SOL    HW211178   5.468   2.898   6.799
 3427SOL     OW11179   1.019   2.757   0.471
 3427SOL    HW111180   1.084   2.810   0.417
 3427SOL    HW211181   1.066   2.677   0.509
 3428SOL     OW11182   5.087   5.926   5.841
 3428SOL    HW111183   5.112   5.925   5.938
 3428SOL    HW211184   4.988   5.931   5.832
 3429SOL     OW11185   6.767   0.454   0.878
 3429SOL    HW111186   6.696   0.513   0.839
 3429SOL    HW211187   6.789   0.484   0.970
 3430SOL     OW11188   1.629   4.444   5.517
 3430SOL    HW111189   1.606   4.538   5.491
 3430SOL    HW211190   1.724   4.440   5.547
 3431SOL     OW11191   2.313   6.054   3.114
 3431SOL    HW111192   2.270   6.073   3.026
 3431SOL    HW211193   2.325   5.956   3.125
 3432SOL     OW11194   2.025   4.401   1.146
 3432SOL    HW111195   2.086   4.474   1.178
 3432SOL    HW211196   1.933   4.416   1.182
 3433SOL     OW11197   2.444   1.083   6.371
 3433SOL    HW111198   2.401   1.117   6.454
 3433SOL    HW211199   2.531   1.039   6.394
 3434SOL     OW11200   2.686   2.213   1.312
 3434SOL    HW111201   2.653   2.302   1.281
 3434SOL    HW211202   2.783   2.204   1.291
 3435SOL     OW11203   2.201   0.683   6.816
 3435SOL    HW111204   2.215   0.733   6.731
 3435SOL    HW211205   2.280   0.696   6.877
 3436SOL     OW11206   3.426   5.819   6.727
 3436SOL    HW111207   3.371   5.860   6.654
 3436SOL    HW211208   3.392   5.849   6.816
 3437SOL     OW11209   1.487   6.686   6.674
 3437SOL    HW111210   1.495   6.766   6.615
 3437SOL    HW211211   1.460   6.607   6.620
 3438SOL     OW11212   1.208   3.838   1.159
 3438SOL    HW111213   1.273   3.914   1.166
 3438SOL    HW211214   1.184   3.824   1.062
 3439SOL     OW11215   2.191   5.868   1.898
 3439SOL    HW111216   2.192   5.786   1.840
 3439SOL    HW211217   2.238   5.849   1.984
 3440SOL     OW11218   4.030   3.940   4.460
 3440SOL    HW111219   4.056   3.844   4.471
 3440SOL    HW211220   4.073   3.978   4.378
 3441SOL     OW11221   5.411   5.231   5.735
 3441SOL    HW111222   5.313   5.220   5.751
 3441SOL    HW211223   5.432   5.206   5.641
 3442SOL     OW11224   3.698   3.202   0.864
 3442SOL    HW111225   3.747   3.289   0.869
 3442SOL    HW211226   3.716   3.150   0.947
 3443SOL     OW11227   1.939   6.400   2.008
 3443SOL    HW111228   1.998   6.475   1.979
 3443SOL    HW211229   1.903   6.419   2.099
 3444SOL     OW11230   5.676   3.493   0.872
 3444SOL    HW111231   5.700   3.586   0.900
 3444SOL    HW211232   5.759   3.442   0.849
 3445SOL     OW11233   5.730   4.282   3.202
 3445SOL    HW111234   5.648   4.257   3.150
 3445SOL    HW211235   5.758   4.205   3.259
 3446SOL     OW11236   4.980   1.175   1.172
 3446SOL    HW111237   4.890   1.151   1.207
 3446SOL    HW211238   5.042   1.193   1.248
 3447SOL     OW11239   5.422   0.868   0.021
 3447SOL    HW111240   5.385   0.787   6.994
 3447SOL    HW211241   5.469   0.926   6.973
 3448SOL     OW11242   1.454   5.895   4.750
 3448SOL    HW111243   1.490   5.983   4.781
 3448SOL    HW211244   1.530   5.833   4.728
 3449SOL     OW11245   6.049   4.038   5.278
 3449SOL    HW111246   6.115   4.055   5.351
 3449SOL    HW211247   6.062   3.945   5.243
 3450SOL     OW11248   1.388   5.986   0.941
 3450SOL    HW111249   1.444   5.980   1.023
 3450SOL    HW211250   1.414   5.913   0.877
 3451SOL     OW11251   2.488   0.102   1.242
 3451SOL    HW111252   2.551   0.171   1.277
 3451SOL    HW211253   2.398   0.115   1.284
 3452SOL     OW11254   4.628   0.664   5.076
 3452SOL    HW111255   4.530   0.665   5.094
 3452SOL    HW211256   4.649   0.731   5.005
 3453SOL     OW11257   4.558   6.386   5.966
 3453SOL    HW111258   4.633   6.441   5.931
 3453SOL    HW211259   4.554   6.395   6.066
 3454SOL     OW11260   1.344   2.753   1.837
 3454SOL    HW111261   1.295   2.833   1.872
 3454SOL    HW211262   1.288   2.672   1.847
 3455SOL     OW11263   0.468   3.555   6.089
 3455SOL    HW111264   0.527   3.598   6.020
 3455SOL    HW211265   0.525   3.507   6.155
 3456SOL     OW11266   5.023   4.123   2.172
 3456SOL    HW111267   5.055   4.216   2.194
 3456SOL    HW211268   5.101   4.062   2.165
 3457SOL     OW11269   3.718   5.421   5.254
 3457SOL    HW111270   3.803   5.467   5.226
 3457SOL    HW211271   3.641   5.484   5.243
 3458SOL     OW11272   4.088   1.551   2.690
 3458SOL    HW111273   4.055   1.646   2.696
 3458SOL    HW211274   4.169   1.547   2.632
 3459SOL     OW11275   4.526   6.953   3.375
 3459SOL    HW111276   4.604   6.974   3.316
 3459SOL    HW211277   4.495   0.018   3.421
 3460SOL     OW11278   4.364   1.640   5.358
 3460SOL    HW111279   4.337   1.721   5.411
 3460SOL    HW211280   4.396   1.569   5.420
 3461SOL     OW11281   5.928   5.206   5.973
 3461SOL    HW111282   5.856   5.143   5.943
 3461SOL    HW211283   5.886   5.284   6.018
 3462SOL     OW11284   1.720   4.140   6.912
 3462SOL    HW111285   1.761   4.120   7.001
 3462SOL    HW211286   1.646   4.074   6.895
 3463SOL     OW11287   6.216   4.132   1.121
 3463SOL    HW111288   6.193   4.113   1.026
 3463SOL    HW211289   6.199   4.051   1.177
 3464SOL     OW11290   0.266   4.625   6.225
 3464SOL    HW111291   0.353   4.637   6.272
 3464SOL    HW211292   0.260   4.533   6.188
 3465SOL     OW11293   2.147   0.504   0.996
 3465SOL    HW111294   2.095   0.558   0.930
 3465SOL    HW211295   2.141   0.545   1.086
 3466SOL     OW11296   6.458   3.893   5.134
 3466SOL    HW111297   6.553   3.872   5.107
 3466SOL    HW211298   6.414   3.945   5.061
 3467SOL     OW11299   2.025   2.035   6.750
 3467SOL    HW111300   2.096   2.102   6.771
 3467SOL    HW211301   1.953   2.078   6.695
 3468SOL     OW11302   3.095   0.244   4.344
 3468SOL    HW111303   3.165   0.295   4.395
 3468SOL    HW211304   3.016   0.303   4.327
 3469SOL     OW11305   6.155   2.298   3.054
 3469SOL    HW111306   6.240   2.338   3.021
 3469SOL    HW211307   6.093   2.283   2.977
 3470SOL     OW11308   6.985   5.829   0.878
 3470SOL    HW111309   6.889   5.807   0.862
 3470SOL    HW211310   0.021   5.800   0.799
 3471SOL     OW11311   3.983   6.644   4.859
 3471SOL    HW111312   3.967   6.558   4.811
 3471SOL    HW211313   4.081   6.664   4.860
 3472SOL     OW11314   2.886   1.399   5.386
 3472SOL    HW111315   2.974   1.443   5.402
 3472SOL    HW211316   2.884   1.362   5.293
 3473SOL     OW11317   5.015   0.581   6.130
 3473SOL    HW111318   4.916   0.593   6.139
 3473SOL    HW211319   5.048   0.631   6.050
 3474SOL     OW11320   4.881   5.359   1.129
 3474SOL    HW111321   4.828   5.433   1.172
 3474SOL    HW211322   4.957   5.334   1.189
 3475SOL     OW11323   1.755   5.913   4.465
 3475SOL    HW111324   1.729   5.999   4.509
 3475SOL    HW211325   1.788   5.849   4.534
 3476SOL     OW11326   4.641   1.123   4.422
 3476SOL    HW111327   4.735   1.144   4.449
 3476SOL    HW211328   4.618   1.030   4.450
 3477SOL     OW11329   4.038   6.259   1.254
 3477SOL    HW111330   4.012   6.241   1.159
 3477SOL    HW211331   3.959   6.245   1.314
 3478SOL     OW11332   3.874   5.308   0.514
 3478SOL    HW111333   3.884   5.221   0.466
 3478SOL    HW211334   3.943   5.314   0.587
 3479SOL     OW11335   0.869   0.299   1.979
 3479SOL    HW111336   0.850   0.368   1.909
 3479SOL    HW211337   0.822   0.325   2.064
 3480SOL     OW11338   0.745   1.191   3.342
 3480SOL    HW111339   0.735   1.225   3.249
 3480SOL    HW211340   0.837   1.214   3.376
 3481SOL     OW11341   2.391   6.684   0.122
 3481SOL    HW111342   2.442   6.639   0.049
 3481SOL    HW211343   2.446   6.685   0.205
 3482SOL     OW11344   0.215   2.498   0.088
 3482SOL    HW111345   0.295   2.441   0.070
 3482SOL    HW211346   0.227   2.587   0.043
 3483SOL     OW11347   3.326   0.043   1.286
 3483SOL    HW111348   3.280   0.128   1.259
 3483SOL    HW211349   3.315   0.028   1.384
 3484SOL     OW11350   3.973   3.786   3.250
 3484SOL    HW111351   4.008   3.783   3.156
 3484SOL    HW211352   3.982   3.696   3.292
 3485SOL     OW11353   1.115   2.196   5.250
 3485SOL    HW111354   1.195   2.200   5.190
 3485SOL    HW211355   1.105   2.104   5.287
 3486SOL     OW11356   4.391   1.789   1.791
 3486SOL    HW111357   4.396   1.880   1.831
 3486SOL    HW211358   4.383   1.721   1.864
 3487SOL     OW11359   6.323   1.191   6.871
 3487SOL    HW111360   6.238   1.228   6.907
 3487SOL    HW211361   6.378   1.154   6.947
 3488SOL     OW11362   5.173   3.310   3.616
 3488SOL    HW111363   5.262   3.298   3.573
 3488SOL    HW211364   5.185   3.337   3.711
 3489SOL     OW11365   3.589   0.834   1.355
 3489SOL    HW111366   3.674   0.868   1.395
 3489SOL    HW211367   3.609   0.758   1.293
 3490SOL     OW11368   4.061   4.031   6.977
 3490SOL    HW111369   3.975   3.988   6.952
 3490SOL    HW211370   4.110   3.974   0.024
 3491SOL     OW11371   0.137   2.909   4.674
 3491SOL    HW111372   0.190   2.972   4.731
 3491SOL    HW211373   0.078   2.962   4.613
 3492SOL     OW11374   6.784   4.398   6.841
 3492SOL    HW111375   6.798   4.359   6.750
 3492SOL    HW211376   6.766   4.324   6.906
 3493SOL     OW11377   6.754   4.710   0.987
 3493SOL    HW111378   6.690   4.726   0.912
 3493SOL    HW211379   6.845   4.693   0.950
 3494SOL     OW11380   3.401   0.477   0.634
 3494SOL    HW111381   3.481   0.521   0.675
 3494SOL    HW211382   3.344   0.438   0.707
 3495SOL     OW11383   4.891   4.630   0.964
 3495SOL    HW111384   4.870   4.555   0.901
 3495SOL    HW211385   4.862   4.717   0.923
 3496SOL     OW11386   2.270   2.911   1.059
 3496SOL    HW111387   2.353   2.922   1.113
 3496SOL    HW211388   2.256   2.814   1.039
 3497SOL     OW11389   4.607   0.477   3.766
 3497SOL    HW111390   4.522   0.497   3.718
 3497SOL    HW211391   4.685   0.513   3.714
 3498SOL     OW11392   2.346   1.626   2.114
 3498SOL    HW111393   2.388   1.571   2.042
 3498SOL    HW211394   2.416   1.679   2.161
 3499SOL     OW11395   6.671   3.019   3.820
 3499SOL    HW111396   6.705   3.050   3.908
 3499SOL    HW211397   6.698   3.084   3.749
 3500SOL     OW11398   6.167   3.905   6.794
 3500SOL    HW111399   6.184   3.947   6.705
 3500SOL    HW211400   6.253   3.896   6.844
 3501SOL     OW11401   1.851   4.168   4.060
 3501SOL    HW111402   1.757   4.173   4.091
 3501SOL    HW211403   1.912   4.159   4.139
 3502SOL     OW11404   1.017   3.178   1.391
 3502SOL    HW111405   1.112   3.146   1.381
 3502SOL    HW211406   1.018   3.273   1.422
 3503SOL     OW11407   5.040   6.251   4.684
 3503SOL    HW111408   5.022   6.153   4.677
 3503SOL    HW211409   5.100   6.279   4.609
 3504SOL     OW11410   2.397   3.332   1.639
 3504SOL    HW111411   2.392   3.400   1.712
 3504SOL    HW211412   2.493   3.314   1.618
 3505SOL     OW11413   5.178   5.091   5.288
 3505SOL    HW111414   5.214   5.054   5.202
 3505SOL    HW211415   5.220   5.043   5.365
 3506SOL     OW11416   4.776   5.474   3.281
 3506SOL    HW111417   4.693   5.513   3.322
 3506SOL    HW211418   4.810   5.400   3.338
 3507SOL     OW11419   0.960   6.781   6.564
 3507SOL    HW111420   0.956   6.710   6.634
 3507SOL    HW211421   0.911   6.862   6.595
 3508SOL     OW11422   5.705   3.901   6.891
 3508SOL    HW111423   5.639   3.974   6.909
 3508SOL    HW211424   5.798   3.934   6.910
 3509SOL     OW11425   6.844   6.652   0.373
 3509SOL    HW111426   6.749   6.643   0.402
 3509SOL    HW211427   6.904   6.615   0.443
 3510SOL     OW11428   2.265   2.750   2.370
 3510SOL    HW111429   2.298   2.743   2.465
 3510SOL    HW211430   2.314   2.685   2.313
 3511SOL     OW11431   0.640   1.867   6.579
 3511SOL    HW111432   0.667   1.857   6.483
 3511SOL    HW211433   0.717   1.900   6.633
 3512SOL     OW11434   2.500   3.291   0.933
 3512SOL    HW111435   2.513   3.204   0.886
 3512SOL    HW211436   2.578   3.309   0.993
 3513SOL     OW11437   6.419   4.616   1.292
 3513SOL    HW111438   6.324   4.586   1.299
 3513SOL    HW211439   6.441   4.633   1.196
 3514SOL     OW11440   0.475   5.859   1.641
 3514SOL    HW111441   0.526   5.860   1.727
 3514SOL    HW211442   0.538   5.874   1.564
 3515SOL     OW11443   3.171   6.176   3.564
 3515SOL    HW111444   3.079   6.142   3.548
 3515SOL    HW211445   3.172   6.276   3.562
 3516SOL     OW11446   3.283   1.507   1.146
 3516SOL    HW111447   3.263   1.451   1.066
 3516SOL    HW211448   3.197   1.542   1.184
 3517SOL     OW11449   1.315   1.194   6.326
 3517SOL    HW111450   1.389   1.168   6.263
 3517SOL    HW211451   1.352   1.254   6.397
 3518SOL     OW11452   4.212   3.012   5.778
 3518SOL    HW111453   4.182   2.920   5.755
 3518SOL    HW211454   4.145   3.079   5.746
 3519SOL     OW11455   1.988   6.404   0.328
 3519SOL    HW111456   1.944   6.412   0.418
 3519SOL    HW211457   1.987   6.494   0.284
 3520SOL     OW11458   3.764   5.769   1.045
 3520SOL    HW111459   3.692   5.836   1.025
 3520SOL    HW211460   3.745   5.684   0.995
 3521SOL     OW11461   6.302   2.571   1.058
 3521SOL    HW111462   6.240   2.570   0.980
 3521SOL    HW211463   6.256   2.612   1.137
 3522SOL     OW11464   3.459   5.015   2.466
 3522SOL    HW111465   3.365   5.022   2.434
 3522SOL    HW211466   3.487   5.102   2.506
 3523SOL     OW11467   2.523   4.545   5.287
 3523SOL    HW111468   2.456   4.475   5.263
 3523SOL    HW211469   2.515   4.567   5.384
 3524SOL     OW11470   2.738   0.383   0.729
 3524SOL    HW111471   2.794   0.300   0.720
 3524SOL    HW211472   2.724   0.402   0.827
 3525SOL     OW11473   0.666   2.683   2.626
 3525SOL    HW111474   0.647   2.604   2.684
 3525SOL    HW211475   0.625   2.670   2.536
 3526SOL     OW11476   1.991   0.948   2.406
 3526SOL    HW111477   1.936   0.910   2.332
 3526SOL    HW211478   2.026   1.038   2.380
 3527SOL     OW11479   5.523   3.098   5.894
 3527SOL    HW111480   5.484   3.166   5.956
 3527SOL    HW211481   5.616   3.077   5.921
 3528SOL     OW11482   0.196   6.584   4.545
 3528SOL    HW111483   0.134   6.661   4.563
 3528SOL    HW211484   0.144   6.509   4.504
 3529SOL     OW11485   3.633   6.322   6.095
 3529SOL    HW111486   3.700   6.301   6.166
 3529SOL    HW211487   3.673   6.387   6.030
 3530SOL     OW11488   2.167   5.519   3.289
 3530SOL    HW111489   2.174   5.425   3.325
 3530SOL    HW211490   2.229   5.578   3.341
 3531SOL     OW11491   5.767   4.271   6.844
 3531SOL    HW111492   5.682   4.218   6.844
 3531SOL    HW211493   5.784   4.308   6.935
 3532SOL     OW11494   1.869   6.822   6.695
 3532SOL    HW111495   1.950   6.856   6.743
 3532SOL    HW211496   1.788   6.834   6.753
 3533SOL     OW11497   1.235   1.212   2.806
 3533SOL    HW111498   1.152   1.158   2.822
 3533SOL    HW211499   1.232   1.295   2.861
 3534SOL     OW11500   4.954   0.811   5.047
 3534SOL    HW111501   4.897   0.892   5.030
 3534SOL    HW211502   4.927   0.738   4.984
 3535SOL     OW11503   5.284   4.917   6.112
 3535SOL    HW111504   5.383   4.907   6.122
 3535SOL    HW211505   5.261   5.014   6.106
 3536SOL     OW11506   1.125   4.091   3.265
 3536SOL    HW111507   1.044   4.039   3.238
 3536SOL    HW211508   1.096   4.181   3.300
 3537SOL     OW11509   2.594   5.376   1.143
 3537SOL    HW111510   2.670   5.423   1.187
 3537SOL    HW211511   2.507   5.412   1.178
 3538SOL     OW11512   2.656   0.844   3.788
 3538SOL    HW111513   2.585   0.893   3.737
 3538SOL    HW211514   2.620   0.819   3.878
 3539SOL     OW11515   4.913   5.373   5.788
 3539SOL    HW111516   4.886   5.328   5.874
 3539SOL    HW211517   4.859   5.335   5.713
 3540SOL     OW11518   2.914   3.171   6.907
 3540SOL    HW111519   2.829   3.220   6.925
 3540SOL    HW211520   2.960   3.150   6.993
 3541SOL     OW11521   3.522   2.623   0.743
 3541SOL    HW111522   3.508   2.645   0.840
 3541SOL    HW211523   3.435   2.634   0.694
 3542SOL     OW11524   5.273   2.435   6.336
 3542SOL    HW111525   5.314   2.518   6.373
 3542SOL    HW211526   5.206   2.459   6.266
 3543SOL     OW11527   1.137   2.579   3.618
 3543SOL    HW111528   1.100   2.643   3.686
 3543SOL    HW211529   1.088   2.592   3.532
 3544SOL     OW11530   2.872   4.463   6.119
 3544SOL    HW111531   2.885   4.561   6.105
 3544SOL    HW211532   2.824   4.448   6.205
 3545SOL     OW11533   3.709   6.816   1.599
 3545SOL    HW111534   3.760   6.784   1.678
 3545SOL    HW211535   3.711   6.747   1.527
 3546SOL     OW11536   0.270   3.181   2.947
 3546SOL    HW111537   0.208   3.224   3.013
 3546SOL    HW211538   0.323   3.251   2.900
 3547SOL     OW11539   0.241   3.791   5.554
 3547SOL    HW111540   0.195   3.838   5.630
 3547SOL    HW211541   0.312   3.731   5.590
 3548SOL     OW11542   5.806   0.280   5.122
 3548SOL    HW111543   5.721   0.270   5.071
 3548SOL    HW211544   5.825   0.378   5.136
 3549SOL     OW11545   2.950   5.970   6.465
 3549SOL    HW111546   2.914   5.882   6.497
 3549SOL    HW211547   2.888   6.043   6.495
 3550SOL     OW11548   5.521   1.170   5.415
 3550SOL    HW111549   5.549   1.121   5.497
 3550SOL    HW211550   5.425   1.150   5.395
 3551SOL     OW11551   4.126   1.833   4.470
 3551SOL    HW111552   4.064   1.824   4.547
 3551SOL    HW211553   4.122   1.751   4.414
 3552SOL     OW11554   0.514   6.104   2.933
 3552SOL    HW111555   0.437   6.057   2.975
 3552SOL    HW211556   0.596   6.047   2.940
 3553SOL     OW11557   4.334   5.614   0.110
 3553SOL    HW111558   4.293   5.527   0.081
 3553SOL    HW211559   4.320   5.626   0.209
 3554SOL     OW11560   4.907   3.345   1.455
 3554SOL    HW111561   4.953   3.294   1.527
 3554SOL    HW211562   4.973   3.402   1.406
 3555SOL     OW11563   2.522   2.063   5.020
 3555SOL    HW111564   2.507   2.162   5.028
 3555SOL    HW211565   2.582   2.033   5.095
 3556SOL     OW11566   4.926   0.661   5.731
 3556SOL    HW111567   4.864   0.614   5.792
 3556SOL    HW211568   4.985   0.594   5.685
 3557SOL     OW11569   6.580   1.123   1.397
 3557SOL    HW111570   6.537   1.048   1.347
 3557SOL    HW211571   6.516   1.198   1.409
 3558SOL     OW11572   3.295   6.158   1.663
 3558SOL    HW111573   3.229   6.113   1.723
 3558SOL    HW211574   3.272   6.255   1.654
 3559SOL     OW11575   4.000   6.205   4.518
 3559SOL    HW111576   3.916   6.164   4.482
 3559SOL    HW211577   4.025   6.159   4.603
 3560SOL     OW11578   2.267   5.879   4.343
 3560SOL    HW111579   2.306   5.968   4.319
 3560SOL    HW211580   2.169   5.878   4.323
 3561SOL     OW11581   4.872   4.079   5.272
 3561SOL    HW111582   4.875   4.161   5.215
 3561SOL    HW211583   4.835   4.102   5.362
 3562SOL     OW11584   1.972   1.433   5.539
 3562SOL    HW111585   2.033   1.512   5.549
 3562SOL    HW211586   2.025   1.349   5.552
 3563SOL     OW11587   5.531   2.346   5.247
 3563SOL    HW111588   5.565   2.435   5.215
 3563SOL    HW211589   5.593   2.310   5.317
 3564SOL     OW11590   6.521   4.157   1.925
 3564SOL    HW111591   6.616   4.190   1.922
 3564SOL    HW211592   6.515   4.080   1.989
 3565SOL     OW11593   3.781   5.561   3.165
 3565SOL    HW111594   3.875   5.595   3.164
 3565SOL    HW211595   3.754   5.540   3.259
 3566SOL     OW11596   1.128   0.602   5.527
 3566SOL    HW111597   1.116   0.513   5.571
 3566SOL    HW211598   1.090   0.673   5.585
 3567SOL     OW11599   0.804   4.128   6.288
 3567SOL    HW111600   0.818   4.165   6.196
 3567SOL    HW211601   0.811   4.028   6.285
 3568SOL     OW11602   6.148   3.923   5.884
 3568SOL    HW111603   6.119   4.013   5.917
 3568SOL    HW211604   6.123   3.913   5.788
 3569SOL     OW11605   1.877   2.055   5.224
 3569SOL    HW111606   1.828   2.141   5.239
 3569SOL    HW211607   1.938   2.064   5.146
 3570SOL     OW11608   6.182   1.225   4.222
 3570SOL    HW111609   6.136   1.313   4.215
 3570SOL    HW211610   6.176   1.177   4.135
 3571SOL     OW11611   6.056   5.866   6.386
 3571SOL    HW111612   6.039   5.897   6.480
 3571SOL    HW211613   6.142   5.816   6.383
 3572SOL     OW11614   5.673   4.236   4.575
 3572SOL    HW111615   5.704   4.176   4.649
 3572SOL    HW211616   5.639   4.181   4.499
 3573SOL     OW11617   1.230   3.174   3.293
 3573SOL    HW111618   1.296   3.248   3.276
 3573SOL    HW211619   1.264   3.116   3.367
 3574SOL     OW11620   0.656   4.122   0.586
 3574SOL    HW111621   0.579   4.176   0.553
 3574SOL    HW211622   0.671   4.140   0.683
 3575SOL     OW11623   5.939   4.930   2.235
 3575SOL    HW111624   5.887   4.958   2.316
 3575SOL    HW211625   5.899   4.972   2.154
 3576SOL     OW11626   0.549   1.166   6.012
 3576SOL    HW111627   0.453   1.166   5.987
 3576SOL    HW211628   0.560   1.123   6.101
 3577SOL     OW11629   0.102   2.996   6.728
 3577SOL    HW111630   0.137   2.925   6.667
 3577SOL    HW211631   0.165   3.074   6.727
 3578SOL     OW11632   2.941   4.734   0.390
 3578SOL    HW111633   2.847   4.735   0.357
 3578SOL    HW211634   2.944   4.693   0.481
 3579SOL     OW11635   6.586   3.797   4.883
 3579SOL    HW111636   6.551   3.867   4.820
 3579SOL    HW211637   6.571   3.707   4.844
 3580SOL     OW11638   6.685   1.728   2.082
 3580SOL    HW111639   6.776   1.716   2.122
 3580SOL    HW211640   6.650   1.819   2.105
 3581SOL     OW11641   0.436   0.616   2.268
 3581SOL    HW111642   0.384   0.662   2.197
 3581SOL    HW211643   0.389   0.532   2.296
 3582SOL     OW11644   1.457   0.057   5.883
 3582SOL    HW111645   1.435   0.128   5.816
 3582SOL    HW211646   1.378   7.015   5.893
 3583SOL     OW11647   0.938   5.563   6.888
 3583SOL    HW111648   0.991   5.564   6.973
 3583SOL    HW211649   0.978   5.496   6.825
 3584SOL     OW11650   5.103   6.343   6.525
 3584SOL    HW111651   5.099   6.243   6.518
 3584SOL    HW211652   5.175   6.369   6.590
 3585SOL     OW11653   3.369   4.929   4.428
 3585SOL    HW111654   3.329   4.913   4.518
 3585SOL    HW211655   3.296   4.933   4.360
 3586SOL     OW11656   6.238   3.717   6.049
 3586SOL    HW111657   6.222   3.806   6.007
 3586SOL    HW211658   6.316   3.673   6.003
 3587SOL     OW11659   3.987   6.700   0.591
 3587SOL    HW111660   3.986   6.689   0.492
 3587SOL    HW211661   3.893   6.711   0.625
 3588SOL     OW11662   1.328   2.410   6.137
 3588SOL    HW111663   1.347   2.444   6.045
 3588SOL    HW211664   1.392   2.336   6.159
 3589SOL     OW11665   2.950   0.702   5.422
 3589SOL    HW111666   2.951   0.777   5.488
 3589SOL    HW211667   2.899   0.625   5.460
 3590SOL     OW11668   1.517   5.360   5.895
 3590SOL    HW111669   1.615   5.343   5.885
 3590SOL    HW211670   1.466   5.290   5.844
 3591SOL     OW11671   5.076   2.257   6.190
 3591SOL    HW111672   5.015   2.260   6.111
 3591SOL    HW211673   5.158   2.312   6.171
 3592SOL     OW11674   5.606   2.740   2.891
 3592SOL    HW111675   5.665   2.672   2.935
 3592SOL    HW211676   5.550   2.696   2.821
 3593SOL     OW11677   1.635   6.598   3.912
 3593SOL    HW111678   1.548   6.549   3.909
 3593SOL    HW211679   1.622   6.693   3.883
 3594SOL     OW11680   2.629   1.261   3.841
 3594SOL    HW111681   2.627   1.287   3.937
 3594SOL    HW211682   2.720   1.228   3.817
 3595SOL     OW11683   2.717   6.434   6.350
 3595SOL    HW111684   2.662   6.353   6.331
 3595SOL    HW211685   2.660   6.505   6.392
 3596SOL     OW11686   6.532   1.240   2.097
 3596SOL    HW111687   6.540   1.284   2.008
 3596SOL    HW211688   6.440   1.255   2.133
 3597SOL     OW11689   3.782   6.179   4.316
 3597SOL    HW111690   3.823   6.124   4.243
 3597SOL    HW211691   3.688   6.203   4.291
 3598SOL     OW11692   1.224   6.924   5.867
 3598SOL    HW111693   1.263   6.880   5.948
 3598SOL    HW211694   1.229   6.861   5.790
 3599SOL     OW11695   6.986   1.941   5.287
 3599SOL    HW111696   0.004   2.015   5.341
 3599SOL    HW211697   0.015   1.937   5.199
 3600SOL     OW11698   5.914   2.450   0.936
 3600SOL    HW111699   5.853   2.379   0.972
 3600SOL    HW211700   5.927   2.522   1.004
 3601SOL     OW11701   0.214   3.921   0.226
 3601SOL    HW111702   0.256   3.831   0.223
 3601SOL    HW211703   0.225   3.967   0.138
 3602SOL     OW11704   2.222   1.099   6.729
 3602SOL    HW111705   2.130   1.124   6.700
 3602SOL    HW211706   2.246   1.009   6.693
 3603SOL     OW11707   3.928   4.864   4.093
 3603SOL    HW111708   3.956   4.768   4.095
 3603SOL    HW211709   3.885   4.888   4.180
 3604SOL     OW11710   0.307   2.157   2.976
 3604SOL    HW111711   0.220   2.200   3.000
 3604SOL    HW211712   0.292   2.062   2.951
 3605SOL     OW11713   5.780   3.842   6.420
 3605SOL    HW111714   5.834   3.856   6.504
 3605SOL    HW211715   5.683   3.849   6.441
 3606SOL     OW11716   6.781   4.557   5.356
 3606SOL    HW111717   6.858   4.506   5.396
 3606SOL    HW211718   6.716   4.581   5.428
 3607SOL     OW11719   5.212   6.924   0.888
 3607SOL    HW111720   5.298   6.943   0.840
 3607SOL    HW211721   5.138   6.918   0.822
 3608SOL     OW11722   0.760   2.108   1.630
 3608SOL    HW111723   0.842   2.152   1.593
 3608SOL    HW211724   0.689   2.176   1.645
 3609SOL     OW11725   6.478   1.090   5.288
 3609SOL    HW111726   6.520   1.180   5.297
 3609SOL    HW211727   6.538   1.021   5.329
 3610SOL     OW11728   0.992   6.291   5.777
 3610SOL    HW111729   0.988   6.220   5.707
 3610SOL    HW211730   1.002   6.380   5.733
 3611SOL     OW11731   3.326   5.455   5.153
 3611SOL    HW111732   3.310   5.456   5.251
 3611SOL    HW211733   3.378   5.373   5.128
 3612SOL     OW11734   0.994   6.238   0.574
 3612SOL    HW111735   1.032   6.159   0.621
 3612SOL    HW211736   1.062   6.275   0.510
 3613SOL     OW11737   5.414   4.867   0.358
 3613SOL    HW111738   5.439   4.775   0.328
 3613SOL    HW211739   5.328   4.863   0.409
 3614SOL     OW11740   3.693   3.169   2.751
 3614SOL    HW111741   3.685   3.166   2.851
 3614SOL    HW211742   3.631   3.239   2.715
 3615SOL     OW11743   5.712   5.712   5.494
 3615SOL    HW111744   5.620   5.749   5.505
 3615SOL    HW211745   5.768   5.776   5.442
 3616SOL     OW11746   6.792   2.286   5.586
 3616SOL    HW111747   6.871   2.347   5.590
 3616SOL    HW211748   6.805   2.219   5.513
 3617SOL     OW11749   6.694   2.076   6.095
 3617SOL    HW111750   6.657   2.060   6.187
 3617SOL    HW211751   6.636   2.142   6.047
 3618SOL     OW11752   1.837   1.848   5.853
 3618SOL    HW111753   1.774   1.829   5.778
 3618SOL    HW211754   1.922   1.797   5.840
 3619SOL     OW11755   5.766   1.922   4.001
 3619SOL    HW111756   5.863   1.939   4.016
 3619SOL    HW211757   5.751   1.897   3.905
 3620SOL     OW11758   5.746   0.413   5.495
 3620SOL    HW111759   5.646   0.425   5.499
 3620SOL    HW211760   5.790   0.503   5.497
 3621SOL     OW11761   2.658   2.741   5.625
 3621SOL    HW111762   2.580   2.794   5.591
 3621SOL    HW211763   2.625   2.668   5.685
 3622SOL     OW11764   0.823   1.748   2.465
 3622SOL    HW111765   0.772   1.677   2.513
 3622SOL    HW211766   0.793   1.838   2.497
 3623SOL     OW11767   5.387   5.009   3.853
 3623SOL    HW111768   5.456   5.078   3.833
 3623SOL    HW211769   5.431   4.919   3.858
 3624SOL     OW11770   2.483   6.981   3.191
 3624SOL    HW111771   2.405   0.013   3.154
 3624SOL    HW211772   2.565   0.019   3.184
 3625SOL     OW11773   5.922   3.264   5.825
 3625SOL    HW111774   5.851   3.314   5.777
 3625SOL    HW211775   5.982   3.328   5.873
 3626SOL     OW11776   1.864   3.589   4.959
 3626SOL    HW111777   1.806   3.527   5.012
 3626SOL    HW211778   1.874   3.675   5.009
 3627SOL     OW11779   3.676   3.859   3.277
 3627SOL    HW111780   3.772   3.831   3.269
 3627SOL    HW211781   3.660   3.939   3.218
 3628SOL     OW11782   2.185   5.785   2.181
 3628SOL    HW111783   2.116   5.716   2.202
 3628SOL    HW211784   2.271   5.740   2.157
 3629SOL     OW11785   5.856   1.978   5.501
 3629SOL    HW111786   5.764   1.942   5.487
 3629SOL    HW211787   5.918   1.939   5.432
 3630SOL     OW11788   5.778   2.391   5.004
 3630SOL    HW111789   5.790   2.368   4.908
 3630SOL    HW211790   5.781   2.307   5.059
 3631SOL     OW11791   2.550   0.014   4.367
 3631SOL    HW111792   2.559   6.933   4.374
 3631SOL    HW211793   2.545   0.054   4.459
 3632SOL     OW11794   5.072   0.923   1.111
 3632SOL    HW111795   5.071   1.020   1.134
 3632SOL    HW211796   5.152   0.902   1.055
 3633SOL     OW11797   2.875   2.611   6.135
 3633SOL    HW111798   2.861   2.689   6.196
 3633SOL    HW211799   2.892   2.644   6.042
 3634SOL     OW11800   1.595   6.421   4.875
 3634SOL    HW111801   1.542   6.489   4.825
 3634SOL    HW211802   1.681   6.462   4.906
 3635SOL     OW11803   2.589   1.500   5.279
 3635SOL    HW111804   2.669   1.515   5.337
 3635SOL    HW211805   2.598   1.554   5.195
 3636SOL     OW11806   0.246   5.984   6.222
 3636SOL    HW111807   0.177   5.995   6.151
 3636SOL    HW211808   0.234   6.055   6.292
 3637SOL     OW11809   5.927   1.606   1.927
 3637SOL    HW111810   5.907   1.528   1.868
 3637SOL    HW211811   6.021   1.600   1.959
 3638SOL     OW11812   6.462   4.427   4.167
 3638SOL    HW111813   6.514   4.365   4.108
 3638SOL    HW211814   6.510   4.438   4.254
 3639SOL     OW11815   3.005   4.180   0.944
 3639SOL    HW111816   2.952   4.153   0.863
 3639SOL    HW211817   3.004   4.106   1.011
 3640SOL     OW11818   2.980   6.292   0.588
 3640SOL    HW111819   2.886   6.280   0.620
 3640SOL    HW211820   3.037   6.219   0.626
 3641SOL     OW11821   3.427   1.550   4.875
 3641SOL    HW111822   3.484   1.575   4.797
 3641SOL    HW211823   3.378   1.631   4.908
 3642SOL     OW11824   4.613   0.562   5.357
 3642SOL    HW111825   4.661   0.611   5.284
 3642SOL    HW211826   4.669   0.562   5.440
 3643SOL     OW11827   2.976   5.503   4.897
 3643SOL    HW111828   2.901   5.450   4.935
 3643SOL    HW211829   3.011   5.566   4.966
 3644SOL     OW11830   6.574   2.532   1.104
 3644SOL    HW111831   6.481   2.553   1.076
 3644SOL    HW211832   6.572   2.462   1.175
 3645SOL     OW11833   5.109   1.757   3.731
 3645SOL    HW111834   5.139   1.668   3.696
 3645SOL    HW211835   5.078   1.814   3.655
 3646SOL     OW11836   0.428   5.087   5.450
 3646SOL    HW111837   0.435   5.019   5.377
 3646SOL    HW211838   0.332   5.104   5.471
 3647SOL     OW11839   0.931   3.062   0.305
 3647SOL    HW111840   0.856   3.009   0.346
 3647SOL    HW211841   0.971   3.011   0.229
 3648SOL     OW11842   4.307   5.244   2.235
 3648SOL    HW111843   4.398   5.286   2.242
 3648SOL    HW211844   4.294   5.180   2.310
 3649SOL     OW11845   4.404   3.782   0.805
 3649SOL    HW111846   4.321   3.742   0.765
 3649SOL    HW211847   4.378   3.847   0.876
 3650SOL     OW11848   6.863   6.639   1.303
 3650SOL    HW111849   6.963   6.647   1.301
 3650SOL    HW211850   6.835   6.559   1.251
 3651SOL     OW11851   0.885   6.177   2.482
 3651SOL    HW111852   0.975   6.139   2.505
 3651SOL    HW211853   0.880   6.193   2.383
 3652SOL     OW11854   4.799   6.480   3.618
 3652SOL    HW111855   4.866   6.516   3.554
 3652SOL    HW211856   4.707   6.505   3.588
 3653SOL     OW11857   5.960   1.347   3.263
 3653SOL    HW111858   5.912   1.428   3.231
 3653SOL    HW211859   6.030   1.373   3.330
 3654SOL     OW11860   2.477   6.422   0.594
 3654SOL    HW111861   2.541   6.389   0.662
 3654SOL    HW211862   2.393   6.452   0.638
 3655SOL     OW11863   1.537   0.088   4.299
 3655SOL    HW111864   1.535   7.008   4.283
 3655SOL    HW211865   1.629   0.123   4.282
 3656SOL     OW11866   1.918   2.202   2.299
 3656SOL    HW111867   1.968   2.260   2.364
 3656SOL    HW211868   1.974   2.188   2.217
 3657SOL     OW11869   4.107   5.628   6.841
 3657SOL    HW111870   4.039   5.681   6.892
 3657SOL    HW211871   4.191   5.680   6.833
 3658SOL     OW11872   1.072   5.687   4.971
 3658SOL    HW111873   1.033   5.724   4.887
 3658SOL    HW211874   1.002   5.635   5.020
 3659SOL     OW11875   3.054   4.519   0.039
 3659SOL    HW111876   3.144   4.532   7.017
 3659SOL    HW211877   2.995   4.596   0.015
 3660SOL     OW11878   4.785   6.152   2.085
 3660SOL    HW111879   4.808   6.244   2.117
 3660SOL    HW211880   4.792   6.087   2.161
 3661SOL     OW11881   5.221   2.072   0.627
 3661SOL    HW111882   5.155   2.142   0.654
 3661SOL    HW211883   5.288   2.060   0.700
 3662SOL     OW11884   3.578   6.998   5.057
 3662SOL    HW111885   3.660   6.943   5.063
 3662SOL    HW211886   3.538   7.008   5.148
 3663SOL     OW11887   1.623   1.650   0.606
 3663SOL    HW111888   1.654   1.561   0.571
 3663SOL    HW211889   1.683   1.678   0.681
 3664SOL     OW11890   4.785   1.644   0.393
 3664SOL    HW111891   4.866   1.645   0.451
 3664SOL    HW211892   4.813   1.645   0.297
 3665SOL     OW11893   0.628   6.678   5.335
 3665SOL    HW111894   0.644   6.758   5.277
 3665SOL    HW211895   0.705   6.666   5.397
 3666SOL     OW11896   1.735   4.628   3.973
 3666SOL    HW111897   1.646   4.582   3.966
 3666SOL    HW211898   1.739   4.704   3.908
 3667SOL     OW11899   5.862   1.044   6.582
 3667SOL    HW111900   5.959   1.026   6.567
 3667SOL    HW211901   5.821   1.085   6.501
 3668SOL     OW11902   1.243   0.173   2.712
 3668SOL    HW111903   1.170   0.111   2.741
 3668SOL    HW211904   1.309   0.185   2.787
 3669SOL     OW11905   5.937   1.851   4.612
 3669SOL    HW111906   5.918   1.910   4.534
 3669SOL    HW211907   5.854   1.804   4.640
 3670SOL     OW11908   2.455   5.163   6.993
 3670SOL    HW111909   2.426   5.245   6.943
 3670SOL    HW211910   2.538   5.183   0.026
 3671SOL     OW11911   6.627   0.594   2.984
 3671SOL    HW111912   6.582   0.542   3.056
 3671SOL    HW211913   6.651   0.685   3.019
 3672SOL     OW11914   6.521   1.943   0.464
 3672SOL    HW111915   6.502   1.909   0.372
 3672SOL    HW211916   6.613   1.915   0.491
 3673SOL     OW11917   4.075   1.380   6.182
 3673SOL    HW111918   4.042   1.353   6.272
 3673SOL    HW211919   4.155   1.325   6.157
 3674SOL     OW11920   0.454   6.413   6.769
 3674SOL    HW111921   0.548   6.434   6.742
 3674SOL    HW211922   0.444   6.425   6.868
 3675SOL     OW11923   1.619   2.562   5.470
 3675SOL    HW111924   1.558   2.491   5.436
 3675SOL    HW211925   1.566   2.641   5.500
 3676SOL     OW11926   3.259   5.162   3.933
 3676SOL    HW111927   3.319   5.235   3.965
 3676SOL    HW211928   3.164   5.188   3.949
 3677SOL     OW11929   0.204   6.426   3.063
 3677SOL    HW111930   0.233   6.521   3.073
 3677SOL    HW211931   0.264   6.380   2.997
 3678SOL     OW11932   1.362   2.197   3.811
 3678SOL    HW111933   1.386   2.225   3.718
 3678SOL    HW211934   1.441   2.212   3.871
 3679SOL     OW11935   0.278   1.053   2.690
 3679SOL    HW111936   0.303   1.055   2.593
 3679SOL    HW211937   0.284   0.960   2.724
 3680SOL     OW11938   6.091   2.627   3.896
 3680SOL    HW111939   6.003   2.593   3.864
 3680SOL    HW211940   6.137   2.557   3.950
 3681SOL     OW11941   1.158   0.560   6.080
 3681SOL    HW111942   1.188   0.653   6.062
 3681SOL    HW211943   1.077   0.562   6.138
 3682SOL     OW11944   6.660   1.823   5.424
 3682SOL    HW111945   6.666   1.877   5.508
 3682SOL    HW211946   6.566   1.790   5.413
 3683SOL     OW11947   6.444   6.491   4.340
 3683SOL    HW111948   6.409   6.425   4.407
 3683SOL    HW211949   6.499   6.443   4.272
 3684SOL     OW11950   2.016   2.966   1.820
 3684SOL    HW111951   2.094   3.024   1.796
 3684SOL    HW211952   2.046   2.895   1.884
 3685SOL     OW11953   6.301   5.735   6.327
 3685SOL    HW111954   6.322   5.665   6.259
 3685SOL    HW211955   6.382   5.791   6.344
 3686SOL     OW11956   6.428   4.522   2.293
 3686SOL    HW111957   6.454   4.469   2.212
 3686SOL    HW211958   6.377   4.464   2.356
 3687SOL     OW11959   3.173   6.544   6.936
 3687SOL    HW111960   3.200   6.474   6.870
 3687SOL    HW211961   3.246   6.556   7.004
 3688SOL     OW11962   0.652   3.548   6.940
 3688SOL    HW111963   0.692   3.459   6.917
 3688SOL    HW211964   0.554   3.538   6.951
 3689SOL     OW11965   1.440   0.917   5.405
 3689SOL    HW111966   1.514   0.915   5.338
 3689SOL    HW211967   1.447   0.838   5.465
 3690SOL     OW11968   4.904   0.995   5.928
 3690SOL    HW111969   4.868   1.085   5.905
 3690SOL    HW211970   4.834   0.942   5.975
 3691SOL     OW11971   2.731   3.387   6.670
 3691SOL    HW111972   2.686   3.396   6.581
 3691SOL    HW211973   2.789   3.305   6.670
 3692SOL     OW11974   0.836   5.980   4.481
 3692SOL    HW111975   0.744   5.944   4.463
 3692SOL    HW211976   0.857   6.052   4.416
 3693SOL     OW11977   1.968   2.304   3.200
 3693SOL    HW111978   1.871   2.316   3.224
 3693SOL    HW211979   1.976   2.290   3.101
 3694SOL     OW11980   0.822   5.749   3.574
 3694SOL    HW111981   0.850   5.760   3.670
 3694SOL    HW211982   0.740   5.693   3.569
 3695SOL     OW11983   0.912   2.363   2.695
 3695SOL    HW111984   0.824   2.405   2.717
 3695SOL    HW211985   0.905   2.264   2.702
 3696SOL     OW11986   4.377   6.023   5.696
 3696SOL    HW111987   4.407   5.928   5.682
 3696SOL    HW211988   4.457   6.083   5.691
 3697SOL     OW11989   6.992   6.662   3.443
 3697SOL    HW111990   0.029   6.638   3.523
 3697SOL    HW211991   6.923   6.591   3.429
 3698SOL     OW11992   3.497   0.408   5.266
 3698SOL    HW111993   3.460   0.465   5.193
 3698SOL    HW211994   3.522   0.466   5.344
 3699SOL     OW11995   0.078   3.733   2.722
 3699SOL    HW111996   6.997   3.729   2.716
 3699SOL    HW211997   0.105   3.801   2.790
 3700SOL     OW11998   6.026   6.861   4.279
 3700SOL    HW111999   5.993   6.767   4.281
 3700SOL    HW212000   6.076   6.881   4.363
 3701SOL     OW12001   0.446   0.927   4.284
 3701SOL    HW112002   0.465   0.869   4.206
 3701SOL    HW212003   0.397   0.874   4.354
 3702SOL     OW12004   4.356   0.314   1.590
 3702SOL    HW112005   4.441   0.366   1.586
 3702SOL    HW212006   4.342   0.281   1.683
 3703SOL     OW12007   3.994   4.080   5.728
 3703SOL    HW112008   4.012   4.157   5.666
 3703SOL    HW212009   3.896   4.066   5.737
 3704SOL     OW12010   2.787   1.330   2.530
 3704SOL    HW112011   2.867   1.272   2.516
 3704SOL    HW212012   2.754   1.319   2.624
 3705SOL     OW12013   4.702   0.600   3.999
 3705SOL    HW112014   4.656   0.554   3.924
 3705SOL    HW212015   4.799   0.574   4.000
 3706SOL     OW12016   1.795   2.971   4.752
 3706SOL    HW112017   1.720   2.915   4.716
 3706SOL    HW212018   1.813   3.046   4.689
 3707SOL     OW12019   5.149   2.502   6.065
 3707SOL    HW112020   5.089   2.573   6.101
 3707SOL    HW212021   5.180   2.528   5.973
 3708SOL     OW12022   6.328   0.852   6.635
 3708SOL    HW112023   6.243   0.882   6.593
 3708SOL    HW212024   6.405   0.876   6.575
 3709SOL     OW12025   3.503   0.960   5.654
 3709SOL    HW112026   3.578   0.953   5.588
 3709SOL    HW212027   3.539   0.960   5.747
 3710SOL     OW12028   6.661   5.666   0.097
 3710SOL    HW112029   6.594   5.740   0.084
 3710SOL    HW212030   6.716   5.684   0.178
 3711SOL     OW12031   0.301   5.878   2.790
 3711SOL    HW112032   0.207   5.874   2.823
 3711SOL    HW212033   0.363   5.883   2.868
 3712SOL     OW12034   0.184   6.622   6.828
 3712SOL    HW112035   0.277   6.659   6.829
 3712SOL    HW212036   0.188   6.522   6.836
 3713SOL     OW12037   2.209   5.838   5.165
 3713SOL    HW112038   2.146   5.839   5.243
 3713SOL    HW212039   2.228   5.933   5.136
 3714SOL     OW12040   5.017   6.623   4.295
 3714SOL    HW112041   5.039   6.642   4.391
 3714SOL    HW212042   5.038   6.703   4.240
 3715SOL     OW12043   5.988   4.706   4.608
 3715SOL    HW112044   5.900   4.668   4.580
 3715SOL    HW212045   5.973   4.779   4.675
 3716SOL     OW12046   6.514   0.136   4.399
 3716SOL    HW112047   6.611   0.150   4.420
 3716SOL    HW212048   6.470   0.225   4.386
 3717SOL     OW12049   6.217   5.723   0.955
 3717SOL    HW112050   6.308   5.685   0.975
 3717SOL    HW212051   6.148   5.671   1.004
 3718SOL     OW12052   1.177   6.507   6.774
 3718SOL    HW112053   1.217   6.580   6.719
 3718SOL    HW212054   1.089   6.537   6.810
 3719SOL     OW12055   4.919   4.632   0.491
 3719SOL    HW112056   4.861   4.687   0.551
 3719SOL    HW212057   4.965   4.561   0.544
 3720SOL     OW12058   6.534   2.041   6.336
 3720SOL    HW112059   6.446   2.038   6.288
 3720SOL    HW212060   6.550   1.953   6.381
 3721SOL     OW12061   6.080   4.996   6.609
 3721SOL    HW112062   6.066   4.918   6.548
 3721SOL    HW212063   6.177   5.021   6.607
 3722SOL     OW12064   6.830   5.890   2.520
 3722SOL    HW112065   6.748   5.939   2.492
 3722SOL    HW212066   6.870   5.843   2.441
 3723SOL     OW12067   5.663   6.688   2.073
 3723SOL    HW112068   5.667   6.589   2.068
 3723SOL    HW212069   5.752   6.724   2.102
 3724SOL     OW12070   1.574   4.966   6.698
 3724SOL    HW112071   1.491   4.916   6.722
 3724SOL    HW212072   1.573   5.056   6.741
 3725SOL     OW12073   6.289   6.211   0.062
 3725SOL    HW112074   6.364   6.184   0.002
 3725SOL    HW212075   6.323   6.221   0.155
 3726SOL     OW12076   6.551   3.677   1.906
 3726SOL    HW112077   6.560   3.769   1.869
 3726SOL    HW212078   6.455   3.650   1.907
 3727SOL     OW12079   0.576   3.425   5.773
 3727SOL    HW112080   0.608   3.375   5.854
 3727SOL    HW212081   0.603   3.376   5.690
 3728SOL     OW12082   2.302   3.323   0.718
 3728SOL    HW112083   2.336   3.282   0.803
 3728SOL    HW212084   2.367   3.392   0.687
 3729SOL     OW12085   0.780   2.049   3.058
 3729SOL    HW112086   0.728   1.979   3.108
 3729SOL    HW212087   0.730   2.135   3.062
 3730SOL     OW12088   2.683   0.646   0.167
 3730SOL    HW112089   2.632   0.642   0.252
 3730SOL    HW212090   2.629   0.604   0.094
 3731SOL     OW12091   5.197   1.738   0.784
 3731SOL    HW112092   5.130   1.811   0.798
 3731SOL    HW212093   5.267   1.769   0.719
 3732SOL     OW12094   2.303   3.352   5.818
 3732SOL    HW112095   2.246   3.408   5.877
 3732SOL    HW212096   2.250   3.275   5.783
 3733SOL     OW12097   2.766   4.012   1.630
 3733SOL    HW112098   2.814   4.080   1.686
 3733SOL    HW212099   2.679   3.990   1.672
 3734SOL     OW12100   4.666   1.157   2.542
 3734SOL    HW112101   4.751   1.167   2.490
 3734SOL    HW212102   4.662   1.228   2.613
 3735SOL     OW12103   1.414   2.047   2.433
 3735SOL    HW112104   1.481   2.005   2.494
 3735SOL    HW212105   1.322   2.021   2.461
 3736SOL     OW12106   0.300   2.774   1.029
 3736SOL    HW112107   0.377   2.837   1.018
 3736SOL    HW212108   0.234   2.789   0.955
 3737SOL     OW12109   5.344   0.028   3.301
 3737SOL    HW112110   5.319   0.003   3.395
 3737SOL    HW212111   5.443   0.024   3.292
 3738SOL     OW12112   6.033   5.875   2.969
 3738SOL    HW112113   6.014   5.926   2.885
 3738SOL    HW212114   5.954   5.820   2.994
 3739SOL     OW12115   1.580   3.861   2.342
 3739SOL    HW112116   1.529   3.938   2.303
 3739SOL    HW212117   1.678   3.876   2.328
 3740SOL     OW12118   4.758   1.232   6.673
 3740SOL    HW112119   4.783   1.138   6.696
 3740SOL    HW212120   4.712   1.233   6.584
 3741SOL     OW12121   4.152   3.654   1.040
 3741SOL    HW112122   4.200   3.595   0.975
 3741SOL    HW212123   4.077   3.701   0.993
 3742SOL     OW12124   3.049   2.203   6.211
 3742SOL    HW112125   3.001   2.226   6.296
 3742SOL    HW212126   3.122   2.270   6.195
 3743SOL     OW12127   6.270   5.264   0.089
 3743SOL    HW112128   6.241   5.168   0.097
 3743SOL    HW212129   6.336   5.284   0.161
 3744SOL     OW12130   0.685   4.778   4.059
 3744SOL    HW112131   0.691   4.764   3.961
 3744SOL    HW212132   0.591   4.760   4.089
 3745SOL     OW12133   3.790   5.588   2.595
 3745SOL    HW112134   3.849   5.669   2.593
 3745SOL    HW212135   3.744   5.582   2.684
 3746SOL     OW12136   4.578   1.641   1.295
 3746SOL    HW112137   4.533   1.683   1.374
 3746SOL    HW212138   4.592   1.543   1.313
 3747SOL     OW12139   3.247   6.429   6.451
 3747SOL    HW112140   3.192   6.508   6.422
 3747SOL    HW212141   3.234   6.354   6.387
 3748SOL     OW12142   5.901   0.965   1.341
 3748SOL    HW112143   5.998   0.972   1.366
 3748SOL    HW212144   5.872   0.870   1.343
 3749SOL     OW12145   1.543   6.845   4.270
 3749SOL    HW112146   1.602   6.780   4.224
 3749SOL    HW212147   1.447   6.817   4.260
 3750SOL     OW12148   0.757   4.099   0.247
 3750SOL    HW112149   0.658   4.096   0.230
 3750SOL    HW212150   0.779   4.039   0.324
 3751SOL     OW12151   0.211   4.043   3.173
 3751SOL    HW112152   0.211   4.020   3.271
 3751SOL    HW212153   0.179   4.137   3.161
 3752SOL     OW12154   5.773   1.045   5.849
 3752SOL    HW112155   5.807   1.100   5.772
 3752SOL    HW212156   5.849   1.027   5.911
 3753SOL     OW12157   6.453   1.266   4.279
 3753SOL    HW112158   6.477   1.357   4.313
 3753SOL    HW212159   6.354   1.255   4.282
 3754SOL     OW12160   2.346   1.374   2.408
 3754SOL    HW112161   2.404   1.353   2.329
 3754SOL    HW212162   2.270   1.432   2.378
 3755SOL     OW12163   2.996   5.011   4.497
 3755SOL    HW112164   2.902   5.024   4.527
 3755SOL    HW212165   2.997   4.974   4.404
 3756SOL     OW12166   2.538   5.900   0.101
 3756SOL    HW112167   2.459   5.867   0.152
 3756SOL    HW212168   2.562   5.834   0.030
 3757SOL     OW12169   6.423   4.800   1.716
 3757SOL    HW112170   6.463   4.777   1.805
 3757SOL    HW212171   6.372   4.721   1.682
 3758SOL     OW12172   1.751   0.764   3.666
 3758SOL    HW112173   1.711   0.698   3.602
 3758SOL    HW212174   1.683   0.789   3.735
 3759SOL     OW12175   5.682   1.121   4.393
 3759SOL    HW112176   5.582   1.119   4.387
 3759SOL    HW212177   5.714   1.044   4.449
 3760SOL     OW12178   6.934   0.478   4.028
 3760SOL    HW112179   6.985   0.425   3.960
 3760SOL    HW212180   6.993   0.498   4.106
 3761SOL     OW12181   5.313   1.357   4.584
 3761SOL    HW112182   5.308   1.442   4.531
 3761SOL    HW212183   5.369   1.372   4.665
 3762SOL     OW12184   1.249   4.168   2.525
 3762SOL    HW112185   1.213   4.155   2.618
 3762SOL    HW212186   1.335   4.118   2.516
 3763SOL     OW12187   0.278   4.223   0.482
 3763SOL    HW112188   0.219   4.293   0.443
 3763SOL    HW212189   0.370   4.260   0.495
 3764SOL     OW12190   2.127   0.402   3.312
 3764SOL    HW112191   2.178   0.349   3.245
 3764SOL    HW212192   2.059   0.458   3.264
 3765SOL     OW12193   6.433   2.045   1.279
 3765SOL    HW112194   6.516   2.031   1.334
 3765SOL    HW212195   6.438   1.988   1.197
 3766SOL     OW12196   1.951   3.019   3.352
 3766SOL    HW112197   1.932   2.922   3.338
 3766SOL    HW212198   1.865   3.068   3.365
 3767SOL     OW12199   3.373   4.100   6.087
 3767SOL    HW112200   3.404   4.193   6.106
 3767SOL    HW212201   3.277   4.103   6.058
 3768SOL     OW12202   1.357   0.696   4.968
 3768SOL    HW112203   1.310   0.654   4.891
 3768SOL    HW212204   1.330   0.792   4.974
 3769SOL     OW12205   4.981   5.973   4.711
 3769SOL    HW112206   4.931   5.922   4.782
 3769SOL    HW212207   4.965   5.930   4.622
 3770SOL     OW12208   1.109   1.489   0.758
 3770SOL    HW112209   1.166   1.562   0.722
 3770SOL    HW212210   1.065   1.519   0.843
 3771SOL     OW12211   6.888   5.070   0.595
 3771SOL    HW112212   6.936   5.045   0.511
 3771SOL    HW212213   6.954   5.078   0.670
 3772SOL     OW12214   1.197   6.121   0.778
 3772SOL    HW112215   1.258   6.074   0.842
 3772SOL    HW212216   1.249   6.154   0.699
 3773SOL     OW12217   5.747   3.336   6.086
 3773SOL    HW112218   5.726   3.412   6.025
 3773SOL    HW212219   5.774   3.256   6.032
 3774SOL     OW12220   5.503   5.830   1.331
 3774SOL    HW112221   5.407   5.854   1.347
 3774SOL    HW212222   5.556   5.913   1.315
 3775SOL     OW12223   4.178   4.945   3.339
 3775SOL    HW112224   4.083   4.974   3.348
 3775SOL    HW212225   4.182   4.858   3.290
 3776SOL     OW12226   3.754   2.797   6.551
 3776SOL    HW112227   3.755   2.710   6.601
 3776SOL    HW212228   3.687   2.858   6.592
 3777SOL     OW12229   2.683   6.625   4.359
 3777SOL    HW112230   2.750   6.614   4.285
 3777SOL    HW212231   2.732   6.645   4.444
 3778SOL     OW12232   2.825   5.879   5.126
 3778SOL    HW112233   2.725   5.880   5.138
 3778SOL    HW212234   2.847   5.865   5.030
 3779SOL     OW12235   6.692   5.483   0.411
 3779SOL    HW112236   6.709   5.574   0.374
 3779SOL    HW212237   6.769   5.422   0.388
 3780SOL     OW12238   6.673   2.876   1.916
 3780SOL    HW112239   6.635   2.935   1.987
 3780SOL    HW212240   6.616   2.881   1.834
 3781SOL     OW12241   1.915   6.663   5.188
 3781SOL    HW112242   1.888   6.574   5.225
 3781SOL    HW212243   1.835   6.707   5.146
 3782SOL     OW12244   4.732   6.128   1.622
 3782SOL    HW112245   4.690   6.189   1.688
 3782SOL    HW212246   4.821   6.098   1.656
 3783SOL     OW12247   5.504   5.253   5.458
 3783SOL    HW112248   5.542   5.175   5.408
 3783SOL    HW212249   5.576   5.321   5.474
 3784SOL     OW12250   5.229   2.767   3.134
 3784SOL    HW112251   5.286   2.690   3.108
 3784SOL    HW212252   5.134   2.737   3.144
 3785SOL     OW12253   0.837   3.088   4.369
 3785SOL    HW112254   0.855   3.102   4.272
 3785SOL    HW212255   0.744   3.054   4.381
 3786SOL     OW12256   2.649   2.358   4.513
 3786SOL    HW112257   2.687   2.358   4.605
 3786SOL    HW212258   2.553   2.330   4.517
 3787SOL     OW12259   4.265   0.261   3.307
 3787SOL    HW112260   4.346   0.218   3.347
 3787SOL    HW212261   4.282   0.359   3.296
 3788SOL     OW12262   0.348   3.572   4.970
 3788SOL    HW112263   0.261   3.545   5.013
 3788SOL    HW212264   0.394   3.639   5.027
 3789SOL     OW12265   1.401   2.346   3.033
 3789SOL    HW112266   1.463   2.409   3.079
 3789SOL    HW212267   1.308   2.360   3.066
 3790SOL     OW12268   0.555   6.178   0.662
 3790SOL    HW112269   0.580   6.129   0.746
 3790SOL    HW212270   0.625   6.247   0.643
 3791SOL     OW12271   5.656   1.113   6.084
 3791SOL    HW112272   5.697   1.095   5.995
 3791SOL    HW212273   5.557   1.123   6.073
 3792SOL     OW12274   0.609   0.621   3.924
 3792SOL    HW112275   0.705   0.647   3.921
 3792SOL    HW212276   0.587   0.581   4.013
 3793SOL     OW12277   6.611   6.303   0.579
 3793SOL    HW112278   6.559   6.388   0.591
 3793SOL    HW212279   6.584   6.259   0.493
 3794SOL     OW12280   2.080   4.237   0.949
 3794SOL    HW112281   2.055   4.315   1.006
 3794SOL    HW212282   2.139   4.267   0.875
 3795SOL     OW12283   2.778   6.057   0.938
 3795SOL    HW112284   2.703   6.065   1.005
 3795SOL    HW212285   2.864   6.080   0.982
 3796SOL     OW12286   4.210   1.966   0.926
 3796SOL    HW112287   4.225   2.064   0.940
 3796SOL    HW212288   4.202   1.921   1.014
 3797SOL     OW12289   0.844   4.332   2.983
 3797SOL    HW112290   0.796   4.291   3.061
 3797SOL    HW212291   0.928   4.281   2.965
 3798SOL     OW12292   2.638   6.609   2.941
 3798SOL    HW112293   2.703   6.565   2.879
 3798SOL    HW212294   2.675   6.697   2.971
 3799SOL     OW12295   6.722   2.451   3.381
 3799SOL    HW112296   6.670   2.383   3.330
 3799SOL    HW212297   6.779   2.405   3.449
 3800SOL     OW12298   5.701   1.761   3.286
 3800SOL    HW112299   5.632   1.803   3.345
 3800SOL    HW212300   5.683   1.784   3.191
 3801SOL     OW12301   5.415   6.785   2.172
 3801SOL    HW112302   5.429   6.777   2.270
 3801SOL    HW212303   5.501   6.762   2.125
 3802SOL     OW12304   6.779   2.050   2.251
 3802SOL    HW112305   6.682   2.039   2.228
 3802SOL    HW212306   6.832   2.068   2.168
 3803SOL     OW12307   2.938   3.702   4.062
 3803SOL    HW112308   2.945   3.638   3.986
 3803SOL    HW212309   3.021   3.758   4.067
 3804SOL     OW12310   3.784   0.327   4.698
 3804SOL    HW112311   3.855   0.260   4.718
 3804SOL    HW212312   3.776   0.391   4.774
 3805SOL     OW12313   2.247   3.126   0.508
 3805SOL    HW112314   2.317   3.065   0.545
 3805SOL    HW212315   2.272   3.221   0.527
 3806SOL     OW12316   4.612   4.291   6.715
 3806SOL    HW112317   4.561   4.374   6.692
 3806SOL    HW212318   4.660   4.258   6.634
 3807SOL     OW12319   1.311   5.284   4.165
 3807SOL    HW112320   1.382   5.348   4.195
 3807SOL    HW212321   1.274   5.315   4.077
 3808SOL     OW12322   4.736   0.586   5.980
 3808SOL    HW112323   4.685   0.560   5.899
 3808SOL    HW212324   4.727   0.515   6.050
 3809SOL     OW12325   5.717   1.850   1.075
 3809SOL    HW112326   5.623   1.834   1.046
 3809SOL    HW212327   5.775   1.774   1.044
 3810SOL     OW12328   6.568   2.506   2.751
 3810SOL    HW112329   6.522   2.590   2.779
 3810SOL    HW212330   6.537   2.480   2.660
 3811SOL     OW12331   0.210   5.241   4.921
 3811SOL    HW112332   0.186   5.319   4.865
 3811SOL    HW212333   0.300   5.207   4.894
 3812SOL     OW12334   3.923   5.824   6.954
 3812SOL    HW112335   3.824   5.833   6.952
 3812SOL    HW212336   3.965   5.907   6.920
 3813SOL     OW12337   6.519   3.652   1.028
 3813SOL    HW112338   6.448   3.645   0.958
 3813SOL    HW212339   6.486   3.709   1.103
 3814SOL     OW12340   6.679   6.735   4.392
 3814SOL    HW112341   6.665   6.694   4.302
 3814SOL    HW212342   6.686   6.663   4.461
 3815SOL     OW12343   5.116   3.168   0.409
 3815SOL    HW112344   5.201   3.192   0.362
 3815SOL    HW212345   5.110   3.217   0.496
 3816SOL     OW12346   1.205   6.291   5.345
 3816SOL    HW112347   1.269   6.310   5.271
 3816SOL    HW212348   1.136   6.225   5.313
 3817SOL     OW12349   4.901   3.927   2.703
 3817SOL    HW112350   4.881   3.938   2.800
 3817SOL    HW212351   4.850   3.995   2.650
 3818SOL     OW12352   0.708   0.473   1.799
 3818SOL    HW112353   0.784   0.534   1.780
 3818SOL    HW212354   0.628   0.500   1.745
 3819SOL     OW12355   6.317   4.419   3.252
 3819SOL    HW112356   6.237   4.360   3.253
 3819SOL    HW212357   6.311   4.485   3.327
 3820SOL     OW12358   5.623   6.895   4.284
 3820SOL    HW112359   5.606   6.809   4.332
 3820SOL    HW212360   5.647   6.876   4.189
 3821SOL     OW12361   0.759   6.845   6.882
 3821SOL    HW112362   0.830   6.879   6.943
 3821SOL    HW212363   0.737   6.915   6.814
 3822SOL     OW12364   3.697   0.674   0.222
 3822SOL    HW112365   3.779   0.700   0.171
 3822SOL    HW212366   3.661   0.753   0.271
 3823SOL     OW12367   4.829   4.753   6.059
 3823SOL    HW112368   4.904   4.789   6.115
 3823SOL    HW212369   4.749   4.735   6.116
 3824SOL     OW12370   1.241   3.090   0.083
 3824SOL    HW112371   1.294   3.081   0.167
 3824SOL    HW212372   1.189   3.006   0.068
 3825SOL     OW12373   1.109   4.085   0.608
 3825SOL    HW112374   1.139   4.023   0.680
 3825SOL    HW212375   1.188   4.119   0.557
 3826SOL     OW12376   6.303   4.379   2.485
 3826SOL    HW112377   6.208   4.370   2.514
 3826SOL    HW212378   6.349   4.447   2.542
 3827SOL     OW12379   0.863   0.928   1.308
 3827SOL    HW112380   0.794   0.916   1.380
 3827SOL    HW212381   0.899   1.021   1.312
 3828SOL     OW12382   3.362   4.108   4.420
 3828SOL    HW112383   3.300   4.116   4.498
 3828SOL    HW212384   3.456   4.121   4.451
 3829SOL     OW12385   0.566   4.984   2.149
 3829SOL    HW112386   0.588   5.078   2.174
 3829SOL    HW212387   0.622   4.921   2.204
 3830SOL     OW12388   0.668   0.399   5.205
 3830SOL    HW112389   0.662   0.489   5.163
 3830SOL    HW212390   0.737   0.344   5.158
 3831SOL     OW12391   4.363   1.923   3.234
 3831SOL    HW112392   4.350   2.021   3.226
 3831SOL    HW212393   4.330   1.878   3.151
 3832SOL     OW12394   0.545   0.278   1.889
 3832SOL    HW112395   0.560   0.189   1.845
 3832SOL    HW212396   0.606   0.346   1.849
 3833SOL     OW12397   1.353   6.756   6.301
 3833SOL    HW112398   1.306   6.719   6.381
 3833SOL    HW212399   1.449   6.728   6.303
 3834SOL     OW12400   4.314   4.252   1.120
 3834SOL    HW112401   4.230   4.284   1.164
 3834SOL    HW212402   4.362   4.330   1.079
 3835SOL     OW12403   3.540   5.839   5.564
 3835SOL    HW112404   3.459   5.888   5.597
 3835SOL    HW212405   3.562   5.869   5.471
 3836SOL     OW12406   0.641   5.085   6.236
 3836SOL    HW112407   0.632   4.994   6.195
 3836SOL    HW212408   0.553   5.132   6.232
 3837SOL     OW12409   3.922   5.082   5.157
 3837SOL    HW112410   3.871   5.000   5.182
 3837SOL    HW212411   3.925   5.145   5.234
 3838SOL     OW12412   1.889   1.098   3.316
 3838SOL    HW112413   1.875   1.197   3.313
 3838SOL    HW212414   1.839   1.061   3.395
 3839SOL     OW12415   4.577   0.135   3.172
 3839SOL    HW112416   4.523   0.072   3.117
 3839SOL    HW212417   4.659   0.088   3.205
 3840SOL     OW12418   2.544   0.646   6.499
 3840SOL    HW112419   2.498   0.654   6.410
 3840SOL    HW212420   2.527   0.555   6.537
 3841SOL     OW12421   0.334   4.370   4.227
 3841SOL    HW112422   0.243   4.328   4.225
 3841SOL    HW212423   0.335   4.443   4.295
 3842SOL     OW12424   2.284   2.914   4.545
 3842SOL    HW112425   2.197   2.900   4.591
 3842SOL    HW212426   2.271   2.978   4.469
 3843SOL     OW12427   5.129   3.099   0.999
 3843SOL    HW112428   5.032   3.097   0.974
 3843SOL    HW212429   5.144   3.171   1.068
 3844SOL     OW12430   1.297   4.927   0.297
 3844SOL    HW112431   1.259   5.020   0.298
 3844SOL    HW212432   1.369   4.921   0.228
 3845SOL     OW12433   1.892   5.845   0.147
 3845SOL    HW112434   1.918   5.894   0.231
 3845SOL    HW212435   1.969   5.789   0.116
 3846SOL     OW12436   0.396   2.786   4.545
 3846SOL    HW112437   0.425   2.728   4.621
 3846SOL    HW212438   0.311   2.832   4.569
 3847SOL     OW12439   5.404   2.002   4.594
 3847SOL    HW112440   5.311   2.024   4.623
 3847SOL    HW212441   5.426   1.908   4.621
 3848SOL     OW12442   4.910   2.919   2.878
 3848SOL    HW112443   4.887   3.013   2.854
 3848SOL    HW212444   4.845   2.885   2.945
 3849SOL     OW12445   0.580   6.653   6.631
 3849SOL    HW112446   0.527   6.692   6.707
 3849SOL    HW212447   0.610   6.727   6.570
 3850SOL     OW12448   2.843   2.952   1.443
 3850SOL    HW112449   2.917   2.988   1.500
 3850SOL    HW212450   2.863   2.971   1.347
 3851SOL     OW12451   0.108   5.097   3.623
 3851SOL    HW112452   0.089   5.104   3.721
 3851SOL    HW212453   0.160   5.177   3.593
 3852SOL     OW12454   3.479   6.754   4.112
 3852SOL    HW112455   3.480   6.837   4.055
 3852SOL    HW212456   3.411   6.690   4.077
 3853SOL     OW12457   2.172   1.777   3.661
 3853SOL    HW112458   2.199   1.704   3.723
 3853SOL    HW212459   2.076   1.799   3.675
 3854SOL     OW12460   1.629   3.005   3.045
 3854SOL    HW112461   1.565   3.049   2.982
 3854SOL    HW212462   1.581   2.935   3.098
 3855SOL     OW12463   4.331   6.227   0.800
 3855SOL    HW112464   4.371   6.299   0.744
 3855SOL    HW212465   4.400   6.158   0.822
 3856SOL     OW12466   0.837   2.042   6.325
 3856SOL    HW112467   0.884   1.958   6.298
 3856SOL    HW212468   0.756   2.055   6.267
 3857SOL     OW12469   2.350   6.458   5.860
 3857SOL    HW112470   2.286   6.532   5.839
 3857SOL    HW212471   2.415   6.490   5.930
 3858SOL     OW12472   3.584   1.871   5.791
 3858SOL    HW112473   3.578   1.925   5.875
 3858SOL    HW212474   3.505   1.811   5.784
 3859SOL     OW12475   6.184   1.040   0.931
 3859SOL    HW112476   6.232   1.124   0.956
 3859SOL    HW212477   6.192   0.973   1.005
 3860SOL     OW12478   2.023   0.546   4.423
 3860SOL    HW112479   2.020   0.480   4.349
 3860SOL    HW212480   1.994   0.636   4.389
 3861SOL     OW12481   4.212   5.977   2.610
 3861SOL    HW112482   4.310   5.970   2.626
 3861SOL    HW212483   4.196   6.025   2.524
 3862SOL     OW12484   0.629   0.440   4.159
 3862SOL    HW112485   0.581   0.363   4.201
 3862SOL    HW212486   0.702   0.405   4.100
 3863SOL     OW12487   5.617   0.949   0.431
 3863SOL    HW112488   5.608   0.909   0.522
 3863SOL    HW212489   5.632   0.876   0.364
 3864SOL     OW12490   2.365   0.692   4.971
 3864SOL    HW112491   2.273   0.726   4.991
 3864SOL    HW212492   2.368   0.658   4.877
 3865SOL     OW12493   4.528   0.883   0.357
 3865SOL    HW112494   4.483   0.972   0.349
 3865SOL    HW212495   4.494   0.836   0.439
 3866SOL     OW12496   3.933   1.359   6.831
 3866SOL    HW112497   3.967   1.315   6.914
 3866SOL    HW212498   3.912   1.455   6.850
 3867SOL     OW12499   1.425   4.851   3.170
 3867SOL    HW112500   1.350   4.790   3.149
 3867SOL    HW212501   1.505   4.826   3.115
 3868SOL     OW12502   3.930   0.511   6.601
 3868SOL    HW112503   4.021   0.474   6.620
 3868SOL    HW212504   3.919   0.521   6.502
 3869SOL     OW12505   6.838   3.407   4.114
 3869SOL    HW112506   6.760   3.370   4.166
 3869SOL    HW212507   6.804   3.450   4.030
 3870SOL     OW12508   6.677   6.708   2.335
 3870SOL    HW112509   6.612   6.783   2.347
 3870SOL    HW212510   6.687   6.687   2.238
 3871SOL     OW12511   3.422   6.598   3.402
 3871SOL    HW112512   3.408   6.659   3.480
 3871SOL    HW212513   3.360   6.624   3.328
 3872SOL     OW12514   3.206   2.946   4.052
 3872SOL    HW112515   3.159   3.000   3.982
 3872SOL    HW212516   3.289   2.906   4.013
 3873SOL     OW12517   5.075   3.823   1.018
 3873SOL    HW112518   5.091   3.856   0.925
 3873SOL    HW212519   5.109   3.730   1.026
 3874SOL     OW12520   4.133   0.652   0.454
 3874SOL    HW112521   4.045   0.628   0.497
 3874SOL    HW212522   4.146   0.596   0.372
 3875SOL     OW12523   1.752   3.320   4.025
 3875SOL    HW112524   1.713   3.252   3.963
 3875SOL    HW212525   1.777   3.402   3.973
 3876SOL     OW12526   3.278   5.475   0.890
 3876SOL    HW112527   3.328   5.536   0.952
 3876SOL    HW212528   3.280   5.512   0.798
 3877SOL     OW12529   6.521   2.312   0.840
 3877SOL    HW112530   6.487   2.374   0.912
 3877SOL    HW212531   6.517   2.218   0.873
 3878SOL     OW12532   4.789   6.428   4.636
 3878SOL    HW112533   4.838   6.489   4.698
 3878SOL    HW212534   4.794   6.334   4.670
 3879SOL     OW12535   6.126   5.096   0.446
 3879SOL    HW112536   6.066   5.173   0.425
 3879SOL    HW212537   6.157   5.054   0.360
 3880SOL     OW12538   4.828   3.860   4.455
 3880SOL    HW112539   4.812   3.956   4.480
 3880SOL    HW212540   4.851   3.854   4.358
 3881SOL     OW12541   1.884   3.812   1.426
 3881SOL    HW112542   1.978   3.808   1.462
 3881SOL    HW212543   1.820   3.823   1.501
 3882SOL     OW12544   1.172   1.441   0.300
 3882SOL    HW112545   1.103   1.467   0.368
 3882SOL    HW212546   1.260   1.429   0.344
 3883SOL     OW12547   4.425   0.967   2.682
 3883SOL    HW112548   4.344   1.024   2.688
 3883SOL    HW212549   4.506   1.023   2.700
 3884SOL     OW12550   0.444   5.309   2.433
 3884SOL    HW112551   0.454   5.305   2.334
 3884SOL    HW212552   0.456   5.403   2.465
 3885SOL     OW12553   6.139   6.199   3.617
 3885SOL    HW112554   6.169   6.144   3.696
 3885SOL    HW212555   6.107   6.288   3.649
 3886SOL     OW12556   4.424   5.693   5.402
 3886SOL    HW112557   4.341   5.741   5.374
 3886SOL    HW212558   4.427   5.687   5.502
 3887SOL     OW12559   0.941   6.788   0.390
 3887SOL    HW112560   0.943   6.807   0.292
 3887SOL    HW212561   1.031   6.807   0.430
 3888SOL     OW12562   6.459   6.367   4.979
 3888SOL    HW112563   6.465   6.388   5.077
 3888SOL    HW212564   6.401   6.287   4.965
 3889SOL     OW12565   6.808   2.555   0.091
 3889SOL    HW112566   6.721   2.506   0.090
 3889SOL    HW212567   6.825   2.591   0.183
 3890SOL     OW12568   6.127   4.833   3.354
 3890SOL    HW112569   6.148   4.752   3.408
 3890SOL    HW212570   6.047   4.879   3.391
 3891SOL     OW12571   4.841   3.754   3.671
 3891SOL    HW112572   4.837   3.692   3.592
 3891SOL    HW212573   4.862   3.847   3.640
 3892SOL     OW12574   0.977   3.040   0.881
 3892SOL    HW112575   0.981   2.965   0.815
 3892SOL    HW212576   1.047   3.028   0.951
 3893SOL     OW12577   4.165   4.068   0.758
 3893SOL    HW112578   4.127   4.155   0.726
 3893SOL    HW212579   4.224   4.085   0.837
 3894SOL     OW12580   5.133   0.698   6.692
 3894SOL    HW112581   5.128   0.793   6.722
 3894SOL    HW212582   5.201   0.690   6.619
 3895SOL     OW12583   1.388   6.914   5.179
 3895SOL    HW112584   1.380   6.829   5.127
 3895SOL    HW212585   1.451   6.901   5.255
 3896SOL     OW12586   0.769   1.175   6.424
 3896SOL    HW112587   0.802   1.083   6.405
 3896SOL    HW212588   0.792   1.201   6.518
 3897SOL     OW12589   3.969   5.880   2.666
 3897SOL    HW112590   3.902   5.946   2.698
 3897SOL    HW212591   4.056   5.926   2.649
 3898SOL     OW12592   3.033   2.044   0.063
 3898SOL    HW112593   2.990   2.083   0.145
 3898SOL    HW212594   3.061   1.950   0.082
 3899SOL     OW12595   4.390   6.668   6.154
 3899SOL    HW112596   4.381   6.657   6.253
 3899SOL    HW212597   4.315   6.619   6.108
 3900SOL     OW12598   4.601   2.560   3.723
 3900SOL    HW112599   4.554   2.646   3.706
 3900SOL    HW212600   4.700   2.573   3.711
 3901SOL     OW12601   3.443   0.808   6.048
 3901SOL    HW112602   3.504   0.873   6.003
 3901SOL    HW212603   3.452   0.718   6.003
 3902SOL     OW12604   6.328   3.037   2.285
 3902SOL    HW112605   6.320   3.083   2.196
 3902SOL    HW212606   6.278   2.951   2.283
 3903SOL     OW12607   3.683   7.007   0.214
 3903SOL    HW112608   3.662   6.953   0.296
 3903SOL    HW212609   3.646   6.960   0.134
 3904SOL     OW12610   1.985   0.825   6.539
 3904SOL    HW112611   1.943   0.735   6.551
 3904SOL    HW212612   1.961   0.862   6.449
 3905SOL     OW12613   6.331   6.649   6.193
 3905SOL    HW112614   6.325   6.623   6.096
 3905SOL    HW212615   6.258   6.715   6.214
 3906SOL     OW12616   5.877   6.714   5.492
 3906SOL    HW112617   5.865   6.721   5.393
 3906SOL    HW212618   5.956   6.655   5.512
 3907SOL     OW12619   5.911   0.937   4.176
 3907SOL    HW112620   5.964   0.971   4.254
 3907SOL    HW212621   5.836   1.000   4.156
 3908SOL     OW12622   0.525   2.721   6.637
 3908SOL    HW112623   0.582   2.727   6.719
 3908SOL    HW212624   0.557   2.646   6.579
 3909SOL     OW12625   6.050   6.181   4.671
 3909SOL    HW112626   6.146   6.155   4.663
 3909SOL    HW212627   6.026   6.246   4.599
 3910SOL     OW12628   3.491   3.794   2.457
 3910SOL    HW112629   3.460   3.838   2.373
 3910SOL    HW212630   3.431   3.717   2.478
 3911SOL     OW12631   5.776   1.642   5.821
 3911SOL    HW112632   5.705   1.622   5.752
 3911SOL    HW212633   5.864   1.608   5.788
 3912SOL     OW12634   5.512   0.459   5.006
 3912SOL    HW112635   5.563   0.545   5.008
 3912SOL    HW212636   5.562   0.392   4.951
 3913SOL     OW12637   2.320   6.605   6.151
 3913SOL    HW112638   2.324   6.702   6.177
 3913SOL    HW212639   2.224   6.579   6.137
 3914SOL     OW12640   2.679   0.548   1.366
 3914SOL    HW112641   2.748   0.615   1.338
 3914SOL    HW212642   2.665   0.555   1.465
 3915SOL     OW12643   5.305   6.132   0.990
 3915SOL    HW112644   5.302   6.090   0.899
 3915SOL    HW212645   5.267   6.224   0.986
 3916SOL     OW12646   1.114   7.000   3.617
 3916SOL    HW112647   1.059   0.014   3.694
 3916SOL    HW212648   1.209   0.012   3.628
 3917SOL     OW12649   6.495   6.110   6.948
 3917SOL    HW112650   6.497   6.066   0.019
 3917SOL    HW212651   6.467   6.043   6.879
 3918SOL     OW12652   5.679   5.634   1.255
 3918SOL    HW112653   5.595   5.688   1.253
 3918SOL    HW212654   5.754   5.689   1.292
 3919SOL     OW12655   4.628   6.812   0.575
 3919SOL    HW112656   4.664   6.719   0.573
 3919SOL    HW212657   4.690   6.873   0.526
 3920SOL     OW12658   2.903   3.531   0.547
 3920SOL    HW112659   2.996   3.568   0.535
 3920SOL    HW212660   2.841   3.576   0.483
 3921SOL     OW12661   0.072   3.161   1.706
 3921SOL    HW112662   6.992   3.152   1.691
 3921SOL    HW212663   0.117   3.078   1.674
 3922SOL     OW12664   6.687   3.522   2.092
 3922SOL    HW112665   6.649   3.578   2.018
 3922SOL    HW212666   6.614   3.495   2.154
 3923SOL     OW12667   0.368   1.251   0.448
 3923SOL    HW112668   0.423   1.266   0.366
 3923SOL    HW212669   0.335   1.338   0.483
 3924SOL     OW12670   5.819   4.764   3.791
 3924SOL    HW112671   5.783   4.783   3.700
 3924SOL    HW212672   5.907   4.811   3.803
 3925SOL     OW12673   2.266   5.542   0.955
 3925SOL    HW112674   2.230   5.530   0.862
 3925SOL    HW212675   2.270   5.454   1.001
 3926SOL     OW12676   6.107   5.013   2.548
 3926SOL    HW112677   6.008   5.025   2.547
 3926SOL    HW212678   6.150   5.074   2.482
 3927SOL     OW12679   6.050   2.506   4.932
 3927SOL    HW112680   5.957   2.533   4.956
 3927SOL    HW212681   6.105   2.588   4.916
 3928SOL     OW12682   4.018   6.208   6.569
 3928SOL    HW112683   3.955   6.137   6.537
 3928SOL    HW212684   4.057   6.181   6.656
 3929SOL     OW12685   0.567   0.541   4.878
 3929SOL    HW112686   0.501   0.527   4.953
 3929SOL    HW212687   0.547   0.627   4.832
 3930SOL     OW12688   3.112   2.215   3.917
 3930SOL    HW112689   3.192   2.205   3.858
 3930SOL    HW212690   3.036   2.161   3.880
 3931SOL     OW12691   1.478   1.453   1.295
 3931SOL    HW112692   1.481   1.356   1.320
 3931SOL    HW212693   1.447   1.507   1.373
 3932SOL     OW12694   1.681   3.997   3.528
 3932SOL    HW112695   1.594   3.975   3.483
 3932SOL    HW212696   1.686   4.096   3.545
 3933SOL     OW12697   1.726   6.185   6.767
 3933SOL    HW112698   1.724   6.088   6.740
 3933SOL    HW212699   1.649   6.204   6.827
 3934SOL     OW12700   0.483   1.094   6.637
 3934SOL    HW112701   0.489   1.097   6.737
 3934SOL    HW212702   0.394   1.130   6.609
 3935SOL     OW12703   2.467   6.569   6.895
 3935SOL    HW112704   2.468   6.616   6.807
 3935SOL    HW212705   2.548   6.511   6.904
 3936SOL     OW12706   0.057   4.909   5.556
 3936SOL    HW112707   0.088   5.004   5.561
 3936SOL    HW212708   0.075   4.873   5.465
 3937SOL     OW12709   0.072   1.257   3.342
 3937SOL    HW112710   0.028   1.312   3.272
 3937SOL    HW212711   0.063   1.303   3.431
 3938SOL     OW12712   0.392   2.205   3.704
 3938SOL    HW112713   0.305   2.182   3.747
 3938SOL    HW212714   0.463   2.213   3.773
 3939SOL     OW12715   1.894   2.938   2.999
 3939SOL    HW112716   1.906   2.839   3.008
 3939SOL    HW212717   1.808   2.966   3.040
 3940SOL     OW12718   5.378   4.343   1.441
 3940SOL    HW112719   5.403   4.401   1.518
 3940SOL    HW212720   5.383   4.396   1.356
 3941SOL     OW12721   5.377   3.441   5.424
 3941SOL    HW112722   5.442   3.367   5.440
 3941SOL    HW212723   5.287   3.403   5.402
 3942SOL     OW12724   0.325   6.560   6.359
 3942SOL    HW112725   0.325   6.558   6.259
 3942SOL    HW212726   0.253   6.622   6.391
 3943SOL     OW12727   6.544   2.731   2.954
 3943SOL    HW112728   6.597   2.770   3.030
 3943SOL    HW212729   6.487   2.657   2.988
 3944SOL     OW12730   4.545   2.581   4.860
 3944SOL    HW112731   4.521   2.598   4.765
 3944SOL    HW212732   4.495   2.501   4.894
 3945SOL     OW12733   1.032   2.227   0.128
 3945SOL    HW112734   1.001   2.267   0.214
 3945SOL    HW212735   1.029   2.128   0.134
 3946SOL     OW12736   5.137   4.827   4.642
 3946SOL    HW112737   5.225   4.858   4.606
 3946SOL    HW212738   5.090   4.903   4.686
 3947SOL     OW12739   4.907   6.497   0.175
 3947SOL    HW112740   4.960   6.417   0.148
 3947SOL    HW212741   4.894   6.557   0.095
 3948SOL     OW12742   0.166   4.975   2.421
 3948SOL    HW112743   0.167   4.891   2.368
 3948SOL    HW212744   0.239   4.972   2.489
 3949SOL     OW12745   5.065   0.449   3.314
 3949SOL    HW112746   5.068   0.352   3.290
 3949SOL    HW212747   5.130   0.467   3.388
 3950SOL     OW12748   1.826   4.597   0.518
 3950SOL    HW112749   1.881   4.515   0.505
 3950SOL    HW212750   1.879   4.664   0.571
 3951SOL     OW12751   4.816   0.189   1.495
 3951SOL    HW112752   4.803   0.131   1.414
 3951SOL    HW212753   4.729   0.230   1.521
 3952SOL     OW12754   6.803   2.397   2.015
 3952SOL    HW112755   6.859   2.374   2.095
 3952SOL    HW212756   6.742   2.473   2.037
 3953SOL     OW12757   3.902   5.060   1.153
 3953SOL    HW112758   3.898   4.960   1.147
 3953SOL    HW212759   3.811   5.096   1.171
 3954SOL     OW12760   4.121   5.515   5.114
 3954SOL    HW112761   4.195   5.480   5.057
 3954SOL    HW212762   4.101   5.450   5.188
 3955SOL     OW12763   2.886   6.886   6.151
 3955SOL    HW112764   2.810   6.825   6.130
 3955SOL    HW212765   2.852   6.970   6.192
 3956SOL     OW12766   0.957   0.791   2.752
 3956SOL    HW112767   0.883   0.749   2.806
 3956SOL    HW212768   0.918   0.839   2.674
 3957SOL     OW12769   4.924   6.845   4.070
 3957SOL    HW112770   4.961   6.932   4.038
 3957SOL    HW212771   4.942   6.774   4.003
 3958SOL     OW12772   5.660   1.230   4.774
 3958SOL    HW112773   5.577   1.286   4.774
 3958SOL    HW212774   5.726   1.268   4.710
 3959SOL     OW12775   4.391   6.838   0.447
 3959SOL    HW112776   4.458   6.822   0.520
 3959SOL    HW212777   4.304   6.867   0.488
 3960SOL     OW12778   5.182   1.248   6.325
 3960SOL    HW112779   5.193   1.151   6.302
 3960SOL    HW212780   5.240   1.270   6.403
 3961SOL     OW12781   5.403   1.540   2.365
 3961SOL    HW112782   5.370   1.512   2.275
 3961SOL    HW212783   5.456   1.466   2.405
 3962SOL     OW12784   2.185   4.566   6.634
 3962SOL    HW112785   2.247   4.507   6.686
 3962SOL    HW212786   2.140   4.630   6.697
 3963SOL     OW12787   4.928   5.488   2.782
 3963SOL    HW112788   5.014   5.436   2.775
 3963SOL    HW212789   4.853   5.433   2.746
 3964SOL     OW12790   4.599   5.120   3.575
 3964SOL    HW112791   4.523   5.172   3.537
 3964SOL    HW212792   4.647   5.174   3.644
 3965SOL     OW12793   4.911   2.945   4.348
 3965SOL    HW112794   4.930   2.955   4.250
 3965SOL    HW212795   4.893   3.035   4.388
 3966SOL     OW12796   4.587   6.013   6.128
 3966SOL    HW112797   4.664   6.073   6.151
 3966SOL    HW212798   4.621   5.932   6.080
 3967SOL     OW12799   2.101   3.758   2.396
 3967SOL    HW112800   2.107   3.791   2.491
 3967SOL    HW212801   2.117   3.834   2.334
 3968SOL     OW12802   4.686   0.500   1.036
 3968SOL    HW112803   4.677   0.578   0.975
 3968SOL    HW212804   4.623   0.427   1.007
 3969SOL     OW12805   0.963   4.454   2.312
 3969SOL    HW112806   0.894   4.429   2.244
 3969SOL    HW212807   0.945   4.405   2.397
 3970SOL     OW12808   5.961   6.213   3.350
 3970SOL    HW112809   5.881   6.241   3.402
 3970SOL    HW212810   6.040   6.209   3.411
 3971SOL     OW12811   3.169   5.401   3.464
 3971SOL    HW112812   3.239   5.441   3.405
 3971SOL    HW212813   3.141   5.468   3.533
 3972SOL     OW12814   1.160   3.657   0.714
 3972SOL    HW112815   1.243   3.646   0.659
 3972SOL    HW212816   1.089   3.701   0.659
 3973SOL     OW12817   1.689   5.840   6.176
 3973SOL    HW112818   1.734   5.797   6.098
 3973SOL    HW212819   1.666   5.935   6.152
 3974SOL     OW12820   2.170   0.179   5.225
 3974SOL    HW112821   2.198   0.084   5.231
 3974SOL    HW212822   2.242   0.238   5.262
 3975SOL     OW12823   5.257   1.574   6.226
 3975SOL    HW112824   5.171   1.619   6.199
 3975SOL    HW212825   5.312   1.638   6.280
 3976SOL     OW12826   1.383   6.268   1.972
 3976SOL    HW112827   1.430   6.221   2.046
 3976SOL    HW212828   1.408   6.365   1.972
 3977SOL     OW12829   2.016   3.217   6.045
 3977SOL    HW112830   1.985   3.211   6.139
 3977SOL    HW212831   2.023   3.313   6.017
 3978SOL     OW12832   5.875   5.325   3.650
 3978SOL    HW112833   5.829   5.245   3.689
 3978SOL    HW212834   5.968   5.331   3.685
 3979SOL     OW12835   3.619   0.972   7.011
 3979SOL    HW112836   3.610   1.063   6.971
 3979SOL    HW212837   3.632   0.905   6.939
 3980SOL     OW12838   5.665   5.997   6.818
 3980SOL    HW112839   5.657   5.957   6.726
 3980SOL    HW212840   5.589   5.966   6.875
 3981SOL     OW12841   3.487   0.187   0.537
 3981SOL    HW112842   3.503   0.164   0.441
 3981SOL    HW212843   3.461   0.283   0.544
 3982SOL     OW12844   2.497   6.597   3.455
 3982SOL    HW112845   2.500   6.617   3.357
 3982SOL    HW212846   2.590   6.596   3.492
 3983SOL     OW12847   4.903   4.964   4.344
 3983SOL    HW112848   4.833   4.897   4.319
 3983SOL    HW212849   4.994   4.924   4.330
 3984SOL     OW12850   6.651   1.005   2.171
 3984SOL    HW112851   6.613   1.097   2.159
 3984SOL    HW212852   6.746   1.003   2.141
 3985SOL     OW12853   2.536   4.592   6.753
 3985SOL    HW112854   2.517   4.608   6.656
 3985SOL    HW212855   2.450   4.585   6.803
 3986SOL     OW12856   5.217   1.606   2.730
 3986SOL    HW112857   5.152   1.628   2.657
 3986SOL    HW212858   5.197   1.515   2.766
 3987SOL     OW12859   3.910   5.006   3.368
 3987SOL    HW112860   3.853   4.974   3.443
 3987SOL    HW212861   3.858   5.003   3.283
 3988SOL     OW12862   3.058   5.126   6.654
 3988SOL    HW112863   3.152   5.158   6.642
 3988SOL    HW212864   3.036   5.058   6.584
 3989SOL     OW12865   6.734   2.623   6.736
 3989SOL    HW112866   6.687   2.551   6.684
 3989SOL    HW212867   6.813   2.584   6.783
 3990SOL     OW12868   4.546   2.074   2.741
 3990SOL    HW112869   4.560   2.049   2.645
 3990SOL    HW212870   4.480   2.148   2.747
 3991SOL     OW12871   6.697   1.253   2.432
 3991SOL    HW112872   6.600   1.272   2.446
 3991SOL    HW212873   6.731   1.309   2.356
 3992SOL     OW12874   3.473   1.432   6.924
 3992SOL    HW112875   3.503   1.527   6.919
 3992SOL    HW212876   3.499   1.394   7.012
 3993SOL     OW12877   1.247   2.624   2.184
 3993SOL    HW112878   1.177   2.623   2.255
 3993SOL    HW212879   1.332   2.585   2.221
 3994SOL     OW12880   1.890   6.646   6.287
 3994SOL    HW112881   1.960   6.616   6.221
 3994SOL    HW212882   1.861   6.738   6.264
 3995SOL     OW12883   2.039   3.510   6.224
 3995SOL    HW112884   2.094   3.539   6.146
 3995SOL    HW212885   1.942   3.514   6.201
 3996SOL     OW12886   0.226   6.500   4.828
 3996SOL    HW112887   0.228   6.518   4.730
 3996SOL    HW212888   0.136   6.463   4.854
 3997SOL     OW12889   5.635   1.365   2.994
 3997SOL    HW112890   5.671   1.289   3.047
 3997SOL    HW212891   5.711   1.420   2.959
 3998SOL     OW12892   3.632   1.007   3.783
 3998SOL    HW112893   3.687   1.012   3.867
 3998SOL    HW212894   3.621   1.099   3.745
 3999SOL     OW12895   5.654   2.521   4.115
 3999SOL    HW112896   5.664   2.609   4.069
 3999SOL    HW212897   5.605   2.533   4.201
 4000SOL     OW12898   2.955   0.045   3.681
 4000SOL    HW112899   2.895   0.065   3.604
 4000SOL    HW212900   3.050   0.062   3.655
 4001SOL     OW12901   2.345   1.599   3.821
 4001SOL    HW112902   2.372   1.562   3.910
 4001SOL    HW212903   2.407   1.564   3.750
 4002SOL     OW12904   3.279   4.163   0.715
 4002SOL    HW112905   3.204   4.230   0.720
 4002SOL    HW212906   3.313   4.158   0.621
 4003SOL     OW12907   3.454   6.913   3.792
 4003SOL    HW112908   3.379   6.978   3.779
 4003SOL    HW212909   3.508   6.941   3.871
 4004SOL     OW12910   5.382   2.211   4.039
 4004SOL    HW112911   5.384   2.173   3.946
 4004SOL    HW212912   5.468   2.190   4.085
 4005SOL     OW12913   5.010   5.355   0.097
 4005SOL    HW112914   5.028   5.420   0.171
 4005SOL    HW212915   5.015   5.261   0.133
 4006SOL     OW12916   4.569   5.293   2.298
 4006SOL    HW112917   4.619   5.207   2.308
 4006SOL    HW212918   4.630   5.370   2.321
 4007SOL     OW12919   7.014   2.348   6.553
 4007SOL    HW112920   0.066   2.419   6.563
 4007SOL    HW212921   6.960   2.366   6.471
 4008SOL     OW12922   2.695   2.061   4.776
 4008SOL    HW112923   2.723   2.156   4.757
 4008SOL    HW212924   2.631   2.060   4.853
 4009SOL     OW12925   4.477   3.235   1.209
 4009SOL    HW112926   4.465   3.333   1.229
 4009SOL    HW212927   4.505   3.187   1.292
 4010SOL     OW12928   2.231   2.980   1.438
 4010SOL    HW112929   2.150   3.037   1.445
 4010SOL    HW212930   2.277   2.997   1.351
 4011SOL     OW12931   0.729   1.308   2.223
 4011SOL    HW112932   0.793   1.271   2.155
 4011SOL    HW212933   0.695   1.397   2.191
 4012SOL     OW12934   6.804   4.186   1.687
 4012SOL    HW112935   6.708   4.158   1.687
 4012SOL    HW212936   6.813   4.279   1.653
 4013SOL     OW12937   3.757   1.627   5.073
 4013SOL    HW112938   3.759   1.700   5.004
 4013SOL    HW212939   3.683   1.645   5.137
 4014SOL     OW12940   5.668   6.413   2.389
 4014SOL    HW112941   5.689   6.505   2.356
 4014SOL    HW212942   5.586   6.380   2.343
 4015SOL     OW12943   4.658   4.673   6.509
 4015SOL    HW112944   4.658   4.725   6.423
 4015SOL    HW212945   4.706   4.587   6.496
 4016SOL     OW12946   2.145   6.260   6.319
 4016SOL    HW112947   2.083   6.274   6.396
 4016SOL    HW212948   2.190   6.171   6.327
 4017SOL     OW12949   6.879   6.067   0.678
 4017SOL    HW112950   6.808   5.999   0.661
 4017SOL    HW212951   6.855   6.122   0.758
 4018SOL     OW12952   3.739   5.799   2.307
 4018SOL    HW112953   3.815   5.742   2.275
 4018SOL    HW212954   3.653   5.759   2.275
 4019SOL     OW12955   5.047   4.480   3.481
 4019SOL    HW112956   4.957   4.501   3.444
 4019SOL    HW212957   5.113   4.472   3.407
 4020SOL     OW12958   4.749   2.183   5.262
 4020SOL    HW112959   4.710   2.094   5.286
 4020SOL    HW212960   4.737   2.199   5.164
 4021SOL     OW12961   3.515   5.149   6.482
 4021SOL    HW112962   3.519   5.078   6.412
 4021SOL    HW212963   3.605   5.193   6.490
 4022SOL     OW12964   4.754   1.787   0.060
 4022SOL    HW112965   4.736   1.853   0.133
 4022SOL    HW212966   4.835   1.733   0.083
 4023SOL     OW12967   6.112   1.832   5.016
 4023SOL    HW112968   6.200   1.869   4.986
 4023SOL    HW212969   6.126   1.740   5.054
 4024SOL     OW12970   3.693   6.181   4.618
 4024SOL    HW112971   3.613   6.150   4.566
 4024SOL    HW212972   3.754   6.230   4.557
 4025SOL     OW12973   0.763   3.753   3.003
 4025SOL    HW112974   0.764   3.791   2.911
 4025SOL    HW212975   0.761   3.653   2.999
 4026SOL     OW12976   5.770   5.649   4.363
 4026SOL    HW112977   5.846   5.709   4.337
 4026SOL    HW212978   5.797   5.554   4.353
 4027SOL     OW12979   3.512   4.180   1.836
 4027SOL    HW112980   3.606   4.161   1.806
 4027SOL    HW212981   3.451   4.183   1.757
 4028SOL     OW12982   1.840   2.188   4.421
 4028SOL    HW112983   1.933   2.218   4.399
 4028SOL    HW212984   1.843   2.109   4.482
 4029SOL     OW12985   1.993   3.642   5.652
 4029SOL    HW112986   2.088   3.612   5.651
 4029SOL    HW212987   1.985   3.731   5.608
 4030SOL     OW12988   0.635   1.676   5.660
 4030SOL    HW112989   0.588   1.611   5.720
 4030SOL    HW212990   0.713   1.631   5.618
 4031SOL     OW12991   4.432   5.471   3.671
 4031SOL    HW112992   4.400   5.407   3.601
 4031SOL    HW212993   4.480   5.547   3.627
 4032SOL     OW12994   5.734   6.482   4.096
 4032SOL    HW112995   5.763   6.575   4.072
 4032SOL    HW212996   5.696   6.438   4.015
 4033SOL     OW12997   2.898   3.735   4.356
 4033SOL    HW112998   2.841   3.660   4.390
 4033SOL    HW212999   2.906   3.728   4.256
 4034SOL     OW13000   6.613   1.515   4.631
 4034SOL    HW113001   6.618   1.424   4.591
 4034SOL    HW213002   6.569   1.577   4.566
 4035SOL     OW13003   0.568   4.318   6.626
 4035SOL    HW113004   0.662   4.311   6.595
 4035SOL    HW213005   0.511   4.357   6.553
 4036SOL     OW13006   6.032   6.029   2.630
 4036SOL    HW113007   6.060   6.116   2.590
 4036SOL    HW213008   5.964   6.046   2.702
 4037SOL     OW13009   0.787   3.614   6.463
 4037SOL    HW113010   0.875   3.580   6.497
 4037SOL    HW213011   0.729   3.641   6.540
 4038SOL     OW13012   5.246   4.458   3.286
 4038SOL    HW113013   5.267   4.535   3.226
 4038SOL    HW213014   5.318   4.448   3.354
 4039SOL     OW13015   5.543   6.303   0.465
 4039SOL    HW113016   5.641   6.288   0.477
 4039SOL    HW213017   5.492   6.229   0.509
 4040SOL     OW13018   3.294   6.583   1.182
 4040SOL    HW113019   3.319   6.605   1.276
 4040SOL    HW213020   3.357   6.514   1.146
 4041SOL     OW13021   1.222   6.392   3.285
 4041SOL    HW113022   1.161   6.460   3.325
 4041SOL    HW213023   1.253   6.329   3.356
 4042SOL     OW13024   5.610   5.222   1.741
 4042SOL    HW113025   5.524   5.173   1.728
 4042SOL    HW213026   5.665   5.217   1.658
 4043SOL     OW13027   5.164   2.237   2.381
 4043SOL    HW113028   5.141   2.143   2.354
 4043SOL    HW213029   5.145   2.298   2.304
 4044SOL     OW13030   5.872   0.029   3.638
 4044SOL    HW113031   5.881   7.010   3.546
 4044SOL    HW213032   5.777   0.021   3.668
 4045SOL     OW13033   1.850   4.959   6.856
 4045SOL    HW113034   1.783   4.990   6.789
 4045SOL    HW213035   1.939   5.000   6.835
 4046SOL     OW13036   1.273   2.660   1.435
 4046SOL    HW113037   1.340   2.632   1.367
 4046SOL    HW213038   1.227   2.743   1.405
 4047SOL     OW13039   3.245   3.732   1.871
 4047SOL    HW113040   3.170   3.778   1.919
 4047SOL    HW213041   3.219   3.638   1.852
 4048SOL     OW13042   5.455   0.360   0.731
 4048SOL    HW113043   5.427   0.452   0.707
 4048SOL    HW213044   5.550   0.346   0.703
 4049SOL     OW13045   5.448   6.638   5.702
 4049SOL    HW113046   5.490   6.587   5.777
 4049SOL    HW213047   5.349   6.622   5.703
 4050SOL     OW13048   1.645   6.293   0.642
 4050SOL    HW113049   1.589   6.353   0.586
 4050SOL    HW213050   1.665   6.209   0.592
 4051SOL     OW13051   3.018   4.685   0.666
 4051SOL    HW113052   3.089   4.614   0.673
 4051SOL    HW213053   2.952   4.673   0.740
 4052SOL     OW13054   0.794   0.595   6.898
 4052SOL    HW113055   0.728   0.627   6.966
 4052SOL    HW213056   0.845   0.518   6.935
 4053SOL     OW13057   3.399   4.907   3.830
 4053SOL    HW113058   3.492   4.908   3.866
 4053SOL    HW213059   3.342   4.971   3.882
 4054SOL     OW13060   3.603   2.397   1.101
 4054SOL    HW113061   3.702   2.405   1.112
 4054SOL    HW213062   3.569   2.476   1.049
 4055SOL     OW13063   3.577   2.023   6.013
 4055SOL    HW113064   3.481   2.040   6.033
 4055SOL    HW213065   3.632   2.101   6.042
 4056SOL     OW13066   3.412   3.134   6.751
 4056SOL    HW113067   3.454   3.116   6.840
 4056SOL    HW213068   3.479   3.114   6.679
 4057SOL     OW13069   4.333   2.727   6.468
 4057SOL    HW113070   4.256   2.728   6.404
 4057SOL    HW213071   4.311   2.785   6.547
 4058SOL     OW13072   2.101   1.191   5.607
 4058SOL    HW113073   2.156   1.145   5.677
 4058SOL    HW213074   2.132   1.163   5.516
 4059SOL     OW13075   1.441   1.888   5.367
 4059SOL    HW113076   1.488   1.851   5.286
 4059SOL    HW213077   1.448   1.822   5.442
 4060SOL     OW13078   3.977   5.183   4.308
 4060SOL    HW113079   3.955   5.120   4.383
 4060SOL    HW213080   3.931   5.153   4.225
 4061SOL     OW13081   3.157   3.995   2.272
 4061SOL    HW113082   3.253   4.017   2.290
 4061SOL    HW213083   3.102   4.078   2.278
 4062SOL     OW13084   3.320   0.658   2.745
 4062SOL    HW113085   3.243   0.691   2.690
 4062SOL    HW213086   3.356   0.573   2.706
 4063SOL     OW13087   3.305   4.996   6.058
 4063SOL    HW113088   3.228   5.056   6.035
 4063SOL    HW213089   3.297   4.910   6.007
 4064SOL     OW13090   6.936   0.760   3.892
 4064SOL    HW113091   6.971   0.740   3.800
 4064SOL    HW213092   6.948   0.679   3.950
 4065SOL     OW13093   6.769   6.954   0.610
 4065SOL    HW113094   6.685   6.904   0.630
 4065SOL    HW213095   6.845   6.913   0.661
 4066SOL     OW13096   6.084   4.248   1.605
 4066SOL    HW113097   6.150   4.173   1.611
 4066SOL    HW213098   6.114   4.313   1.535
 4067SOL     OW13099   6.394   1.468   2.592
 4067SOL    HW113100   6.344   1.554   2.600
 4067SOL    HW213101   6.419   1.435   2.683
 4068SOL     OW13102   5.821   0.357   4.080
 4068SOL    HW113103   5.839   0.285   4.148
 4068SOL    HW213104   5.881   0.435   4.098
 4069SOL     OW13105   5.692   5.503   0.822
 4069SOL    HW113106   5.633   5.579   0.851
 4069SOL    HW213107   5.787   5.522   0.848
 4070SOL     OW13108   1.982   3.981   3.423
 4070SOL    HW113109   1.938   3.939   3.344
 4070SOL    HW213110   1.920   4.046   3.467
 4071SOL     OW13111   1.683   0.398   3.771
 4071SOL    HW113112   1.756   0.454   3.733
 4071SOL    HW213113   1.718   0.308   3.794
 4072SOL     OW13114   1.439   0.051   4.764
 4072SOL    HW113115   1.389   0.134   4.740
 4072SOL    HW213116   1.514   0.074   4.826
 4073SOL     OW13117   2.657   6.484   0.188
 4073SOL    HW113118   2.740   6.511   0.140
 4073SOL    HW213119   2.671   6.495   0.287
 4074SOL     OW13120   1.602   2.430   0.826
 4074SOL    HW113121   1.687   2.396   0.786
 4074SOL    HW213122   1.548   2.353   0.859
 4075SOL     OW13123   5.268   1.754   2.990
 4075SOL    HW113124   5.294   1.689   3.063
 4075SOL    HW213125   5.212   1.707   2.923
 4076SOL     OW13126   1.837   3.464   4.274
 4076SOL    HW113127   1.851   3.561   4.256
 4076SOL    HW213128   1.769   3.428   4.211
 4077SOL     OW13129   3.533   1.260   1.151
 4077SOL    HW113130   3.585   1.238   1.234
 4077SOL    HW213131   3.574   1.340   1.107
 4078SOL     OW13132   6.450   3.797   1.236
 4078SOL    HW113133   6.472   3.879   1.184
 4078SOL    HW213134   6.507   3.793   1.318
 4079SOL     OW13135   0.438   0.288   3.910
 4079SOL    HW113136   0.392   0.331   3.988
 4079SOL    HW213137   0.438   0.351   3.832
 4080SOL     OW13138   3.483   3.879   1.882
 4080SOL    HW113139   3.390   3.844   1.897
 4080SOL    HW213140   3.484   3.977   1.901
 4081SOL     OW13141   1.769   2.009   5.503
 4081SOL    HW113142   1.793   2.014   5.406
 4081SOL    HW213143   1.838   2.059   5.557
 4082SOL     OW13144   1.274   2.806   4.525
 4082SOL    HW113145   1.236   2.897   4.510
 4082SOL    HW213146   1.249   2.747   4.448
 4083SOL     OW13147   5.679   4.924   3.251
 4083SOL    HW113148   5.583   4.897   3.254
 4083SOL    HW213149   5.692   5.006   3.308
 4084SOL     OW13150   4.259   0.848   3.331
 4084SOL    HW113151   4.341   0.856   3.275
 4084SOL    HW213152   4.178   0.853   3.273
 4085SOL     OW13153   3.187   4.867   2.331
 4085SOL    HW113154   3.098   4.869   2.285
 4085SOL    HW213155   3.258   4.848   2.264
 4086SOL     OW13156   6.397   5.515   6.185
 4086SOL    HW113157   6.417   5.419   6.206
 4086SOL    HW213158   6.452   5.574   6.245
 4087SOL     OW13159   2.637   0.339   2.552
 4087SOL    HW113160   2.667   0.383   2.636
 4087SOL    HW213161   2.694   0.259   2.533
 4088SOL     OW13162   0.293   1.235   5.570
 4088SOL    HW113163   0.210   1.266   5.616
 4088SOL    HW213164   0.368   1.228   5.636
 4089SOL     OW13165   0.510   0.055   3.782
 4089SOL    HW113166   0.435   0.023   3.725
 4089SOL    HW213167   0.476   0.120   3.849
 4090SOL     OW13168   2.811   0.204   5.403
 4090SOL    HW113169   2.818   0.105   5.416
 4090SOL    HW213170   2.897   0.247   5.432
 4091SOL     OW13171   2.157   5.513   1.480
 4091SOL    HW113172   2.109   5.597   1.504
 4091SOL    HW213173   2.093   5.437   1.477
 4092SOL     OW13174   4.887   3.219   4.210
 4092SOL    HW113175   4.935   3.301   4.178
 4092SOL    HW213176   4.800   3.245   4.250
 4093SOL     OW13177   4.747   5.522   2.997
 4093SOL    HW113178   4.836   5.527   2.951
 4093SOL    HW213179   4.757   5.469   3.081
 4094SOL     OW13180   0.190   5.774   6.879
 4094SOL    HW113181   0.284   5.793   6.850
 4094SOL    HW213182   0.135   5.748   6.799
 4095SOL     OW13183   0.204   5.177   6.632
 4095SOL    HW113184   0.216   5.272   6.603
 4095SOL    HW213185   0.144   5.129   6.569
 4096SOL     OW13186   1.636   2.158   6.893
 4096SOL    HW113187   1.650   2.062   6.917
 4096SOL    HW213188   1.723   2.206   6.894
 4097SOL     OW13189   0.001   4.360   4.871
 4097SOL    HW113190   6.925   4.390   4.857
 4097SOL    HW213191   0.040   4.334   4.783
 4098SOL     OW13192   2.241   5.056   3.264
 4098SOL    HW113193   2.258   5.100   3.176
 4098SOL    HW213194   2.145   5.030   3.271
 4099SOL     OW13195   4.469   4.799   6.015
 4099SOL    HW113196   4.485   4.871   5.947
 4099SOL    HW213197   4.401   4.735   5.980
 4100SOL     OW13198   1.373   0.686   3.534
 4100SOL    HW113199   1.335   0.612   3.589
 4100SOL    HW213200   1.348   0.673   3.438
 4101SOL     OW13201   6.603   0.575   0.502
 4101SOL    HW113202   6.648   0.658   0.535
 4101SOL    HW213203   6.604   0.574   0.402
 4102SOL     OW13204   1.587   0.957   6.675
 4102SOL    HW113205   1.638   0.878   6.639
 4102SOL    HW213206   1.633   0.991   6.757
 4103SOL     OW13207   1.477   6.415   2.655
 4103SOL    HW113208   1.443   6.409   2.560
 4103SOL    HW213209   1.510   6.325   2.684
 4104SOL     OW13210   0.429   5.813   3.976
 4104SOL    HW113211   0.502   5.828   3.909
 4104SOL    HW213212   0.340   5.833   3.932
 4105SOL     OW13213   4.766   1.250   0.924
 4105SOL    HW113214   4.791   1.194   1.004
 4105SOL    HW213215   4.680   1.217   0.886
 4106SOL     OW13216   6.804   2.242   3.585
 4106SOL    HW113217   6.809   2.147   3.615
 4106SOL    HW213218   6.870   2.257   3.511
 4107SOL     OW13219   0.011   6.479   6.601
 4107SOL    HW113220   0.090   6.418   6.594
 4107SOL    HW213221   6.949   6.432   6.564
 4108SOL     OW13222   6.416   5.471   3.735
 4108SOL    HW113223   6.444   5.417   3.655
 4108SOL    HW213224   6.395   5.564   3.706
 4109SOL     OW13225   6.044   6.572   3.243
 4109SOL    HW113226   5.962   6.520   3.219
 4109SOL    HW213227   6.099   6.519   3.309
 4110SOL     OW13228   4.699   4.204   0.094
 4110SOL    HW113229   4.630   4.277   0.093
 4110SOL    HW213230   4.763   4.217   0.018
 4111SOL     OW13231   6.911   4.118   3.937
 4111SOL    HW113232   6.899   4.090   3.842
 4111SOL    HW213233   6.950   4.210   3.940
 4112SOL     OW13234   4.954   0.107   5.101
 4112SOL    HW113235   5.037   0.065   5.138
 4112SOL    HW213236   4.905   0.040   5.046
 4113SOL     OW13237   4.230   4.750   4.620
 4113SOL    HW113238   4.239   4.655   4.592
 4113SOL    HW213239   4.134   4.772   4.633
 4114SOL     OW13240   6.949   1.533   2.317
 4114SOL    HW113241   6.955   1.615   2.260
 4114SOL    HW213242   6.868   1.480   2.291
 4115SOL     OW13243   3.545   4.924   4.192
 4115SOL    HW113244   3.514   4.880   4.277
 4115SOL    HW213245   3.508   5.017   4.188
 4116SOL     OW13246   5.194   2.560   3.367
 4116SOL    HW113247   5.208   2.462   3.378
 4116SOL    HW213248   5.277   2.602   3.330
 4117SOL     OW13249   1.035   2.565   2.999
 4117SOL    HW113250   1.096   2.488   3.015
 4117SOL    HW213251   1.035   2.588   2.901
 4118SOL     OW13252   6.847   6.873   6.119
 4118SOL    HW113253   6.918   6.804   6.133
 4118SOL    HW213254   6.760   6.840   6.154
 4119SOL     OW13255   2.304   1.350   3.539
 4119SOL    HW113256   2.330   1.283   3.470
 4119SOL    HW213257   2.231   1.314   3.596
 4120SOL     OW13258   2.147   1.410   6.147
 4120SOL    HW113259   2.147   1.380   6.051
 4120SOL    HW213260   2.056   1.395   6.187
 4121SOL     OW13261   6.687   6.716   1.759
 4121SOL    HW113262   6.746   6.662   1.698
 4121SOL    HW213263   6.683   6.810   1.725
 4122SOL     OW13264   6.747   4.762   4.050
 4122SOL    HW113265   6.819   4.789   3.986
 4122SOL    HW213266   6.735   4.834   4.119
 4123SOL     OW13267   3.793   4.852   2.583
 4123SOL    HW113268   3.870   4.816   2.636
 4123SOL    HW213269   3.777   4.947   2.610
 4124SOL     OW13270   6.671   6.015   0.372
 4124SOL    HW113271   6.691   5.976   0.462
 4124SOL    HW213272   6.740   6.083   0.349
 4125SOL     OW13273   5.786   1.978   2.212
 4125SOL    HW113274   5.831   1.894   2.183
 4125SOL    HW213275   5.706   1.955   2.268
 4126SOL     OW13276   0.933   3.166   1.997
 4126SOL    HW113277   0.979   3.146   1.911
 4126SOL    HW213278   1.001   3.176   2.070
 4127SOL     OW13279   3.785   1.804   4.184
 4127SOL    HW113280   3.851   1.737   4.149
 4127SOL    HW213281   3.833   1.885   4.214
 4128SOL     OW13282   6.944   3.142   0.845
 4128SOL    HW113283   6.854   3.105   0.824
 4128SOL    HW213284   6.958   3.226   0.793
 4129SOL     OW13285   2.501   3.049   0.814
 4129SOL    HW113286   2.510   2.950   0.827
 4129SOL    HW213287   2.475   3.068   0.719
 4130SOL     OW13288   5.679   2.700   1.394
 4130SOL    HW113289   5.647   2.735   1.306
 4130SOL    HW213290   5.618   2.628   1.426
 4131SOL     OW13291   4.574   0.747   2.541
 4131SOL    HW113292   4.534   0.817   2.601
 4131SOL    HW213293   4.667   0.773   2.517
 4132SOL     OW13294   6.855   4.249   4.400
 4132SOL    HW113295   6.842   4.343   4.369
 4132SOL    HW213296   6.931   4.208   4.349
 4133SOL     OW13297   5.698   0.092   2.231
 4133SOL    HW113298   5.600   0.108   2.240
 4133SOL    HW213299   5.740   0.086   2.321
 4134SOL     OW13300   2.261   3.393   1.156
 4134SOL    HW113301   2.226   3.340   1.079
 4134SOL    HW213302   2.348   3.355   1.186
 4135SOL     OW13303   0.093   1.192   2.238
 4135SOL    HW113304   0.147   1.261   2.191
 4135SOL    HW213305   0.155   1.124   2.279
 4136SOL     OW13306   1.293   4.847   2.097
 4136SOL    HW113307   1.344   4.830   2.182
 4136SOL    HW213308   1.310   4.772   2.033
 4137SOL     OW13309   1.483   2.803   0.174
 4137SOL    HW113310   1.562   2.856   0.144
 4137SOL    HW213311   1.513   2.727   0.231
 4138SOL     OW13312   4.984   6.508   0.840
 4138SOL    HW113313   4.906   6.471   0.890
 4138SOL    HW213314   5.066   6.456   0.862
 4139SOL     OW13315   2.183   2.511   2.952
 4139SOL    HW113316   2.127   2.577   2.903
 4139SOL    HW213317   2.203   2.545   3.044
 4140SOL     OW13318   2.498   2.342   5.085
 4140SOL    HW113319   2.418   2.352   5.144
 4140SOL    HW213320   2.564   2.414   5.107
 4141SOL     OW13321   4.569   7.002   0.056
 4141SOL    HW113322   4.550   6.976   0.150
 4141SOL    HW213323   4.585   0.082   0.051
 4142SOL     OW13324   6.933   4.226   2.975
 4142SOL    HW113325   6.888   4.310   3.005
 4142SOL    HW213326   6.907   4.207   2.880
 4143SOL     OW13327   5.935   2.978   0.568
 4143SOL    HW113328   5.856   2.987   0.507
 4143SOL    HW213329   5.904   2.963   0.662
 4144SOL     OW13330   5.802   1.848   0.650
 4144SOL    HW113331   5.786   1.757   0.687
 4144SOL    HW213332   5.764   1.854   0.558
 4145SOL     OW13333   0.398   6.684   1.713
 4145SOL    HW113334   0.312   6.733   1.727
 4145SOL    HW213335   0.407   6.659   1.617
 4146SOL     OW13336   5.153   6.612   3.691
 4146SOL    HW113337   5.126   6.700   3.729
 4146SOL    HW213338   5.116   6.539   3.748
 4147SOL     OW13339   5.119   4.200   5.614
 4147SOL    HW113340   5.210   4.198   5.654
 4147SOL    HW213341   5.091   4.108   5.588
 4148SOL     OW13342   3.092   1.326   5.839
 4148SOL    HW113343   3.078   1.306   5.936
 4148SOL    HW213344   3.015   1.290   5.787
 4149SOL     OW13345   2.070   2.904   0.413
 4149SOL    HW113346   2.126   2.975   0.456
 4149SOL    HW213347   2.046   2.835   0.481
 4150SOL     OW13348   5.747   2.463   6.339
 4150SOL    HW113349   5.688   2.510   6.274
 4150SOL    HW213350   5.710   2.474   6.431
 4151SOL     OW13351   2.336   6.578   4.595
 4151SOL    HW113352   2.354   6.501   4.656
 4151SOL    HW213353   2.381   6.660   4.631
 4152SOL     OW13354   3.123   5.453   1.521
 4152SOL    HW113355   3.122   5.353   1.519
 4152SOL    HW213356   3.106   5.489   1.430
 4153SOL     OW13357   6.697   4.955   1.663
 4153SOL    HW113358   6.770   4.888   1.676
 4153SOL    HW213359   6.633   4.921   1.593
 4154SOL     OW13360   1.300   5.900   4.534
 4154SOL    HW113361   1.360   5.918   4.612
 4154SOL    HW213362   1.205   5.918   4.559
 4155SOL     OW13363   0.994   2.260   1.647
 4155SOL    HW113364   1.073   2.321   1.637
 4155SOL    HW213365   1.022   2.180   1.701
 4156SOL     OW13366   6.960   5.100   5.273
 4156SOL    HW113367   6.989   5.009   5.303
 4156SOL    HW213368   6.992   5.116   5.179
 4157SOL     OW13369   6.901   6.086   2.252
 4157SOL    HW113370   6.807   6.094   2.285
 4157SOL    HW213371   6.910   6.004   2.196
 4158SOL     OW13372   1.322   2.598   2.521
 4158SOL    HW113373   1.347   2.501   2.518
 4158SOL    HW213374   1.223   2.606   2.530
 4159SOL     OW13375   2.892   1.574   3.641
 4159SOL    HW113376   2.922   1.666   3.668
 4159SOL    HW213377   2.871   1.520   3.723
 4160SOL     OW13378   6.357   0.251   6.252
 4160SOL    HW113379   6.370   0.152   6.246
 4160SOL    HW213380   6.378   0.293   6.164
 4161SOL     OW13381   2.962   2.488   1.446
 4161SOL    HW113382   2.962   2.419   1.518
 4161SOL    HW213383   2.906   2.456   1.370
 4162SOL     OW13384   6.467   6.709   1.474
 4162SOL    HW113385   6.502   6.622   1.507
 4162SOL    HW213386   6.523   6.742   1.399
 4163SOL     OW13387   3.988   6.539   1.288
 4163SOL    HW113388   3.966   6.598   1.210
 4163SOL    HW213389   4.024   6.452   1.255
 4164SOL     OW13390   6.937   6.807   4.960
 4164SOL    HW113391   6.868   6.735   4.962
 4164SOL    HW213392   6.897   6.893   4.992
 4165SOL     OW13393   4.775   1.165   5.762
 4165SOL    HW113394   4.802   1.224   5.686
 4165SOL    HW213395   4.747   1.076   5.727
 4166SOL     OW13396   5.983   0.747   2.572
 4166SOL    HW113397   6.038   0.675   2.613
 4166SOL    HW213398   5.957   0.814   2.642
 4167SOL     OW13399   3.978   5.031   5.617
 4167SOL    HW113400   3.985   4.951   5.557
 4167SOL    HW213401   3.910   5.094   5.579
 4168SOL     OW13402   6.007   4.400   0.355
 4168SOL    HW113403   5.943   4.348   0.411
 4168SOL    HW213404   6.068   4.337   0.306
 4169SOL     OW13405   4.883   3.875   4.986
 4169SOL    HW113406   4.844   3.783   4.978
 4169SOL    HW213407   4.935   3.896   4.903
 4170SOL     OW13408   5.774   3.351   4.382
 4170SOL    HW113409   5.675   3.344   4.366
 4170SOL    HW213410   5.791   3.410   4.461
 4171SOL     OW13411   1.325   3.956   0.735
 4171SOL    HW113412   1.263   3.925   0.808
 4171SOL    HW213413   1.411   3.906   0.742
 4172SOL     OW13414   2.870   4.024   0.769
 4172SOL    HW113415   2.883   3.958   0.843
 4172SOL    HW213416   2.788   4.078   0.786
 4173SOL     OW13417   4.630   2.794   5.030
 4173SOL    HW113418   4.601   2.743   4.949
 4173SOL    HW213419   4.708   2.748   5.073
 4174SOL     OW13420   4.455   0.615   4.472
 4174SOL    HW113421   4.475   0.594   4.568
 4174SOL    HW213422   4.460   0.531   4.418
 4175SOL     OW13423   1.889   4.521   6.600
 4175SOL    HW113424   1.853   4.476   6.682
 4175SOL    HW213425   1.989   4.525   6.605
 4176SOL     OW13426   4.725   6.389   6.812
 4176SOL    HW113427   4.818   6.373   6.844
 4176SOL    HW213428   4.721   6.372   6.713
 4177SOL     OW13429   4.514   4.787   4.046
 4177SOL    HW113430   4.484   4.872   4.003
 4177SOL    HW213431   4.584   4.808   4.115
 4178SOL     OW13432   2.919   5.534   2.215
 4178SOL    HW113433   2.928   5.442   2.177
 4178SOL    HW213434   2.924   5.530   2.315
 4179SOL     OW13435   4.987   2.982   4.096
 4179SOL    HW113436   4.964   3.080   4.098
 4179SOL    HW213437   5.006   2.955   4.002
 4180SOL     OW13438   5.388   3.253   0.359
 4180SOL    HW113439   5.433   3.273   0.446
 4180SOL    HW213440   5.450   3.199   0.302
 4181SOL     OW13441   5.185   6.982   5.287
 4181SOL    HW113442   5.229   6.916   5.347
 4181SOL    HW213443   5.236   6.990   5.202
 4182SOL     OW13444   0.022   6.043   4.009
 4182SOL    HW113445   0.059   6.097   4.085
 4182SOL    HW213446   6.961   5.991   4.040
 4183SOL     OW13447   2.744   1.451   2.139
 4183SOL    HW113448   2.679   1.438   2.064
 4183SOL    HW213449   2.697   1.444   2.226
 4184SOL     OW13450   3.291   6.107   3.278
 4184SOL    HW113451   3.333   6.195   3.298
 4184SOL    HW213452   3.225   6.084   3.350
 4185SOL     OW13453   6.746   3.847   3.060
 4185SOL    HW113454   6.720   3.879   2.968
 4185SOL    HW213455   6.668   3.859   3.122
 4186SOL     OW13456   1.503   5.735   6.740
 4186SOL    HW113457   1.552   5.654   6.710
 4186SOL    HW213458   1.565   5.814   6.738
 4187SOL     OW13459   1.734   3.663   6.751
 4187SOL    HW113460   1.764   3.758   6.743
 4187SOL    HW213461   1.790   3.605   6.691
 4188SOL     OW13462   4.835   0.389   6.889
 4188SOL    HW113463   4.789   0.366   6.803
 4188SOL    HW213464   4.924   0.428   6.870
 4189SOL     OW13465   4.633   5.724   2.821
 4189SOL    HW113466   4.645   5.697   2.725
 4189SOL    HW213467   4.685   5.663   2.880
 4190SOL     OW13468   0.366   0.037   0.929
 4190SOL    HW113469   0.411   0.122   0.901
 4190SOL    HW213470   0.374   6.988   0.856
 4191SOL     OW13471   4.831   4.100   6.033
 4191SOL    HW113472   4.744   4.107   5.984
 4191SOL    HW213473   4.826   4.155   6.117
 4192SOL     OW13474   1.189   1.993   2.210
 4192SOL    HW113475   1.240   2.040   2.138
 4192SOL    HW213476   1.196   2.045   2.295
 4193SOL     OW13477   6.278   0.813   1.108
 4193SOL    HW113478   6.266   0.814   1.207
 4193SOL    HW213479   6.251   0.724   1.071
 4194SOL     OW13480   4.565   1.229   5.438
 4194SOL    HW113481   4.649   1.259   5.485
 4194SOL    HW213482   4.582   1.143   5.390
 4195SOL     OW13483   4.620   5.988   1.886
 4195SOL    HW113484   4.549   6.012   1.820
 4195SOL    HW213485   4.668   6.071   1.914
 4196SOL     OW13486   6.699   1.974   3.339
 4196SOL    HW113487   6.716   2.043   3.269
 4196SOL    HW213488   6.603   1.978   3.368
 4197SOL     OW13489   3.469   6.552   6.555
 4197SOL    HW113490   3.393   6.515   6.501
 4197SOL    HW213491   3.433   6.610   6.628
 4198SOL     OW13492   6.678   0.481   2.345
 4198SOL    HW113493   6.591   0.460   2.300
 4198SOL    HW213494   6.707   0.574   2.321
 4199SOL     OW13495   1.441   4.247   6.253
 4199SOL    HW113496   1.368   4.178   6.253
 4199SOL    HW213497   1.528   4.203   6.276
 4200SOL     OW13498   4.370   0.704   5.160
 4200SOL    HW113499   4.373   0.703   5.260
 4200SOL    HW213500   4.340   0.793   5.129
 4201SOL     OW13501   6.346   6.850   3.972
 4201SOL    HW113502   6.336   6.751   3.979
 4201SOL    HW213503   6.443   6.873   3.970
 4202SOL     OW13504   3.743   5.834   0.322
 4202SOL    HW113505   3.774   5.814   0.229
 4202SOL    HW213506   3.696   5.754   0.359
 4203SOL     OW13507   5.784   5.435   0.225
 4203SOL    HW113508   5.768   5.531   0.251
 4203SOL    HW213509   5.779   5.426   0.125
 4204SOL     OW13510   3.371   3.620   5.633
 4204SOL    HW113511   3.309   3.552   5.673
 4204SOL    HW213512   3.457   3.620   5.683
 4205SOL     OW13513   3.637   5.680   5.137
 4205SOL    HW113514   3.736   5.669   5.136
 4205SOL    HW213515   3.601   5.669   5.044
 4206SOL     OW13516   1.803   2.118   4.834
 4206SOL    HW113517   1.821   2.187   4.764
 4206SOL    HW213518   1.877   2.119   4.901
 4207SOL     OW13519   2.337   2.409   1.493
 4207SOL    HW113520   2.275   2.487   1.483
 4207SOL    HW213521   2.432   2.441   1.495
 4208SOL     OW13522   1.871   3.977   4.903
 4208SOL    HW113523   1.789   3.951   4.953
 4208SOL    HW213524   1.874   3.928   4.816
 4209SOL     OW13525   0.175   5.608   2.684
 4209SOL    HW113526   0.128   5.634   2.768
 4209SOL    HW213527   0.173   5.683   2.619
 4210SOL     OW13528   4.101   3.488   4.838
 4210SOL    HW113529   4.050   3.545   4.774
 4210SOL    HW213530   4.136   3.407   4.790
 4211SOL     OW13531   3.623   2.170   5.293
 4211SOL    HW113532   3.611   2.071   5.300
 4211SOL    HW213533   3.533   2.215   5.297
 4212SOL     OW13534   0.138   1.368   4.031
 4212SOL    HW113535   0.139   1.291   4.095
 4212SOL    HW213536   0.044   1.398   4.015
 4213SOL     OW13537   3.040   0.990   2.862
 4213SOL    HW113538   3.057   0.944   2.950
 4213SOL    HW213539   2.947   0.969   2.832
 4214SOL     OW13540   0.801   5.183   4.116
 4214SOL    HW113541   0.845   5.107   4.163
 4214SOL    HW213542   0.798   5.164   4.017
 4215SOL     OW13543   4.928   6.338   4.930
 4215SOL    HW113544   4.982   6.322   4.848
 4215SOL    HW213545   4.892   6.252   4.964
 4216SOL     OW13546   1.714   0.439   3.039
 4216SOL    HW113547   1.620   0.460   3.010
 4216SOL    HW213548   1.774   0.435   2.959
 4217SOL     OW13549   1.377   0.179   2.042
 4217SOL    HW113550   1.396   0.123   2.122
 4217SOL    HW213551   1.339   0.122   1.969
 4218SOL     OW13552   3.567   1.584   1.238
 4218SOL    HW113553   3.479   1.538   1.222
 4218SOL    HW213554   3.597   1.627   1.153
 4219SOL     OW13555   4.430   6.109   4.192
 4219SOL    HW113556   4.440   6.126   4.290
 4219SOL    HW213557   4.348   6.054   4.176
 4220SOL     OW13558   5.192   2.083   1.569
 4220SOL    HW113559   5.155   2.073   1.477
 4220SOL    HW213560   5.117   2.088   1.635
 4221SOL     OW13561   6.528   5.312   6.585
 4221SOL    HW113562   6.538   5.277   6.678
 4221SOL    HW213563   6.431   5.328   6.566
 4222SOL     OW13564   5.379   2.140   3.786
 4222SOL    HW113565   5.376   2.042   3.764
 4222SOL    HW213566   5.457   2.182   3.740
 4223SOL     OW13567   4.075   4.131   1.319
 4223SOL    HW113568   4.144   4.078   1.368
 4223SOL    HW213569   4.002   4.071   1.287
 4224SOL     OW13570   5.076   3.963   4.763
 4224SOL    HW113571   5.142   4.038   4.767
 4224SOL    HW213572   4.987   3.998   4.734
 4225SOL     OW13573   0.851   2.180   5.167
 4225SOL    HW113574   0.932   2.239   5.159
 4225SOL    HW213575   0.879   2.085   5.159
 4226SOL     OW13576   0.349   5.591   4.616
 4226SOL    HW113577   0.284   5.565   4.687
 4226SOL    HW213578   0.440   5.601   4.657
 4227SOL     OW13579   4.986   5.804   1.810
 4227SOL    HW113580   4.989   5.902   1.832
 4227SOL    HW213581   5.032   5.752   1.881
 4228SOL     OW13582   1.071   5.960   4.632
 4228SOL    HW113583   1.078   6.035   4.697
 4228SOL    HW213584   0.993   5.975   4.571
 4229SOL     OW13585   5.630   5.642   5.797
 4229SOL    HW113586   5.657   5.690   5.714
 4229SOL    HW213587   5.555   5.579   5.776
 4230SOL     OW13588   1.567   0.139   2.767
 4230SOL    HW113589   1.544   0.185   2.682
 4230SOL    HW213590   1.518   0.181   2.843
 4231SOL     OW13591   5.440   0.730   5.455
 4231SOL    HW113592   5.483   0.799   5.397
 4231SOL    HW213593   5.465   0.746   5.550
 4232SOL     OW13594   2.332   5.293   3.355
 4232SOL    HW113595   2.319   5.279   3.453
 4232SOL    HW213596   2.360   5.207   3.312
 4233SOL     OW13597   6.376   6.569   4.016
 4233SOL    HW113598   6.336   6.602   4.102
 4233SOL    HW213599   6.459   6.517   4.037
 4234SOL     OW13600   2.194   5.296   5.521
 4234SOL    HW113601   2.280   5.322   5.478
 4234SOL    HW213602   2.163   5.369   5.582
 4235SOL     OW13603   6.663   4.683   5.562
 4235SOL    HW113604   6.712   4.763   5.596
 4235SOL    HW213605   6.571   4.710   5.534
 4236SOL     OW13606   0.169   5.239   2.378
 4236SOL    HW113607   0.262   5.252   2.413
 4236SOL    HW213608   0.154   5.142   2.359
 4237SOL     OW13609   6.799   3.908   4.092
 4237SOL    HW113610   6.865   3.832   4.101
 4237SOL    HW213611   6.842   3.983   4.041
 4238SOL     OW13612   1.544   0.944   3.275
 4238SOL    HW113613   1.598   0.936   3.191
 4238SOL    HW213614   1.457   0.988   3.255
 4239SOL     OW13615   4.507   0.917   3.212
 4239SOL    HW113616   4.504   0.852   3.137
 4239SOL    HW213617   4.485   1.008   3.178
 4240SOL     OW13618   1.474   5.266   0.069
 4240SOL    HW113619   1.382   5.273   0.030
 4240SOL    HW213620   1.542   5.272   7.015
 4241SOL     OW13621   0.302   1.775   0.760
 4241SOL    HW113622   0.256   1.689   0.783
 4241SOL    HW213623   0.264   1.849   0.815
 4242SOL     OW13624   2.687   2.397   4.250
 4242SOL    HW113625   2.659   2.392   4.346
 4242SOL    HW213626   2.779   2.360   4.240
 4243SOL     OW13627   5.143   0.877   2.763
 4243SOL    HW113628   5.184   0.804   2.817
 4243SOL    HW213629   5.044   0.877   2.776
 4244SOL     OW13630   3.720   3.714   2.071
 4244SOL    HW113631   3.751   3.766   2.150
 4244SOL    HW213632   3.663   3.772   2.013
 4245SOL     OW13633   6.864   2.033   5.890
 4245SOL    HW113634   6.847   2.031   5.989
 4245SOL    HW213635   6.785   2.074   5.844
 4246SOL     OW13636   6.410   3.910   2.877
 4246SOL    HW113637   6.505   3.918   2.849
 4246SOL    HW213638   6.400   3.833   2.941
 4247SOL     OW13639   0.035   6.245   4.651
 4247SOL    HW113640   0.120   6.262   4.601
 4247SOL    HW213641   0.019   6.321   4.714
 4248SOL     OW13642   1.521   2.119   5.217
 4248SOL    HW113643   1.562   2.076   5.137
 4248SOL    HW213644   1.499   2.048   5.285
 4249SOL     OW13645   6.661   3.058   5.526
 4249SOL    HW113646   6.625   3.150   5.509
 4249SOL    HW213647   6.694   3.052   5.620
 4250SOL     OW13648   0.176   4.915   3.340
 4250SOL    HW113649   0.139   4.887   3.429
 4250SOL    HW213650   0.247   4.985   3.354
 4251SOL     OW13651   5.955   4.006   0.590
 4251SOL    HW113652   5.877   3.947   0.572
 4251SOL    HW213653   6.023   3.956   0.644
 4252SOL     OW13654   6.348   5.892   4.849
 4252SOL    HW113655   6.414   5.897   4.924
 4252SOL    HW213656   6.390   5.922   4.764
 4253SOL     OW13657   4.013   0.766   1.759
 4253SOL    HW113658   3.968   0.843   1.803
 4253SOL    HW213659   3.951   0.726   1.691
 4254SOL     OW13660   1.540   2.962   1.683
 4254SOL    HW113661   1.475   3.016   1.736
 4254SOL    HW213662   1.535   2.867   1.711
 4255SOL     OW13663   5.914   2.420   3.738
 4255SOL    HW113664   5.912   2.323   3.712
 4255SOL    HW213665   5.825   2.447   3.773
 4256SOL     OW13666   1.607   6.868   1.279
 4256SOL    HW113667   1.621   6.776   1.315
 4256SOL    HW213668   1.551   6.864   1.197
 4257SOL     OW13669   3.583   1.691   5.552
 4257SOL    HW113670   3.523   1.674   5.630
 4257SOL    HW213671   3.674   1.719   5.585
 4258SOL     OW13672   5.903   6.735   2.198
 4258SOL    HW113673   5.866   6.762   2.286
 4258SOL    HW213674   5.903   6.636   2.191
 4259SOL     OW13675   2.358   1.407   6.798
 4259SOL    HW113676   2.279   1.347   6.784
 4259SOL    HW213677   2.417   1.403   6.717
 4260SOL     OW13678   4.289   5.827   3.742
 4260SOL    HW113679   4.270   5.844   3.645
 4260SOL    HW213680   4.360   5.891   3.773
 4261SOL     OW13681   2.849   6.973   1.552
 4261SOL    HW113682   2.761   7.016   1.572
 4261SOL    HW213683   2.901   6.965   1.637
 4262SOL     OW13684   1.776   5.247   5.755
 4262SOL    HW113685   1.766   5.149   5.737
 4262SOL    HW213686   1.797   5.295   5.670
 4263SOL     OW13687   2.761   6.577   4.666
 4263SOL    HW113688   2.739   6.669   4.698
 4263SOL    HW213689   2.859   6.559   4.681
 4264SOL     OW13690   0.106   1.910   0.546
 4264SOL    HW113691   0.184   1.973   0.535
 4264SOL    HW213692   0.045   1.944   0.617
 4265SOL     OW13693   6.508   1.844   0.202
 4265SOL    HW113694   6.481   1.750   0.223
 4265SOL    HW213695   6.542   1.848   0.108
 4266SOL     OW13696   3.059   5.437   0.039
 4266SOL    HW113697   3.066   5.369   6.984
 4266SOL    HW213698   2.987   5.502   0.017
 4267SOL     OW13699   2.178   3.761   4.973
 4267SOL    HW113700   2.211   3.855   4.977
 4267SOL    HW213701   2.237   3.702   5.029
 4268SOL     OW13702   1.622   6.633   0.193
 4268SOL    HW113703   1.683   6.661   0.266
 4268SOL    HW213704   1.630   6.535   0.177
 4269SOL     OW13705   2.451   2.181   0.415
 4269SOL    HW113706   2.493   2.108   0.468
 4269SOL    HW213707   2.509   2.263   0.419
 4270SOL     OW13708   3.865   3.091   4.650
 4270SOL    HW113709   3.848   3.063   4.744
 4270SOL    HW213710   3.857   3.012   4.590
 4271SOL     OW13711   6.939   0.228   5.338
 4271SOL    HW113712   6.866   0.296   5.346
 4271SOL    HW213713   6.902   0.143   5.301
 4272SOL     OW13714   0.074   4.978   4.828
 4272SOL    HW113715   0.010   5.037   4.778
 4272SOL    HW213716   0.139   5.035   4.878
 4273SOL     OW13717   4.409   6.355   4.610
 4273SOL    HW113718   4.491   6.407   4.586
 4273SOL    HW213719   4.405   6.271   4.555
 4274SOL     OW13720   0.624   6.831   3.229
 4274SOL    HW113721   0.593   6.834   3.134
 4274SOL    HW213722   0.626   6.737   3.261
 4275SOL     OW13723   6.881   0.762   5.744
 4275SOL    HW113724   6.807   0.720   5.692
 4275SOL    HW213725   6.857   0.763   5.842
 4276SOL     OW13726   1.641   5.345   2.592
 4276SOL    HW113727   1.667   5.408   2.518
 4276SOL    HW213728   1.612   5.258   2.553
 4277SOL     OW13729   0.085   4.714   3.800
 4277SOL    HW113730   0.017   4.653   3.842
 4277SOL    HW213731   0.132   4.765   3.872
 4278SOL     OW13732   6.699   6.638   4.997
 4278SOL    HW113733   6.687   6.546   5.034
 4278SOL    HW213734   6.638   6.702   5.044
 4279SOL     OW13735   3.552   6.480   5.572
 4279SOL    HW113736   3.534   6.508   5.478
 4279SOL    HW213737   3.518   6.550   5.634
 4280SOL     OW13738   6.077   1.451   5.327
 4280SOL    HW113739   6.093   1.518   5.400
 4280SOL    HW213740   6.031   1.495   5.250
 4281SOL     OW13741   1.665   4.744   4.456
 4281SOL    HW113742   1.604   4.710   4.385
 4281SOL    HW213743   1.707   4.830   4.426
 4282SOL     OW13744   2.780   2.172   0.159
 4282SOL    HW113745   2.770   2.092   0.217
 4282SOL    HW213746   2.749   2.150   0.066
 4283SOL     OW13747   1.461   0.382   3.617
 4283SOL    HW113748   1.396   0.452   3.645
 4283SOL    HW213749   1.541   0.385   3.678
 4284SOL     OW13750   5.678   0.254   2.898
 4284SOL    HW113751   5.712   0.224   2.987
 4284SOL    HW213752   5.639   0.346   2.907
 4285SOL     OW13753   0.334   0.035   6.064
 4285SOL    HW113754   0.387   0.089   6.130
 4285SOL    HW213755   0.249   0.005   6.107
 4286SOL     OW13756   4.794   5.175   6.300
 4286SOL    HW113757   4.727   5.233   6.253
 4286SOL    HW213758   4.762   5.155   6.392
 4287SOL     OW13759   5.970   0.458   4.740
 4287SOL    HW113760   5.955   0.365   4.774
 4287SOL    HW213761   6.064   0.465   4.706
 4288SOL     OW13762   0.959   6.826   3.456
 4288SOL    HW113763   1.039   6.881   3.481
 4288SOL    HW213764   0.927   6.852   3.365
 4289SOL     OW13765   5.542   2.612   1.914
 4289SOL    HW113766   5.476   2.619   1.840
 4289SOL    HW213767   5.495   2.620   2.002
 4290SOL     OW13768   2.469   6.671   1.294
 4290SOL    HW113769   2.373   6.688   1.271
 4290SOL    HW213770   2.523   6.753   1.273
 4291SOL     OW13771   5.270   3.236   1.236
 4291SOL    HW113772   5.335   3.312   1.235
 4291SOL    HW213773   5.192   3.259   1.294
 4292SOL     OW13774   6.035   4.655   5.464
 4292SOL    HW113775   6.104   4.645   5.536
 4292SOL    HW213776   6.027   4.751   5.438
 4293SOL     OW13777   6.468   4.010   6.492
 4293SOL    HW113778   6.529   3.931   6.492
 4293SOL    HW213779   6.448   4.037   6.398
 4294SOL     OW13780   4.327   2.868   6.692
 4294SOL    HW113781   4.234   2.887   6.724
 4294SOL    HW213782   4.392   2.893   6.763
 4295SOL     OW13783   4.268   0.134   4.658
 4295SOL    HW113784   4.284   0.093   4.748
 4295SOL    HW213785   4.175   0.170   4.654
 4296SOL     OW13786   2.756   1.919   0.265
 4296SOL    HW113787   2.693   1.936   0.340
 4296SOL    HW213788   2.705   1.907   0.180
 4297SOL     OW13789   4.795   6.819   5.397
 4297SOL    HW113790   4.840   6.906   5.419
 4297SOL    HW213791   4.829   6.785   5.310
 4298SOL     OW13792   1.355   5.423   0.309
 4298SOL    HW113793   1.433   5.373   0.273
 4298SOL    HW213794   1.320   5.486   0.239
 4299SOL     OW13795   1.377   3.328   6.221
 4299SOL    HW113796   1.475   3.308   6.227
 4299SOL    HW213797   1.365   3.426   6.201
 4300SOL     OW13798   2.664   1.116   5.911
 4300SOL    HW113799   2.736   1.129   5.980
 4300SOL    HW213800   2.578   1.154   5.945
 4301SOL     OW13801   2.884   1.451   0.374
 4301SOL    HW113802   2.919   1.381   0.312
 4301SOL    HW213803   2.912   1.541   0.341
 4302SOL     OW13804   1.269   6.301   5.963
 4302SOL    HW113805   1.198   6.231   5.961
 4302SOL    HW213806   1.234   6.384   6.005
 4303SOL     OW13807   6.155   4.467   2.839
 4303SOL    HW113808   6.223   4.463   2.766
 4303SOL    HW213809   6.136   4.375   2.872
 4304SOL     OW13810   3.164   3.550   4.362
 4304SOL    HW113811   3.177   3.649   4.354
 4304SOL    HW213812   3.072   3.530   4.393
 4305SOL     OW13813   6.085   1.470   3.835
 4305SOL    HW113814   6.185   1.466   3.828
 4305SOL    HW213815   6.049   1.379   3.858
 4306SOL     OW13816   0.041   3.659   6.579
 4306SOL    HW113817   7.002   3.658   6.661
 4306SOL    HW213818   0.067   3.565   6.556
 4307SOL     OW13819   4.805   4.163   5.553
 4307SOL    HW113820   4.873   4.230   5.584
 4307SOL    HW213821   4.788   4.098   5.627
 4308SOL     OW13822   4.783   6.003   5.796
 4308SOL    HW113823   4.715   6.075   5.782
 4308SOL    HW213824   4.748   5.937   5.863
 4309SOL     OW13825   1.079   0.221   0.432
 4309SOL    HW113826   1.084   0.317   0.460
 4309SOL    HW213827   1.085   0.163   0.513
 4310SOL     OW13828   1.687   2.459   4.079
 4310SOL    HW113829   1.771   2.510   4.098
 4310SOL    HW213830   1.608   2.519   4.088
 4311SOL     OW13831   1.063   6.205   3.117
 4311SOL    HW113832   1.118   6.272   3.165
 4311SOL    HW213833   1.035   6.133   3.181
 4312SOL     OW13834   1.093   5.664   1.629
 4312SOL    HW113835   1.046   5.635   1.545
 4312SOL    HW213836   1.192   5.665   1.612
 4313SOL     OW13837   5.641   1.239   1.764
 4313SOL    HW113838   5.636   1.139   1.767
 4313SOL    HW213839   5.732   1.267   1.733
 4314SOL     OW13840   4.698   2.811   2.992
 4314SOL    HW113841   4.614   2.866   2.992
 4314SOL    HW213842   4.675   2.714   2.994
 4315SOL     OW13843   2.411   0.510   2.167
 4315SOL    HW113844   2.336   0.550   2.219
 4315SOL    HW213845   2.382   0.497   2.072
 4316SOL     OW13846   5.100   6.859   1.139
 4316SOL    HW113847   5.166   6.890   1.207
 4316SOL    HW213848   5.141   6.864   1.048
 4317SOL     OW13849   3.227   1.134   5.464
 4317SOL    HW113850   3.234   1.037   5.489
 4317SOL    HW213851   3.133   1.156   5.440
 4318SOL     OW13852   0.855   3.672   3.731
 4318SOL    HW113853   0.774   3.660   3.673
 4318SOL    HW213854   0.829   3.719   3.815
 4319SOL     OW13855   2.272   3.642   6.632
 4319SOL    HW113856   2.345   3.626   6.565
 4319SOL    HW213857   2.183   3.623   6.591
 4320SOL     OW13858   1.509   6.231   2.258
 4320SOL    HW113859   1.419   6.196   2.286
 4320SOL    HW213860   1.518   6.327   2.287
 4321SOL     OW13861   6.169   0.682   4.893
 4321SOL    HW113862   6.116   0.738   4.830
 4321SOL    HW213863   6.264   0.678   4.864
 4322SOL     OW13864   6.484   1.341   6.344
 4322SOL    HW113865   6.563   1.398   6.366
 4322SOL    HW213866   6.480   1.264   6.407
 4323SOL     OW13867   5.402   3.086   2.156
 4323SOL    HW113868   5.463   3.123   2.086
 4323SOL    HW213869   5.366   2.998   2.126
 4324SOL     OW13870   5.778   4.465   6.664
 4324SOL    HW113871   5.857   4.526   6.674
 4324SOL    HW213872   5.790   4.385   6.723
 4325SOL     OW13873   1.833   0.906   0.545
 4325SOL    HW113874   1.797   0.911   0.452
 4325SOL    HW213875   1.834   0.998   0.585
 4326SOL     OW13876   6.398   3.137   5.222
 4326SOL    HW113877   6.452   3.190   5.287
 4326SOL    HW213878   6.444   3.050   5.202
 4327SOL     OW13879   5.676   5.012   2.400
 4327SOL    HW113880   5.646   5.047   2.489
 4327SOL    HW213881   5.600   5.017   2.335
 4328SOL     OW13882   4.243   4.427   5.625
 4328SOL    HW113883   4.294   4.471   5.699
 4328SOL    HW213884   4.149   4.460   5.625
 4329SOL     OW13885   3.378   1.694   5.733
 4329SOL    HW113886   3.308   1.760   5.706
 4329SOL    HW213887   3.354   1.655   5.821
 4330SOL     OW13888   2.576   0.086   5.589
 4330SOL    HW113889   2.624   0.154   5.534
 4330SOL    HW213890   2.628   0.067   5.672
 4331SOL     OW13891   5.138   3.252   0.733
 4331SOL    HW113892   5.145   3.202   0.819
 4331SOL    HW213893   5.046   3.241   0.695
 4332SOL     OW13894   5.093   3.858   2.048
 4332SOL    HW113895   5.055   3.867   1.956
 4332SOL    HW213896   5.045   3.786   2.097
 4333SOL     OW13897   5.222   1.461   5.401
 4333SOL    HW113898   5.167   1.386   5.364
 4333SOL    HW213899   5.306   1.470   5.346
 4334SOL     OW13900   2.845   2.120   1.830
 4334SOL    HW113901   2.772   2.163   1.778
 4334SOL    HW213902   2.878   2.183   1.900
 4335SOL     OW13903   3.046   3.562   3.785
 4335SOL    HW113904   3.062   3.501   3.708
 4335SOL    HW213905   3.061   3.656   3.757
 4336SOL     OW13906   1.307   6.572   5.451
 4336SOL    HW113907   1.300   6.543   5.546
 4336SOL    HW213908   1.384   6.526   5.407
 4337SOL     OW13909   0.746   4.917   0.197
 4337SOL    HW113910   0.803   4.963   0.129
 4337SOL    HW213911   0.718   4.982   0.267
 4338SOL     OW13912   5.156   5.433   4.947
 4338SOL    HW113913   5.123   5.509   4.890
 4338SOL    HW213914   5.113   5.438   5.037
 4339SOL     OW13915   5.449   2.595   4.837
 4339SOL    HW113916   5.387   2.645   4.898
 4339SOL    HW213917   5.426   2.497   4.840
 4340SOL     OW13918   6.427   3.516   2.191
 4340SOL    HW113919   6.361   3.498   2.118
 4340SOL    HW213920   6.377   3.541   2.274
 4341SOL     OW13921   1.160   3.604   2.116
 4341SOL    HW113922   1.110   3.679   2.160
 4341SOL    HW213923   1.138   3.602   2.019
 4342SOL     OW13924   6.593   2.669   3.517
 4342SOL    HW113925   6.549   2.647   3.604
 4342SOL    HW213926   6.653   2.593   3.491
 4343SOL     OW13927   3.529   0.618   6.977
 4343SOL    HW113928   3.598   0.671   6.929
 4343SOL    HW213929   3.558   0.604   0.053
 4344SOL     OW13930   1.720   5.039   3.235
 4344SOL    HW113931   1.645   5.024   3.299
 4344SOL    HW213932   1.714   4.974   3.160
 4345SOL     OW13933   1.579   3.099   5.377
 4345SOL    HW113934   1.616   3.026   5.319
 4345SOL    HW213935   1.642   3.177   5.376
 4346SOL     OW13936   2.224   3.162   1.808
 4346SOL    HW113937   2.287   3.205   1.744
 4346SOL    HW213938   2.202   3.226   1.881
 4347SOL     OW13939   0.278   0.839   1.794
 4347SOL    HW113940   0.208   0.888   1.741
 4347SOL    HW213941   0.254   0.742   1.799
 4348SOL     OW13942   0.151   3.120   2.383
 4348SOL    HW113943   0.201   3.125   2.469
 4348SOL    HW213944   0.210   3.154   2.309
 4349SOL     OW13945   0.420   1.694   3.039
 4349SOL    HW113946   0.325   1.712   3.012
 4349SOL    HW213947   0.430   1.597   3.062
 4350SOL     OW13948   4.547   2.217   4.308
 4350SOL    HW113949   4.474   2.285   4.296
 4350SOL    HW213950   4.604   2.243   4.386
 4351SOL     OW13951   2.076   6.602   1.908
 4351SOL    HW113952   2.166   6.637   1.933
 4351SOL    HW213953   2.077   6.574   1.812
 4352SOL     OW13954   0.535   2.255   1.697
 4352SOL    HW113955   0.458   2.309   1.661
 4352SOL    HW213956   0.505   2.205   1.778
 4353SOL     OW13957   2.482   5.689   1.070
 4353SOL    HW113958   2.568   5.711   1.025
 4353SOL    HW213959   2.411   5.674   1.001
 4354SOL     OW13960   2.146   6.606   6.768
 4354SOL    HW113961   2.050   6.596   6.741
 4354SOL    HW213962   2.163   6.551   6.850
 4355SOL     OW13963   3.790   0.296   1.772
 4355SOL    HW113964   3.814   0.264   1.864
 4355SOL    HW213965   3.872   0.328   1.725
 4356SOL     OW13966   4.596   4.163   1.644
 4356SOL    HW113967   4.539   4.183   1.564
 4356SOL    HW213968   4.555   4.205   1.725
 4357SOL     OW13969   6.092   0.521   0.143
 4357SOL    HW113970   6.051   0.483   0.060
 4357SOL    HW213971   6.070   0.618   0.150
 4358SOL     OW13972   6.952   6.522   0.782
 4358SOL    HW113973   0.015   6.474   0.812
 4358SOL    HW213974   6.927   6.491   0.690
 4359SOL     OW13975   1.399   2.220   4.452
 4359SOL    HW113976   1.378   2.306   4.497
 4359SOL    HW213977   1.468   2.235   4.381
 4360SOL     OW13978   0.866   3.784   2.459
 4360SOL    HW113979   0.858   3.883   2.456
 4360SOL    HW213980   0.928   3.753   2.386
 4361SOL     OW13981   3.632   2.989   1.593
 4361SOL    HW113982   3.686   2.946   1.666
 4361SOL    HW213983   3.543   2.943   1.588
 4362SOL     OW13984   6.006   3.876   5.621
 4362SOL    HW113985   5.967   3.786   5.642
 4362SOL    HW213986   5.986   3.899   5.526
 4363SOL     OW13987   4.699   2.138   5.879
 4363SOL    HW113988   4.735   2.073   5.811
 4363SOL    HW213989   4.638   2.089   5.941
 4364SOL     OW13990   2.886   3.697   5.421
 4364SOL    HW113991   2.921   3.752   5.497
 4364SOL    HW213992   2.963   3.663   5.366
 4365SOL     OW13993   3.054   1.499   2.535
 4365SOL    HW113994   3.026   1.449   2.453
 4365SOL    HW213995   2.978   1.501   2.600
 4366SOL     OW13996   6.266   6.558   1.363
 4366SOL    HW113997   6.343   6.614   1.393
 4366SOL    HW213998   6.293   6.503   1.284
 4367SOL     OW13999   0.898   4.818   4.899
 4367SOL    HW114000   0.922   4.749   4.968
 4367SOL    HW214001   0.975   4.882   4.889
 4368SOL     OW14002   4.669   5.142   1.118
 4368SOL    HW114003   4.753   5.195   1.120
 4368SOL    HW214004   4.664   5.090   1.033
 4369SOL     OW14005   5.095   5.476   2.337
 4369SOL    HW114006   5.045   5.554   2.299
 4369SOL    HW214007   5.147   5.432   2.263
 4370SOL     OW14008   5.843   4.695   3.185
 4370SOL    HW114009   5.932   4.691   3.231
 4370SOL    HW214010   5.807   4.789   3.191
 4371SOL     OW14011   6.351   0.585   1.921
 4371SOL    HW114012   6.316   0.498   1.956
 4371SOL    HW214013   6.338   0.656   1.990
 4372SOL     OW14014   4.879   1.056   2.990
 4372SOL    HW114015   4.794   1.093   3.027
 4372SOL    HW214016   4.916   1.120   2.922
 4373SOL     OW14017   6.683   3.144   6.589
 4373SOL    HW114018   6.612   3.135   6.520
 4373SOL    HW214019   6.769   3.110   6.554
 4374SOL     OW14020   1.421   2.032   1.644
 4374SOL    HW114021   1.410   2.131   1.658
 4374SOL    HW214022   1.478   1.995   1.717
 4375SOL     OW14023   2.448   6.829   4.087
 4375SOL    HW114024   2.397   6.807   4.003
 4375SOL    HW214025   2.410   6.777   4.163
 4376SOL     OW14026   6.524   6.959   2.394
 4376SOL    HW114027   6.582   6.977   2.474
 4376SOL    HW214028   6.551   0.002   2.320
 4377SOL     OW14029   5.656   3.539   0.298
 4377SOL    HW114030   5.685   3.475   0.227
 4377SOL    HW214031   5.565   3.573   0.277
 4378SOL     OW14032   2.285   0.680   3.267
 4378SOL    HW114033   2.189   0.665   3.246
 4378SOL    HW214034   2.293   0.751   3.337
 4379SOL     OW14035   2.470   1.151   4.312
 4379SOL    HW114036   2.438   1.070   4.362
 4379SOL    HW214037   2.563   1.173   4.341
 4380SOL     OW14038   1.463   1.123   1.567
 4380SOL    HW114039   1.428   1.106   1.659
 4380SOL    HW214040   1.446   1.043   1.510
 4381SOL     OW14041   1.566   5.637   5.057
 4381SOL    HW114042   1.563   5.546   5.016
 4381SOL    HW214043   1.473   5.675   5.060
 4382SOL     OW14044   6.634   3.162   6.096
 4382SOL    HW114045   6.557   3.219   6.126
 4382SOL    HW214046   6.665   3.193   6.006
 4383SOL     OW14047   5.850   3.359   6.465
 4383SOL    HW114048   5.798   3.436   6.504
 4383SOL    HW214049   5.786   3.292   6.428
 4384SOL     OW14050   6.708   1.001   3.356
 4384SOL    HW114051   6.778   1.006   3.427
 4384SOL    HW214052   6.667   1.092   3.343
 4385SOL     OW14053   4.556   2.227   4.717
 4385SOL    HW114054   4.509   2.294   4.661
 4385SOL    HW214055   4.525   2.235   4.812
 4386SOL     OW14056   1.143   4.029   6.092
 4386SOL    HW114057   1.122   3.959   6.025
 4386SOL    HW214058   1.170   3.986   6.179
 4387SOL     OW14059   5.720   3.107   1.233
 4387SOL    HW114060   5.639   3.107   1.175
 4387SOL    HW214061   5.708   3.042   1.308
 4388SOL     OW14062   5.625   2.189   6.400
 4388SOL    HW114063   5.650   2.252   6.326
 4388SOL    HW214064   5.555   2.231   6.457
 4389SOL     OW14065   6.852   3.483   1.613
 4389SOL    HW114066   6.929   3.521   1.561
 4389SOL    HW214067   6.838   3.538   1.695
 4390SOL     OW14068   5.521   6.918   0.469
 4390SOL    HW114069   5.442   6.977   0.450
 4390SOL    HW214070   5.583   6.920   0.391
 4391SOL     OW14071   1.845   5.209   6.443
 4391SOL    HW114072   1.787   5.127   6.446
 4391SOL    HW214073   1.850   5.243   6.349
 4392SOL     OW14074   0.688   1.696   4.047
 4392SOL    HW114075   0.723   1.606   4.073
 4392SOL    HW214076   0.639   1.737   4.123
 4393SOL     OW14077   6.236   0.335   2.035
 4393SOL    HW114078   6.148   0.344   1.988
 4393SOL    HW214079   6.220   0.318   2.132
 4394SOL     OW14080   1.070   0.384   1.304
 4394SOL    HW114081   1.150   0.377   1.244
 4394SOL    HW214082   1.020   0.468   1.284
 4395SOL     OW14083   2.038   0.076   1.750
 4395SOL    HW114084   2.023   6.998   1.767
 4395SOL    HW214085   2.013   0.098   1.656
 4396SOL     OW14086   1.551   1.492   3.794
 4396SOL    HW114087   1.453   1.477   3.778
 4396SOL    HW214088   1.602   1.472   3.710
 4397SOL     OW14089   2.230   2.915   3.861
 4397SOL    HW114090   2.238   2.892   3.764
 4397SOL    HW214091   2.190   3.007   3.871
 4398SOL     OW14092   1.776   3.547   6.135
 4398SOL    HW114093   1.796   3.570   6.040
 4398SOL    HW214094   1.701   3.605   6.168
 4399SOL     OW14095   1.889   6.118   1.524
 4399SOL    HW114096   1.974   6.066   1.531
 4399SOL    HW214097   1.883   6.182   1.601
 4400SOL     OW14098   1.413   6.468   3.880
 4400SOL    HW114099   1.333   6.505   3.832
 4400SOL    HW214100   1.451   6.392   3.827
 4401SOL     OW14101   3.780   6.393   5.408
 4401SOL    HW114102   3.848   6.385   5.334
 4401SOL    HW214103   3.724   6.311   5.410
 4402SOL     OW14104   1.395   0.605   2.070
 4402SOL    HW114105   1.433   0.642   2.155
 4402SOL    HW214106   1.429   0.511   2.057
 4403SOL     OW14107   0.645   5.498   1.174
 4403SOL    HW114108   0.594   5.553   1.240
 4403SOL    HW214109   0.743   5.513   1.188
 4404SOL     OW14110   1.069   5.417   5.316
 4404SOL    HW114111   1.157   5.379   5.289
 4404SOL    HW214112   1.011   5.344   5.353
 4405SOL     OW14113   2.569   4.924   3.104
 4405SOL    HW114114   2.485   4.871   3.104
 4405SOL    HW214115   2.640   4.875   3.155
 4406SOL     OW14116   6.627   3.363   1.683
 4406SOL    HW114117   6.708   3.412   1.652
 4406SOL    HW214118   6.561   3.428   1.721
 4407SOL     OW14119   0.100   5.950   1.761
 4407SOL    HW114120   0.195   5.977   1.776
 4407SOL    HW214121   0.046   6.031   1.735
 4408SOL     OW14122   3.710   6.425   6.885
 4408SOL    HW114123   3.649   6.501   6.861
 4408SOL    HW214124   3.796   6.434   6.834
 4409SOL     OW14125   4.120   0.697   2.443
 4409SOL    HW114126   4.064   0.628   2.397
 4409SOL    HW214127   4.205   0.655   2.474
 4410SOL     OW14128   0.143   6.398   1.134
 4410SOL    HW114129   0.085   6.321   1.162
 4410SOL    HW214130   0.121   6.424   1.040
 4411SOL     OW14131   3.422   4.743   5.575
 4411SOL    HW114132   3.452   4.699   5.660
 4411SOL    HW214133   3.359   4.818   5.597
 4412SOL     OW14134   5.299   0.053   4.220
 4412SOL    HW114135   5.367   0.127   4.214
 4412SOL    HW214136   5.212   0.085   4.182
 4413SOL     OW14137   3.739   6.851   4.251
 4413SOL    HW114138   3.692   6.767   4.225
 4413SOL    HW214139   3.817   6.829   4.309
 4414SOL     OW14140   5.010   5.394   1.558
 4414SOL    HW114141   5.086   5.393   1.624
 4414SOL    HW214142   4.940   5.459   1.588
 4415SOL     OW14143   3.398   3.826   1.525
 4415SOL    HW114144   3.367   3.749   1.469
 4415SOL    HW214145   3.327   3.851   1.590
 4416SOL     OW14146   3.809   1.473   4.218
 4416SOL    HW114147   3.858   1.422   4.147
 4416SOL    HW214148   3.712   1.449   4.214
 4417SOL     OW14149   6.631   2.682   4.019
 4417SOL    HW114150   6.721   2.657   3.982
 4417SOL    HW214151   6.625   2.654   4.114
 4418SOL     OW14152   6.443   1.354   1.485
 4418SOL    HW114153   6.525   1.394   1.525
 4418SOL    HW214154   6.370   1.352   1.552
 4419SOL     OW14155   6.353   5.773   6.035
 4419SOL    HW114156   6.261   5.809   6.050
 4419SOL    HW214157   6.349   5.697   5.970
 4420SOL     OW14158   3.953   2.382   1.486
 4420SOL    HW114159   3.883   2.346   1.548
 4420SOL    HW214160   3.934   2.353   1.393
 4421SOL     OW14161   1.096   3.140   4.954
 4421SOL    HW114162   1.096   3.233   4.993
 4421SOL    HW214163   1.150   3.080   5.014
 4422SOL     OW14164   0.988   5.283   6.805
 4422SOL    HW114165   0.889   5.271   6.803
 4422SOL    HW214166   1.024   5.274   6.712
 4423SOL     OW14167   6.445   4.519   5.671
 4423SOL    HW114168   6.424   4.576   5.592
 4423SOL    HW214169   6.545   4.511   5.681
 4424SOL     OW14170   4.817   5.663   4.154
 4424SOL    HW114171   4.843   5.650   4.059
 4424SOL    HW214172   4.899   5.678   4.210
 4425SOL     OW14173   2.249   5.292   1.094
 4425SOL    HW114174   2.287   5.324   1.181
 4425SOL    HW214175   2.202   5.205   1.108
 4426SOL     OW14176   0.700   0.425   3.631
 4426SOL    HW114177   0.619   0.479   3.653
 4426SOL    HW214178   0.715   0.357   3.703
 4427SOL     OW14179   3.576   6.532   2.651
 4427SOL    HW114180   3.621   6.511   2.564
 4427SOL    HW214181   3.628   6.491   2.726
 4428SOL     OW14182   4.866   0.793   4.442
 4428SOL    HW114183   4.829   0.837   4.360
 4428SOL    HW214184   4.966   0.793   4.438
 4429SOL     OW14185   3.269   6.773   3.220
 4429SOL    HW114186   3.269   6.801   3.124
 4429SOL    HW214187   3.271   6.854   3.279
 4430SOL     OW14188   5.809   4.465   3.881
 4430SOL    HW114189   5.899   4.437   3.914
 4430SOL    HW214190   5.809   4.564   3.865
 4431SOL     OW14191   3.241   0.080   3.738
 4431SOL    HW114192   3.312   0.149   3.719
 4431SOL    HW214193   3.194   0.104   3.823
 4432SOL     OW14194   1.805   3.954   6.691
 4432SOL    HW114195   1.782   4.047   6.719
 4432SOL    HW214196   1.793   3.945   6.592
 4433SOL     OW14197   0.849   1.860   4.782
 4433SOL    HW114198   0.787   1.788   4.811
 4433SOL    HW214199   0.941   1.821   4.768
 4434SOL     OW14200   0.082   1.659   1.594
 4434SOL    HW114201   0.082   1.699   1.502
 4434SOL    HW214202   0.144   1.579   1.596
 4435SOL     OW14203   3.070   3.861   0.704
 4435SOL    HW114204   2.999   3.928   0.724
 4435SOL    HW214205   3.108   3.878   0.613
 4436SOL     OW14206   4.562   2.247   1.533
 4436SOL    HW114207   4.524   2.213   1.619
 4436SOL    HW214208   4.487   2.271   1.471
 4437SOL     OW14209   0.225   3.695   2.453
 4437SOL    HW114210   0.288   3.771   2.436
 4437SOL    HW214211   0.219   3.678   2.551
 4438SOL     OW14212   4.161   6.571   5.656
 4438SOL    HW114213   4.224   6.555   5.731
 4438SOL    HW214214   4.213   6.597   5.574
 4439SOL     OW14215   1.192   6.680   3.066
 4439SOL    HW114216   1.244   6.719   3.142
 4439SOL    HW214217   1.204   6.580   3.066
 4440SOL     OW14218   1.999   4.836   1.165
 4440SOL    HW114219   1.916   4.792   1.199
 4440SOL    HW214220   2.005   4.825   1.066
 4441SOL     OW14221   1.135   1.898   1.004
 4441SOL    HW114222   1.161   1.934   1.094
 4441SOL    HW214223   1.203   1.831   0.974
 4442SOL     OW14224   1.686   5.011   5.655
 4442SOL    HW114225   1.608   4.960   5.691
 4442SOL    HW214226   1.658   5.065   5.576
 4443SOL     OW14227   0.768   4.598   6.492
 4443SOL    HW114228   0.748   4.504   6.463
 4443SOL    HW214229   0.702   4.625   6.562
 4444SOL     OW14230   4.598   4.115   0.799
 4444SOL    HW114231   4.520   4.085   0.855
 4444SOL    HW214232   4.676   4.134   0.858
 4445SOL     OW14233   0.355   5.212   6.247
 4445SOL    HW114234   0.282   5.195   6.182
 4445SOL    HW214235   0.370   5.310   6.256
 4446SOL     OW14236   5.008   1.689   0.557
 4446SOL    HW114237   5.060   1.609   0.588
 4446SOL    HW214238   4.958   1.728   0.634
 4447SOL     OW14239   5.390   4.602   4.909
 4447SOL    HW114240   5.389   4.525   4.974
 4447SOL    HW214241   5.308   4.597   4.851
 4448SOL     OW14242   2.898   6.430   1.172
 4448SOL    HW114243   2.800   6.448   1.180
 4448SOL    HW214244   2.941   6.500   1.116
 4449SOL     OW14245   4.418   1.392   6.530
 4449SOL    HW114246   4.359   1.426   6.604
 4449SOL    HW214247   4.471   1.468   6.493
 4450SOL     OW14248   3.799   1.221   0.170
 4450SOL    HW114249   3.886   1.231   0.123
 4450SOL    HW214250   3.815   1.186   0.263
 4451SOL     OW14251   4.916   4.809   3.795
 4451SOL    HW114252   4.872   4.787   3.883
 4451SOL    HW214253   4.858   4.873   3.744
 4452SOL     OW14254   5.477   5.908   4.537
 4452SOL    HW114255   5.511   5.815   4.551
 4452SOL    HW214256   5.555   5.970   4.527
 4453SOL     OW14257   0.296   3.437   1.365
 4453SOL    HW114258   0.307   3.362   1.300
 4453SOL    HW214259   0.243   3.405   1.444
 4454SOL     OW14260   0.750   1.615   0.141
 4454SOL    HW114261   0.728   1.696   0.088
 4454SOL    HW214262   0.717   1.627   0.235
 4455SOL     OW14263   6.240   5.850   5.104
 4455SOL    HW114264   6.227   5.754   5.128
 4455SOL    HW214265   6.240   5.860   5.005
 4456SOL     OW14266   2.170   6.535   3.358
 4456SOL    HW114267   2.117   6.473   3.416
 4456SOL    HW214268   2.248   6.485   3.320
 4457SOL     OW14269   1.196   2.080   4.620
 4457SOL    HW114270   1.196   2.174   4.654
 4457SOL    HW214271   1.250   2.075   4.536
 4458SOL     OW14272   2.042   3.453   1.766
 4458SOL    HW114273   2.045   3.548   1.734
 4458SOL    HW214274   2.119   3.435   1.827
 4459SOL     OW14275   1.255   2.338   4.708
 4459SOL    HW114276   1.354   2.353   4.715
 4459SOL    HW214277   1.207   2.424   4.724
 4460SOL     OW14278   0.043   2.883   4.082
 4460SOL    HW114279   0.102   2.885   4.163
 4460SOL    HW214280   0.011   2.975   4.062
 4461SOL     OW14281   2.429   0.814   1.700
 4461SOL    HW114282   2.355   0.872   1.734
 4461SOL    HW214283   2.448   0.742   1.767
 4462SOL     OW14284   6.036   3.578   2.120
 4462SOL    HW114285   6.065   3.665   2.159
 4462SOL    HW214286   5.946   3.589   2.077
 4463SOL     OW14287   5.654   1.015   0.787
 4463SOL    HW114288   5.594   1.052   0.858
 4463SOL    HW214289   5.730   1.078   0.772
 4464SOL     OW14290   0.618   5.099   0.746
 4464SOL    HW114291   0.618   5.136   0.839
 4464SOL    HW214292   0.530   5.055   0.728
 4465SOL     OW14293   2.317   5.739   0.306
 4465SOL    HW114294   2.405   5.716   0.348
 4465SOL    HW214295   2.263   5.794   0.371
 4466SOL     OW14296   2.446   2.224   3.898
 4466SOL    HW114297   2.414   2.140   3.854
 4466SOL    HW214298   2.398   2.237   3.985
 4467SOL     OW14299   2.748   6.120   3.869
 4467SOL    HW114300   2.779   6.188   3.935
 4467SOL    HW214301   2.703   6.045   3.916
 4468SOL     OW14302   0.720   2.990   0.912
 4468SOL    HW114303   0.670   2.904   0.901
 4468SOL    HW214304   0.814   2.970   0.940
 4469SOL     OW14305   3.200   0.003   1.574
 4469SOL    HW114306   3.284   6.968   1.564
 4469SOL    HW214307   3.120   6.963   1.562
 4470SOL     OW14308   1.155   0.731   2.519
 4470SOL    HW114309   1.248   0.743   2.554
 4470SOL    HW214310   1.092   0.715   2.595
 4471SOL     OW14311   2.209   2.512   6.357
 4471SOL    HW114312   2.176   2.594   6.403
 4471SOL    HW214313   2.279   2.468   6.413
 4472SOL     OW14314   1.672   3.061   1.343
 4472SOL    HW114315   1.670   3.148   1.293
 4472SOL    HW214316   1.579   3.031   1.361
 4473SOL     OW14317   6.914   2.651   3.945
 4473SOL    HW114318   6.959   2.715   4.007
 4473SOL    HW214319   6.971   2.640   3.863
 4474SOL     OW14320   3.117   0.840   2.181
 4474SOL    HW114321   3.131   0.939   2.179
 4474SOL    HW214322   3.061   0.814   2.103
 4475SOL     OW14323   1.167   3.708   2.563
 4475SOL    HW114324   1.106   3.756   2.499
 4475SOL    HW214325   1.113   3.672   2.639
 4476SOL     OW14326   5.791   1.378   4.369
 4476SOL    HW114327   5.729   1.439   4.319
 4476SOL    HW214328   5.741   1.295   4.396
 4477SOL     OW14329   2.673   0.015   5.210
 4477SOL    HW114330   2.738   0.041   5.281
 4477SOL    HW214331   2.622   0.096   5.179
 4478SOL     OW14332   0.965   0.107   0.985
 4478SOL    HW114333   1.041   0.051   1.018
 4478SOL    HW214334   0.996   0.201   0.973
 4479SOL     OW14335   0.971   2.347   6.898
 4479SOL    HW114336   0.998   2.292   6.976
 4479SOL    HW214337   0.948   2.440   6.929
 4480SOL     OW14338   0.056   4.575   4.488
 4480SOL    HW114339   0.062   4.491   4.542
 4480SOL    HW214340   0.038   4.653   4.548
 4481SOL     OW14341   2.287   4.785   5.521
 4481SOL    HW114342   2.374   4.738   5.509
 4481SOL    HW214343   2.268   4.796   5.618
 4482SOL     OW14344   2.863   4.590   6.471
 4482SOL    HW114345   2.789   4.530   6.439
 4482SOL    HW214346   2.887   4.654   6.399
 4483SOL     OW14347   0.677   2.793   2.024
 4483SOL    HW114348   0.688   2.891   2.040
 4483SOL    HW214349   0.730   2.767   1.943
 4484SOL     OW14350   2.373   3.516   0.384
 4484SOL    HW114351   2.442   3.488   0.317
 4484SOL    HW214352   2.407   3.500   0.476
 4485SOL     OW14353   4.622   2.641   4.563
 4485SOL    HW114354   4.651   2.646   4.467
 4485SOL    HW214355   4.694   2.680   4.621
 4486SOL     OW14356   5.531   4.637   5.525
 4486SOL    HW114357   5.566   4.718   5.573
 4486SOL    HW214358   5.608   4.580   5.496
 4487SOL     OW14359   1.887   3.068   0.268
 4487SOL    HW114360   1.937   2.998   0.319
 4487SOL    HW214361   1.922   3.158   0.291
 4488SOL     OW14362   0.855   4.267   3.873
 4488SOL    HW114363   0.891   4.232   3.787
 4488SOL    HW214364   0.767   4.312   3.858
 4489SOL     OW14365   4.784   5.354   5.081
 4489SOL    HW114366   4.821   5.424   5.019
 4489SOL    HW214367   4.804   5.380   5.175
 4490SOL     OW14368   5.485   1.643   0.824
 4490SOL    HW114369   5.426   1.563   0.840
 4490SOL    HW214370   5.473   1.709   0.898
 4491SOL     OW14371   0.977   2.979   2.866
 4491SOL    HW114372   1.019   2.900   2.821
 4491SOL    HW214373   1.048   3.035   2.909
 4492SOL     OW14374   5.486   0.763   1.857
 4492SOL    HW114375   5.552   0.826   1.816
 4492SOL    HW214376   5.468   0.790   1.952
 4493SOL     OW14377   5.211   6.785   5.070
 4493SOL    HW114378   5.234   6.872   5.026
 4493SOL    HW214379   5.295   6.742   5.104
 4494SOL     OW14380   0.908   0.614   6.183
 4494SOL    HW114381   0.943   0.629   6.275
 4494SOL    HW214382   0.816   0.652   6.176
 4495SOL     OW14383   3.573   5.954   1.970
 4495SOL    HW114384   3.557   5.995   2.060
 4495SOL    HW214385   3.662   5.909   1.969
 4496SOL     OW14386   4.427   6.171   6.316
 4496SOL    HW114387   4.472   6.090   6.279
 4496SOL    HW214388   4.478   6.252   6.289
 4497SOL     OW14389   3.844   2.087   0.101
 4497SOL    HW114390   3.934   2.078   0.145
 4497SOL    HW214391   3.856   2.103   0.003
 4498SOL     OW14392   0.093   5.024   5.820
 4498SOL    HW114393   0.039   4.978   5.749
 4498SOL    HW214394   0.181   4.977   5.830
 4499SOL     OW14395   6.888   1.737   2.744
 4499SOL    HW114396   6.829   1.676   2.795
 4499SOL    HW214397   6.984   1.711   2.758
 4500SOL     OW14398   3.898   5.110   0.284
 4500SOL    HW114399   3.909   5.171   0.206
 4500SOL    HW214400   3.800   5.096   0.302
 4501SOL     OW14401   6.377   1.801   1.929
 4501SOL    HW114402   6.398   1.800   1.831
 4501SOL    HW214403   6.329   1.886   1.952
 4502SOL     OW14404   0.828   3.340   6.906
 4502SOL    HW114405   0.816   3.331   6.807
 4502SOL    HW214406   0.921   3.311   6.930
 4503SOL     OW14407   2.863   0.155   2.461
 4503SOL    HW114408   2.877   0.057   2.472
 4503SOL    HW214409   2.877   0.180   2.365
 4504SOL     OW14410   6.962   1.672   3.496
 4504SOL    HW114411   6.920   1.672   3.406
 4504SOL    HW214412   6.951   1.763   3.538
 4505SOL     OW14413   6.474   4.516   2.662
 4505SOL    HW114414   6.550   4.502   2.599
 4505SOL    HW214415   6.506   4.509   2.756
 4506SOL     OW14416   4.760   2.715   4.337
 4506SOL    HW114417   4.799   2.807   4.343
 4506SOL    HW214418   4.834   2.649   4.323
 4507SOL     OW14419   6.467   3.140   3.548
 4507SOL    HW114420   6.430   3.050   3.527
 4507SOL    HW214421   6.393   3.204   3.565
 4508SOL     OW14422   0.186   4.625   0.293
 4508SOL    HW114423   0.257   4.676   0.342
 4508SOL    HW214424   0.188   4.649   0.196
 4509SOL     OW14425   4.510   1.805   2.275
 4509SOL    HW114426   4.446   1.880   2.257
 4509SOL    HW214427   4.489   1.765   2.365
 4510SOL     OW14428   4.541   1.408   3.893
 4510SOL    HW114429   4.469   1.416   3.962
 4510SOL    HW214430   4.596   1.491   3.892
 4511SOL     OW14431   6.882   4.310   0.917
 4511SOL    HW114432   6.806   4.295   0.854
 4511SOL    HW214433   6.914   4.404   0.909
 4512SOL     OW14434   3.615   2.134   5.626
 4512SOL    HW114435   3.600   2.035   5.624
 4512SOL    HW214436   3.528   2.181   5.610
 4513SOL     OW14437   0.972   5.743   6.540
 4513SOL    HW114438   0.880   5.765   6.573
 4513SOL    HW214439   1.026   5.828   6.535
 4514SOL     OW14440   3.248   3.085   6.237
 4514SOL    HW114441   3.175   3.025   6.203
 4514SOL    HW214442   3.230   3.108   6.332
 4515SOL     OW14443   5.596   6.920   4.896
 4515SOL    HW114444   5.683   6.967   4.879
 4515SOL    HW214445   5.568   6.871   4.813
 4516SOL     OW14446   2.834   1.788   5.922
 4516SOL    HW114447   2.747   1.837   5.908
 4516SOL    HW214448   2.896   1.845   5.976
 4517SOL     OW14449   4.206   0.780   6.064
 4517SOL    HW114450   4.262   0.697   6.076
 4517SOL    HW214451   4.125   0.757   6.009
 4518SOL     OW14452   1.876   6.578   1.215
 4518SOL    HW114453   1.913   6.518   1.286
 4518SOL    HW214454   1.786   6.545   1.186
 4519SOL     OW14455   5.651   6.740   0.264
 4519SOL    HW114456   5.679   6.833   0.288
 4519SOL    HW214457   5.728   6.677   0.278
 4520SOL     OW14458   4.104   6.388   5.382
 4520SOL    HW114459   4.053   6.375   5.467
 4520SOL    HW214460   4.156   6.473   5.387
 4521SOL     OW14461   4.910   2.496   5.228
 4521SOL    HW114462   4.849   2.563   5.270
 4521SOL    HW214463   4.930   2.423   5.295
 4522SOL     OW14464   5.162   3.432   3.322
 4522SOL    HW114465   5.216   3.515   3.332
 4522SOL    HW214466   5.170   3.376   3.404
 4523SOL     OW14467   0.371   3.765   6.446
 4523SOL    HW114468   0.440   3.830   6.414
 4523SOL    HW214469   0.298   3.756   6.378
 4524SOL     OW14470   0.614   3.259   3.028
 4524SOL    HW114471   0.689   3.193   3.033
 4524SOL    HW214472   0.569   3.251   2.939
 4525SOL     OW14473   2.207   2.755   5.972
 4525SOL    HW114474   2.258   2.833   5.936
 4525SOL    HW214475   2.124   2.788   6.017
 4526SOL     OW14476   0.621   0.351   6.435
 4526SOL    HW114477   0.631   0.381   6.530
 4526SOL    HW214478   0.711   0.330   6.397
 4527SOL     OW14479   6.625   0.021   2.889
 4527SOL    HW114480   6.622   0.111   2.844
 4527SOL    HW214481   6.661   0.032   2.982
 4528SOL     OW14482   4.163   0.875   5.512
 4528SOL    HW114483   4.237   0.824   5.467
 4528SOL    HW214484   4.094   0.901   5.444
 4529SOL     OW14485   2.947   1.127   5.414
 4529SOL    HW114486   2.866   1.080   5.377
 4529SOL    HW214487   2.931   1.225   5.417
 4530SOL     OW14488   2.045   6.094   4.921
 4530SOL    HW114489   2.077   6.119   4.829
 4530SOL    HW214490   2.122   6.057   4.973
 4531SOL     OW14491   1.388   4.981   6.368
 4531SOL    HW114492   1.314   4.940   6.315
 4531SOL    HW214493   1.475   4.940   6.339
 4532SOL     OW14494   5.367   0.672   2.948
 4532SOL    HW114495   5.316   0.689   3.032
 4532SOL    HW214496   5.436   0.601   2.965
 4533SOL     OW14497   1.946   0.540   2.496
 4533SOL    HW114498   1.976   0.631   2.527
 4533SOL    HW214499   2.026   0.481   2.485
 4534SOL     OW14500   4.525   1.779   4.473
 4534SOL    HW114501   4.459   1.842   4.514
 4534SOL    HW214502   4.551   1.709   4.540
 4535SOL     OW14503   3.546   2.134   0.983
 4535SOL    HW114504   3.571   2.224   1.018
 4535SOL    HW214505   3.551   2.134   0.883
 4536SOL     OW14506   2.432   2.001   6.086
 4536SOL    HW114507   2.492   2.004   6.166
 4536SOL    HW214508   2.388   2.090   6.075
 4537SOL     OW14509   3.347   3.525   4.151
 4537SOL    HW114510   3.263   3.538   4.203
 4537SOL    HW214511   3.387   3.614   4.130
 4538SOL     OW14512   6.825   2.704   1.516
 4538SOL    HW114513   6.870   2.768   1.578
 4538SOL    HW214514   6.734   2.740   1.492
 4539SOL     OW14515   1.786   5.334   5.103
 4539SOL    HW114516   1.840   5.249   5.101
 4539SOL    HW214517   1.721   5.330   5.179
 4540SOL     OW14518   0.435   1.113   0.705
 4540SOL    HW114519   0.393   1.025   0.685
 4540SOL    HW214520   0.432   1.171   0.623
 4541SOL     OW14521   4.084   1.676   6.335
 4541SOL    HW114522   4.028   1.745   6.288
 4541SOL    HW214523   4.119   1.610   6.268
 4542SOL     OW14524   0.228   2.326   0.614
 4542SOL    HW114525   0.265   2.250   0.559
 4542SOL    HW214526   0.249   2.310   0.710
 4543SOL     OW14527   4.009   2.160   0.651
 4543SOL    HW114528   4.022   2.113   0.563
 4543SOL    HW214529   4.095   2.201   0.681
 4544SOL     OW14530   5.163   4.792   0.461
 4544SOL    HW114531   5.087   4.728   0.452
 4544SOL    HW214532   5.146   4.853   0.538
 4545SOL     OW14533   0.768   4.072   4.698
 4545SOL    HW114534   0.692   4.134   4.678
 4545SOL    HW214535   0.795   4.082   4.794
 4546SOL     OW14536   2.576   1.299   5.634
 4546SOL    HW114537   2.631   1.220   5.659
 4546SOL    HW214538   2.635   1.380   5.628
 4547SOL     OW14539   6.341   0.545   0.433
 4547SOL    HW114540   6.317   0.582   0.343
 4547SOL    HW214541   6.440   0.548   0.445
 4548SOL     OW14542   2.149   2.946   2.733
 4548SOL    HW114543   2.122   3.022   2.792
 4548SOL    HW214544   2.092   2.947   2.650
 4549SOL     OW14545   5.578   4.533   2.515
 4549SOL    HW114546   5.541   4.594   2.586
 4549SOL    HW214547   5.590   4.585   2.431
 4550SOL     OW14548   0.573   4.437   2.751
 4550SOL    HW114549   0.491   4.446   2.807
 4550SOL    HW214550   0.570   4.505   2.677
 4551SOL     OW14551   1.711   3.542   4.682
 4551SOL    HW114552   1.749   3.567   4.771
 4551SOL    HW214553   1.617   3.576   4.675
 4552SOL     OW14554   6.122   1.335   1.268
 4552SOL    HW114555   6.172   1.252   1.290
 4552SOL    HW214556   6.024   1.316   1.267
 4553SOL     OW14557   5.046   4.820   6.223
 4553SOL    HW114558   5.136   4.858   6.201
 4553SOL    HW214559   5.056   4.724   6.249
 4554SOL     OW14560   0.370   6.188   1.432
 4554SOL    HW114561   0.447   6.202   1.370
 4554SOL    HW214562   0.291   6.156   1.381
 4555SOL     OW14563   1.303   1.729   0.027
 4555SOL    HW114564   1.343   1.641   7.018
 4555SOL    HW214565   1.209   1.713   0.058
 4556SOL     OW14566   6.102   3.463   5.908
 4556SOL    HW114567   6.153   3.547   5.888
 4556SOL    HW214568   6.083   3.458   6.006
 4557SOL     OW14569   6.191   5.214   3.994
 4557SOL    HW114570   6.162   5.236   4.088
 4557SOL    HW214571   6.138   5.268   3.929
 4558SOL     OW14572   5.971   3.043   5.430
 4558SOL    HW114573   5.961   3.142   5.415
 4558SOL    HW214574   5.989   3.026   5.526
 4559SOL     OW14575   0.820   3.042   3.078
 4559SOL    HW114576   0.863   3.110   3.138
 4559SOL    HW214577   0.888   3.005   3.015
 4560SOL     OW14578   6.796   4.454   1.600
 4560SOL    HW114579   6.894   4.468   1.588
 4560SOL    HW214580   6.763   4.507   1.678
 4561SOL     OW14581   3.206   2.122   4.240
 4561SOL    HW114582   3.176   2.142   4.146
 4561SOL    HW214583   3.306   2.119   4.243
 4562SOL     OW14584   2.191   0.099   0.658
 4562SOL    HW114585   2.099   0.088   0.697
 4562SOL    HW214586   2.246   0.018   0.680
 4563SOL     OW14587   0.123   2.884   1.493
 4563SOL    HW114588   0.056   2.892   1.566
 4563SOL    HW214589   0.193   2.954   1.504
 4564SOL     OW14590   0.269   4.319   2.159
 4564SOL    HW114591   0.211   4.328   2.078
 4564SOL    HW214592   0.293   4.223   2.172
 4565SOL     OW14593   1.790   0.503   5.058
 4565SOL    HW114594   1.787   0.443   4.978
 4565SOL    HW214595   1.871   0.482   5.113
 4566SOL     OW14596   0.092   4.218   1.474
 4566SOL    HW114597   0.108   4.271   1.391
 4566SOL    HW214598   0.090   4.121   1.451
 4567SOL     OW14599   0.042   0.034   6.186
 4567SOL    HW114600   0.037   0.026   6.286
 4567SOL    HW214601   6.989   6.997   6.144
 4568SOL     OW14602   0.929   4.419   4.079
 4568SOL    HW114603   0.907   4.375   3.993
 4568SOL    HW214604   1.028   4.430   4.087
 4569SOL     OW14605   3.178   0.999   3.163
 4569SOL    HW114606   3.167   1.097   3.177
 4569SOL    HW214607   3.264   0.981   3.116
 4570SOL     OW14608   6.560   5.564   1.251
 4570SOL    HW114609   6.545   5.500   1.327
 4570SOL    HW214610   6.655   5.596   1.254
 4571SOL     OW14611   4.037   2.887   6.583
 4571SOL    HW114612   4.044   2.986   6.595
 4571SOL    HW214613   3.940   2.861   6.580
 4572SOL     OW14614   2.734   2.517   0.074
 4572SOL    HW114615   2.768   2.573   7.017
 4572SOL    HW214616   2.673   2.446   0.038
 4573SOL     OW14617   1.013   6.359   1.101
 4573SOL    HW114618   1.035   6.420   1.176
 4573SOL    HW214619   1.013   6.264   1.133
 4574SOL     OW14620   6.326   3.601   0.192
 4574SOL    HW114621   6.355   3.506   0.196
 4574SOL    HW214622   6.235   3.606   0.150
 4575SOL     OW14623   6.262   0.829   4.609
 4575SOL    HW114624   6.215   0.899   4.662
 4575SOL    HW214625   6.216   0.819   4.520
 4576SOL     OW14626   3.053   4.984   4.922
 4576SOL    HW114627   2.990   5.054   4.888
 4576SOL    HW214628   3.008   4.895   4.918
 4577SOL     OW14629   1.730   2.093   3.290
 4577SOL    HW114630   1.739   2.041   3.375
 4577SOL    HW214631   1.774   2.043   3.215
 4578SOL     OW14632   1.612   0.549   2.743
 4578SOL    HW114633   1.553   0.558   2.824
 4578SOL    HW214634   1.554   0.541   2.662
 4579SOL     OW14635   4.527   0.167   1.885
 4579SOL    HW114636   4.596   0.235   1.910
 4579SOL    HW214637   4.573   0.086   1.847
 4580SOL     OW14638   5.988   3.283   0.155
 4580SOL    HW114639   5.903   3.314   0.113
 4580SOL    HW214640   6.012   3.193   0.118
 4581SOL     OW14641   3.217   6.690   1.990
 4581SOL    HW114642   3.183   6.698   2.084
 4581SOL    HW214643   3.314   6.667   1.991
 4582SOL     OW14644   5.254   0.970   3.040
 4582SOL    HW114645   5.194   0.959   2.960
 4582SOL    HW214646   5.295   0.882   3.063
 4583SOL     OW14647   1.931   0.232   6.509
 4583SOL    HW114648   1.931   0.135   6.485
 4583SOL    HW214649   1.915   0.243   6.607
 4584SOL     OW14650   1.713   0.021   5.949
 4584SOL    HW114651   1.757   0.088   5.890
 4584SOL    HW214652   1.614   0.026   5.936
 4585SOL     OW14653   1.475   4.290   3.384
 4585SOL    HW114654   1.445   4.312   3.476
 4585SOL    HW214655   1.499   4.374   3.335
 4586SOL     OW14656   5.108   4.286   0.182
 4586SOL    HW114657   5.158   4.298   0.268
 4586SOL    HW214658   5.096   4.188   0.165
 4587SOL     OW14659   3.136   3.488   4.770
 4587SOL    HW114660   3.164   3.583   4.785
 4587SOL    HW214661   3.045   3.487   4.728
 4588SOL     OW14662   2.939   3.795   6.164
 4588SOL    HW114663   2.912   3.797   6.260
 4588SOL    HW214664   3.017   3.734   6.153
 4589SOL     OW14665   5.527   6.194   1.868
 4589SOL    HW114666   5.543   6.293   1.864
 4589SOL    HW214667   5.605   6.150   1.912
 4590SOL     OW14668   3.464   5.514   1.781
 4590SOL    HW114669   3.422   5.445   1.722
 4590SOL    HW214670   3.499   5.589   1.725
 4591SOL     OW14671   2.409   6.653   5.224
 4591SOL    HW114672   2.421   6.685   5.130
 4591SOL    HW214673   2.313   6.660   5.250
 4592SOL     OW14674   2.488   1.306   4.617
 4592SOL    HW114675   2.469   1.398   4.651
 4592SOL    HW214676   2.426   1.284   4.542
 4593SOL     OW14677   0.085   5.668   3.167
 4593SOL    HW114678   0.048   5.747   3.215
 4593SOL    HW214679   0.075   5.586   3.224
 4594SOL     OW14680   2.699   0.125   3.189
 4594SOL    HW114681   2.715   0.159   3.097
 4594SOL    HW214682   2.772   0.156   3.250
 4595SOL     OW14683   4.858   1.531   6.183
 4595SOL    HW114684   4.883   1.606   6.122
 4595SOL    HW214685   4.908   1.541   6.270
 4596SOL     OW14686   1.014   0.887   2.349
 4596SOL    HW114687   1.082   0.832   2.398
 4596SOL    HW214688   0.980   0.836   2.270
 4597SOL     OW14689   2.671   5.251   6.774
 4597SOL    HW114690   2.670   5.152   6.767
 4597SOL    HW214691   2.689   5.278   6.869
 4598SOL     OW14692   2.175   5.234   0.070
 4598SOL    HW114693   2.265   5.196   0.050
 4598SOL    HW214694   2.133   5.267   7.004
 4599SOL     OW14695   1.651   4.022   2.810
 4599SOL    HW114696   1.746   3.999   2.831
 4599SOL    HW214697   1.593   3.999   2.888
 4600SOL     OW14698   6.819   6.539   6.058
 4600SOL    HW114699   6.827   6.450   6.102
 4600SOL    HW214700   6.893   6.551   5.992
 4601SOL     OW14701   0.595   0.894   4.728
 4601SOL    HW114702   0.516   0.856   4.680
 4601SOL    HW214703   0.674   0.895   4.666
 4602SOL     OW14704   2.641   0.392   6.636
 4602SOL    HW114705   2.699   0.311   6.623
 4602SOL    HW214706   2.691   0.461   6.688
 4603SOL     OW14707   4.561   5.881   1.122
 4603SOL    HW114708   4.527   5.873   1.215
 4603SOL    HW214709   4.606   5.970   1.110
 4604SOL     OW14710   4.732   0.077   5.966
 4604SOL    HW114711   4.709   0.050   5.873
 4604SOL    HW214712   4.677   0.156   5.993
 4605SOL     OW14713   2.270   0.134   1.910
 4605SOL    HW114714   2.246   0.055   1.965
 4605SOL    HW214715   2.223   0.130   1.822
 4606SOL     OW14716   0.007   6.560   2.687
 4606SOL    HW114717   6.978   6.589   2.604
 4606SOL    HW214718   0.073   6.489   2.664
 4607SOL     OW14719   2.253   4.087   3.083
 4607SOL    HW114720   2.216   3.994   3.079
 4607SOL    HW214721   2.193   4.144   3.139
 4608SOL     OW14722   6.893   3.104   5.168
 4608SOL    HW114723   6.962   3.149   5.226
 4608SOL    HW214724   6.939   3.057   5.093
 4609SOL     OW14725   4.203   6.442   6.605
 4609SOL    HW114726   4.242   6.352   6.627
 4609SOL    HW214727   4.227   6.507   6.677
 4610SOL     OW14728   5.583   2.100   0.021
 4610SOL    HW114729   5.507   2.045   0.056
 4610SOL    HW214730   5.636   2.045   6.975
 4611SOL     OW14731   0.438   0.767   5.844
 4611SOL    HW114732   0.355   0.724   5.807
 4611SOL    HW214733   0.430   0.867   5.835
 4612SOL     OW14734   2.129   6.270   2.496
 4612SOL    HW114735   2.162   6.221   2.577
 4612SOL    HW214736   2.109   6.204   2.423
 4613SOL     OW14737   1.914   4.617   2.215
 4613SOL    HW114738   1.965   4.633   2.300
 4613SOL    HW214739   1.971   4.641   2.137
 4614SOL     OW14740   5.988   3.093   3.805
 4614SOL    HW114741   6.052   3.021   3.830
 4614SOL    HW214742   5.997   3.170   3.868
 4615SOL     OW14743   1.004   1.172   1.280
 4615SOL    HW114744   0.929   1.238   1.276
 4615SOL    HW214745   1.077   1.200   1.218
 4616SOL     OW14746   6.229   2.852   5.119
 4616SOL    HW114747   6.212   2.823   5.025
 4616SOL    HW214748   6.326   2.839   5.141
 4617SOL     OW14749   0.462   2.637   2.083
 4617SOL    HW114750   0.523   2.711   2.055
 4617SOL    HW214751   0.370   2.674   2.098
 4618SOL     OW14752   2.348   3.772   5.552
 4618SOL    HW114753   2.296   3.694   5.586
 4618SOL    HW214754   2.444   3.762   5.576
 4619SOL     OW14755   2.993   6.341   4.415
 4619SOL    HW114756   2.974   6.415   4.480
 4619SOL    HW214757   2.984   6.253   4.462
 4620SOL     OW14758   0.646   5.307   1.425
 4620SOL    HW114759   0.677   5.387   1.374
 4620SOL    HW214760   0.725   5.248   1.446
 4621SOL     OW14761   5.040   0.509   2.708
 4621SOL    HW114762   5.068   0.505   2.804
 4621SOL    HW214763   4.940   0.507   2.702
 4622SOL     OW14764   4.325   5.384   1.127
 4622SOL    HW114765   4.384   5.441   1.185
 4622SOL    HW214766   4.237   5.428   1.115
 4623SOL     OW14767   3.318   4.974   0.985
 4623SOL    HW114768   3.365   4.982   0.896
 4623SOL    HW214769   3.320   4.879   1.015
 4624SOL     OW14770   4.004   1.283   3.472
 4624SOL    HW114771   3.955   1.203   3.438
 4624SOL    HW214772   3.956   1.367   3.445
 4625SOL     OW14773   1.799   5.522   1.829
 4625SOL    HW114774   1.783   5.620   1.811
 4625SOL    HW214775   1.760   5.498   1.918
 4626SOL     OW14776   4.007   4.061   1.736
 4626SOL    HW114777   3.932   4.100   1.683
 4626SOL    HW214778   4.094   4.099   1.705
 4627SOL     OW14779   6.980   5.745   4.812
 4627SOL    HW114780   0.007   5.751   4.723
 4627SOL    HW214781   0.029   5.732   4.884
 4628SOL     OW14782   4.580   4.848   3.539
 4628SOL    HW114783   4.606   4.810   3.628
 4628SOL    HW214784   4.605   4.945   3.535
 4629SOL     OW14785   2.192   5.668   6.643
 4629SOL    HW114786   2.145   5.590   6.602
 4629SOL    HW214787   2.143   5.696   6.725
 4630SOL     OW14788   1.422   4.876   2.398
 4630SOL    HW114789   1.483   4.799   2.414
 4630SOL    HW214790   1.336   4.862   2.447
 4631SOL     OW14791   0.088   0.322   3.873
 4631SOL    HW114792   0.047   0.275   3.795
 4631SOL    HW214793   0.172   0.275   3.900
 4632SOL     OW14794   2.937   5.092   2.828
 4632SOL    HW114795   2.899   5.142   2.750
 4632SOL    HW214796   2.961   4.999   2.799
 4633SOL     OW14797   5.315   1.608   4.463
 4633SOL    HW114798   5.388   1.624   4.398
 4633SOL    HW214799   5.235   1.664   4.439
 4634SOL     OW14800   2.983   3.720   4.947
 4634SOL    HW114801   3.078   3.735   4.975
 4634SOL    HW214802   2.923   3.734   5.026
 4635SOL     OW14803   4.965   5.307   0.873
 4635SOL    HW114804   4.935   5.339   0.963
 4635SOL    HW214805   5.018   5.224   0.883
 4636SOL     OW14806   2.029   5.307   0.570
 4636SOL    HW114807   2.036   5.256   0.656
 4636SOL    HW214808   1.932   5.323   0.549
 4637SOL     OW14809   1.596   6.903   1.927
 4637SOL    HW114810   1.539   6.921   1.847
 4637SOL    HW214811   1.687   6.873   1.897
 4638SOL     OW14812   4.046   5.106   0.652
 4638SOL    HW114813   3.990   5.145   0.725
 4638SOL    HW214814   4.142   5.132   0.666
 4639SOL     OW14815   2.306   2.863   0.642
 4639SOL    HW114816   2.322   2.791   0.711
 4639SOL    HW214817   2.333   2.829   0.552
 4640SOL     OW14818   5.730   3.530   5.875
 4640SOL    HW114819   5.713   3.463   5.802
 4640SOL    HW214820   5.718   3.622   5.839
 4641SOL     OW14821   0.772   6.018   3.994
 4641SOL    HW114822   0.762   5.940   3.932
 4641SOL    HW214823   0.863   6.056   3.986
 4642SOL     OW14824   1.580   1.770   3.830
 4642SOL    HW114825   1.488   1.784   3.865
 4642SOL    HW214826   1.596   1.673   3.814
 4643SOL     OW14827   6.937   2.294   6.811
 4643SOL    HW114828   6.970   2.313   6.719
 4643SOL    HW214829   6.918   2.379   6.859
 4644SOL     OW14830   1.521   1.550   6.935
 4644SOL    HW114831   1.533   1.517   6.841
 4644SOL    HW214832   1.605   1.594   6.966
 4645SOL     OW14833   1.362   0.977   3.891
 4645SOL    HW114834   1.379   0.970   3.792
 4645SOL    HW214835   1.271   0.941   3.912
 4646SOL     OW14836   2.414   5.346   4.062
 4646SOL    HW114837   2.366   5.427   4.027
 4646SOL    HW214838   2.490   5.324   4.001
 4647SOL     OW14839   2.018   6.376   3.022
 4647SOL    HW114840   2.113   6.405   3.015
 4647SOL    HW214841   2.013   6.290   3.073
 4648SOL     OW14842   2.854   1.115   3.742
 4648SOL    HW114843   2.918   1.171   3.689
 4648SOL    HW214844   2.903   1.068   3.816
 4649SOL     OW14845   6.006   0.660   0.653
 4649SOL    HW114846   5.972   0.752   0.672
 4649SOL    HW214847   5.977   0.598   0.727
 4650SOL     OW14848   5.457   6.220   1.415
 4650SOL    HW114849   5.387   6.197   1.482
 4650SOL    HW214850   5.511   6.139   1.394
 4651SOL     OW14851   6.573   3.912   6.135
 4651SOL    HW114852   6.488   3.875   6.174
 4651SOL    HW214853   6.621   3.966   6.203
 4652SOL     OW14854   0.061   6.140   4.264
 4652SOL    HW114855   6.987   6.166   4.293
 4652SOL    HW214856   0.128   6.190   4.319
 4653SOL     OW14857   4.656   5.922   0.598
 4653SOL    HW114858   4.650   5.996   0.664
 4653SOL    HW214859   4.672   5.835   0.646
 4654SOL     OW14860   6.713   6.467   4.536
 4654SOL    HW114861   6.716   6.368   4.547
 4654SOL    HW214862   6.741   6.511   4.621
 4655SOL     OW14863   5.223   2.459   1.338
 4655SOL    HW114864   5.167   2.387   1.297
 4655SOL    HW214865   5.318   2.447   1.311
 4656SOL     OW14866   0.820   0.785   1.762
 4656SOL    HW114867   0.768   0.777   1.847
 4656SOL    HW214868   0.813   0.878   1.726
 4657SOL     OW14869   5.044   6.739   2.033
 4657SOL    HW114870   5.078   6.743   2.126
 4657SOL    HW214871   5.014   6.830   2.004
 4658SOL     OW14872   2.427   2.865   5.508
 4658SOL    HW114873   2.368   2.945   5.501
 4658SOL    HW214874   2.456   2.837   5.417
 4659SOL     OW14875   3.641   4.492   0.954
 4659SOL    HW114876   3.671   4.511   0.861
 4659SOL    HW214877   3.541   4.480   0.955
 4660SOL     OW14878   1.098   6.550   3.820
 4660SOL    HW114879   1.019   6.587   3.771
 4660SOL    HW214880   1.087   6.451   3.831
 4661SOL     OW14881   1.780   3.875   5.535
 4661SOL    HW114882   1.825   3.962   5.556
 4661SOL    HW214883   1.763   3.869   5.437
 4662SOL     OW14884   2.539   6.716   4.953
 4662SOL    HW114885   2.599   6.638   4.969
 4662SOL    HW214886   2.571   6.767   4.874
 4663SOL     OW14887   1.302   0.260   0.249
 4663SOL    HW114888   1.273   0.347   0.208
 4663SOL    HW214889   1.231   0.226   0.310
 4664SOL     OW14890   6.540   7.011   0.956
 4664SOL    HW114891   6.600   0.072   0.957
 4664SOL    HW214892   6.590   6.931   0.991
 4665SOL     OW14893   2.065   0.470   5.564
 4665SOL    HW114894   2.085   0.554   5.515
 4665SOL    HW214895   1.971   0.473   5.599
 4666SOL     OW14896   1.883   2.647   6.770
 4666SOL    HW114897   1.814   2.607   6.710
 4666SOL    HW214898   1.873   2.747   6.769
 4667SOL     OW14899   6.866   3.326   2.141
 4667SOL    HW114900   6.903   3.356   2.229
 4667SOL    HW214901   6.798   3.392   2.109
 4668SOL     OW14902   4.017   2.182   4.793
 4668SOL    HW114903   4.068   2.098   4.778
 4668SOL    HW214904   3.923   2.171   4.760
 4669SOL     OW14905   5.155   6.989   0.598
 4669SOL    HW114906   5.243   0.017   0.584
 4669SOL    HW214907   5.161   6.896   0.563
 4670SOL     OW14908   1.532   3.725   0.156
 4670SOL    HW114909   1.469   3.795   0.123
 4670SOL    HW214910   1.621   3.737   0.112
 4671SOL     OW14911   0.626   3.091   0.168
 4671SOL    HW114912   0.565   3.071   0.246
 4671SOL    HW214913   0.646   3.189   0.166
 4672SOL     OW14914   3.387   4.333   5.600
 4672SOL    HW114915   3.370   4.234   5.599
 4672SOL    HW214916   3.481   4.350   5.569
 4673SOL     OW14917   4.965   0.552   6.541
 4673SOL    HW114918   5.028   0.506   6.479
 4673SOL    HW214919   5.012   0.628   6.587
 4674SOL     OW14920   0.260   1.486   0.521
 4674SOL    HW114921   0.169   1.515   0.495
 4674SOL    HW214922   0.326   1.558   0.498
 4675SOL     OW14923   3.684   6.136   6.937
 4675SOL    HW114924   3.700   6.232   6.914
 4675SOL    HW214925   3.618   6.130   7.012
 4676SOL     OW14926   0.781   6.210   4.945
 4676SOL    HW114927   0.789   6.174   5.038
 4676SOL    HW214928   0.696   6.178   4.904
 4677SOL     OW14929   3.276   0.271   6.715
 4677SOL    HW114930   3.287   0.177   6.682
 4677SOL    HW214931   3.351   0.294   6.777
 4678SOL     OW14932   1.889   4.987   1.772
 4678SOL    HW114933   1.964   4.945   1.722
 4678SOL    HW214934   1.830   5.037   1.709
 4679SOL     OW14935   2.441   1.185   6.115
 4679SOL    HW114936   2.488   1.273   6.122
 4679SOL    HW214937   2.451   1.135   6.201
 4680SOL     OW14938   2.033   5.281   1.488
 4680SOL    HW114939   2.089   5.216   1.436
 4680SOL    HW214940   1.950   5.236   1.520
 4681SOL     OW14941   0.453   5.472   5.198
 4681SOL    HW114942   0.372   5.417   5.216
 4681SOL    HW214943   0.524   5.451   5.265
 4682SOL     OW14944   4.159   6.443   0.310
 4682SOL    HW114945   4.077   6.389   0.331
 4682SOL    HW214946   4.136   6.540   0.316
 4683SOL     OW14947   6.518   3.791   2.438
 4683SOL    HW114948   6.428   3.791   2.481
 4683SOL    HW214949   6.507   3.792   2.338
 4684SOL     OW14950   1.514   2.884   5.045
 4684SOL    HW114951   1.485   2.798   5.087
 4684SOL    HW214952   1.477   2.889   4.952
 4685SOL     OW14953   5.931   5.344   4.084
 4685SOL    HW114954   5.890   5.377   4.169
 4685SOL    HW214955   5.934   5.244   4.086
 4686SOL     OW14956   4.987   6.027   0.035
 4686SOL    HW114957   4.921   5.952   0.036
 4686SOL    HW214958   5.014   6.047   6.959
 4687SOL     OW14959   6.605   4.133   4.421
 4687SOL    HW114960   6.557   4.220   4.417
 4687SOL    HW214961   6.702   4.149   4.435
 4688SOL     OW14962   0.401   3.415   6.702
 4688SOL    HW114963   0.349   3.329   6.702
 4688SOL    HW214964   0.355   3.482   6.760
 4689SOL     OW14965   6.985   0.101   5.894
 4689SOL    HW114966   6.973   0.008   5.860
 4689SOL    HW214967   0.057   0.110   5.936
 4690SOL     OW14968   1.561   1.238   0.285
 4690SOL    HW114969   1.554   1.220   0.187
 4690SOL    HW214970   1.558   1.152   0.335
 4691SOL     OW14971   2.637   4.028   0.949
 4691SOL    HW114972   2.539   4.027   0.932
 4691SOL    HW214973   2.661   4.107   1.006
 4692SOL     OW14974   0.231   4.953   2.957
 4692SOL    HW114975   0.226   4.857   2.986
 4692SOL    HW214976   0.148   5.001   2.983
 4693SOL     OW14977   0.574   1.205   4.529
 4693SOL    HW114978   0.651   1.234   4.586
 4693SOL    HW214979   0.500   1.172   4.588
 4694SOL     OW14980   2.484   1.249   6.996
 4694SOL    HW114981   2.434   1.165   0.000
 4694SOL    HW214982   2.441   1.293   6.918
 4695SOL     OW14983   3.820   2.890   1.796
 4695SOL    HW114984   3.812   2.790   1.799
 4695SOL    HW214985   3.916   2.915   1.786
 4696SOL     OW14986   0.264   3.745   6.180
 4696SOL    HW114987   0.172   3.706   6.177
 4696SOL    HW214988   0.326   3.689   6.125
 4697SOL     OW14989   1.599   4.028   0.185
 4697SOL    HW114990   1.654   3.953   0.149
 4697SOL    HW214991   1.518   4.040   0.128
 4698SOL     OW14992   5.406   4.675   1.323
 4698SOL    HW114993   5.416   4.744   1.251
 4698SOL    HW214994   5.363   4.717   1.403
 4699SOL     OW14995   0.353   0.207   2.149
 4699SOL    HW114996   0.371   0.262   2.067
 4699SOL    HW214997   0.342   0.268   2.227
 4700SOL     OW14998   5.454   1.406   1.092
 4700SOL    HW114999   5.420   1.462   1.016
 4700SOL    HW215000   5.398   1.422   1.173
 4701SOL     OW15001   0.983   1.475   0.514
 4701SOL    HW115002   0.924   1.555   0.504
 4701SOL    HW215003   1.040   1.486   0.596
 4702SOL     OW15004   3.767   3.783   6.645
 4702SOL    HW115005   3.712   3.842   6.587
 4702SOL    HW215006   3.734   3.688   6.638
 4703SOL     OW15007   1.719   1.324   3.060
 4703SOL    HW115008   1.784   1.257   3.025
 4703SOL    HW215009   1.746   1.353   3.152
 4704SOL     OW15010   0.536   6.817   0.977
 4704SOL    HW115011   0.592   6.893   1.010
 4704SOL    HW215012   0.501   6.839   0.886
 4705SOL     OW15013   3.651   2.872   4.168
 4705SOL    HW115014   3.713   2.811   4.217
 4705SOL    HW215015   3.561   2.870   4.211
 4706SOL     OW15016   3.704   5.908   6.776
 4706SOL    HW115017   3.680   5.983   6.838
 4706SOL    HW215018   3.620   5.868   6.739
 4707SOL     OW15019   1.668   5.715   1.061
 4707SOL    HW115020   1.657   5.814   1.056
 4707SOL    HW215021   1.655   5.684   1.155
 4708SOL     OW15022   3.016   2.319   0.658
 4708SOL    HW115023   3.109   2.283   0.653
 4708SOL    HW215024   2.957   2.268   0.595
 4709SOL     OW15025   4.007   4.865   5.382
 4709SOL    HW115026   4.095   4.881   5.338
 4709SOL    HW215027   3.974   4.773   5.359
 4710SOL     OW15028   4.593   1.214   6.941
 4710SOL    HW115029   4.626   1.128   6.981
 4710SOL    HW215030   4.657   1.244   6.870
 4711SOL     OW15031   3.034   0.220   2.252
 4711SOL    HW115032   3.038   0.320   2.254
 4711SOL    HW215033   3.108   0.185   2.195
 4712SOL     OW15034   1.768   4.701   1.207
 4712SOL    HW115035   1.705   4.711   1.130
 4712SOL    HW215036   1.716   4.678   1.289
 4713SOL     OW15037   2.776   5.456   1.391
 4713SOL    HW115038   2.819   5.517   1.458
 4713SOL    HW215039   2.710   5.398   1.439
 4714SOL     OW15040   2.640   1.261   1.610
 4714SOL    HW115041   2.715   1.326   1.600
 4714SOL    HW215042   2.553   1.310   1.608
 4715SOL     OW15043   6.954   3.022   2.722
 4715SOL    HW115044   6.871   2.973   2.749
 4715SOL    HW215045   0.016   2.976   2.760
 4716SOL     OW15046   3.700   5.274   6.726
 4716SOL    HW115047   3.775   5.340   6.733
 4716SOL    HW215048   3.670   5.247   6.817
 4717SOL     OW15049   1.130   5.707   2.732
 4717SOL    HW115050   1.213   5.737   2.685
 4717SOL    HW215051   1.121   5.608   2.723
 4718SOL     OW15052   5.191   1.706   6.625
 4718SOL    HW115053   5.108   1.681   6.674
 4718SOL    HW215054   5.257   1.631   6.631
 4719SOL     OW15055   5.703   3.564   2.641
 4719SOL    HW115056   5.784   3.619   2.623
 4719SOL    HW215057   5.731   3.479   2.687
 4720SOL     OW15058   2.607   6.447   6.052
 4720SOL    HW115059   2.627   6.425   6.148
 4720SOL    HW215060   2.631   6.369   5.995
 4721SOL     OW15061   1.501   2.197   0.920
 4721SOL    HW115062   1.486   2.188   1.018
 4721SOL    HW215063   1.592   2.161   0.897
 4722SOL     OW15064   1.769   6.736   0.396
 4722SOL    HW115065   1.835   6.807   0.420
 4722SOL    HW215066   1.682   6.754   0.441
 4723SOL     OW15067   2.715   6.320   6.827
 4723SOL    HW115068   2.789   6.316   6.760
 4723SOL    HW215069   2.699   6.228   6.863
 4724SOL     OW15070   3.953   6.431   2.426
 4724SOL    HW115071   3.917   6.432   2.332
 4724SOL    HW215072   3.903   6.364   2.480
 4725SOL     OW15073   5.168   6.432   3.177
 4725SOL    HW115074   5.145   6.449   3.081
 4725SOL    HW215075   5.220   6.347   3.184
 4726SOL     OW15076   1.489   3.853   6.494
 4726SOL    HW115077   1.503   3.944   6.534
 4726SOL    HW215078   1.514   3.783   6.561
 4727SOL     OW15079   6.775   5.732   0.326
 4727SOL    HW115080   6.738   5.824   0.313
 4727SOL    HW215081   6.860   5.737   0.378
 4728SOL     OW15082   6.622   1.580   0.069
 4728SOL    HW115083   6.650   1.631   7.006
 4728SOL    HW215084   6.522   1.570   0.069
 4729SOL     OW15085   2.560   0.180   2.135
 4729SOL    HW115086   2.466   0.162   2.163
 4729SOL    HW215087   2.589   0.269   2.171
 4730SOL     OW15088   2.241   6.276   5.700
 4730SOL    HW115089   2.302   6.333   5.755
 4730SOL    HW215090   2.207   6.200   5.756
 4731SOL     OW15091   5.654   1.075   5.012
 4731SOL    HW115092   5.680   1.169   4.989
 4731SOL    HW215093   5.555   1.068   5.016
 4732SOL     OW15094   0.059   3.411   6.848
 4732SOL    HW115095   0.033   3.507   6.838
 4732SOL    HW215096   0.068   3.388   6.945
 4733SOL     OW15097   0.368   3.369   2.801
 4733SOL    HW115098   0.449   3.402   2.752
 4733SOL    HW215099   0.285   3.398   2.753
 4734SOL     OW15100   4.589   3.384   0.094
 4734SOL    HW115101   4.542   3.365   0.008
 4734SOL    HW215102   4.658   3.314   0.111
 4735SOL     OW15103   0.564   4.003   4.134
 4735SOL    HW115104   0.570   4.103   4.131
 4735SOL    HW215105   0.473   3.974   4.105
 4736SOL     OW15106   0.838   1.102   0.074
 4736SOL    HW115107   0.742   1.078   0.063
 4736SOL    HW215108   0.846   1.191   0.118
 4737SOL     OW15109   2.643   4.772   1.987
 4737SOL    HW115110   2.713   4.707   1.957
 4737SOL    HW215111   2.626   4.759   2.085
 4738SOL     OW15112   6.715   6.328   1.897
 4738SOL    HW115113   6.798   6.307   1.948
 4738SOL    HW215114   6.668   6.405   1.940
 4739SOL     OW15115   4.121   0.401   2.491
 4739SOL    HW115116   4.208   0.442   2.521
 4739SOL    HW215117   4.053   0.411   2.564
 4740SOL     OW15118   0.601   2.091   2.745
 4740SOL    HW115119   0.635   1.997   2.735
 4740SOL    HW215120   0.569   2.105   2.838
 4741SOL     OW15121   4.073   2.994   1.784
 4741SOL    HW115122   4.063   3.068   1.851
 4741SOL    HW215123   4.170   2.972   1.774
 4742SOL     OW15124   2.925   6.902   0.287
 4742SOL    HW115125   3.000   6.928   0.348
 4742SOL    HW215126   2.915   6.803   0.285
 4743SOL     OW15127   2.064   4.512   1.772
 4743SOL    HW115128   2.121   4.435   1.801
 4743SOL    HW215129   2.061   4.515   1.672
 4744SOL     OW15130   1.929   6.531   0.951
 4744SOL    HW115131   1.913   6.564   1.044
 4744SOL    HW215132   1.870   6.452   0.933
 4745SOL     OW15133   2.200   4.350   0.723
 4745SOL    HW115134   2.158   4.437   0.694
 4745SOL    HW215135   2.211   4.290   0.644
 4746SOL     OW15136   4.638   5.365   4.043
 4746SOL    HW115137   4.681   5.300   4.105
 4746SOL    HW215138   4.571   5.420   4.093
 4747SOL     OW15139   1.865   3.000   0.623
 4747SOL    HW115140   1.946   3.012   0.680
 4747SOL    HW215141   1.852   3.081   0.566
 4748SOL     OW15142   1.781   6.461   2.865
 4748SOL    HW115143   1.695   6.468   2.915
 4748SOL    HW215144   1.851   6.423   2.925
 4749SOL     OW15145   1.861   0.324   0.475
 4749SOL    HW115146   1.808   0.241   0.489
 4749SOL    HW215147   1.861   0.348   0.378
 4750SOL     OW15148   5.638   3.455   4.778
 4750SOL    HW115149   5.567   3.524   4.762
 4750SOL    HW215150   5.724   3.500   4.800
 4751SOL     OW15151   4.848   0.809   2.515
 4751SOL    HW115152   4.879   0.812   2.610
 4751SOL    HW215153   4.874   0.893   2.469
 4752SOL     OW15154   4.333   2.406   0.137
 4752SOL    HW115155   4.283   2.482   0.095
 4752SOL    HW215156   4.290   2.319   0.112
 4753SOL     OW15157   2.478   6.369   5.219
 4753SOL    HW115158   2.423   6.322   5.288
 4753SOL    HW215159   2.453   6.466   5.218
 4754SOL     OW15160   4.501   4.565   6.713
 4754SOL    HW115161   4.545   4.617   6.640
 4754SOL    HW215162   4.431   4.621   6.756
 4755SOL     OW15163   1.555   0.715   1.855
 4755SOL    HW115164   1.610   0.652   1.909
 4755SOL    HW215165   1.459   0.686   1.858
 4756SOL     OW15166   6.061   4.260   6.692
 4756SOL    HW115167   6.111   4.298   6.770
 4756SOL    HW215168   6.115   4.187   6.650
 4757SOL     OW15169   1.840   3.085   1.563
 4757SOL    HW115170   1.767   3.076   1.495
 4757SOL    HW215171   1.927   3.100   1.517
 4758SOL     OW15172   1.903   0.244   3.090
 4758SOL    HW115173   1.972   0.260   3.019
 4758SOL    HW215174   1.828   0.309   3.078
 4759SOL     OW15175   1.045   4.982   1.350
 4759SOL    HW115176   1.108   4.965   1.274
 4759SOL    HW215177   1.039   4.901   1.407
 4760SOL     OW15178   1.617   6.673   0.882
 4760SOL    HW115179   1.583   6.757   0.841
 4760SOL    HW215180   1.714   6.684   0.905
 4761SOL     OW15181   0.231   6.625   0.836
 4761SOL    HW115182   0.291   6.546   0.825
 4761SOL    HW215183   0.255   6.674   0.920
 4762SOL     OW15184   2.082   5.535   2.457
 4762SOL    HW115185   2.039   5.551   2.545
 4762SOL    HW215186   2.181   5.551   2.464
 4763SOL     OW15187   4.700   5.527   1.970
 4763SOL    HW115188   4.728   5.599   1.907
 4763SOL    HW215189   4.780   5.473   1.997
 4764SOL     OW15190   4.663   3.825   5.969
 4764SOL    HW115191   4.691   3.805   5.875
 4764SOL    HW215192   4.617   3.913   5.972
 4765SOL     OW15193   3.869   1.762   5.563
 4765SOL    HW115194   3.938   1.755   5.635
 4765SOL    HW215195   3.905   1.722   5.479
 4766SOL     OW15196   6.753   6.949   4.238
 4766SOL    HW115197   6.704   6.909   4.316
 4766SOL    HW215198   6.793   6.876   4.182
 4767SOL     OW15199   2.260   5.182   4.633
 4767SOL    HW115200   2.240   5.107   4.570
 4767SOL    HW215201   2.312   5.253   4.584
 4768SOL     OW15202   4.783   2.521   6.905
 4768SOL    HW115203   4.833   2.595   6.860
 4768SOL    HW215204   4.827   2.434   6.885
 4769SOL     OW15205   3.443   5.645   1.338
 4769SOL    HW115206   3.472   5.715   1.272
 4769SOL    HW215207   3.431   5.557   1.290
 4770SOL     OW15208   0.132   1.730   5.476
 4770SOL    HW115209   0.173   1.666   5.411
 4770SOL    HW215210   0.202   1.793   5.510
 4771SOL     OW15211   2.502   0.143   4.912
 4771SOL    HW115212   2.511   0.209   4.986
 4771SOL    HW215213   2.592   0.101   4.894
 4772SOL     OW15214   2.598   5.690   0.786
 4772SOL    HW115215   2.542   5.773   0.796
 4772SOL    HW215216   2.688   5.706   0.827
 4773SOL     OW15217   2.137   5.482   4.803
 4773SOL    HW115218   2.103   5.450   4.715
 4773SOL    HW215219   2.162   5.578   4.797
 4774SOL     OW15220   1.292   3.794   7.005
 4774SOL    HW115221   1.252   3.843   0.063
 4774SOL    HW215222   1.222   3.740   6.959
 4775SOL     OW15223   5.732   6.555   4.999
 4775SOL    HW115224   5.746   6.482   5.066
 4775SOL    HW215225   5.657   6.614   5.029
 4776SOL     OW15226   1.361   0.498   6.291
 4776SOL    HW115227   1.298   0.500   6.212
 4776SOL    HW215228   1.343   0.415   6.345
 4777SOL     OW15229   0.643   6.049   0.900
 4777SOL    HW115230   0.588   5.973   0.864
 4777SOL    HW215231   0.740   6.024   0.898
 4778SOL     OW15232   0.929   2.346   5.460
 4778SOL    HW115233   0.929   2.446   5.459
 4778SOL    HW215234   0.999   2.312   5.396
 4779SOL     OW15235   5.388   1.330   3.739
 4779SOL    HW115236   5.354   1.251   3.790
 4779SOL    HW215237   5.420   1.400   3.803
 4780SOL     OW15238   5.817   2.522   5.315
 4780SOL    HW115239   5.832   2.439   5.263
 4780SOL    HW215240   5.889   2.532   5.384
 4781SOL     OW15241   1.730   5.707   2.227
 4781SOL    HW115242   1.697   5.665   2.311
 4781SOL    HW215243   1.828   5.688   2.216
 4782SOL     OW15244   5.620   4.824   4.648
 4782SOL    HW115245   5.606   4.733   4.686
 4782SOL    HW215246   5.662   4.883   4.716
 4783SOL     OW15247   6.154   3.205   1.149
 4783SOL    HW115248   6.207   3.153   1.216
 4783SOL    HW215249   6.207   3.214   1.065
 4784SOL     OW15250   5.377   2.298   6.551
 4784SOL    HW115251   5.318   2.326   6.627
 4784SOL    HW215252   5.352   2.349   6.468
 4785SOL     OW15253   0.981   6.044   3.530
 4785SOL    HW115254   0.969   5.947   3.550
 4785SOL    HW215255   0.892   6.090   3.535
 4786SOL     OW15256   2.872   6.605   0.667
 4786SOL    HW115257   2.970   6.593   0.650
 4786SOL    HW215258   2.846   6.698   0.641
 4787SOL     OW15259   3.728   1.502   4.518
 4787SOL    HW115260   3.714   1.404   4.533
 4787SOL    HW215261   3.715   1.523   4.421
 4788SOL     OW15262   6.018   6.086   6.789
 4788SOL    HW115263   6.008   6.132   6.877
 4788SOL    HW215264   6.014   6.154   6.715
 4789SOL     OW15265   4.832   0.493   2.359
 4789SOL    HW115266   4.921   0.452   2.378
 4789SOL    HW215267   4.790   0.522   2.445
 4790SOL     OW15268   5.784   2.146   5.173
 4790SOL    HW115269   5.731   2.100   5.102
 4790SOL    HW215270   5.879   2.115   5.169
 4791SOL     OW15271   6.742   2.808   0.529
 4791SOL    HW115272   6.787   2.736   0.476
 4791SOL    HW215273   6.647   2.783   0.545
 4792SOL     OW15274   2.163   3.743   4.004
 4792SOL    HW115275   2.163   3.810   3.930
 4792SOL    HW215276   2.136   3.654   3.969
 4793SOL     OW15277   0.705   3.475   6.259
 4793SOL    HW115278   0.759   3.394   6.233
 4793SOL    HW215279   0.737   3.508   6.348
 4794SOL     OW15280   4.529   0.843   4.125
 4794SOL    HW115281   4.483   0.809   4.207
 4794SOL    HW215282   4.554   0.767   4.066
 4795SOL     OW15283   0.298   0.683   5.461
 4795SOL    HW115284   0.248   0.721   5.539
 4795SOL    HW215285   0.376   0.629   5.495
 4796SOL     OW15286   3.541   1.363   5.589
 4796SOL    HW115287   3.628   1.353   5.637
 4796SOL    HW215288   3.467   1.329   5.646
 4797SOL     OW15289   0.948   5.443   4.515
 4797SOL    HW115290   1.003   5.374   4.468
 4797SOL    HW215291   1.005   5.492   4.581
 4798SOL     OW15292   4.938   4.820   6.493
 4798SOL    HW115293   4.875   4.865   6.555
 4798SOL    HW215294   4.969   4.884   6.423
 4799SOL     OW15295   3.428   2.875   6.470
 4799SOL    HW115296   3.492   2.950   6.488
 4799SOL    HW215297   3.453   2.830   6.384
 4800SOL     OW15298   1.522   4.952   0.146
 4800SOL    HW115299   1.521   5.051   0.138
 4800SOL    HW215300   1.609   4.916   0.111
 4801SOL     OW15301   4.890   2.572   1.790
 4801SOL    HW115302   4.795   2.604   1.789
 4801SOL    HW215303   4.937   2.605   1.708
 4802SOL     OW15304   6.972   6.534   2.181
 4802SOL    HW115305   6.984   6.555   2.278
 4802SOL    HW215306   6.972   6.434   2.169
 4803SOL     OW15307   5.551   4.364   6.508
 4803SOL    HW115308   5.562   4.264   6.509
 4803SOL    HW215309   5.620   4.405   6.567
 4804SOL     OW15310   5.438   1.480   0.596
 4804SOL    HW115311   5.455   1.567   0.641
 4804SOL    HW215312   5.420   1.409   0.664
 4805SOL     OW15313   6.158   1.865   1.226
 4805SOL    HW115314   6.066   1.902   1.241
 4805SOL    HW215315   6.219   1.939   1.195
 4806SOL     OW15316   1.305   2.825   3.072
 4806SOL    HW115317   1.212   2.789   3.065
 4806SOL    HW215318   1.368   2.764   3.023
 4807SOL     OW15319   1.568   2.860   6.614
 4807SOL    HW115320   1.516   2.799   6.555
 4807SOL    HW215321   1.547   2.840   6.710
 4808SOL     OW15322   3.699   5.861   0.708
 4808SOL    HW115323   3.748   5.943   0.677
 4808SOL    HW215324   3.754   5.780   0.688
 4809SOL     OW15325   3.441   4.900   1.660
 4809SOL    HW115326   3.407   4.983   1.703
 4809SOL    HW215327   3.364   4.838   1.642
 4810SOL     OW15328   1.325   3.908   3.759
 4810SOL    HW115329   1.354   3.866   3.673
 4810SOL    HW215330   1.261   3.847   3.806
 4811SOL     OW15331   2.987   3.958   4.818
 4811SOL    HW115332   2.970   3.899   4.896
 4811SOL    HW215333   2.947   3.917   4.736
 4812SOL     OW15334   0.247   6.582   2.354
 4812SOL    HW115335   0.168   6.559   2.296
 4812SOL    HW215336   0.314   6.633   2.300
 4813SOL     OW15337   6.195   1.547   0.031
 4813SOL    HW115338   6.110   1.495   0.019
 4813SOL    HW215339   6.205   1.612   6.974
 4814SOL     OW15340   0.005   3.661   1.488
 4814SOL    HW115341   0.001   3.744   1.544
 4814SOL    HW215342   0.095   3.619   1.497
 4815SOL     OW15343   5.867   4.860   2.553
 4815SOL    HW115344   5.916   4.775   2.536
 4815SOL    HW215345   5.783   4.861   2.499
 4816SOL     OW15346   1.242   6.905   2.267
 4816SOL    HW115347   1.296   6.988   2.251
 4816SOL    HW215348   1.259   6.872   2.359
 4817SOL     OW15349   3.784   1.393   1.612
 4817SOL    HW115350   3.694   1.426   1.642
 4817SOL    HW215351   3.795   1.412   1.514
 4818SOL     OW15352   2.913   0.741   4.753
 4818SOL    HW115353   2.892   0.838   4.735
 4818SOL    HW215354   2.912   0.724   4.851
 4819SOL     OW15355   3.362   0.954   1.270
 4819SOL    HW115356   3.448   0.926   1.313
 4819SOL    HW215357   3.349   1.052   1.280
 4820SOL     OW15358   6.799   4.229   2.394
 4820SOL    HW115359   6.892   4.217   2.430
 4820SOL    HW215360   6.741   4.156   2.430
 4821SOL     OW15361   6.372   5.338   1.655
 4821SOL    HW115362   6.437   5.378   1.720
 4821SOL    HW215363   6.362   5.240   1.674
 4822SOL     OW15364   2.243   4.039   3.516
 4822SOL    HW115365   2.223   4.136   3.507
 4822SOL    HW215366   2.199   3.988   3.442
 4823SOL     OW15367   1.067   0.241   4.296
 4823SOL    HW115368   1.153   0.190   4.301
 4823SOL    HW215369   1.028   0.250   4.388
 4824SOL     OW15370   5.197   2.361   2.634
 4824SOL    HW115371   5.203   2.460   2.620
 4824SOL    HW215372   5.161   2.318   2.551
 4825SOL     OW15373   1.871   3.454   3.518
 4825SOL    HW115374   1.954   3.502   3.487
 4825SOL    HW215375   1.795   3.519   3.524
 4826SOL     OW15376   0.375   6.463   0.488
 4826SOL    HW115377   0.474   6.453   0.497
 4826SOL    HW215378   0.329   6.408   0.559
 4827SOL     OW15379   4.588   1.050   0.855
 4827SOL    HW115380   4.525   0.976   0.833
 4827SOL    HW215381   4.673   1.038   0.802
 4828SOL     OW15382   5.042   3.214   1.662
 4828SOL    HW115383   5.128   3.257   1.635
 4828SOL    HW215384   5.036   3.210   1.761
 4829SOL     OW15385   2.969   0.490   5.869
 4829SOL    HW115386   3.049   0.529   5.824
 4829SOL    HW215387   2.923   0.560   5.923
 4830SOL     OW15388   4.904   5.927   3.652
 4830SOL    HW115389   4.983   5.896   3.705
 4830SOL    HW215390   4.928   6.012   3.604
 4831SOL     OW15391   6.584   4.415   5.182
 4831SOL    HW115392   6.638   4.446   5.260
 4831SOL    HW215393   6.497   4.377   5.215
 4832SOL     OW15394   3.147   3.060   5.836
 4832SOL    HW115395   3.063   3.094   5.878
 4832SOL    HW215396   3.143   3.076   5.737
 4833SOL     OW15397   4.255   1.269   3.327
 4833SOL    HW115398   4.161   1.276   3.362
 4833SOL    HW215399   4.256   1.295   3.230
 4834SOL     OW15400   4.308   1.246   1.373
 4834SOL    HW115401   4.344   1.252   1.280
 4834SOL    HW215402   4.342   1.163   1.417
 4835SOL     OW15403   2.156   6.857   6.622
 4835SOL    HW115404   2.149   6.769   6.668
 4835SOL    HW215405   2.149   6.931   6.689
 4836SOL     OW15406   5.168   1.841   3.992
 4836SOL    HW115407   5.141   1.817   3.899
 4836SOL    HW215408   5.263   1.811   4.008
 4837SOL     OW15409   2.595   2.472   1.240
 4837SOL    HW115410   2.643   2.549   1.199
 4837SOL    HW215411   2.548   2.502   1.323
 4838SOL     OW15412   4.009   4.859   2.114
 4838SOL    HW115413   3.954   4.839   2.033
 4838SOL    HW215414   4.106   4.845   2.093
 4839SOL     OW15415   6.984   5.543   5.803
 4839SOL    HW115416   6.949   5.599   5.728
 4839SOL    HW215417   0.045   5.589   5.844
 4840SOL     OW15418   6.251   6.618   0.332
 4840SOL    HW115419   6.286   6.697   0.382
 4840SOL    HW215420   6.254   6.637   0.234
 4841SOL     OW15421   3.166   6.003   1.865
 4841SOL    HW115422   3.203   5.913   1.887
 4841SOL    HW215423   3.120   6.041   1.946
 4842SOL     OW15424   4.088   5.883   1.669
 4842SOL    HW115425   4.129   5.800   1.707
 4842SOL    HW215426   3.997   5.863   1.634
 4843SOL     OW15427   6.973   4.040   0.241
 4843SOL    HW115428   0.050   4.017   0.261
 4843SOL    HW215429   6.966   4.136   0.214
 4844SOL     OW15430   6.654   2.869   6.737
 4844SOL    HW115431   6.692   2.776   6.741
 4844SOL    HW215432   6.555   2.863   6.719
 4845SOL     OW15433   6.197   5.730   3.841
 4845SOL    HW115434   6.262   5.729   3.917
 4845SOL    HW215435   6.245   5.704   3.757
 4846SOL     OW15436   1.511   3.010   0.978
 4846SOL    HW115437   1.452   2.933   0.955
 4846SOL    HW215438   1.596   3.005   0.924
 4847SOL     OW15439   3.547   1.905   5.329
 4847SOL    HW115440   3.492   1.851   5.392
 4847SOL    HW215441   3.545   1.864   5.238
 4848SOL     OW15442   1.790   1.376   3.307
 4848SOL    HW115443   1.879   1.421   3.300
 4848SOL    HW215444   1.764   1.368   3.403
 4849SOL     OW15445   1.533   0.254   0.383
 4849SOL    HW115446   1.562   0.348   0.404
 4849SOL    HW215447   1.444   0.256   0.336
 4850SOL     OW15448   4.047   0.429   1.665
 4850SOL    HW115449   4.033   0.520   1.625
 4850SOL    HW215450   4.117   0.380   1.613
 4851SOL     OW15451   3.982   6.020   5.731
 4851SOL    HW115452   3.988   5.958   5.809
 4851SOL    HW215453   4.074   6.036   5.694
 4852SOL     OW15454   1.919   0.872   0.076
 4852SOL    HW115455   1.940   0.806   0.004
 4852SOL    HW215456   1.920   0.965   0.038
 4853SOL     OW15457   3.567   1.529   2.920
 4853SOL    HW115458   3.486   1.473   2.902
 4853SOL    HW215459   3.565   1.562   3.014
 4854SOL     OW15460   4.812   5.423   2.306
 4854SOL    HW115461   4.883   5.460   2.368
 4854SOL    HW215462   4.855   5.394   2.221
 4855SOL     OW15463   6.160   1.582   2.043
 4855SOL    HW115464   6.204   1.496   2.067
 4855SOL    HW215465   6.191   1.654   2.106
 4856SOL     OW15466   3.062   4.839   3.949
 4856SOL    HW115467   3.133   4.852   4.019
 4856SOL    HW215468   3.089   4.886   3.865
 4857SOL     OW15469   0.895   2.193   6.051
 4857SOL    HW115470   0.979   2.193   6.106
 4857SOL    HW215471   0.913   2.148   5.963
 4858SOL     OW15472   1.804   2.374   4.713
 4858SOL    HW115473   1.861   2.413   4.640
 4858SOL    HW215474   1.836   2.407   4.802
 4859SOL     OW15475   1.681   5.685   4.804
 4859SOL    HW115476   1.760   5.745   4.787
 4859SOL    HW215477   1.657   5.689   4.901
 4860SOL     OW15478   4.752   5.505   1.618
 4860SOL    HW115479   4.689   5.581   1.638
 4860SOL    HW215480   4.700   5.426   1.586
 4861SOL     OW15481   4.932   4.783   0.077
 4861SOL    HW115482   4.934   4.703   0.136
 4861SOL    HW215483   4.866   4.768   0.003
 4862SOL     OW15484   1.266   5.453   2.838
 4862SOL    HW115485   1.295   5.364   2.874
 4862SOL    HW215486   1.200   5.439   2.764
 4863SOL     OW15487   5.820   4.183   0.442
 4863SOL    HW115488   5.879   4.129   0.501
 4863SOL    HW215489   5.745   4.126   0.407
 4864SOL     OW15490   2.943   1.038   3.377
 4864SOL    HW115491   2.966   1.119   3.323
 4864SOL    HW215492   2.996   0.960   3.344
 4865SOL     OW15493   2.298   6.278   4.282
 4865SOL    HW115494   2.355   6.350   4.322
 4865SOL    HW215495   2.216   6.318   4.241
 4866SOL     OW15496   0.152   3.428   1.624
 4866SOL    HW115497   0.195   3.494   1.685
 4866SOL    HW215498   0.103   3.360   1.678
 4867SOL     OW15499   4.588   5.627   2.521
 4867SOL    HW115500   4.536   5.672   2.449
 4867SOL    HW215501   4.682   5.660   2.520
 4868SOL     OW15502   6.470   4.424   2.036
 4868SOL    HW115503   6.519   4.338   2.040
 4868SOL    HW215504   6.415   4.428   1.953
 4869SOL     OW15505   1.514   1.809   0.403
 4869SOL    HW115506   1.561   1.761   0.477
 4869SOL    HW215507   1.582   1.848   0.341
 4870SOL     OW15508   0.653   6.544   2.198
 4870SOL    HW115509   0.718   6.600   2.248
 4870SOL    HW215510   0.589   6.501   2.262
 4871SOL     OW15511   1.585   0.904   4.322
 4871SOL    HW115512   1.517   0.830   4.327
 4871SOL    HW215513   1.661   0.875   4.265
 4872SOL     OW15514   6.954   6.426   3.122
 4872SOL    HW115515   0.031   6.399   3.112
 4872SOL    HW215516   6.949   6.523   3.145
 4873SOL     OW15517   6.864   5.803   4.497
 4873SOL    HW115518   6.875   5.709   4.529
 4873SOL    HW215519   6.790   5.847   4.548
 4874SOL     OW15520   4.988   2.341   3.304
 4874SOL    HW115521   4.891   2.329   3.320
 4874SOL    HW215522   5.004   2.430   3.261
 4875SOL     OW15523   5.083   6.939   0.016
 4875SOL    HW115524   5.166   6.901   6.995
 4875SOL    HW215525   5.019   6.963   6.962
 4876SOL     OW15526   1.273   1.552   3.417
 4876SOL    HW115527   1.322   1.492   3.354
 4876SOL    HW215528   1.330   1.631   3.439
 4877SOL     OW15529   0.676   2.035   4.955
 4877SOL    HW115530   0.733   2.004   4.879
 4877SOL    HW215531   0.692   1.977   5.035
 4878SOL     OW15532   0.126   1.925   1.852
 4878SOL    HW115533   0.054   1.978   1.897
 4878SOL    HW215534   0.181   1.986   1.794
 4879SOL     OW15535   4.795   1.713   2.341
 4879SOL    HW115536   4.851   1.782   2.387
 4879SOL    HW215537   4.712   1.757   2.306
 4880SOL     OW15538   6.392   2.889   6.680
 4880SOL    HW115539   6.343   2.967   6.719
 4880SOL    HW215540   6.334   2.843   6.613
 4881SOL     OW15541   1.668   2.544   1.406
 4881SOL    HW115542   1.702   2.450   1.410
 4881SOL    HW215543   1.744   2.605   1.382
 4882SOL     OW15544   4.099   2.021   5.099
 4882SOL    HW115545   4.169   1.960   5.062
 4882SOL    HW215546   4.112   2.030   5.198
 4883SOL     OW15547   5.035   3.944   1.773
 4883SOL    HW115548   4.988   3.995   1.701
 4883SOL    HW215549   5.022   3.846   1.759
 4884SOL     OW15550   2.090   5.944   0.894
 4884SOL    HW115551   2.069   6.041   0.900
 4884SOL    HW215552   2.108   5.920   0.798
 4885SOL     OW15553   2.320   4.735   1.932
 4885SOL    HW115554   2.380   4.810   1.960
 4885SOL    HW215555   2.343   4.708   1.838
 4886SOL     OW15556   3.524   0.308   2.121
 4886SOL    HW115557   3.451   0.322   2.188
 4886SOL    HW215558   3.483   0.288   2.032
 4887SOL     OW15559   1.479   6.895   1.682
 4887SOL    HW115560   1.415   6.846   1.622
 4887SOL    HW215561   1.448   6.990   1.691
 4888SOL     OW15562   3.062   6.683   2.703
 4888SOL    HW115563   3.152   6.682   2.747
 4888SOL    HW215564   3.055   6.764   2.645
 4889SOL     OW15565   6.627   1.825   4.685
 4889SOL    HW115566   6.689   1.883   4.633
 4889SOL    HW215567   6.679   1.773   4.753
 4890SOL     OW15568   0.828   0.832   5.462
 4890SOL    HW115569   0.870   0.900   5.402
 4890SOL    HW215570   0.861   0.741   5.437
 4891SOL     OW15571   2.553   4.794   6.194
 4891SOL    HW115572   2.651   4.775   6.204
 4891SOL    HW215573   2.539   4.893   6.193
 4892SOL     OW15574   5.814   6.711   2.443
 4892SOL    HW115575   5.863   6.644   2.497
 4892SOL    HW215576   5.761   6.771   2.503
 4893SOL     OW15577   0.350   2.983   2.016
 4893SOL    HW115578   0.300   3.070   2.016
 4893SOL    HW215579   0.409   2.979   1.936
 4894SOL     OW15580   3.734   0.103   2.048
 4894SOL    HW115581   3.684   0.020   2.072
 4894SOL    HW215582   3.676   0.183   2.065
 4895SOL     OW15583   0.216   4.711   3.149
 4895SOL    HW115584   0.211   4.794   3.204
 4895SOL    HW215585   0.310   4.676   3.150
 4896SOL     OW15586   2.006   5.287   3.859
 4896SOL    HW115587   2.027   5.366   3.802
 4896SOL    HW215588   2.087   5.229   3.868
 4897SOL     OW15589   1.677   5.915   5.541
 4897SOL    HW115590   1.706   6.011   5.535
 4897SOL    HW215591   1.745   5.863   5.593
 4898SOL     OW15592   4.027   1.074   4.963
 4898SOL    HW115593   4.018   1.069   4.863
 4898SOL    HW215594   3.944   1.040   5.006
 4899SOL     OW15595   6.031   5.456   2.255
 4899SOL    HW115596   6.005   5.527   2.320
 4899SOL    HW215597   5.958   5.388   2.249
 4900SOL     OW15598   4.202   6.149   5.558
 4900SOL    HW115599   4.245   6.165   5.469
 4900SOL    HW215600   4.262   6.091   5.613
 4901SOL     OW15601   0.899   2.610   5.479
 4901SOL    HW115602   0.924   2.702   5.448
 4901SOL    HW215603   0.929   2.598   5.574
 4902SOL     OW15604   2.118   0.542   6.270
 4902SOL    HW115605   2.052   0.529   6.344
 4902SOL    HW215606   2.104   0.473   6.200
 4903SOL     OW15607   4.657   5.688   0.956
 4903SOL    HW115608   4.747   5.662   0.992
 4903SOL    HW215609   4.613   5.751   1.020
 4904SOL     OW15610   2.210   0.559   5.939
 4904SOL    HW115611   2.256   0.567   6.027
 4904SOL    HW215612   2.179   0.465   5.925
 4905SOL     OW15613   3.064   0.048   2.789
 4905SOL    HW115614   3.034   0.026   2.696
 4905SOL    HW215615   3.062   0.147   2.802
 4906SOL     OW15616   4.888   3.332   5.157
 4906SOL    HW115617   4.926   3.350   5.066
 4906SOL    HW215618   4.817   3.400   5.178
 4907SOL     OW15619   4.870   1.270   0.485
 4907SOL    HW115620   4.805   1.237   0.417
 4907SOL    HW215621   4.847   1.363   0.511
 4908SOL     OW15622   4.681   0.520   0.386
 4908SOL    HW115623   4.711   0.460   0.460
 4908SOL    HW215624   4.744   0.510   0.308
 4909SOL     OW15625   6.190   3.991   3.204
 4909SOL    HW115626   6.116   3.960   3.146
 4909SOL    HW215627   6.271   3.934   3.190
 4910SOL     OW15628   5.721   0.844   4.853
 4910SOL    HW115629   5.701   0.921   4.914
 4910SOL    HW215630   5.704   0.758   4.900
 4911SOL     OW15631   1.755   2.391   2.751
 4911SOL    HW115632   1.737   2.341   2.666
 4911SOL    HW215633   1.753   2.489   2.733
 4912SOL     OW15634   5.515   1.954   5.712
 4912SOL    HW115635   5.442   1.918   5.771
 4912SOL    HW215636   5.494   1.931   5.617
 4913SOL     OW15637   5.377   2.834   5.975
 4913SOL    HW115638   5.362   2.832   6.074
 4913SOL    HW215639   5.422   2.920   5.950
 4914SOL     OW15640   4.243   0.631   4.911
 4914SOL    HW115641   4.299   0.552   4.937
 4914SOL    HW215642   4.230   0.690   4.990
 4915SOL     OW15643   2.874   6.231   5.505
 4915SOL    HW115644   2.782   6.194   5.491
 4915SOL    HW215645   2.881   6.267   5.598
 4916SOL     OW15646   6.580   0.468   4.357
 4916SOL    HW115647   6.486   0.435   4.357
 4916SOL    HW215648   6.632   0.421   4.286
 4917SOL     OW15649   3.494   5.948   0.913
 4917SOL    HW115650   3.555   5.927   0.837
 4917SOL    HW215651   3.399   5.934   0.884
 4918SOL     OW15652   6.196   5.406   2.039
 4918SOL    HW115653   6.286   5.367   2.060
 4918SOL    HW215654   6.150   5.430   2.124
 4919SOL     OW15655   4.066   3.073   2.112
 4919SOL    HW115656   4.130   2.996   2.111
 4919SOL    HW215657   3.981   3.046   2.158
 4920SOL     OW15658   5.777   0.077   5.298
 4920SOL    HW115659   5.766   0.143   5.224
 4920SOL    HW215660   5.848   0.109   5.361
 4921SOL     OW15661   0.919   6.027   0.873
 4921SOL    HW115662   0.944   5.955   0.808
 4921SOL    HW215663   0.998   6.086   0.888
 4922SOL     OW15664   3.332   2.047   5.163
 4922SOL    HW115665   3.311   2.138   5.127
 4922SOL    HW215666   3.254   1.986   5.149
 4923SOL     OW15667   3.169   1.872   2.925
 4923SOL    HW115668   3.220   1.883   3.010
 4923SOL    HW215669   3.128   1.959   2.898
 4924SOL     OW15670   2.382   1.570   5.774
 4924SOL    HW115671   2.476   1.550   5.748
 4924SOL    HW215672   2.380   1.650   5.834
 4925SOL     OW15673   4.343   6.759   3.250
 4925SOL    HW115674   4.410   6.815   3.297
 4925SOL    HW215675   4.258   6.812   3.238
 4926SOL     OW15676   6.017   1.724   1.566
 4926SOL    HW115677   6.048   1.669   1.489
 4926SOL    HW215678   6.039   1.820   1.549
 4927SOL     OW15679   3.088   2.269   6.534
 4927SOL    HW115680   3.060   2.350   6.483
 4927SOL    HW215681   3.021   2.252   6.607
 4928SOL     OW15682   1.222   1.454   1.174
 4928SOL    HW115683   1.176   1.501   1.249
 4928SOL    HW215684   1.320   1.447   1.194
 4929SOL     OW15685   0.012   0.221   3.644
 4929SOL    HW115686   6.947   0.257   3.604
 4929SOL    HW215687   0.086   0.228   3.578
 4930SOL     OW15688   5.987   0.075   2.253
 4930SOL    HW115689   6.027   7.002   2.244
 4930SOL    HW215690   5.894   0.074   2.217
 4931SOL     OW15691   6.072   6.856   1.605
 4931SOL    HW115692   5.996   6.865   1.670
 4931SOL    HW215693   6.132   6.782   1.634
 4932SOL     OW15694   3.446   4.162   3.108
 4932SOL    HW115695   3.392   4.099   3.164
 4932SOL    HW215696   3.416   4.157   3.013
 4933SOL     OW15697   2.475   6.445   4.381
 4933SOL    HW115698   2.553   6.504   4.364
 4933SOL    HW215699   2.422   6.481   4.458
 4934SOL     OW15700   3.136   6.105   2.606
 4934SOL    HW115701   3.144   6.204   2.596
 4934SOL    HW215702   3.224   6.063   2.582
 4935SOL     OW15703   1.362   2.217   6.904
 4935SOL    HW115704   1.310   2.138   6.936
 4935SOL    HW215705   1.460   2.196   6.908
 4936SOL     OW15706   2.415   4.408   1.161
 4936SOL    HW115707   2.403   4.478   1.090
 4936SOL    HW215708   2.425   4.318   1.117
 4937SOL     OW15709   4.958   3.095   4.780
 4937SOL    HW115710   5.056   3.087   4.799
 4937SOL    HW215711   4.907   3.050   4.853
 4938SOL     OW15712   3.594   5.425   5.544
 4938SOL    HW115713   3.494   5.424   5.538
 4938SOL    HW215714   3.633   5.386   5.461
 4939SOL     OW15715   4.839   3.300   5.769
 4939SOL    HW115716   4.855   3.253   5.856
 4939SOL    HW215717   4.740   3.306   5.753
 4940SOL     OW15718   1.906   6.945   5.286
 4940SOL    HW115719   1.994   6.991   5.293
 4940SOL    HW215720   1.901   6.873   5.355
 4941SOL     OW15721   4.314   1.308   0.034
 4941SOL    HW115722   4.333   1.354   0.120
 4941SOL    HW215723   4.399   1.275   7.012
 4942SOL     OW15724   5.138   3.830   5.398
 4942SOL    HW115725   5.117   3.740   5.437
 4942SOL    HW215726   5.220   3.823   5.341
 4943SOL     OW15727   4.453   2.377   0.877
 4943SOL    HW115728   4.401   2.435   0.940
 4943SOL    HW215729   4.527   2.429   0.836
 4944SOL     OW15730   2.343   4.440   3.297
 4944SOL    HW115731   2.388   4.479   3.216
 4944SOL    HW215732   2.310   4.348   3.276
 4945SOL     OW15733   0.822   6.865   3.977
 4945SOL    HW115734   0.743   6.805   3.962
 4945SOL    HW215735   0.824   6.936   3.907
 4946SOL     OW15736   1.445   3.198   2.040
 4946SOL    HW115737   1.376   3.268   2.023
 4946SOL    HW215738   1.504   3.226   2.116
 4947SOL     OW15739   0.955   6.972   0.750
 4947SOL    HW115740   0.940   6.874   0.761
 4947SOL    HW215741   0.921   0.003   0.830
 4948SOL     OW15742   2.304   1.280   2.669
 4948SOL    HW115743   2.348   1.303   2.581
 4948SOL    HW215744   2.373   1.283   2.741
 4949SOL     OW15745   5.501   0.233   5.157
 4949SOL    HW115746   5.491   0.318   5.105
 4949SOL    HW215747   5.491   0.251   5.255
 4950SOL     OW15748   2.374   6.009   4.805
 4950SOL    HW115749   2.416   5.924   4.835
 4950SOL    HW215750   2.419   6.041   4.721
 4951SOL     OW15751   4.309   1.488   4.369
 4951SOL    HW115752   4.345   1.518   4.457
 4951SOL    HW215753   4.209   1.479   4.376
 4952SOL     OW15754   0.028   6.639   5.160
 4952SOL    HW115755   0.009   6.692   5.077
 4952SOL    HW215756   0.126   6.642   5.180
 4953SOL     OW15757   1.958   5.498   0.968
 4953SOL    HW115758   1.890   5.543   0.910
 4953SOL    HW215759   1.958   5.541   1.058
 4954SOL     OW15760   5.522   5.021   0.141
 4954SOL    HW115761   5.491   4.946   0.199
 4954SOL    HW215762   5.618   5.042   0.161
 4955SOL     OW15763   1.885   6.845   1.183
 4955SOL    HW115764   1.793   6.879   1.205
 4955SOL    HW215765   1.895   6.752   1.218
 4956SOL     OW15766   4.140   0.070   5.363
 4956SOL    HW115767   4.098   0.091   5.275
 4956SOL    HW215768   4.231   0.032   5.348
 4957SOL     OW15769   0.678   1.087   4.310
 4957SOL    HW115770   0.610   1.016   4.293
 4957SOL    HW215771   0.637   1.159   4.366
 4958SOL     OW15772   0.268   6.393   6.547
 4958SOL    HW115773   0.306   6.440   6.468
 4958SOL    HW215774   0.320   6.417   6.629
 4959SOL     OW15775   0.704   1.167   0.386
 4959SOL    HW115776   0.801   1.175   0.362
 4959SOL    HW215777   0.689   1.212   0.474
 4960SOL     OW15778   3.862   6.308   4.057
 4960SOL    HW115779   3.938   6.352   4.103
 4960SOL    HW215780   3.889   6.281   3.964
 4961SOL     OW15781   5.149   6.953   4.792
 4961SOL    HW115782   5.159   6.883   4.722
 4961SOL    HW215783   5.225   7.018   4.787
 4962SOL     OW15784   5.788   2.655   1.846
 4962SOL    HW115785   5.810   2.581   1.782
 4962SOL    HW215786   5.695   2.643   1.880
 4963SOL     OW15787   0.578   5.063   1.142
 4963SOL    HW115788   0.565   5.008   1.059
 4963SOL    HW215789   0.673   5.054   1.172
 4964SOL     OW15790   3.496   6.324   3.290
 4964SOL    HW115791   3.446   6.371   3.216
 4964SOL    HW215792   3.583   6.291   3.255
 4965SOL     OW15793   0.325   6.940   4.612
 4965SOL    HW115794   0.400   6.880   4.582
 4965SOL    HW215795   0.303   6.920   4.707
 4966SOL     OW15796   3.086   6.004   5.112
 4966SOL    HW115797   3.061   6.095   5.144
 4966SOL    HW215798   3.005   5.946   5.110
 4967SOL     OW15799   3.825   2.771   6.907
 4967SOL    HW115800   3.778   2.704   6.850
 4967SOL    HW215801   3.769   2.792   6.988
 4968SOL     OW15802   4.736   2.880   3.641
 4968SOL    HW115803   4.728   2.976   3.668
 4968SOL    HW215804   4.791   2.830   3.708
 4969SOL     OW15805   1.972   1.383   1.444
 4969SOL    HW115806   1.899   1.362   1.379
 4969SOL    HW215807   2.058   1.345   1.411
 4970SOL     OW15808   1.128   1.784   4.722
 4970SOL    HW115809   1.196   1.712   4.707
 4970SOL    HW215810   1.148   1.861   4.661
 4971SOL     OW15811   6.023   6.306   2.884
 4971SOL    HW115812   6.098   6.304   2.817
 4971SOL    HW215813   5.955   6.236   2.860
 4972SOL     OW15814   1.842   3.726   0.756
 4972SOL    HW115815   1.841   3.670   0.839
 4972SOL    HW215816   1.809   3.671   0.679
 4973SOL     OW15817   6.146   6.131   2.274
 4973SOL    HW115818   6.147   6.175   2.184
 4973SOL    HW215819   6.054   6.095   2.292
 4974SOL     OW15820   5.236   5.967   2.797
 4974SOL    HW115821   5.189   5.979   2.884
 4974SOL    HW215822   5.234   5.870   2.771
 4975SOL     OW15823   6.430   6.513   0.609
 4975SOL    HW115824   6.366   6.455   0.559
 4975SOL    HW215825   6.395   6.529   0.701
 4976SOL     OW15826   3.178   1.043   4.797
 4976SOL    HW115827   3.206   1.139   4.809
 4976SOL    HW215828   3.079   1.036   4.808
 4977SOL     OW15829   4.251   3.778   0.410
 4977SOL    HW115830   4.234   3.729   0.496
 4977SOL    HW215831   4.348   3.772   0.386
 4978SOL     OW15832   5.675   3.531   5.421
 4978SOL    HW115833   5.687   3.535   5.322
 4978SOL    HW215834   5.577   3.537   5.443
 4979SOL     OW15835   0.287   0.507   5.783
 4979SOL    HW115836   0.304   0.410   5.797
 4979SOL    HW215837   0.202   0.519   5.731
 4980SOL     OW15838   3.786   5.183   2.427
 4980SOL    HW115839   3.804   5.117   2.354
 4980SOL    HW215840   3.748   5.267   2.388
 4981SOL     OW15841   4.416   6.966   5.492
 4981SOL    HW115842   4.468   6.884   5.515
 4981SOL    HW215843   4.398   0.001   5.574
 4982SOL     OW15844   2.045   2.235   0.003
 4982SOL    HW115845   2.089   2.175   6.954
 4982SOL    HW215846   2.115   2.289   0.050
 4983SOL     OW15847   5.246   2.605   3.791
 4983SOL    HW115848   5.303   2.590   3.711
 4983SOL    HW215849   5.304   2.620   3.871
 4984SOL     OW15850   5.032   4.139   4.322
 4984SOL    HW115851   5.044   4.100   4.230
 4984SOL    HW215852   4.944   4.110   4.359
 4985SOL     OW15853   5.166   5.342   2.759
 4985SOL    HW115854   5.218   5.294   2.688
 4985SOL    HW215855   5.229   5.385   2.824
 4986SOL     OW15856   5.640   4.537   3.258
 4986SOL    HW115857   5.681   4.447   3.244
 4986SOL    HW215858   5.709   4.608   3.245
 4987SOL     OW15859   7.018   3.234   1.106
 4987SOL    HW115860   7.002   3.204   1.012
 4987SOL    HW215861   0.021   3.156   1.164
 4988SOL     OW15862   0.496   1.498   4.356
 4988SOL    HW115863   0.440   1.544   4.286
 4988SOL    HW215864   0.468   1.402   4.363
 4989SOL     OW15865   0.202   1.474   0.778
 4989SOL    HW115866   0.211   1.455   0.681
 4989SOL    HW215867   0.107   1.497   0.799
 4990SOL     OW15868   0.505   2.777   5.204
 4990SOL    HW115869   0.518   2.840   5.281
 4990SOL    HW215870   0.565   2.698   5.215
 4991SOL     OW15871   0.197   2.928   4.306
 4991SOL    HW115872   0.250   3.009   4.331
 4991SOL    HW215873   0.106   2.934   4.345
 4992SOL     OW15874   3.388   0.970   5.243
 4992SOL    HW115875   3.429   1.041   5.299
 4992SOL    HW215876   3.341   1.012   5.165
 4993SOL     OW15877   3.035   5.921   4.232
 4993SOL    HW115878   3.010   5.951   4.140
 4993SOL    HW215879   2.958   5.871   4.272
 4994SOL     OW15880   0.650   0.115   2.970
 4994SOL    HW115881   0.711   0.085   2.896
 4994SOL    HW215882   0.591   0.039   2.998
 4995SOL     OW15883   6.847   2.698   6.146
 4995SOL    HW115884   6.930   2.733   6.190
 4995SOL    HW215885   6.775   2.686   6.215
 4996SOL     OW15886   0.345   2.188   1.973
 4996SOL    HW115887   0.351   2.096   1.934
 4996SOL    HW215888   0.309   2.182   2.066
 4997SOL     OW15889   6.779   2.316   2.708
 4997SOL    HW115890   6.843   2.387   2.677
 4997SOL    HW215891   6.712   2.357   2.770
 4998SOL     OW15892   1.216   5.381   4.468
 4998SOL    HW115893   1.236   5.403   4.563
 4998SOL    HW215894   1.247   5.287   4.449
 4999SOL     OW15895   5.920   5.633   0.886
 4999SOL    HW115896   5.958   5.662   0.797
 4999SOL    HW215897   5.898   5.714   0.940
 5000SOL     OW15898   0.866   0.424   4.522
 5000SOL    HW115899   0.874   0.424   4.621
 5000SOL    HW215900   0.882   0.516   4.487
 5001SOL     OW15901   2.822   4.160   5.485
 5001SOL    HW115902   2.776   4.098   5.421
 5001SOL    HW215903   2.892   4.213   5.436
 5002SOL     OW15904   2.125   1.220   2.202
 5002SOL    HW115905   2.028   1.227   2.223
 5002SOL    HW215906   2.179   1.241   2.283
 5003SOL     OW15907   6.721   6.281   2.665
 5003SOL    HW115908   6.769   6.335   2.734
 5003SOL    HW215909   6.644   6.334   2.629
 5004SOL     OW15910   2.238   5.772   6.361
 5004SOL    HW115911   2.312   5.727   6.411
 5004SOL    HW215912   2.154   5.767   6.414
 5005SOL     OW15913   4.426   3.128   0.622
 5005SOL    HW115914   4.388   3.045   0.663
 5005SOL    HW215915   4.359   3.168   0.559
 5006SOL     OW15916   5.559   6.330   5.152
 5006SOL    HW115917   5.538   6.263   5.081
 5006SOL    HW215918   5.474   6.361   5.195
 5007SOL     OW15919   4.374   1.106   5.826
 5007SOL    HW115920   4.426   1.190   5.833
 5007SOL    HW215921   4.405   1.041   5.896
 5008SOL     OW15922   5.486   1.237   3.486
 5008SOL    HW115923   5.477   1.244   3.585
 5008SOL    HW215924   5.581   1.215   3.463
 5009SOL     OW15925   0.927   6.732   2.313
 5009SOL    HW115926   0.909   6.642   2.353
 5009SOL    HW215927   0.973   6.721   2.225
 5010SOL     OW15928   3.918   3.945   3.475
 5010SOL    HW115929   3.983   3.915   3.545
 5010SOL    HW215930   3.939   3.901   3.388
 5011SOL     OW15931   0.838   2.976   2.275
 5011SOL    HW115932   0.920   3.033   2.289
 5011SOL    HW215933   0.780   3.018   2.206
 5012SOL     OW15934   0.007   2.404   5.644
 5012SOL    HW115935   0.021   2.356   5.731
 5012SOL    HW215936   0.095   2.432   5.607
 5013SOL     OW15937   4.131   1.044   6.037
 5013SOL    HW115938   4.163   0.952   6.012
 5013SOL    HW215939   4.205   1.110   6.024
 5014SOL     OW15940   6.261   6.582   0.854
 5014SOL    HW115941   6.164   6.599   0.835
 5014SOL    HW215942   6.272   6.485   0.878
 5015SOL     OW15943   4.290   2.075   3.948
 5015SOL    HW115944   4.334   2.149   3.898
 5015SOL    HW215945   4.357   2.002   3.965
 5016SOL     OW15946   2.146   0.484   2.742
 5016SOL    HW115947   2.199   0.399   2.747
 5016SOL    HW215948   2.049   0.461   2.731
 5017SOL     OW15949   2.422   1.840   0.974
 5017SOL    HW115950   2.405   1.763   0.913
 5017SOL    HW215951   2.505   1.822   1.028
 5018SOL     OW15952   6.579   4.926   3.270
 5018SOL    HW115953   6.581   4.976   3.356
 5018SOL    HW215954   6.672   4.918   3.234
 5019SOL     OW15955   2.469   4.349   0.726
 5019SOL    HW115956   2.370   4.363   0.731
 5019SOL    HW215957   2.488   4.269   0.669
 5020SOL     OW15958   4.383   5.026   6.536
 5020SOL    HW115959   4.337   5.003   6.450
 5020SOL    HW215960   4.481   5.037   6.519
 5021SOL     OW15961   1.908   4.496   5.546
 5021SOL    HW115962   1.993   4.449   5.569
 5021SOL    HW215963   1.928   4.586   5.509
 5022SOL     OW15964   1.749   6.346   0.931
 5022SOL    HW115965   1.691   6.388   1.001
 5022SOL    HW215966   1.690   6.308   0.859
 5023SOL     OW15967   5.717   2.739   0.873
 5023SOL    HW115968   5.723   2.668   0.943
 5023SOL    HW215969   5.666   2.704   0.795
 5024SOL     OW15970   6.504   3.796   3.476
 5024SOL    HW115971   6.592   3.830   3.508
 5024SOL    HW215972   6.438   3.800   3.551
 5025SOL     OW15973   4.881   2.181   3.013
 5025SOL    HW115974   4.901   2.236   2.932
 5025SOL    HW215975   4.960   2.181   3.074
 5026SOL     OW15976   6.246   5.364   4.282
 5026SOL    HW115977   6.256   5.266   4.268
 5026SOL    HW215978   6.271   5.387   4.376
 5027SOL     OW15979   0.526   0.025   3.363
 5027SOL    HW115980   0.429   0.012   3.342
 5027SOL    HW215981   0.581   6.981   3.307
 5028SOL     OW15982   0.375   6.325   2.871
 5028SOL    HW115983   0.420   6.237   2.884
 5028SOL    HW215984   0.406   6.366   2.784
 5029SOL     OW15985   0.213   2.476   1.371
 5029SOL    HW115986   0.291   2.441   1.424
 5029SOL    HW215987   0.222   2.575   1.361
 5030SOL     OW15988   6.582   0.497   6.654
 5030SOL    HW115989   6.680   0.513   6.647
 5030SOL    HW215990   6.559   0.412   6.606
 5031SOL     OW15991   5.607   0.718   4.431
 5031SOL    HW115992   5.617   0.619   4.427
 5031SOL    HW215993   5.541   0.748   4.362
 5032SOL     OW15994   1.514   5.089   0.971
 5032SOL    HW115995   1.585   5.067   1.038
 5032SOL    HW215996   1.488   5.006   0.922
 5033SOL     OW15997   2.518   4.568   5.552
 5033SOL    HW115998   2.582   4.491   5.548
 5033SOL    HW215999   2.458   4.558   5.630
 5034SOL     OW16000   6.274   2.080   1.922
 5034SOL    HW116001   6.297   2.146   1.993
 5034SOL    HW216002   6.175   2.061   1.924
 5035SOL     OW16003   4.949   5.554   0.513
 5035SOL    HW116004   4.907   5.474   0.556
 5035SOL    HW216005   5.003   5.525   0.433
 5036SOL     OW16006   0.774   6.338   0.959
 5036SOL    HW116007   0.747   6.244   0.980
 5036SOL    HW216008   0.852   6.363   1.016
 5037SOL     OW16009   4.149   1.575   3.806
 5037SOL    HW116010   4.246   1.567   3.785
 5037SOL    HW216011   4.103   1.488   3.789
 5038SOL     OW16012   0.653   5.716   5.504
 5038SOL    HW116013   0.722   5.666   5.557
 5038SOL    HW216014   0.602   5.776   5.566
 5039SOL     OW16015   2.456   2.737   5.243
 5039SOL    HW116016   2.385   2.677   5.205
 5039SOL    HW216017   2.454   2.825   5.196
 5040SOL     OW16018   3.206   3.679   6.199
 5040SOL    HW116019   3.226   3.776   6.213
 5040SOL    HW216020   3.273   3.640   6.136
 5041SOL     OW16021   0.944   3.392   1.608
 5041SOL    HW116022   0.967   3.299   1.638
 5041SOL    HW216023   0.845   3.405   1.613
 5042SOL     OW16024   5.639   3.174   6.430
 5042SOL    HW116025   5.610   3.168   6.526
 5042SOL    HW216026   5.557   3.176   6.372
 5043SOL     OW16027   4.097   0.568   3.487
 5043SOL    HW116028   4.142   0.531   3.405
 5043SOL    HW216029   3.999   0.551   3.483
 5044SOL     OW16030   5.932   5.459   3.250
 5044SOL    HW116031   5.891   5.497   3.333
 5044SOL    HW216032   5.958   5.364   3.267
 5045SOL     OW16033   6.101   3.025   0.122
 5045SOL    HW116034   6.091   3.004   0.219
 5045SOL    HW216035   6.194   3.056   0.103
 5046SOL     OW16036   3.357   3.242   5.039
 5046SOL    HW116037   3.290   3.170   5.021
 5046SOL    HW216038   3.449   3.203   5.035
 5047SOL     OW16039   6.250   0.585   2.629
 5047SOL    HW116040   6.322   0.572   2.697
 5047SOL    HW216041   6.289   0.626   2.546
 5048SOL     OW16042   6.997   2.370   1.306
 5048SOL    HW116043   6.919   2.431   1.291
 5048SOL    HW216044   0.055   2.422   1.344
 5049SOL     OW16045   0.903   2.148   2.057
 5049SOL    HW116046   0.923   2.120   2.151
 5049SOL    HW216047   0.904   2.248   2.051
 5050SOL     OW16048   0.920   2.825   1.807
 5050SOL    HW116049   0.962   2.885   1.739
 5050SOL    HW216050   0.991   2.789   1.868
 5051SOL     OW16051   2.613   4.558   0.773
 5051SOL    HW116052   2.642   4.549   0.869
 5051SOL    HW216053   2.564   4.475   0.746
 5052SOL     OW16054   4.635   5.131   0.835
 5052SOL    HW116055   4.575   5.209   0.849
 5052SOL    HW216056   4.654   5.120   0.737
 5053SOL     OW16057   2.593   4.154   1.396
 5053SOL    HW116058   2.506   4.105   1.390
 5053SOL    HW216059   2.644   4.121   1.475
 5054SOL     OW16060   3.393   5.891   4.631
 5054SOL    HW116061   3.348   5.816   4.583
 5054SOL    HW216062   3.342   5.913   4.714
 5055SOL     OW16063   1.130   1.517   5.414
 5055SOL    HW116064   1.032   1.525   5.428
 5055SOL    HW216065   1.151   1.526   5.317
 5056SOL     OW16066   0.157   3.775   5.834
 5056SOL    HW116067   0.066   3.808   5.860
 5056SOL    HW216068   0.220   3.853   5.828
 5057SOL     OW16069   0.555   5.846   3.721
 5057SOL    HW116070   0.567   5.834   3.623
 5057SOL    HW216071   0.628   5.799   3.770
 5058SOL     OW16072   4.679   4.085   6.513
 5058SOL    HW116073   4.642   3.993   6.497
 5058SOL    HW216074   4.749   4.104   6.444
 5059SOL     OW16075   3.529   2.089   4.870
 5059SOL    HW116076   3.481   2.004   4.849
 5059SOL    HW216077   3.469   2.167   4.848
 5060SOL     OW16078   0.493   3.344   5.032
 5060SOL    HW116079   0.442   3.430   5.023
 5060SOL    HW216080   0.429   3.267   5.027
 5061SOL     OW16081   3.757   3.394   4.625
 5061SOL    HW116082   3.799   3.305   4.608
 5061SOL    HW216083   3.660   3.381   4.645
 5062SOL     OW16084   5.225   1.175   3.280
 5062SOL    HW116085   5.276   1.145   3.200
 5062SOL    HW216086   5.168   1.253   3.256
 5063SOL     OW16087   1.214   6.755   2.498
 5063SOL    HW116088   1.141   6.821   2.481
 5063SOL    HW216089   1.226   6.744   2.597
 5064SOL     OW16090   4.675   5.589   0.392
 5064SOL    HW116091   4.644   5.632   0.477
 5064SOL    HW216092   4.771   5.611   0.376
 5065SOL     OW16093   2.542   0.069   3.503
 5065SOL    HW116094   2.633   0.029   3.515
 5065SOL    HW216095   2.478   7.016   3.472
 5066SOL     OW16096   2.106   4.849   1.691
 5066SOL    HW116097   2.100   4.850   1.591
 5066SOL    HW216098   2.196   4.882   1.719
 5067SOL     OW16099   3.986   2.608   1.679
 5067SOL    HW116100   3.981   2.537   1.609
 5067SOL    HW216101   4.075   2.653   1.676
 5068SOL     OW16102   4.054   6.265   0.782
 5068SOL    HW116103   4.032   6.353   0.739
 5068SOL    HW216104   4.154   6.256   0.790
 5069SOL     OW16105   3.276   4.349   6.169
 5069SOL    HW116106   3.201   4.390   6.117
 5069SOL    HW216107   3.319   4.418   6.227
 5070SOL     OW16108   5.464   3.339   3.975
 5070SOL    HW116109   5.492   3.261   3.919
 5070SOL    HW216110   5.542   3.371   4.029
 5071SOL     OW16111   3.488   0.955   3.559
 5071SOL    HW116112   3.532   0.942   3.648
 5071SOL    HW216113   3.505   1.048   3.526
 5072SOL     OW16114   1.931   1.273   0.880
 5072SOL    HW116115   1.990   1.211   0.827
 5072SOL    HW216116   1.850   1.224   0.911
 5073SOL     OW16117   2.833   6.779   2.427
 5073SOL    HW116118   2.790   6.691   2.446
 5073SOL    HW216119   2.779   6.828   2.358
 5074SOL     OW16120   3.776   2.250   1.651
 5074SOL    HW116121   3.756   2.152   1.641
 5074SOL    HW216122   3.734   2.284   1.735
 5075SOL     OW16123   1.692   3.313   7.011
 5075SOL    HW116124   1.648   3.304   6.921
 5075SOL    HW216125   1.622   3.316   0.063
 5076SOL     OW16126   5.561   0.804   0.658
 5076SOL    HW116127   5.599   0.882   0.708
 5076SOL    HW216128   5.592   0.719   0.702
 5077SOL     OW16129   0.964   4.926   3.685
 5077SOL    HW116130   0.889   4.982   3.721
 5077SOL    HW216131   0.959   4.834   3.724
 5078SOL     OW16132   0.491   0.862   3.984
 5078SOL    HW116133   0.483   0.912   3.898
 5078SOL    HW216134   0.540   0.776   3.968
 5079SOL     OW16135   2.021   2.332   5.835
 5079SOL    HW116136   1.966   2.388   5.773
 5079SOL    HW216137   2.079   2.392   5.890
 5080SOL     OW16138   6.386   5.220   6.151
 5080SOL    HW116139   6.478   5.183   6.151
 5080SOL    HW216140   6.321   5.150   6.182
 5081SOL     OW16141   3.652   5.874   5.804
 5081SOL    HW116142   3.636   5.971   5.823
 5081SOL    HW216143   3.610   5.849   5.717
 5082SOL     OW16144   4.852   6.614   1.404
 5082SOL    HW116145   4.892   6.665   1.480
 5082SOL    HW216146   4.832   6.520   1.433
 5083SOL     OW16147   2.490   0.479   2.941
 5083SOL    HW116148   2.443   0.391   2.941
 5083SOL    HW216149   2.423   0.553   2.940
 5084SOL     OW16150   0.662   4.934   4.878
 5084SOL    HW116151   0.661   5.004   4.806
 5084SOL    HW216152   0.752   4.891   4.879
 5085SOL     OW16153   1.034   3.558   6.554
 5085SOL    HW116154   1.109   3.603   6.506
 5085SOL    HW216155   1.050   3.459   6.557
 5086SOL     OW16156   1.237   4.496   2.292
 5086SOL    HW116157   1.261   4.407   2.330
 5086SOL    HW216158   1.139   4.512   2.305
 5087SOL     OW16159   6.797   5.118   2.752
 5087SOL    HW116160   6.822   5.125   2.848
 5087SOL    HW216161   6.879   5.103   2.697
 5088SOL     OW16162   4.455   5.791   2.352
 5088SOL    HW116163   4.356   5.785   2.367
 5088SOL    HW216164   4.473   5.818   2.258
 5089SOL     OW16165   5.189   4.573   4.709
 5089SOL    HW116166   5.246   4.527   4.641
 5089SOL    HW216167   5.172   4.667   4.679
 5090SOL     OW16168   2.478   0.461   3.856
 5090SOL    HW116169   2.494   0.523   3.933
 5090SOL    HW216170   2.533   0.378   3.868
 5091SOL     OW16171   6.515   0.102   0.556
 5091SOL    HW116172   6.542   0.191   0.592
 5091SOL    HW216173   6.595   0.042   0.553
 5092SOL     OW16174   3.558   3.769   4.406
 5092SOL    HW116175   3.579   3.671   4.406
 5092SOL    HW216176   3.536   3.798   4.500
 5093SOL     OW16177   1.742   1.591   2.918
 5093SOL    HW116178   1.696   1.636   2.841
 5093SOL    HW216179   1.697   1.504   2.938
 5094SOL     OW16180   2.367   5.374   6.415
 5094SOL    HW116181   2.424   5.340   6.340
 5094SOL    HW216182   2.397   5.466   6.440
 5095SOL     OW16183   0.305   1.138   3.415
 5095SOL    HW116184   0.236   1.207   3.394
 5095SOL    HW216185   0.278   1.050   3.375
 5096SOL     OW16186   5.290   3.498   6.216
 5096SOL    HW116187   5.263   3.577   6.270
 5096SOL    HW216188   5.371   3.520   6.162
 5097SOL     OW16189   6.445   0.017   6.171
 5097SOL    HW116190   6.531   0.055   6.139
 5097SOL    HW216191   6.394   7.000   6.092
 5098SOL     OW16192   3.555   2.030   1.873
 5098SOL    HW116193   3.620   1.957   1.893
 5098SOL    HW216194   3.601   2.118   1.880
 5099SOL     OW16195   0.369   5.543   1.815
 5099SOL    HW116196   0.270   5.535   1.828
 5099SOL    HW216197   0.389   5.550   1.717
 5100SOL     OW16198   5.110   4.365   2.862
 5100SOL    HW116199   5.187   4.357   2.798
 5100SOL    HW216200   5.031   4.404   2.815
 5101SOL     OW16201   4.180   0.392   5.341
 5101SOL    HW116202   4.120   0.337   5.399
 5101SOL    HW216203   4.125   0.459   5.291
 5102SOL     OW16204   5.484   5.430   3.885
 5102SOL    HW116205   5.500   5.494   3.809
 5102SOL    HW216206   5.530   5.465   3.967
 5103SOL     OW16207   1.042   0.371   5.631
 5103SOL    HW116208   0.948   0.405   5.632
 5103SOL    HW216209   1.076   0.363   5.725
 5104SOL     OW16210   3.651   5.287   1.525
 5104SOL    HW116211   3.681   5.364   1.469
 5104SOL    HW216212   3.554   5.297   1.546
 5105SOL     OW16213   3.219   3.533   6.877
 5105SOL    HW116214   3.276   3.517   6.957
 5105SOL    HW216215   3.226   3.629   6.850
 5106SOL     OW16216   4.081   2.675   0.823
 5106SOL    HW116217   4.096   2.745   0.754
 5106SOL    HW216218   3.986   2.679   0.855
 5107SOL     OW16219   5.337   2.100   1.134
 5107SOL    HW116220   5.366   2.006   1.120
 5107SOL    HW216221   5.308   2.140   1.047
 5108SOL     OW16222   4.325   3.743   6.585
 5108SOL    HW116223   4.364   3.785   6.668
 5108SOL    HW216224   4.316   3.645   6.598
 5109SOL     OW16225   1.974   3.172   1.109
 5109SOL    HW116226   1.961   3.074   1.093
 5109SOL    HW216227   1.930   3.224   1.035
 5110SOL     OW16228   5.693   6.764   6.370
 5110SOL    HW116229   5.682   6.742   6.467
 5110SOL    HW216230   5.737   6.853   6.360
 5111SOL     OW16231   1.323   5.746   5.090
 5111SOL    HW116232   1.342   5.844   5.084
 5111SOL    HW216233   1.242   5.724   5.036
 5112SOL     OW16234   0.173   0.561   3.782
 5112SOL    HW116235   0.098   0.609   3.736
 5112SOL    HW216236   0.139   0.475   3.820
 5113SOL     OW16237   2.311   5.114   0.861
 5113SOL    HW116238   2.314   5.022   0.900
 5113SOL    HW216239   2.322   5.182   0.934
 5114SOL     OW16240   3.913   6.931   0.385
 5114SOL    HW116241   3.967   6.987   0.322
 5114SOL    HW216242   3.858   6.991   0.444
 5115SOL     OW16243   2.129   3.915   1.833
 5115SOL    HW116244   2.038   3.949   1.857
 5115SOL    HW216245   2.198   3.966   1.884
 5116SOL     OW16246   2.632   6.930   6.657
 5116SOL    HW116247   2.656   0.009   6.668
 5116SOL    HW216248   2.655   6.901   6.564
 5117SOL     OW16249   1.109   2.637   4.693
 5117SOL    HW116250   1.184   2.691   4.653
 5117SOL    HW216251   1.052   2.601   4.619
 5118SOL     OW16252   6.327   6.873   0.034
 5118SOL    HW116253   6.373   6.960   0.014
 5118SOL    HW216254   6.249   6.862   6.991
 5119SOL     OW16255   5.386   1.926   0.120
 5119SOL    HW116256   5.345   1.900   0.207
 5119SOL    HW216257   5.314   1.951   0.055
 5120SOL     OW16258   5.366   0.711   4.706
 5120SOL    HW116259   5.326   0.645   4.770
 5120SOL    HW216260   5.405   0.662   4.628
 5121SOL     OW16261   2.883   3.577   6.911
 5121SOL    HW116262   2.796   3.529   6.920
 5121SOL    HW216263   2.940   3.530   6.843
 5122SOL     OW16264   4.335   5.524   3.018
 5122SOL    HW116265   4.317   5.508   2.921
 5122SOL    HW216266   4.371   5.441   3.060
 5123SOL     OW16267   4.980   1.805   2.010
 5123SOL    HW116268   5.008   1.894   1.974
 5123SOL    HW216269   4.880   1.801   2.013
 5124SOL     OW16270   1.926   6.191   3.738
 5124SOL    HW116271   1.892   6.253   3.809
 5124SOL    HW216272   2.025   6.180   3.747
 5125SOL     OW16273   0.589   2.203   3.909
 5125SOL    HW116274   0.637   2.291   3.913
 5125SOL    HW216275   0.652   2.132   3.877
 5126SOL     OW16276   1.943   0.055   0.717
 5126SOL    HW116277   1.863   0.082   0.662
 5126SOL    HW216278   1.928   6.983   0.756
 5127SOL     OW16279   1.922   5.588   0.375
 5127SOL    HW116280   1.982   5.523   0.328
 5127SOL    HW216281   1.837   5.599   0.323
 5128SOL     OW16282   6.953   6.165   1.724
 5128SOL    HW116283   6.983   6.259   1.737
 5128SOL    HW216284   6.880   6.143   1.789
 5129SOL     OW16285   4.714   6.356   1.468
 5129SOL    HW116286   4.724   6.305   1.553
 5129SOL    HW216287   4.621   6.394   1.463
 5130SOL     OW16288   6.573   4.630   3.340
 5130SOL    HW116289   6.542   4.716   3.300
 5130SOL    HW216290   6.564   4.556   3.274
 5131SOL     OW16291   0.913   2.611   3.397
 5131SOL    HW116292   0.838   2.567   3.446
 5131SOL    HW216293   0.932   2.561   3.313
 5132SOL     OW16294   3.961   4.414   6.710
 5132SOL    HW116295   4.040   4.473   6.692
 5132SOL    HW216296   3.883   4.445   6.656
 5133SOL     OW16297   3.900   5.774   6.642
 5133SOL    HW116298   3.967   5.846   6.625
 5133SOL    HW216299   3.848   5.795   6.725
 5134SOL     OW16300   0.556   3.544   1.440
 5134SOL    HW116301   0.596   3.549   1.348
 5134SOL    HW216302   0.464   3.506   1.434
 5135SOL     OW16303   6.880   2.016   4.871
 5135SOL    HW116304   6.869   1.932   4.923
 5135SOL    HW216305   6.912   1.993   4.779
 5136SOL     OW16306   5.024   0.253   4.613
 5136SOL    HW116307   4.976   0.225   4.697
 5136SOL    HW216308   5.041   0.173   4.556
 5137SOL     OW16309   5.140   3.931   6.653
 5137SOL    HW116310   5.208   3.927   6.580
 5137SOL    HW216311   5.154   3.856   6.717
 5138SOL     OW16312   2.980   3.367   6.277
 5138SOL    HW116313   2.898   3.381   6.223
 5138SOL    HW216314   3.061   3.375   6.219
 5139SOL     OW16315   1.734   6.711   4.149
 5139SOL    HW116316   1.833   6.696   4.155
 5139SOL    HW216317   1.698   6.665   4.068
 5140SOL     OW16318   3.272   2.328   0.814
 5140SOL    HW116319   3.245   2.423   0.803
 5140SOL    HW216320   3.215   2.284   0.883
 5141SOL     OW16321   5.428   3.455   0.935
 5141SOL    HW116322   5.520   3.472   0.897
 5141SOL    HW216323   5.433   3.451   1.034
 5142SOL     OW16324   5.867   3.083   4.419
 5142SOL    HW116325   5.830   3.175   4.430
 5142SOL    HW216326   5.966   3.088   4.407
 5143SOL     OW16327   0.443   4.724   4.166
 5143SOL    HW116328   0.416   4.656   4.234
 5143SOL    HW216329   0.464   4.810   4.213
 5144SOL     OW16330   1.732   6.890   6.214
 5144SOL    HW116331   1.662   6.849   6.155
 5144SOL    HW216332   1.740   6.987   6.193
 5145SOL     OW16333   2.443   5.422   5.816
 5145SOL    HW116334   2.450   5.514   5.855
 5145SOL    HW216335   2.531   5.396   5.776
 5146SOL     OW16336   3.550   3.720   6.960
 5146SOL    HW116337   3.636   3.691   6.919
 5146SOL    HW216338   3.479   3.724   6.889
 5147SOL     OW16339   6.778   4.648   0.567
 5147SOL    HW116340   6.720   4.699   0.631
 5147SOL    HW216341   6.836   4.585   0.618
 5148SOL     OW16342   6.961   5.999   1.487
 5148SOL    HW116343   6.969   6.067   1.559
 5148SOL    HW216344   7.016   5.918   1.510
 5149SOL     OW16345   6.224   1.164   3.114
 5149SOL    HW116346   6.224   1.065   3.128
 5149SOL    HW216347   6.130   1.195   3.099
 5150SOL     OW16348   1.573   6.302   3.699
 5150SOL    HW116349   1.672   6.305   3.718
 5150SOL    HW216350   1.558   6.309   3.601
 5151SOL     OW16351   5.228   1.305   6.656
 5151SOL    HW116352   5.281   1.382   6.690
 5151SOL    HW216353   5.130   1.327   6.660
 5152SOL     OW16354   1.338   4.635   0.295
 5152SOL    HW116355   1.435   4.639   0.321
 5152SOL    HW216356   1.299   4.727   0.299
 5153SOL     OW16357   2.410   2.376   0.729
 5153SOL    HW116358   2.333   2.345   0.673
 5153SOL    HW216359   2.463   2.297   0.759
 5154SOL     OW16360   1.641   3.250   6.291
 5154SOL    HW116361   1.662   3.158   6.325
 5154SOL    HW216362   1.726   3.295   6.262
 5155SOL     OW16363   4.126   6.185   2.006
 5155SOL    HW116364   4.168   6.275   2.016
 5155SOL    HW216365   4.144   6.131   2.088
 5156SOL     OW16366   6.654   2.144   5.762
 5156SOL    HW116367   6.603   2.203   5.825
 5156SOL    HW216368   6.698   2.200   5.692
 5157SOL     OW16369   4.957   2.626   3.469
 5157SOL    HW116370   5.041   2.580   3.442
 5157SOL    HW216371   4.963   2.723   3.445
 5158SOL     OW16372   3.554   1.817   1.364
 5158SOL    HW116373   3.512   1.811   1.455
 5158SOL    HW216374   3.561   1.725   1.324
 5159SOL     OW16375   0.643   2.605   4.367
 5159SOL    HW116376   0.562   2.626   4.313
 5159SOL    HW216377   0.639   2.654   4.454
 5160SOL     OW16378   1.300   3.744   4.512
 5160SOL    HW116379   1.208   3.705   4.500
 5160SOL    HW216380   1.292   3.836   4.551
 5161SOL     OW16381   1.213   3.796   5.505
 5161SOL    HW116382   1.219   3.796   5.405
 5161SOL    HW216383   1.299   3.832   5.543
 5162SOL     OW16384   6.899   5.646   3.716
 5162SOL    HW116385   6.932   5.716   3.654
 5162SOL    HW216386   6.850   5.689   3.792
 5163SOL     OW16387   5.522   5.101   0.556
 5163SOL    HW116388   5.459   5.049   0.498
 5163SOL    HW216389   5.484   5.108   0.649
 5164SOL     OW16390   5.441   2.917   5.290
 5164SOL    HW116391   5.394   2.865   5.361
 5164SOL    HW216392   5.524   2.958   5.326
 5165SOL     OW16393   6.297   4.598   4.549
 5165SOL    HW116394   6.266   4.505   4.528
 5165SOL    HW216395   6.233   4.640   4.614
 5166SOL     OW16396   1.435   4.469   1.526
 5166SOL    HW116397   1.394   4.515   1.605
 5166SOL    HW216398   1.468   4.379   1.554
 5167SOL     OW16399   6.094   6.619   5.942
 5167SOL    HW116400   6.087   6.710   5.900
 5167SOL    HW216401   6.014   6.603   6.000
 5168SOL     OW16402   3.982   2.064   3.172
 5168SOL    HW116403   4.035   2.148   3.178
 5168SOL    HW216404   4.023   2.004   3.102
 5169SOL     OW16405   3.238   3.952   6.293
 5169SOL    HW116406   3.143   3.972   6.320
 5169SOL    HW216407   3.282   4.037   6.264
 5170SOL     OW16408   6.429   4.448   4.944
 5170SOL    HW116409   6.423   4.359   4.898
 5170SOL    HW216410   6.521   4.460   4.980
 5171SOL     OW16411   2.560   4.934   4.402
 5171SOL    HW116412   2.555   4.892   4.493
 5171SOL    HW216413   2.629   4.886   4.347
 5172SOL     OW16414   0.526   3.673   1.888
 5172SOL    HW116415   0.459   3.744   1.908
 5172SOL    HW216416   0.594   3.709   1.823
 5173SOL     OW16417   6.083   4.163   6.067
 5173SOL    HW116418   6.066   4.249   6.020
 5173SOL    HW216419   5.998   4.128   6.105
 5174SOL     OW16420   1.328   4.955   5.014
 5174SOL    HW116421   1.255   4.886   5.017
 5174SOL    HW216422   1.299   5.032   4.958
 5175SOL     OW16423   1.611   4.650   0.356
 5175SOL    HW116424   1.615   4.644   0.257
 5175SOL    HW216425   1.702   4.632   0.395
 5176SOL     OW16426   4.021   3.793   0.810
 5176SOL    HW116427   3.940   3.805   0.752
 5176SOL    HW216428   4.075   3.877   0.809
 5177SOL     OW16429   4.391   6.531   5.780
 5177SOL    HW116430   4.466   6.478   5.818
 5177SOL    HW216431   4.377   6.614   5.835
 5178SOL     OW16432   2.978   2.945   1.747
 5178SOL    HW116433   2.987   2.846   1.752
 5178SOL    HW216434   2.881   2.970   1.754
 5179SOL     OW16435   4.177   6.936   5.839
 5179SOL    HW116436   4.261   6.886   5.817
 5179SOL    HW216437   4.154   6.997   5.763
 5180SOL     OW16438   3.419   1.858   0.200
 5180SOL    HW116439   3.324   1.855   0.230
 5180SOL    HW216440   3.431   1.798   0.121
 5181SOL     OW16441   4.102   0.089   2.451
 5181SOL    HW116442   4.186   0.064   2.499
 5181SOL    HW216443   4.086   0.187   2.461
 5182SOL     OW16444   5.873   4.488   1.497
 5182SOL    HW116445   5.970   4.485   1.475
 5182SOL    HW216446   5.861   4.487   1.596
 5183SOL     OW16447   4.368   6.976   2.065
 5183SOL    HW116448   4.467   6.968   2.079
 5183SOL    HW216449   4.345   0.052   2.042
 5184SOL     OW16450   1.007   1.276   3.405
 5184SOL    HW116451   1.042   1.369   3.406
 5184SOL    HW216452   1.055   1.223   3.335
 5185SOL     OW16453   3.456   0.002   2.220
 5185SOL    HW116454   3.508   0.065   2.278
 5185SOL    HW216455   3.514   6.944   2.194
 5186SOL     OW16456   7.017   4.079   1.147
 5186SOL    HW116457   6.968   3.998   1.114
 5186SOL    HW216458   0.035   4.130   1.070
 5187SOL     OW16459   6.268   1.768   3.515
 5187SOL    HW116460   6.171   1.746   3.524
 5187SOL    HW216461   6.316   1.689   3.477
 5188SOL     OW16462   0.833   5.037   6.628
 5188SOL    HW116463   0.872   5.067   6.715
 5188SOL    HW216464   0.735   5.018   6.640
 5189SOL     OW16465   5.102   4.563   6.504
 5189SOL    HW116466   5.036   4.636   6.518
 5189SOL    HW216467   5.194   4.601   6.498
 5190SOL     OW16468   0.805   2.060   4.128
 5190SOL    HW116469   0.766   2.057   4.036
 5190SOL    HW216470   0.745   2.113   4.188
 5191SOL     OW16471   3.503   1.332   2.170
 5191SOL    HW116472   3.596   1.366   2.183
 5191SOL    HW216473   3.443   1.370   2.240
 5192SOL     OW16474   5.699   5.818   2.297
 5192SOL    HW116475   5.714   5.765   2.214
 5192SOL    HW216476   5.656   5.760   2.366
 5193SOL     OW16477   4.841   4.741   4.037
 5193SOL    HW116478   4.843   4.816   4.104
 5193SOL    HW216479   4.838   4.654   4.084
 5194SOL     OW16480   5.484   0.698   5.717
 5194SOL    HW116481   5.489   0.611   5.767
 5194SOL    HW216482   5.497   0.773   5.781
 5195SOL     OW16483   6.295   0.005   5.148
 5195SOL    HW116484   6.263   6.993   5.237
 5195SOL    HW216485   6.276   6.954   5.079
 5196SOL     OW16486   0.478   4.285   1.910
 5196SOL    HW116487   0.397   4.229   1.891
 5196SOL    HW216488   0.451   4.381   1.917
 5197SOL     OW16489   1.991   6.201   4.525
 5197SOL    HW116490   1.911   6.224   4.581
 5197SOL    HW216491   2.002   6.270   4.454
 5198SOL     OW16492   3.643   6.145   5.438
 5198SOL    HW116493   3.673   6.143   5.533
 5198SOL    HW216494   3.664   6.057   5.395
 5199SOL     OW16495   2.408   5.847   1.540
 5199SOL    HW116496   2.454   5.817   1.623
 5199SOL    HW216497   2.456   5.811   1.460
 5200SOL     OW16498   0.705   1.627   4.797
 5200SOL    HW116499   0.724   1.542   4.846
 5200SOL    HW216500   0.750   1.625   4.708
 5201SOL     OW16501   5.587   4.838   3.955
 5201SOL    HW116502   5.648   4.796   3.888
 5201SOL    HW216503   5.521   4.771   3.988
 5202SOL     OW16504   4.610   3.421   6.217
 5202SOL    HW116505   4.657   3.456   6.298
 5202SOL    HW216506   4.524   3.471   6.205
 5203SOL     OW16507   1.835   0.625   0.238
 5203SOL    HW116508   1.925   0.669   0.236
 5203SOL    HW216509   1.811   0.595   0.145
 5204SOL     OW16510   3.184   0.708   6.491
 5204SOL    HW116511   3.251   0.747   6.427
 5204SOL    HW216512   3.171   0.611   6.470
 5205SOL     OW16513   0.190   6.088   1.259
 5205SOL    HW116514   0.197   6.078   1.160
 5205SOL    HW216515   0.094   6.086   1.287
 5206SOL     OW16516   0.312   4.383   5.059
 5206SOL    HW116517   0.359   4.394   4.971
 5206SOL    HW216518   0.358   4.313   5.113
 5207SOL     OW16519   0.049   0.156   4.873
 5207SOL    HW116520   0.055   0.254   4.889
 5207SOL    HW216521   0.133   0.124   4.829
 5208SOL     OW16522   4.856   2.415   0.282
 5208SOL    HW116523   4.936   2.468   0.255
 5208SOL    HW216524   4.774   2.453   0.239
 5209SOL     OW16525   4.757   6.596   3.240
 5209SOL    HW116526   4.805   6.683   3.227
 5209SOL    HW216527   4.824   6.524   3.260
 5210SOL     OW16528   5.121   3.937   0.765
 5210SOL    HW116529   5.114   3.887   0.679
 5210SOL    HW216530   5.080   4.027   0.755
 5211SOL     OW16531   4.701   2.354   4.116
 5211SOL    HW116532   4.666   2.303   4.195
 5211SOL    HW216533   4.786   2.401   4.142
 5212SOL     OW16534   1.505   3.178   0.705
 5212SOL    HW116535   1.425   3.199   0.763
 5212SOL    HW216536   1.485   3.098   0.649
 5213SOL     OW16537   3.847   3.008   2.274
 5213SOL    HW116538   3.837   2.950   2.354
 5213SOL    HW216539   3.783   3.085   2.279
 5214SOL     OW16540   5.555   4.102   6.546
 5214SOL    HW116541   5.651   4.105   6.576
 5214SOL    HW216542   5.502   4.047   6.610
 5215SOL     OW16543   6.455   3.576   4.748
 5215SOL    HW116544   6.451   3.519   4.667
 5215SOL    HW216545   6.418   3.526   4.826
 5216SOL     OW16546   5.549   4.723   0.744
 5216SOL    HW116547   5.465   4.670   0.762
 5216SOL    HW216548   5.580   4.704   0.651
 5217SOL     OW16549   4.081   5.774   4.132
 5217SOL    HW116550   4.096   5.797   4.228
 5217SOL    HW216551   4.019   5.840   4.091
 5218SOL     OW16552   0.863   0.766   1.043
 5218SOL    HW116553   0.766   0.755   1.022
 5218SOL    HW216554   0.874   0.833   1.116
 5219SOL     OW16555   2.279   2.117   4.865
 5219SOL    HW116556   2.287   2.209   4.827
 5219SOL    HW216557   2.360   2.096   4.919
 5220SOL     OW16558   2.065   4.735   3.335
 5220SOL    HW116559   2.157   4.728   3.372
 5220SOL    HW216560   2.005   4.671   3.383
 5221SOL     OW16561   6.882   0.305   1.687
 5221SOL    HW116562   6.899   0.316   1.589
 5221SOL    HW216563   6.933   0.373   1.738
 5222SOL     OW16564   4.592   4.660   1.321
 5222SOL    HW116565   4.572   4.613   1.407
 5222SOL    HW216566   4.684   4.700   1.324
 5223SOL     OW16567   0.437   3.062   0.981
 5223SOL    HW116568   0.404   3.109   0.899
 5223SOL    HW216569   0.534   3.040   0.969
 5224SOL     OW16570   0.745   1.986   3.873
 5224SOL    HW116571   0.811   1.998   3.798
 5224SOL    HW216572   0.729   1.889   3.888
 5225SOL     OW16573   0.334   1.608   4.968
 5225SOL    HW116574   0.252   1.598   5.024
 5225SOL    HW216575   0.329   1.694   4.918
 5226SOL     OW16576   0.366   6.029   4.161
 5226SOL    HW116577   0.322   6.088   4.092
 5226SOL    HW216578   0.424   5.962   4.115
 5227SOL     OW16579   6.710   2.926   5.295
 5227SOL    HW116580   6.763   2.977   5.228
 5227SOL    HW216581   6.717   2.971   5.384
 5228SOL     OW16582   1.766   3.022   5.681
 5228SOL    HW116583   1.826   2.974   5.744
 5228SOL    HW216584   1.787   2.995   5.587
 5229SOL     OW16585   3.926   0.785   6.583
 5229SOL    HW116586   3.922   0.688   6.606
 5229SOL    HW216587   3.991   0.799   6.508
 5230SOL     OW16588   6.932   0.042   1.663
 5230SOL    HW116589   6.917   0.141   1.665
 5230SOL    HW216590   6.930   0.007   1.756
 5231SOL     OW16591   5.986   1.705   2.614
 5231SOL    HW116592   5.911   1.771   2.615
 5231SOL    HW216593   5.955   1.621   2.570
 5232SOL     OW16594   1.802   3.556   5.856
 5232SOL    HW116595   1.859   3.578   5.777
 5232SOL    HW216596   1.705   3.566   5.831
 5233SOL     OW16597   3.057   0.371   2.587
 5233SOL    HW116598   2.980   0.318   2.551
 5233SOL    HW216599   3.046   0.467   2.561
 5234SOL     OW16600   2.134   2.394   1.113
 5234SOL    HW116601   2.097   2.408   1.204
 5234SOL    HW216602   2.189   2.310   1.111
 5235SOL     OW16603   2.631   2.010   1.094
 5235SOL    HW116604   2.616   2.060   1.179
 5235SOL    HW216605   2.717   1.959   1.100
 5236SOL     OW16606   3.098   5.346   2.004
 5236SOL    HW116607   3.178   5.359   2.064
 5236SOL    HW216608   3.091   5.249   1.979
 5237SOL     OW16609   2.122   2.484   4.423
 5237SOL    HW116610   2.164   2.542   4.353
 5237SOL    HW216611   2.068   2.412   4.379
 5238SOL     OW16612   0.946   5.608   2.986
 5238SOL    HW116613   1.000   5.566   3.059
 5238SOL    HW216614   1.005   5.625   2.907
 5239SOL     OW16615   3.487   3.533   1.394
 5239SOL    HW116616   3.574   3.567   1.358
 5239SOL    HW216617   3.505   3.463   1.463
 5240SOL     OW16618   2.686   2.848   6.146
 5240SOL    HW116619   2.607   2.787   6.155
 5240SOL    HW216620   2.710   2.884   6.236
 5241SOL     OW16621   1.167   6.086   2.578
 5241SOL    HW116622   1.174   6.118   2.673
 5241SOL    HW216623   1.253   6.103   2.531
 5242SOL     OW16624   4.993   0.710   0.136
 5242SOL    HW116625   4.941   0.761   0.204
 5242SOL    HW216626   4.981   0.612   0.152
 5243SOL     OW16627   1.576   6.145   1.773
 5243SOL    HW116628   1.674   6.158   1.793
 5243SOL    HW216629   1.522   6.198   1.839
 5244SOL     OW16630   4.965   3.379   0.201
 5244SOL    HW116631   4.893   3.428   0.249
 5244SOL    HW216632   5.054   3.403   0.239
 5245SOL     OW16633   3.990   3.798   0.306
 5245SOL    HW116634   3.939   3.858   0.367
 5245SOL    HW216635   4.085   3.794   0.336
 5246SOL     OW16636   6.043   2.875   1.279
 5246SOL    HW116637   6.025   2.974   1.281
 5246SOL    HW216638   5.993   2.830   1.353
 5247SOL     OW16639   4.037   2.253   6.060
 5247SOL    HW116640   4.025   2.194   6.140
 5247SOL    HW216641   4.098   2.328   6.084
 5248SOL     OW16642   6.296   1.940   2.717
 5248SOL    HW116643   6.378   1.908   2.765
 5248SOL    HW216644   6.311   2.033   2.684
 5249SOL     OW16645   0.572   4.958   6.594
 5249SOL    HW116646   0.496   4.964   6.529
 5249SOL    HW216647   0.595   4.862   6.608
 5250SOL     OW16648   1.944   5.997   0.383
 5250SOL    HW116649   2.000   6.072   0.349
 5250SOL    HW216650   2.003   5.928   0.425
 5251SOL     OW16651   0.693   4.184   0.855
 5251SOL    HW116652   0.686   4.282   0.869
 5251SOL    HW216653   0.773   4.149   0.903
 5252SOL     OW16654   3.359   0.360   2.318
 5252SOL    HW116655   3.277   0.352   2.262
 5252SOL    HW216656   3.347   0.309   2.403
 5253SOL     OW16657   5.762   4.789   4.401
 5253SOL    HW116658   5.744   4.694   4.375
 5253SOL    HW216659   5.707   4.812   4.482
 5254SOL     OW16660   5.965   6.937   3.117
 5254SOL    HW116661   6.056   6.905   3.090
 5254SOL    HW216662   5.967   0.017   3.128
 5255SOL     OW16663   5.796   1.358   5.006
 5255SOL    HW116664   5.855   1.282   4.981
 5255SOL    HW216665   5.802   1.429   4.935
 5256SOL     OW16666   5.590   0.803   3.175
 5256SOL    HW116667   5.674   0.838   3.134
 5256SOL    HW216668   5.529   0.880   3.196
 5257SOL     OW16669   4.094   0.783   6.369
 5257SOL    HW116670   4.078   0.856   6.302
 5257SOL    HW216671   4.074   0.694   6.327
 5258SOL     OW16672   5.071   1.539   2.328
 5258SOL    HW116673   4.988   1.536   2.272
 5258SOL    HW216674   5.112   1.448   2.331
 5259SOL     OW16675   4.847   5.049   3.193
 5259SOL    HW116676   4.889   5.135   3.164
 5259SOL    HW216677   4.748   5.054   3.183
 5260SOL     OW16678   2.315   0.309   0.003
 5260SOL    HW116679   2.245   0.324   6.952
 5260SOL    HW216680   2.274   0.320   0.094
 5261SOL     OW16681   6.345   4.772   0.260
 5261SOL    HW116682   6.332   4.867   0.231
 5261SOL    HW216683   6.290   4.712   0.202
 5262SOL     OW16684   2.175   0.421   2.444
 5262SOL    HW116685   2.206   0.516   2.443
 5262SOL    HW216686   2.255   0.360   2.447
 5263SOL     OW16687   1.918   1.485   3.668
 5263SOL    HW116688   1.842   1.439   3.621
 5263SOL    HW216689   1.964   1.420   3.728
 5264SOL     OW16690   6.853   2.453   1.673
 5264SOL    HW116691   6.864   2.537   1.620
 5264SOL    HW216692   6.903   2.462   1.760
 5265SOL     OW16693   5.689   3.258   4.955
 5265SOL    HW116694   5.615   3.260   5.024
 5265SOL    HW216695   5.661   3.310   4.875
 5266SOL     OW16696   2.235   0.072   0.400
 5266SOL    HW116697   2.325   0.115   0.389
 5266SOL    HW216698   2.196   0.101   0.487
 5267SOL     OW16699   4.205   2.239   4.533
 5267SOL    HW116700   4.259   2.322   4.528
 5267SOL    HW216701   4.148   2.241   4.615
 5268SOL     OW16702   5.587   0.898   6.281
 5268SOL    HW116703   5.636   0.965   6.224
 5268SOL    HW216704   5.489   0.917   6.278
 5269SOL     OW16705   0.213   6.399   2.595
 5269SOL    HW116706   0.226   6.459   2.516
 5269SOL    HW216707   0.283   6.328   2.596
 5270SOL     OW16708   0.057   1.690   6.601
 5270SOL    HW116709   0.153   1.663   6.613
 5270SOL    HW216710   0.008   1.679   6.687
 5271SOL     OW16711   6.037   5.629   4.154
 5271SOL    HW116712   6.038   5.529   4.162
 5271SOL    HW216713   5.995   5.656   4.068
 5272SOL     OW16714   4.130   7.004   0.181
 5272SOL    HW116715   4.189   0.005   0.260
 5272SOL    HW216716   4.158   6.918   0.140
 5273SOL     OW16717   1.081   3.042   2.504
 5273SOL    HW116718   1.058   3.124   2.556
 5273SOL    HW216719   1.016   2.969   2.527
 5274SOL     OW16720   4.835   6.068   2.534
 5274SOL    HW116721   4.899   6.145   2.537
 5274SOL    HW216722   4.773   6.074   2.612
 5275SOL     OW16723   3.266   0.716   0.330
 5275SOL    HW116724   3.215   0.746   0.250
 5275SOL    HW216725   3.328   0.641   0.305
 5276SOL     OW16726   2.813   6.544   1.810
 5276SOL    HW116727   2.810   6.445   1.827
 5276SOL    HW216728   2.724   6.584   1.827
 5277SOL     OW16729   1.873   1.216   2.316
 5277SOL    HW116730   1.889   1.233   2.413
 5277SOL    HW216731   1.775   1.207   2.299
 5278SOL     OW16732   4.698   5.198   2.039
 5278SOL    HW116733   4.670   5.238   2.127
 5278SOL    HW216734   4.645   5.115   2.022
 5279SOL     OW16735   2.596   5.303   1.538
 5279SOL    HW116736   2.512   5.314   1.591
 5279SOL    HW216737   2.607   5.207   1.514
 5280SOL     OW16738   3.597   6.025   4.821
 5280SOL    HW116739   3.626   6.099   4.760
 5280SOL    HW216740   3.546   5.957   4.769
 5281SOL     OW16741   0.779   1.916   2.075
 5281SOL    HW116742   0.806   2.007   2.043
 5281SOL    HW216743   0.739   1.864   1.999
 5282SOL     OW16744   3.030   1.796   3.736
 5282SOL    HW116745   2.976   1.880   3.726
 5282SOL    HW216746   3.092   1.805   3.814
 5283SOL     OW16747   5.235   5.943   0.101
 5283SOL    HW116748   5.265   5.941   0.196
 5283SOL    HW216749   5.138   5.969   0.098
 5284SOL     OW16750   5.792   3.342   2.753
 5284SOL    HW116751   5.807   3.293   2.839
 5284SOL    HW216752   5.826   3.287   2.677
 5285SOL     OW16753   3.091   5.188   3.627
 5285SOL    HW116754   3.123   5.270   3.580
 5285SOL    HW216755   3.058   5.212   3.718
 5286SOL     OW16756   1.755   4.448   1.631
 5286SOL    HW116757   1.819   4.371   1.632
 5286SOL    HW216758   1.772   4.505   1.551
 5287SOL     OW16759   2.546   1.912   0.479
 5287SOL    HW116760   2.592   1.908   0.568
 5287SOL    HW216761   2.450   1.887   0.490
 5288SOL     OW16762   3.358   0.219   0.971
 5288SOL    HW116763   3.335   0.304   0.923
 5288SOL    HW216764   3.339   0.229   1.068
 5289SOL     OW16765   0.874   5.057   1.147
 5289SOL    HW116766   0.928   5.045   1.230
 5289SOL    HW216767   0.925   5.113   1.081
 5290SOL     OW16768   3.907   5.634   0.723
 5290SOL    HW116769   3.994   5.591   0.746
 5290SOL    HW216770   3.839   5.614   0.793
 5291SOL     OW16771   2.003   5.287   5.312
 5291SOL    HW116772   2.070   5.289   5.386
 5291SOL    HW216773   2.035   5.225   5.240
 5292SOL     OW16774   4.658   2.991   6.000
 5292SOL    HW116775   4.665   3.091   6.003
 5292SOL    HW216776   4.677   2.959   5.907
 5293SOL     OW16777   0.439   0.415   4.638
 5293SOL    HW116778   0.493   0.424   4.554
 5293SOL    HW216779   0.473   0.480   4.706
 5294SOL     OW16780   6.284   2.748   6.268
 5294SOL    HW116781   6.352   2.814   6.236
 5294SOL    HW216782   6.324   2.657   6.270
 5295SOL     OW16783   6.522   0.875   2.661
 5295SOL    HW116784   6.563   0.896   2.572
 5295SOL    HW216785   6.523   0.776   2.676
 5296SOL     OW16786   0.681   4.514   1.126
 5296SOL    HW116787   0.636   4.506   1.037
 5296SOL    HW216788   0.755   4.581   1.120
 5297SOL     OW16789   2.246   1.890   1.439
 5297SOL    HW116790   2.247   1.854   1.346
 5297SOL    HW216791   2.322   1.852   1.491
 5298SOL     OW16792   0.012   5.515   1.215
 5298SOL    HW116793   0.051   5.498   1.305
 5298SOL    HW216794   0.075   5.570   1.161
 5299SOL     OW16795   2.985   0.610   1.630
 5299SOL    HW116796   2.886   0.627   1.637
 5299SOL    HW216797   3.031   0.696   1.608
 5300SOL     OW16798   6.567   5.914   3.607
 5300SOL    HW116799   6.612   5.825   3.606
 5300SOL    HW216800   6.518   5.927   3.521
 5301SOL     OW16801   4.046   1.209   0.049
 5301SOL    HW116802   4.146   1.211   0.041
 5301SOL    HW216803   4.014   1.115   0.038
 5302SOL     OW16804   5.780   4.363   2.659
 5302SOL    HW116805   5.730   4.308   2.726
 5302SOL    HW216806   5.732   4.448   2.642
 5303SOL     OW16807   6.664   4.286   3.617
 5303SOL    HW116808   6.641   4.219   3.688
 5303SOL    HW216809   6.652   4.246   3.527
 5304SOL     OW16810   5.388   1.779   6.362
 5304SOL    HW116811   5.359   1.814   6.450
 5304SOL    HW216812   5.484   1.803   6.346
 5305SOL     OW16813   2.638   1.055   3.273
 5305SOL    HW116814   2.677   1.009   3.353
 5305SOL    HW216815   2.556   1.105   3.300
 5306SOL     OW16816   3.030   0.234   5.573
 5306SOL    HW116817   3.074   0.144   5.570
 5306SOL    HW216818   2.976   0.241   5.657
 5307SOL     OW16819   4.765   6.791   0.106
 5307SOL    HW116820   4.718   6.870   0.068
 5307SOL    HW216821   4.855   6.818   0.141
 5308SOL     OW16822   0.148   1.420   2.953
 5308SOL    HW116823   0.217   1.384   3.016
 5308SOL    HW216824   0.119   1.347   2.891
 5309SOL     OW16825   3.709   4.115   3.447
 5309SOL    HW116826   3.795   4.084   3.488
 5309SOL    HW216827   3.667   4.040   3.397
 5310SOL     OW16828   5.097   1.990   0.883
 5310SOL    HW116829   5.015   2.025   0.927
 5310SOL    HW216830   5.141   2.062   0.829
 5311SOL     OW16831   1.882   5.292   6.708
 5311SOL    HW116832   1.874   5.256   6.615
 5311SOL    HW216833   1.891   5.392   6.704
 5312SOL     OW16834   0.464   3.950   3.246
 5312SOL    HW116835   0.472   3.989   3.338
 5312SOL    HW216836   0.383   3.989   3.201
 5313SOL     OW16837   1.525   5.998   0.014
 5313SOL    HW116838   1.578   6.046   0.085
 5313SOL    HW216839   1.577   5.919   7.000
 5314SOL     OW16840   3.604   5.202   0.850
 5314SOL    HW116841   3.612   5.256   0.766
 5314SOL    HW216842   3.532   5.133   0.838
 5315SOL     OW16843   5.634   2.798   2.200
 5315SOL    HW116844   5.652   2.825   2.295
 5315SOL    HW216845   5.590   2.708   2.200
 5316SOL     OW16846   6.927   4.513   3.885
 5316SOL    HW116847   6.830   4.538   3.875
 5316SOL    HW216848   6.938   4.459   3.968
 5317SOL     OW16849   5.483   6.609   2.733
 5317SOL    HW116850   5.475   6.696   2.783
 5317SOL    HW216851   5.405   6.551   2.754
 5318SOL     OW16852   0.524   2.625   4.699
 5318SOL    HW116853   0.501   2.544   4.645
 5318SOL    HW216854   0.623   2.636   4.702
 5319SOL     OW16855   5.258   0.566   0.693
 5319SOL    HW116856   5.322   0.642   0.699
 5319SOL    HW216857   5.209   0.570   0.607
 5320SOL     OW16858   5.903   2.885   6.291
 5320SOL    HW116859   5.960   2.893   6.209
 5320SOL    HW216860   5.807   2.882   6.264
 5321SOL     OW16861   2.170   5.371   5.896
 5321SOL    HW116862   2.262   5.394   5.866
 5321SOL    HW216863   2.133   5.298   5.838
 5322SOL     OW16864   3.316   5.986   6.552
 5322SOL    HW116865   3.360   6.073   6.574
 5322SOL    HW216866   3.276   5.991   6.460
 5323SOL     OW16867   5.207   2.683   1.189
 5323SOL    HW116868   5.229   2.649   1.281
 5323SOL    HW216869   5.128   2.635   1.153
 5324SOL     OW16870   3.766   3.390   1.415
 5324SOL    HW116871   3.773   3.487   1.438
 5324SOL    HW216872   3.856   3.347   1.420
 5325SOL     OW16873   5.270   6.137   2.609
 5325SOL    HW116874   5.325   6.099   2.534
 5325SOL    HW216875   5.256   6.066   2.678
 5326SOL     OW16876   0.088   6.392   1.799
 5326SOL    HW116877   0.160   6.383   1.729
 5326SOL    HW216878   0.086   6.486   1.832
 5327SOL     OW16879   6.205   0.311   4.135
 5327SOL    HW116880   6.183   0.381   4.068
 5327SOL    HW216881   6.220   0.224   4.088
 5328SOL     OW16882   4.155   4.170   0.341
 5328SOL    HW116883   4.219   4.100   0.311
 5328SOL    HW216884   4.137   4.233   0.265
 5329SOL     OW16885   0.269   5.025   6.967
 5329SOL    HW116886   0.331   4.977   0.010
 5329SOL    HW216887   0.318   5.053   6.885
 5330SOL     OW16888   4.460   4.086   1.293
 5330SOL    HW116889   4.388   4.019   1.313
 5330SOL    HW216890   4.443   4.126   1.203
 5331SOL     OW16891   4.371   3.677   6.975
 5331SOL    HW116892   4.387   3.606   0.025
 5331SOL    HW216893   4.314   3.749   7.015
 5332SOL     OW16894   6.114   3.690   0.584
 5332SOL    HW116895   6.180   3.619   0.606
 5332SOL    HW216896   6.023   3.649   0.572
 5333SOL     OW16897   1.830   1.639   4.069
 5333SOL    HW116898   1.892   1.636   4.147
 5333SOL    HW216899   1.749   1.692   4.093
 5334SOL     OW16900   4.697   4.769   1.937
 5334SOL    HW116901   4.733   4.717   1.859
 5334SOL    HW216902   4.750   4.745   2.019
 5335SOL     OW16903   0.025   4.576   1.618
 5335SOL    HW116904   0.037   4.578   1.519
 5335SOL    HW216905   0.098   4.522   1.659
 5336SOL     OW16906   1.091   3.125   3.751
 5336SOL    HW116907   0.996   3.100   3.769
 5336SOL    HW216908   1.106   3.221   3.777
 5337SOL     OW16909   6.957   4.419   0.582
 5337SOL    HW116910   6.992   4.440   0.490
 5337SOL    HW216911   6.929   4.323   0.586
 5338SOL     OW16912   6.676   3.131   0.997
 5338SOL    HW116913   6.576   3.130   1.009
 5338SOL    HW216914   6.710   3.223   1.017
 5339SOL     OW16915   5.818   2.557   2.805
 5339SOL    HW116916   5.833   2.650   2.837
 5339SOL    HW216917   5.740   2.555   2.741
 5340SOL     OW16918   5.355   2.609   2.143
 5340SOL    HW116919   5.402   2.528   2.179
 5340SOL    HW216920   5.279   2.634   2.204
 5341SOL     OW16921   4.619   5.722   3.416
 5341SOL    HW116922   4.593   5.813   3.447
 5341SOL    HW216923   4.558   5.695   3.341
 5342SOL     OW16924   5.892   6.619   4.320
 5342SOL    HW116925   5.851   6.623   4.411
 5342SOL    HW216926   5.821   6.607   4.251
 5343SOL     OW16927   3.979   3.601   5.729
 5343SOL    HW116928   4.015   3.667   5.795
 5343SOL    HW216929   4.007   3.628   5.636
 5344SOL     OW16930   0.996   1.673   5.840
 5344SOL    HW116931   0.995   1.614   5.921
 5344SOL    HW216932   1.054   1.633   5.769
 5345SOL     OW16933   5.418   2.204   0.261
 5345SOL    HW116934   5.350   2.255   0.208
 5345SOL    HW216935   5.397   2.107   0.258
 5346SOL     OW16936   2.960   5.839   3.624
 5346SOL    HW116937   2.911   5.799   3.702
 5346SOL    HW216938   3.051   5.869   3.654
 5347SOL     OW16939   5.629   1.632   3.742
 5347SOL    HW116940   5.639   1.611   3.839
 5347SOL    HW216941   5.710   1.681   3.710
 5348SOL     OW16942   4.939   1.888   3.072
 5348SOL    HW116943   4.881   1.966   3.097
 5348SOL    HW216944   5.016   1.921   3.018
 5349SOL     OW16945   0.045   4.008   2.553
 5349SOL    HW116946   0.114   3.980   2.620
 5349SOL    HW216947   0.003   3.926   2.513
 5350SOL     OW16948   1.500   6.345   6.923
 5350SOL    HW116949   1.409   6.302   6.926
 5350SOL    HW216950   1.522   6.381   7.014
 5351SOL     OW16951   6.930   5.729   1.849
 5351SOL    HW116952   6.981   5.643   1.860
 5351SOL    HW216953   6.992   5.801   1.820
 5352SOL     OW16954   1.523   3.296   4.310
 5352SOL    HW116955   1.562   3.217   4.262
 5352SOL    HW216956   1.521   3.375   4.248
 5353SOL     OW16957   4.181   5.524   3.789
 5353SOL    HW116958   4.191   5.578   3.873
 5353SOL    HW216959   4.265   5.531   3.734
 5354SOL     OW16960   4.023   5.870   0.933
 5354SOL    HW116961   4.048   5.849   0.838
 5354SOL    HW216962   3.947   5.812   0.961
 5355SOL     OW16963   4.907   4.710   5.327
 5355SOL    HW116964   4.834   4.764   5.370
 5355SOL    HW216965   4.959   4.768   5.265
 5356SOL     OW16966   0.261   5.086   1.227
 5356SOL    HW116967   0.343   5.142   1.215
 5356SOL    HW216968   0.252   5.061   1.323
 5357SOL     OW16969   5.510   4.282   2.488
 5357SOL    HW116970   5.530   4.230   2.405
 5357SOL    HW216971   5.557   4.370   2.485
 5358SOL     OW16972   4.263   2.244   0.706
 5358SOL    HW116973   4.311   2.157   0.706
 5358SOL    HW216974   4.314   2.310   0.761
 5359SOL     OW16975   2.558   2.037   6.324
 5359SOL    HW116976   2.551   1.941   6.353
 5359SOL    HW216977   2.654   2.063   6.316
 5360SOL     OW16978   5.463   4.481   3.472
 5360SOL    HW116979   5.525   4.506   3.398
 5360SOL    HW216980   5.465   4.552   3.543
 5361SOL     OW16981   2.866   5.842   2.112
 5361SOL    HW116982   2.784   5.807   2.157
 5361SOL    HW216983   2.944   5.833   2.174
 5362SOL     OW16984   5.984   0.343   1.917
 5362SOL    HW116985   5.959   0.415   1.853
 5362SOL    HW216986   5.906   0.282   1.931
 5363SOL     OW16987   5.775   5.126   3.863
 5363SOL    HW116988   5.814   5.151   3.952
 5363SOL    HW216989   5.815   5.040   3.832
 5364SOL     OW16990   4.968   1.270   2.823
 5364SOL    HW116991   4.934   1.258   2.729
 5364SOL    HW216992   4.933   1.356   2.859
 5365SOL     OW16993   3.982   3.122   3.941
 5365SOL    HW116994   4.015   3.028   3.952
 5365SOL    HW216995   3.890   3.129   3.981
 5366SOL     OW16996   6.432   6.341   2.326
 5366SOL    HW116997   6.452   6.435   2.299
 5366SOL    HW216998   6.436   6.281   2.245
 5367SOL     OW16999   6.173   6.203   1.695
 5367SOL    HW117000   6.258   6.170   1.655
 5367SOL    HW217001   6.160   6.300   1.670
 5368SOL     OW17002   6.466   5.849   3.907
 5368SOL    HW117003   6.536   5.784   3.934
 5368SOL    HW217004   6.490   5.889   3.819
 5369SOL     OW17005   2.346   6.088   1.879
 5369SOL    HW117006   2.304   6.145   1.949
 5369SOL    HW217007   2.282   6.015   1.853
 5370SOL     OW17008   2.385   3.640   1.497
 5370SOL    HW117009   2.313   3.657   1.565
 5370SOL    HW217010   2.343   3.607   1.412
 5371SOL     OW17011   5.570   5.746   4.838
 5371SOL    HW117012   5.596   5.714   4.746
 5371SOL    HW217013   5.472   5.731   4.851
 5372SOL     OW17014   0.892   0.617   3.172
 5372SOL    HW117015   0.877   0.582   3.079
 5372SOL    HW217016   0.838   0.564   3.237
 5373SOL     OW17017   3.519   0.859   6.603
 5373SOL    HW117018   3.426   0.851   6.639
 5373SOL    HW217019   3.530   0.948   6.559
 5374SOL     OW17020   2.359   4.845   2.196
 5374SOL    HW117021   2.385   4.940   2.180
 5374SOL    HW217022   2.270   4.842   2.241
 5375SOL     OW17023   1.252   5.063   3.950
 5375SOL    HW117024   1.269   5.136   4.017
 5375SOL    HW217025   1.223   5.103   3.864
 5376SOL     OW17026   0.031   0.782   6.176
 5376SOL    HW117027   0.096   0.709   6.196
 5376SOL    HW217028   6.977   0.747   6.116
 5377SOL     OW17029   2.400   1.115   2.900
 5377SOL    HW117030   2.480   1.060   2.919
 5377SOL    HW217031   2.317   1.066   2.928
 5378SOL     OW17032   5.259   1.030   1.858
 5378SOL    HW117033   5.259   1.083   1.773
 5378SOL    HW217034   5.243   0.934   1.838
 5379SOL     OW17035   1.499   2.223   6.287
 5379SOL    HW117036   1.492   2.297   6.354
 5379SOL    HW217037   1.546   2.145   6.329
 5380SOL     OW17038   4.650   6.970   1.316
 5380SOL    HW117039   4.691   6.880   1.332
 5380SOL    HW217040   4.582   6.963   1.243
 5381SOL     OW17041   4.880   6.672   3.853
 5381SOL    HW117042   4.838   6.595   3.806
 5381SOL    HW217043   4.908   6.741   3.785
 5382SOL     OW17044   4.435   1.678   1.528
 5382SOL    HW117045   4.489   1.599   1.557
 5382SOL    HW217046   4.410   1.733   1.608
 5383SOL     OW17047   2.045   2.852   4.691
 5383SOL    HW117048   2.115   2.872   4.760
 5383SOL    HW217049   1.958   2.893   4.719
 5384SOL     OW17050   5.521   5.405   4.599
 5384SOL    HW117051   5.512   5.378   4.695
 5384SOL    HW217052   5.470   5.341   4.542
 5385SOL     OW17053   4.194   2.351   5.649
 5385SOL    HW117054   4.136   2.304   5.716
 5385SOL    HW217055   4.249   2.283   5.600
 5386SOL     OW17056   6.064   4.635   4.071
 5386SOL    HW117057   6.057   4.551   4.017
 5386SOL    HW217058   6.052   4.613   4.168
 5387SOL     OW17059   1.179   1.131   3.194
 5387SOL    HW117060   1.237   1.144   3.274
 5387SOL    HW217061   1.214   1.053   3.140
 5388SOL     OW17062   1.158   6.397   2.392
 5388SOL    HW117063   1.132   6.451   2.473
 5388SOL    HW217064   1.179   6.459   2.316
 5389SOL     OW17065   4.295   1.653   4.046
 5389SOL    HW117066   4.265   1.562   4.018
 5389SOL    HW217067   4.239   1.685   4.122
 5390SOL     OW17068   6.986   2.711   3.371
 5390SOL    HW117069   0.027   2.788   3.393
 5390SOL    HW217070   6.964   2.660   3.454
 5391SOL     OW17071   2.495   3.672   0.918
 5391SOL    HW117072   2.583   3.651   0.877
 5391SOL    HW217073   2.485   3.622   1.003
 5392SOL     OW17074   5.847   1.801   3.601
 5392SOL    HW117075   5.929   1.806   3.544
 5392SOL    HW217076   5.798   1.888   3.597
 5393SOL     OW17077   3.889   2.023   5.622
 5393SOL    HW117078   3.801   2.066   5.643
 5393SOL    HW217079   3.873   1.929   5.592
 5394SOL     OW17080   1.501   1.180   1.177
 5394SOL    HW117081   1.460   1.112   1.238
 5394SOL    HW217082   1.597   1.156   1.162
 5395SOL     OW17083   6.467   1.557   1.017
 5395SOL    HW117084   6.525   1.484   0.981
 5395SOL    HW217085   6.439   1.536   1.110
 5396SOL     OW17086   5.445   4.979   2.276
 5396SOL    HW117087   5.455   5.006   2.181
 5396SOL    HW217088   5.349   4.955   2.294
 5397SOL     OW17089   0.386   1.040   2.425
 5397SOL    HW117090   0.386   1.034   2.325
 5397SOL    HW217091   0.472   1.003   2.461
 5398SOL     OW17092   5.124   2.162   3.157
 5398SOL    HW117093   5.097   2.233   3.222
 5398SOL    HW217094   5.224   2.154   3.156
 5399SOL     OW17095   2.392   0.498   6.161
 5399SOL    HW117096   2.422   0.407   6.131
 5399SOL    HW217097   2.339   0.489   6.245
 5400SOL     OW17098   4.366   2.996   1.691
 5400SOL    HW117099   4.319   3.084   1.689
 5400SOL    HW217100   4.447   3.003   1.749
 5401SOL     OW17101   5.820   3.663   1.597
 5401SOL    HW117102   5.838   3.566   1.617
 5401SOL    HW217103   5.790   3.672   1.502
 5402SOL     OW17104   0.959   6.434   1.616
 5402SOL    HW117105   1.041   6.473   1.656
 5402SOL    HW217106   0.960   6.334   1.627
 5403SOL     OW17107   5.087   2.530   0.103
 5403SOL    HW117108   5.178   2.571   0.112
 5403SOL    HW217109   5.033   2.584   0.040
 5404SOL     OW17110   7.002   1.426   0.475
 5404SOL    HW117111   7.008   1.345   0.532
 5404SOL    HW217112   7.014   1.400   0.379
 5405SOL     OW17113   5.742   5.300   6.804
 5405SOL    HW117114   5.772   5.378   6.858
 5405SOL    HW217115   5.663   5.326   6.748
 5406SOL     OW17116   2.596   0.533   4.478
 5406SOL    HW117117   2.692   0.539   4.503
 5406SOL    HW217118   2.578   0.444   4.436
 5407SOL     OW17119   1.509   6.887   2.843
 5407SOL    HW117120   1.536   6.980   2.817
 5407SOL    HW217121   1.534   6.823   2.770
 5408SOL     OW17122   3.521   2.043   4.120
 5408SOL    HW117123   3.542   2.054   4.023
 5408SOL    HW217124   3.463   1.963   4.133
 5409SOL     OW17125   1.320   2.819   0.918
 5409SOL    HW117126   1.262   2.748   0.959
 5409SOL    HW217127   1.320   2.808   0.818
 5410SOL     OW17128   1.387   2.694   0.647
 5410SOL    HW117129   1.445   2.639   0.587
 5410SOL    HW217130   1.293   2.662   0.640
 5411SOL     OW17131   3.313   5.044   6.888
 5411SOL    HW117132   3.332   4.950   6.862
 5411SOL    HW217133   3.315   5.103   6.807
 5412SOL     OW17134   0.149   2.059   6.257
 5412SOL    HW117135   0.214   2.121   6.301
 5412SOL    HW217136   0.056   2.097   6.266
 5413SOL     OW17137   6.741   6.361   4.999
 5413SOL    HW117138   6.777   6.297   5.067
 5413SOL    HW217139   6.642   6.368   5.009
 5414SOL     OW17140   5.588   3.921   4.836
 5414SOL    HW117141   5.681   3.956   4.833
 5414SOL    HW217142   5.590   3.822   4.847
 5415SOL     OW17143   3.872   0.374   6.916
 5415SOL    HW117144   3.885   0.471   6.893
 5415SOL    HW217145   3.956   0.337   6.955
 5416SOL     OW17146   3.175   5.607   6.167
 5416SOL    HW117147   3.255   5.666   6.157
 5416SOL    HW217148   3.198   5.529   6.224
 5417SOL     OW17149   4.961   6.128   4.063
 5417SOL    HW117150   4.915   6.173   3.986
 5417SOL    HW217151   4.896   6.115   4.138
 5418SOL     OW17152   6.410   3.718   4.382
 5418SOL    HW117153   6.473   3.765   4.319
 5418SOL    HW217154   6.456   3.638   4.420
 5419SOL     OW17155   4.576   0.125   6.549
 5419SOL    HW117156   4.588   0.046   6.610
 5419SOL    HW217157   4.646   0.122   6.477
 5420SOL     OW17158   1.278   0.756   1.790
 5420SOL    HW117159   1.252   0.723   1.700
 5420SOL    HW217160   1.196   0.785   1.841
 5421SOL     OW17161   4.148   4.660   1.874
 5421SOL    HW117162   4.194   4.624   1.793
 5421SOL    HW217163   4.205   4.644   1.955
 5422SOL     OW17164   2.500   5.763   3.722
 5422SOL    HW117165   2.466   5.689   3.665
 5422SOL    HW217166   2.517   5.844   3.666
 5423SOL     OW17167   5.526   5.511   1.752
 5423SOL    HW117168   5.606   5.569   1.761
 5423SOL    HW217169   5.550   5.416   1.770
 5424SOL     OW17170   4.296   4.059   5.428
 5424SOL    HW117171   4.360   4.118   5.477
 5424SOL    HW217172   4.204   4.096   5.434
 5425SOL     OW17173   1.187   3.788   5.973
 5425SOL    HW117174   1.261   3.798   5.906
 5425SOL    HW217175   1.212   3.717   6.039
 5426SOL     OW17176   5.350   5.352   1.423
 5426SOL    HW117177   5.441   5.387   1.400
 5426SOL    HW217178   5.352   5.252   1.423
 5427SOL     OW17179   4.706   2.098   6.338
 5427SOL    HW117180   4.669   2.112   6.430
 5427SOL    HW217181   4.774   2.168   6.318
 5428SOL     OW17182   6.203   6.091   3.162
 5428SOL    HW117183   6.129   6.152   3.133
 5428SOL    HW217184   6.250   6.131   3.240
 5429SOL     OW17185   3.306   0.259   4.534
 5429SOL    HW117186   3.250   0.330   4.577
 5429SOL    HW217187   3.328   0.188   4.602
 5430SOL     OW17188   2.583   3.713   5.800
 5430SOL    HW117189   2.654   3.769   5.843
 5430SOL    HW217190   2.624   3.658   5.728
 5431SOL     OW17191   3.140   4.455   6.681
 5431SOL    HW117192   3.189   4.412   6.605
 5431SOL    HW217193   3.043   4.429   6.676
 5432SOL     OW17194   5.896   5.439   6.994
 5432SOL    HW117195   5.943   5.374   6.934
 5432SOL    HW217196   5.953   5.456   0.056
 5433SOL     OW17197   1.671   0.611   1.595
 5433SOL    HW117198   1.694   0.689   1.537
 5433SOL    HW217199   1.634   0.644   1.682
 5434SOL     OW17200   5.663   0.264   4.859
 5434SOL    HW117201   5.675   0.166   4.844
 5434SOL    HW217202   5.692   0.314   4.777
 5435SOL     OW17203   6.797   4.194   0.639
 5435SOL    HW117204   6.843   4.142   0.711
 5435SOL    HW217205   6.704   4.216   0.668
 5436SOL     OW17206   1.070   5.064   2.506
 5436SOL    HW117207   0.988   5.025   2.465
 5436SOL    HW217208   1.097   5.146   2.455
 5437SOL     OW17209   3.773   5.496   1.399
 5437SOL    HW117210   3.716   5.577   1.387
 5437SOL    HW217211   3.852   5.520   1.456
 5438SOL     OW17212   4.649   4.872   2.665
 5438SOL    HW117213   4.716   4.878   2.739
 5438SOL    HW217214   4.564   4.916   2.693
 5439SOL     OW17215   1.046   4.696   1.443
 5439SOL    HW117216   1.041   4.611   1.390
 5439SOL    HW217217   0.984   4.691   1.521
 5440SOL     OW17218   6.458   6.762   3.707
 5440SOL    HW117219   6.535   6.721   3.755
 5440SOL    HW217220   6.377   6.704   3.719
 5441SOL     OW17221   5.656   2.735   3.636
 5441SOL    HW117222   5.681   2.770   3.726
 5441SOL    HW217223   5.671   2.805   3.567
 5442SOL     OW17224   4.054   6.949   6.071
 5442SOL    HW117225   4.112   6.982   6.145
 5442SOL    HW217226   4.107   6.943   5.987
 5443SOL     OW17227   4.316   0.770   3.930
 5443SOL    HW117228   4.241   0.737   3.873
 5443SOL    HW217229   4.389   0.807   3.871
 5444SOL     OW17230   6.462   1.047   5.012
 5444SOL    HW117231   6.364   1.030   4.999
 5444SOL    HW217232   6.481   1.058   5.110
 5445SOL     OW17233   5.753   5.325   4.827
 5445SOL    HW117234   5.774   5.360   4.918
 5445SOL    HW217235   5.659   5.293   4.824
 5446SOL     OW17236   0.475   4.288   5.950
 5446SOL    HW117237   0.415   4.316   6.024
 5446SOL    HW217238   0.421   4.245   5.877
 5447SOL     OW17239   1.374   2.211   0.655
 5447SOL    HW117240   1.456   2.220   0.600
 5447SOL    HW217241   1.399   2.180   0.747
 5448SOL     OW17242   4.296   5.200   2.897
 5448SOL    HW117243   4.393   5.206   2.877
 5448SOL    HW217244   4.282   5.193   2.996
 5449SOL     OW17245   2.925   1.360   1.709
 5449SOL    HW117246   2.948   1.373   1.806
 5449SOL    HW217247   3.004   1.322   1.661
 5450SOL     OW17248   4.349   5.427   1.623
 5450SOL    HW117249   4.417   5.498   1.609
 5450SOL    HW217250   4.268   5.447   1.568
 5451SOL     OW17251   0.034   6.930   2.649
 5451SOL    HW117252   6.993   6.874   2.707
 5451SOL    HW217253   0.110   6.874   2.616
 5452SOL     OW17254   2.332   4.049   2.004
 5452SOL    HW117255   2.362   4.144   1.993
 5452SOL    HW217256   2.264   4.043   2.077
 5453SOL     OW17257   5.857   3.887   3.311
 5453SOL    HW117258   5.847   3.899   3.212
 5453SOL    HW217259   5.872   3.976   3.354
 5454SOL     OW17260   5.327   5.199   2.560
 5454SOL    HW117261   5.396   5.132   2.588
 5454SOL    HW217262   5.298   5.179   2.466
 5455SOL     OW17263   1.703   1.382   3.565
 5455SOL    HW117264   1.647   1.301   3.584
 5455SOL    HW217265   1.644   1.458   3.540
 5456SOL     OW17266   6.179   1.175   0.254
 5456SOL    HW117267   6.080   1.161   0.255
 5456SOL    HW217268   6.224   1.096   0.295
 5457SOL     OW17269   5.701   1.953   6.834
 5457SOL    HW117270   5.750   1.866   6.836
 5457SOL    HW217271   5.690   1.983   6.740
 5458SOL     OW17272   5.973   4.006   6.976
 5458SOL    HW117273   5.953   3.947   0.035
 5458SOL    HW217274   6.043   3.963   6.918
 5459SOL     OW17275   1.712   3.985   5.260
 5459SOL    HW117276   1.703   3.935   5.174
 5459SOL    HW217277   1.774   4.062   5.248
 5460SOL     OW17278   1.697   0.231   0.927
 5460SOL    HW117279   1.676   0.270   0.837
 5460SOL    HW217280   1.795   0.238   0.944
 5461SOL     OW17281   6.565   1.196   5.716
 5461SOL    HW117282   6.503   1.131   5.672
 5461SOL    HW217283   6.658   1.161   5.713
 5462SOL     OW17284   4.678   5.342   6.701
 5462SOL    HW117285   4.758   5.391   6.667
 5462SOL    HW217286   4.662   5.366   6.797
 5463SOL     OW17287   1.057   3.021   6.820
 5463SOL    HW117288   1.031   3.077   6.899
 5463SOL    HW217289   1.129   3.067   6.768
 5464SOL     OW17290   6.925   6.177   5.627
 5464SOL    HW117291   6.866   6.253   5.601
 5464SOL    HW217292   6.935   6.175   5.726
 5465SOL     OW17293   6.722   6.136   3.634
 5465SOL    HW117294   6.675   6.052   3.604
 5465SOL    HW217295   6.794   6.112   3.699
 5466SOL     OW17296   5.828   2.583   5.975
 5466SOL    HW117297   5.891   2.528   6.030
 5466SOL    HW217298   5.740   2.535   5.968
 5467SOL     OW17299   5.187   3.427   3.855
 5467SOL    HW117300   5.266   3.447   3.914
 5467SOL    HW217301   5.104   3.462   3.898
 5468SOL     OW17302   0.325   1.801   1.436
 5468SOL    HW117303   0.337   1.898   1.415
 5468SOL    HW217304   0.414   1.757   1.445
 5469SOL     OW17305   2.923   0.660   5.033
 5469SOL    HW117306   2.874   0.578   5.000
 5469SOL    HW217307   2.966   0.640   5.121
 5470SOL     OW17308   3.422   5.359   3.992
 5470SOL    HW117309   3.369   5.433   4.034
 5470SOL    HW217310   3.516   5.390   3.976
 5471SOL     OW17311   5.198   0.709   3.150
 5471SOL    HW117312   5.174   0.776   3.220
 5471SOL    HW217313   5.172   0.618   3.181
 5472SOL     OW17314   2.693   2.133   6.940
 5472SOL    HW117315   2.600   2.129   6.904
 5472SOL    HW217316   2.759   2.120   6.865
 5473SOL     OW17317   3.039   4.054   1.528
 5473SOL    HW117318   2.994   4.087   1.611
 5473SOL    HW217319   3.050   3.955   1.533
 5474SOL     OW17320   0.377   5.461   3.791
 5474SOL    HW117321   0.472   5.492   3.799
 5474SOL    HW217322   0.341   5.439   3.881
 5475SOL     OW17323   6.878   1.714   5.561
 5475SOL    HW117324   6.967   1.722   5.516
 5475SOL    HW217325   6.810   1.767   5.509
 5476SOL     OW17326   2.505   6.579   6.434
 5476SOL    HW117327   2.468   6.623   6.516
 5476SOL    HW217328   2.448   6.601   6.355
 5477SOL     OW17329   1.866   5.171   3.647
 5477SOL    HW117330   1.916   5.200   3.729
 5477SOL    HW217331   1.926   5.116   3.589
 5478SOL     OW17332   5.633   4.897   5.563
 5478SOL    HW117333   5.665   4.915   5.656
 5478SOL    HW217334   5.712   4.894   5.501
 5479SOL     OW17335   3.375   1.877   4.785
 5479SOL    HW117336   3.399   1.857   4.689
 5479SOL    HW217337   3.276   1.887   4.792
 5480SOL     OW17338   6.821   3.820   4.375
 5480SOL    HW117339   6.757   3.842   4.301
 5480SOL    HW217340   6.786   3.742   4.427
 5481SOL     OW17341   4.745   1.518   6.634
 5481SOL    HW117342   4.832   1.551   6.671
 5481SOL    HW217343   4.743   1.418   6.637
 5482SOL     OW17344   4.987   3.037   1.271
 5482SOL    HW117345   4.999   2.950   1.319
 5482SOL    HW217346   4.896   3.074   1.291
 5483SOL     OW17347   6.904   3.520   5.937
 5483SOL    HW117348   6.989   3.493   5.893
 5483SOL    HW217349   6.922   3.547   6.031
 5484SOL     OW17350   6.381   6.282   3.855
 5484SOL    HW117351   6.400   6.313   3.762
 5484SOL    HW217352   6.403   6.354   3.920
 5485SOL     OW17353   3.698   6.846   5.484
 5485SOL    HW117354   3.670   6.941   5.496
 5485SOL    HW217355   3.663   6.812   5.397
 5486SOL     OW17356   0.812   0.759   3.490
 5486SOL    HW117357   0.786   0.667   3.460
 5486SOL    HW217358   0.802   0.823   3.415
 5487SOL     OW17359   6.250   4.282   0.233
 5487SOL    HW117360   6.281   4.362   0.182
 5487SOL    HW217361   6.327   4.241   0.282
 5488SOL     OW17362   5.081   2.088   6.719
 5488SOL    HW117363   5.027   2.043   6.647
 5488SOL    HW217364   5.107   2.180   6.688
 5489SOL     OW17365   1.257   4.313   2.919
 5489SOL    HW117366   1.348   4.294   2.955
 5489SOL    HW217367   1.206   4.228   2.908
 5490SOL     OW17368   2.715   1.634   0.884
 5490SOL    HW117369   2.782   1.584   0.829
 5490SOL    HW217370   2.650   1.570   0.924
 5491SOL     OW17371   1.435   4.844   0.827
 5491SOL    HW117372   1.469   4.836   0.733
 5491SOL    HW217373   1.352   4.788   0.837
 5492SOL     OW17374   0.823   1.389   6.249
 5492SOL    HW117375   0.759   1.400   6.173
 5492SOL    HW217376   0.781   1.333   6.320
 5493SOL     OW17377   3.621   3.237   6.330
 5493SOL    HW117378   3.696   3.279   6.381
 5493SOL    HW217379   3.561   3.308   6.294
 5494SOL     OW17380   5.797   3.417   1.662
 5494SOL    HW117381   5.816   3.376   1.574
 5494SOL    HW217382   5.825   3.355   1.735
 5495SOL     OW17383   4.139   3.187   2.569
 5495SOL    HW117384   4.089   3.106   2.598
 5495SOL    HW217385   4.171   3.237   2.649
 5496SOL     OW17386   3.552   5.670   1.589
 5496SOL    HW117387   3.630   5.733   1.587
 5496SOL    HW217388   3.522   5.651   1.496
 5497SOL     OW17389   6.909   1.053   2.102
 5497SOL    HW117390   6.931   1.084   2.010
 5497SOL    HW217391   6.971   1.097   2.168
 5498SOL     OW17392   4.786   1.596   5.877
 5498SOL    HW117393   4.759   1.659   5.949
 5498SOL    HW217394   4.704   1.559   5.833
 5499SOL     OW17395   6.773   1.341   3.532
 5499SOL    HW117396   6.821   1.306   3.612
 5499SOL    HW217397   6.839   1.363   3.461
 5500SOL     OW17398   2.136   6.185   0.283
 5500SOL    HW117399   2.220   6.196   0.336
 5500SOL    HW217400   2.078   6.266   0.295
 5501SOL     OW17401   2.743   0.396   1.892
 5501SOL    HW117402   2.810   0.364   1.825
 5501SOL    HW217403   2.654   0.355   1.873
 5502SOL     OW17404   6.213   4.076   5.505
 5502SOL    HW117405   6.133   4.082   5.564
 5502SOL    HW217406   6.292   4.045   5.559
 5503SOL     OW17407   1.080   4.771   3.352
 5503SOL    HW117408   0.991   4.734   3.381
 5503SOL    HW217409   1.133   4.798   3.433
 5504SOL     OW17410   3.356   1.837   4.415
 5504SOL    HW117411   3.261   1.832   4.384
 5504SOL    HW217412   3.413   1.778   4.358
 5505SOL     OW17413   3.228   5.462   5.694
 5505SOL    HW117414   3.181   5.529   5.637
 5505SOL    HW217415   3.257   5.506   5.779
 5506SOL     OW17416   6.009   0.744   5.773
 5506SOL    HW117417   5.997   0.794   5.688
 5506SOL    HW217418   5.948   0.665   5.774
 5507SOL     OW17419   2.871   6.729   4.168
 5507SOL    HW117420   2.874   6.734   4.068
 5507SOL    HW217421   2.853   6.821   4.205
 5508SOL     OW17422   2.786   0.416   6.236
 5508SOL    HW117423   2.843   0.474   6.293
 5508SOL    HW217424   2.767   0.462   6.149
 5509SOL     OW17425   5.905   6.657   0.271
 5509SOL    HW117426   5.940   6.750   0.281
 5509SOL    HW217427   5.966   6.606   0.209
 5510SOL     OW17428   5.063   0.459   5.647
 5510SOL    HW117429   5.138   0.495   5.704
 5510SOL    HW217430   5.083   0.365   5.621
 5511SOL     OW17431   0.687   0.814   2.592
 5511SOL    HW117432   0.639   0.867   2.662
 5511SOL    HW217433   0.712   0.874   2.515
 5512SOL     OW17434   1.275   0.911   6.917
 5512SOL    HW117435   1.307   0.993   6.870
 5512SOL    HW217436   1.320   0.831   6.878
 5513SOL     OW17437   4.825   4.081   4.731
 5513SOL    HW117438   4.771   4.134   4.665
 5513SOL    HW217439   4.801   4.108   4.824
 5514SOL     OW17440   5.091   4.731   1.615
 5514SOL    HW117441   4.997   4.759   1.596
 5514SOL    HW217442   5.093   4.678   1.699
 5515SOL     OW17443   6.522   2.157   1.849
 5515SOL    HW117444   6.571   2.138   1.764
 5515SOL    HW217445   6.426   2.130   1.840
 5516SOL     OW17446   1.076   3.691   6.828
 5516SOL    HW117447   1.050   3.650   6.741
 5516SOL    HW217448   0.995   3.698   6.887
 5517SOL     OW17449   2.835   1.835   1.042
 5517SOL    HW117450   2.801   1.781   0.966
 5517SOL    HW217451   2.934   1.824   1.050
 5518SOL     OW17452   5.992   4.840   5.785
 5518SOL    HW117453   6.050   4.918   5.808
 5518SOL    HW217454   5.925   4.867   5.715
 5519SOL     OW17455   5.963   3.813   3.812
 5519SOL    HW117456   5.949   3.804   3.713
 5519SOL    HW217457   6.061   3.815   3.831
 5520SOL     OW17458   0.662   4.017   2.223
 5520SOL    HW117459   0.588   3.951   2.236
 5520SOL    HW217460   0.719   3.987   2.147
 5521SOL     OW17461   5.896   6.203   1.319
 5521SOL    HW117462   5.990   6.200   1.352
 5521SOL    HW217463   5.844   6.271   1.370
 5522SOL     OW17464   2.580   3.677   1.712
 5522SOL    HW117465   2.526   3.713   1.636
 5522SOL    HW217466   2.525   3.611   1.764
 5523SOL     OW17467   3.313   0.241   2.555
 5523SOL    HW117468   3.230   0.289   2.587
 5523SOL    HW217469   3.290   0.147   2.532
 5524SOL     OW17470   0.879   4.960   5.711
 5524SOL    HW117471   0.805   4.899   5.683
 5524SOL    HW217472   0.842   5.033   5.768
 5525SOL     OW17473   6.676   5.142   6.381
 5525SOL    HW117474   6.728   5.144   6.467
 5525SOL    HW217475   6.579   5.131   6.400
 5526SOL     OW17476   6.329   3.094   4.130
 5526SOL    HW117477   6.350   3.098   4.227
 5526SOL    HW217478   6.390   3.028   4.085
 5527SOL     OW17479   1.758   2.784   1.810
 5527SOL    HW117480   1.699   2.738   1.744
 5527SOL    HW217481   1.714   2.786   1.900
 5528SOL     OW17482   0.476   2.333   4.594
 5528SOL    HW117483   0.384   2.368   4.578
 5528SOL    HW217484   0.480   2.289   4.684
 5529SOL     OW17485   2.591   0.814   4.657
 5529SOL    HW117486   2.543   0.859   4.581
 5529SOL    HW217487   2.682   0.787   4.627
 5530SOL     OW17488   0.626   2.146   0.374
 5530SOL    HW117489   0.713   2.097   0.365
 5530SOL    HW217490   0.623   2.219   0.306
 5531SOL     OW17491   4.280   2.930   5.354
 5531SOL    HW117492   4.181   2.942   5.363
 5531SOL    HW217493   4.299   2.841   5.312
 5532SOL     OW17494   2.329   1.772   0.615
 5532SOL    HW117495   2.362   1.720   0.694
 5532SOL    HW217496   2.246   1.729   0.579
 5533SOL     OW17497   3.925   0.810   2.189
 5533SOL    HW117498   3.834   0.806   2.148
 5533SOL    HW217499   3.956   0.717   2.210
 5534SOL     OW17500   0.856   3.943   6.668
 5534SOL    HW117501   0.936   3.883   6.676
 5534SOL    HW217502   0.884   4.038   6.680
 5535SOL     OW17503   6.434   3.274   3.006
 5535SOL    HW117504   6.342   3.258   3.042
 5535SOL    HW217505   6.469   3.190   2.964
 5536SOL     OW17506   2.149   0.946   4.313
 5536SOL    HW117507   2.177   0.893   4.233
 5536SOL    HW217508   2.226   0.955   4.376
 5537SOL     OW17509   3.953   0.494   5.122
 5537SOL    HW117510   3.885   0.423   5.142
 5537SOL    HW217511   3.984   0.484   5.027
 5538SOL     OW17512   3.596   1.335   6.153
 5538SOL    HW117513   3.585   1.402   6.227
 5538SOL    HW217514   3.532   1.357   6.079
 5539SOL     OW17515   1.861   0.850   2.167
 5539SOL    HW117516   1.814   0.763   2.178
 5539SOL    HW217517   1.952   0.835   2.128
 5540SOL     OW17518   5.255   2.743   0.131
 5540SOL    HW117519   5.279   2.690   0.212
 5540SOL    HW217520   5.206   2.826   0.159
 5541SOL     OW17521   5.068   3.553   5.974
 5541SOL    HW117522   5.024   3.566   5.885
 5541SOL    HW217523   5.083   3.455   5.989
 5542SOL     OW17524   5.357   4.631   6.487
 5542SOL    HW117525   5.380   4.725   6.462
 5542SOL    HW217526   5.441   4.578   6.499
 5543SOL     OW17527   1.952   6.796   0.826
 5543SOL    HW117528   1.971   6.736   0.904
 5543SOL    HW217529   2.005   6.765   0.747
 5544SOL     OW17530   4.652   5.156   5.974
 5544SOL    HW117531   4.734   5.153   6.030
 5544SOL    HW217532   4.636   5.066   5.934
 5545SOL     OW17533   4.337   1.241   2.743
 5545SOL    HW117534   4.392   1.267   2.823
 5545SOL    HW217535   4.339   1.314   2.675
 5546SOL     OW17536   0.496   6.323   4.943
 5546SOL    HW117537   0.448   6.403   4.908
 5546SOL    HW217538   0.529   6.268   4.867
 5547SOL     OW17539   5.078   1.911   5.674
 5547SOL    HW117540   5.104   1.889   5.580
 5547SOL    HW217541   5.054   1.827   5.723
 5548SOL     OW17542   6.532   3.823   5.885
 5548SOL    HW117543   6.566   3.867   5.968
 5548SOL    HW217544   6.514   3.726   5.904
 5549SOL     OW17545   4.208   3.668   1.819
 5549SOL    HW117546   4.112   3.665   1.793
 5549SOL    HW217547   4.260   3.604   1.762
 5550SOL     OW17548   2.188   4.629   2.923
 5550SOL    HW117549   2.224   4.552   2.870
 5550SOL    HW217550   2.120   4.596   2.988
 5551SOL     OW17551   2.134   5.529   3.033
 5551SOL    HW117552   2.224   5.501   2.999
 5551SOL    HW217553   2.140   5.550   3.130
 5552SOL     OW17554   6.599   6.858   6.305
 5552SOL    HW117555   6.573   6.762   6.300
 5552SOL    HW217556   6.531   6.913   6.256
 5553SOL     OW17557   4.270   0.613   6.738
 5553SOL    HW117558   4.201   0.623   6.809
 5553SOL    HW217559   4.259   0.524   6.694
 5554SOL     OW17560   4.943   2.809   0.929
 5554SOL    HW117561   4.981   2.876   0.993
 5554SOL    HW217562   4.984   2.821   0.839
 5555SOL     OW17563   0.922   3.869   3.174
 5555SOL    HW117564   0.928   3.831   3.266
 5555SOL    HW217565   0.856   3.817   3.120
 5556SOL     OW17566   5.704   1.095   4.105
 5556SOL    HW117567   5.695   1.095   4.205
 5556SOL    HW217568   5.633   1.037   4.065
 5557SOL     OW17569   3.374   5.949   1.459
 5557SOL    HW117570   3.396   5.929   1.555
 5557SOL    HW217571   3.422   5.885   1.400
 5558SOL     OW17572   3.462   4.622   0.450
 5558SOL    HW117573   3.536   4.570   0.407
 5558SOL    HW217574   3.398   4.653   0.381
 5559SOL     OW17575   1.113   0.411   2.654
 5559SOL    HW117576   1.078   0.408   2.560
 5559SOL    HW217577   1.173   0.333   2.671
 5560SOL     OW17578   6.764   5.673   2.999
 5560SOL    HW117579   6.667   5.689   3.016
 5560SOL    HW217580   6.794   5.727   2.920
 5561SOL     OW17581   2.920   1.023   4.850
 5561SOL    HW117582   2.853   1.076   4.800
 5561SOL    HW217583   2.876   0.976   4.927
 5562SOL     OW17584   4.785   4.418   6.913
 5562SOL    HW117585   4.720   4.392   6.842
 5562SOL    HW217586   4.866   4.459   6.870
 5563SOL     OW17587   2.995   4.812   2.826
 5563SOL    HW117588   2.901   4.783   2.839
 5563SOL    HW217589   3.036   4.835   2.914
 5564SOL     OW17590   4.625   6.799   6.195
 5564SOL    HW117591   4.557   6.726   6.190
 5564SOL    HW217592   4.583   6.879   6.239
 5565SOL     OW17593   4.111   3.511   0.204
 5565SOL    HW117594   4.207   3.534   0.223
 5565SOL    HW217595   4.071   3.582   0.145
 5566SOL     OW17596   1.680   4.160   0.754
 5566SOL    HW117597   1.741   4.143   0.831
 5566SOL    HW217598   1.728   4.138   0.669
 5567SOL     OW17599   6.770   3.171   1.896
 5567SOL    HW117600   6.825   3.233   1.952
 5567SOL    HW217601   6.748   3.215   1.809
 5568SOL     OW17602   4.438   6.972   3.010
 5568SOL    HW117603   4.401   6.952   2.919
 5568SOL    HW217604   4.435   6.890   3.066
 5569SOL     OW17605   2.654   1.576   3.261
 5569SOL    HW117606   2.635   1.613   3.351
 5569SOL    HW217607   2.711   1.639   3.209
 5570SOL     OW17608   6.050   3.329   3.269
 5570SOL    HW117609   6.044   3.331   3.369
 5570SOL    HW217610   6.143   3.350   3.241
 5571SOL     OW17611   6.508   5.145   1.935
 5571SOL    HW117612   6.467   5.134   1.844
 5571SOL    HW217613   6.607   5.131   1.928
 5572SOL     OW17614   1.646   4.472   5.001
 5572SOL    HW117615   1.624   4.412   5.079
 5572SOL    HW217616   1.582   4.454   4.926
 5573SOL     OW17617   1.523   5.123   5.112
 5573SOL    HW117618   1.592   5.158   5.048
 5573SOL    HW217619   1.468   5.053   5.067
 5574SOL     OW17620   0.461   2.990   6.985
 5574SOL    HW117621   0.526   3.013   0.039
 5574SOL    HW217622   0.391   2.928   0.003
 5575SOL     OW17623   0.300   6.915   1.378
 5575SOL    HW117624   0.363   6.837   1.380
 5575SOL    HW217625   0.332   6.981   1.310
 5576SOL     OW17626   1.510   4.243   2.992
 5576SOL    HW117627   1.586   4.246   2.928
 5576SOL    HW217628   1.543   4.257   3.085
 5577SOL     OW17629   2.056   3.393   0.436
 5577SOL    HW117630   2.144   3.438   0.445
 5577SOL    HW217631   2.017   3.377   0.527
 5578SOL     OW17632   4.023   3.849   2.513
 5578SOL    HW117633   4.054   3.934   2.555
 5578SOL    HW217634   3.969   3.797   2.578
 5579SOL     OW17635   0.586   3.403   0.898
 5579SOL    HW117636   0.645   3.331   0.933
 5579SOL    HW217637   0.572   3.473   0.968
 5580SOL     OW17638   4.639   1.852   6.276
 5580SOL    HW117639   4.659   1.945   6.308
 5580SOL    HW217640   4.549   1.850   6.233
 5581SOL     OW17641   1.065   1.545   1.397
 5581SOL    HW117642   1.020   1.598   1.470
 5581SOL    HW217643   1.155   1.514   1.429
 5582SOL     OW17644   2.580   4.241   6.493
 5582SOL    HW117645   2.487   4.210   6.476
 5582SOL    HW217646   2.591   4.262   6.590
 5583SOL     OW17647   4.384   0.560   2.499
 5583SOL    HW117648   4.412   0.513   2.416
 5583SOL    HW217649   4.461   0.612   2.536
 5584SOL     OW17650   6.339   4.040   4.301
 5584SOL    HW117651   6.327   4.024   4.399
 5584SOL    HW217652   6.431   4.012   4.273
 5585SOL     OW17653   4.978   5.282   3.140
 5585SOL    HW117654   5.075   5.299   3.154
 5585SOL    HW217655   4.925   5.341   3.201
 5586SOL     OW17656   6.434   3.558   5.939
 5586SOL    HW117657   6.437   3.530   5.843
 5586SOL    HW217658   6.443   3.477   5.997
 5587SOL     OW17659   4.523   0.037   0.315
 5587SOL    HW117660   4.618   0.042   0.344
 5587SOL    HW217661   4.473   6.993   0.375
 5588SOL     OW17662   2.873   6.535   2.822
 5588SOL    HW117663   2.941   6.578   2.763
 5588SOL    HW217664   2.919   6.482   2.894
 5589SOL     OW17665   6.421   4.406   6.701
 5589SOL    HW117666   6.452   4.324   6.748
 5589SOL    HW217667   6.420   4.483   6.765
 5590SOL     OW17668   6.022   6.434   3.791
 5590SOL    HW117669   5.956   6.480   3.731
 5590SOL    HW217670   5.973   6.389   3.866
 5591SOL     OW17671   0.574   1.802   1.058
 5591SOL    HW117672   0.485   1.846   1.044
 5591SOL    HW217673   0.561   1.705   1.076
 5592SOL     OW17674   1.329   5.397   3.887
 5592SOL    HW117675   1.296   5.472   3.829
 5592SOL    HW217676   1.426   5.411   3.908
 5593SOL     OW17677   6.827   2.814   6.477
 5593SOL    HW117678   6.827   2.905   6.435
 5593SOL    HW217679   6.783   2.818   6.567
 5594SOL     OW17680   4.876   0.621   4.865
 5594SOL    HW117681   4.825   0.636   4.780
 5594SOL    HW217682   4.839   0.541   4.913
 5595SOL     OW17683   1.235   1.274   5.029
 5595SOL    HW117684   1.249   1.251   5.125
 5595SOL    HW217685   1.257   1.371   5.015
 5596SOL     OW17686   4.581   6.440   2.506
 5596SOL    HW117687   4.551   6.406   2.416
 5596SOL    HW217688   4.504   6.440   2.569
 5597SOL     OW17689   4.743   2.317   4.469
 5597SOL    HW117690   4.772   2.393   4.528
 5597SOL    HW217691   4.821   2.256   4.453
 5598SOL     OW17692   4.962   3.467   4.112
 5598SOL    HW117693   4.935   3.523   4.033
 5598SOL    HW217694   4.995   3.527   4.185
 5599SOL     OW17695   1.010   1.030   4.136
 5599SOL    HW117696   1.053   1.005   4.049
 5599SOL    HW217697   1.081   1.045   4.205
 5600SOL     OW17698   0.866   2.049   2.553
 5600SOL    HW117699   0.887   2.038   2.650
 5600SOL    HW217700   0.767   2.058   2.541
 5601SOL     OW17701   2.910   0.054   5.907
 5601SOL    HW117702   2.899   0.017   6.000
 5601SOL    HW217703   2.821   0.066   5.864
 5602SOL     OW17704   0.658   1.467   0.613
 5602SOL    HW117705   0.724   1.401   0.647
 5602SOL    HW217706   0.596   1.493   0.687
 5603SOL     OW17707   4.937   2.276   6.892
 5603SOL    HW117708   4.943   2.229   6.980
 5603SOL    HW217709   5.017   2.255   6.837
 5604SOL     OW17710   6.507   1.916   5.648
 5604SOL    HW117711   6.412   1.937   5.668
 5604SOL    HW217712   6.566   1.987   5.687
 5605SOL     OW17713   0.791   0.926   4.524
 5605SOL    HW117714   0.874   0.972   4.557
 5605SOL    HW217715   0.758   0.972   4.442
 5606SOL     OW17716   5.619   6.757   1.001
 5606SOL    HW117717   5.716   6.734   1.002
 5606SOL    HW217718   5.606   6.844   0.953
 5607SOL     OW17719   5.688   0.425   2.509
 5607SOL    HW117720   5.725   0.504   2.461
 5607SOL    HW217721   5.615   0.454   2.570
 5608SOL     OW17722   4.265   6.994   4.910
 5608SOL    HW117723   4.224   6.926   4.849
 5608SOL    HW217724   4.352   6.959   4.945
 5609SOL     OW17725   2.618   4.950   0.566
 5609SOL    HW117726   2.662   4.899   0.640
 5609SOL    HW217727   2.564   5.025   0.606
 5610SOL     OW17728   4.909   6.771   0.779
 5610SOL    HW117729   4.943   6.682   0.750
 5610SOL    HW217730   4.863   6.762   0.867
 5611SOL     OW17731   1.974   5.186   2.571
 5611SOL    HW117732   1.991   5.208   2.667
 5611SOL    HW217733   1.888   5.229   2.542
 5612SOL     OW17734   3.619   2.106   6.895
 5612SOL    HW117735   3.680   2.031   6.920
 5612SOL    HW217736   3.671   2.190   6.883
 5613SOL     OW17737   5.449   3.969   3.146
 5613SOL    HW117738   5.377   3.911   3.108
 5613SOL    HW217739   5.431   4.064   3.120
 5614SOL     OW17740   4.437   2.427   4.567
 5614SOL    HW117741   4.502   2.500   4.588
 5614SOL    HW217742   4.410   2.433   4.471
 5615SOL     OW17743   0.485   0.582   6.058
 5615SOL    HW117744   0.526   0.504   6.012
 5615SOL    HW217745   0.448   0.645   5.989
 5616SOL     OW17746   1.833   1.108   5.518
 5616SOL    HW117747   1.806   1.023   5.563
 5616SOL    HW217748   1.905   1.153   5.571
 5617SOL     OW17749   2.404   6.694   6.649
 5617SOL    HW117750   2.315   6.657   6.677
 5617SOL    HW217751   2.426   6.773   6.706
 5618SOL     OW17752   6.609   3.242   4.223
 5618SOL    HW117753   6.577   3.177   4.293
 5618SOL    HW217754   6.549   3.236   4.143
 5619SOL     OW17755   2.823   4.074   6.155
 5619SOL    HW117756   2.843   4.097   6.250
 5619SOL    HW217757   2.830   3.974   6.144
 5620SOL     OW17758   3.778   3.484   0.927
 5620SOL    HW117759   3.702   3.549   0.924
 5620SOL    HW217760   3.843   3.513   0.997
 5621SOL     OW17761   1.248   2.289   5.874
 5621SOL    HW117762   1.268   2.322   5.966
 5621SOL    HW217763   1.263   2.190   5.870
 5622SOL     OW17764   4.412   0.154   5.785
 5622SOL    HW117765   4.426   0.252   5.790
 5622SOL    HW217766   4.314   0.134   5.779
 5623SOL     OW17767   2.038   5.520   6.242
 5623SOL    HW117768   1.993   5.601   6.205
 5623SOL    HW217769   2.131   5.513   6.206
 5624SOL     OW17770   0.794   4.495   3.582
 5624SOL    HW117771   0.877   4.439   3.579
 5624SOL    HW217772   0.810   4.576   3.640
 5625SOL     OW17773   5.908   2.009   4.350
 5625SOL    HW117774   5.863   2.087   4.392
 5625SOL    HW217775   5.977   2.041   4.285
 5626SOL     OW17776   3.045   6.900   4.875
 5626SOL    HW117777   3.026   6.816   4.927
 5626SOL    HW217778   3.135   6.892   4.832
 5627SOL     OW17779   1.135   5.881   0.346
 5627SOL    HW117780   1.194   5.878   0.427
 5627SOL    HW217781   1.099   5.790   0.327
 5628SOL     OW17782   1.468   2.757   5.574
 5628SOL    HW117783   1.412   2.839   5.558
 5628SOL    HW217784   1.510   2.763   5.664
 5629SOL     OW17785   3.448   3.827   2.187
 5629SOL    HW117786   3.416   3.743   2.142
 5629SOL    HW217787   3.476   3.894   2.118
 5630SOL     OW17788   1.138   4.908   0.517
 5630SOL    HW117789   1.134   4.822   0.568
 5630SOL    HW217790   1.199   4.897   0.439
 5631SOL     OW17791   4.482   1.475   0.210
 5631SOL    HW117792   4.569   1.466   0.258
 5631SOL    HW217793   4.467   1.571   0.186
 5632SOL     OW17794   4.020   2.652   6.244
 5632SOL    HW117795   3.943   2.612   6.194
 5632SOL    HW217796   4.003   2.644   6.342
 5633SOL     OW17797   6.209   2.105   3.630
 5633SOL    HW117798   6.198   2.200   3.601
 5633SOL    HW217799   6.272   2.058   3.568
 5634SOL     OW17800   2.627   6.177   5.783
 5634SOL    HW117801   2.564   6.140   5.851
 5634SOL    HW217802   2.583   6.252   5.734
 5635SOL     OW17803   1.923   3.776   5.145
 5635SOL    HW117804   1.947   3.766   5.242
 5635SOL    HW217805   2.005   3.796   5.092
 5636SOL     OW17806   3.324   6.209   2.375
 5636SOL    HW117807   3.336   6.257   2.462
 5636SOL    HW217808   3.396   6.238   2.311
 5637SOL     OW17809   5.058   0.379   4.237
 5637SOL    HW117810   5.005   0.321   4.174
 5637SOL    HW217811   4.996   0.416   4.307
 5638SOL     OW17812   5.462   3.414   1.225
 5638SOL    HW117813   5.403   3.484   1.266
 5638SOL    HW217814   5.506   3.361   1.298
 5639SOL     OW17815   0.697   0.673   0.308
 5639SOL    HW117816   0.687   0.677   0.209
 5639SOL    HW217817   0.664   0.758   0.349
 5640SOL     OW17818   2.973   0.401   3.856
 5640SOL    HW117819   2.937   0.491   3.834
 5640SOL    HW217820   3.022   0.405   3.943
 5641SOL     OW17821   0.574   4.857   6.071
 5641SOL    HW117822   0.663   4.874   6.029
 5641SOL    HW217823   0.565   4.760   6.093
 5642SOL     OW17824   2.145   6.530   0.061
 5642SOL    HW117825   2.158   6.431   0.049
 5642SOL    HW217826   2.232   6.572   0.085
 5643SOL     OW17827   4.979   1.606   5.098
 5643SOL    HW117828   4.927   1.636   5.017
 5643SOL    HW217829   4.915   1.568   5.165
 5644SOL     OW17830   3.112   6.522   5.436
 5644SOL    HW117831   3.049   6.569   5.498
 5644SOL    HW217832   3.066   6.503   5.350
 5645SOL     OW17833   6.480   3.557   3.878
 5645SOL    HW117834   6.441   3.481   3.929
 5645SOL    HW217835   6.428   3.571   3.794
 5646SOL     OW17836   2.080   5.086   2.861
 5646SOL    HW117837   2.176   5.105   2.882
 5646SOL    HW217838   2.024   5.100   2.942
 5647SOL     OW17839   5.642   6.358   1.583
 5647SOL    HW117840   5.592   6.377   1.667
 5647SOL    HW217841   5.578   6.334   1.511
 5648SOL     OW17842   2.449   5.853   2.342
 5648SOL    HW117843   2.350   5.861   2.331
 5648SOL    HW217844   2.489   5.813   2.259
 5649SOL     OW17845   0.844   6.989   4.233
 5649SOL    HW117846   0.839   6.934   4.150
 5649SOL    HW217847   0.893   6.938   4.304
 5650SOL     OW17848   0.617   4.621   0.410
 5650SOL    HW117849   0.664   4.685   0.471
 5650SOL    HW217850   0.683   4.559   0.368
 5651SOL     OW17851   2.024   0.374   0.687
 5651SOL    HW117852   2.116   0.336   0.673
 5651SOL    HW217853   1.966   0.349   0.611
 5652SOL     OW17854   0.103   5.497   1.882
 5652SOL    HW117855   0.048   5.426   1.838
 5652SOL    HW217856   0.133   5.464   1.972
 5653SOL     OW17857   0.496   6.521   0.012
 5653SOL    HW117858   0.538   6.610   0.027
 5653SOL    HW217859   0.416   6.512   0.072
 5654SOL     OW17860   1.032   5.684   4.363
 5654SOL    HW117861   1.092   5.619   4.315
 5654SOL    HW217862   1.039   5.670   4.461
 5655SOL     OW17863   6.439   2.915   3.930
 5655SOL    HW117864   6.511   2.961   3.877
 5655SOL    HW217865   6.473   2.827   3.962
 5656SOL     OW17866   6.557   3.394   6.404
 5656SOL    HW117867   6.506   3.365   6.485
 5656SOL    HW217868   6.632   3.455   6.432
 5657SOL     OW17869   4.580   4.444   4.837
 5657SOL    HW117870   4.625   4.370   4.888
 5657SOL    HW217871   4.503   4.479   4.890
 5658SOL     OW17872   2.077   3.011   6.505
 5658SOL    HW117873   2.172   3.004   6.536
 5658SOL    HW217874   2.018   2.959   6.568
 5659SOL     OW17875   3.383   3.552   5.959
 5659SOL    HW117876   3.445   3.579   5.885
 5659SOL    HW217877   3.289   3.554   5.925
 5660SOL     OW17878   4.359   0.259   6.407
 5660SOL    HW117879   4.423   0.299   6.341
 5660SOL    HW217880   4.411   0.211   6.478
 5661SOL     OW17881   0.827   5.603   5.661
 5661SOL    HW117882   0.896   5.650   5.715
 5661SOL    HW217883   0.850   5.506   5.654
 5662SOL     OW17884   2.116   6.613   2.734
 5662SOL    HW117885   2.023   6.591   2.706
 5662SOL    HW217886   2.181   6.556   2.683
 5663SOL     OW17887   1.492   2.949   0.562
 5663SOL    HW117888   1.589   2.934   0.544
 5663SOL    HW217889   1.451   2.865   0.599
 5664SOL     OW17890   5.222   4.199   4.530
 5664SOL    HW117891   5.172   4.255   4.595
 5664SOL    HW217892   5.158   4.136   4.485
 5665SOL     OW17893   1.286   6.322   0.565
 5665SOL    HW117894   1.327   6.405   0.602
 5665SOL    HW217895   1.353   6.275   0.507
 5666SOL     OW17896   6.012   0.840   3.959
 5666SOL    HW117897   5.977   0.893   4.036
 5666SOL    HW217898   6.048   0.752   3.992
 5667SOL     OW17899   1.950   4.631   4.157
 5667SOL    HW117900   1.853   4.644   4.137
 5667SOL    HW217901   1.966   4.643   4.254
 5668SOL     OW17902   6.171   2.805   2.380
 5668SOL    HW117903   6.081   2.849   2.374
 5668SOL    HW217904   6.160   2.711   2.413
 5669SOL     OW17905   6.723   4.257   0.087
 5669SOL    HW117906   6.652   4.187   0.081
 5669SOL    HW217907   6.687   4.337   0.137
 5670SOL     OW17908   1.457   3.701   2.876
 5670SOL    HW117909   1.529   3.632   2.870
 5670SOL    HW217910   1.487   3.776   2.935
 5671SOL     OW17911   6.324   5.470   4.549
 5671SOL    HW117912   6.263   5.541   4.585
 5671SOL    HW217913   6.339   5.400   4.619
 5672SOL     OW17914   4.767   3.948   5.697
 5672SOL    HW117915   4.848   3.903   5.736
 5672SOL    HW217916   4.722   3.885   5.634
 5673SOL     OW17917   0.827   6.843   1.617
 5673SOL    HW117918   0.860   6.935   1.637
 5673SOL    HW217919   0.808   6.795   1.702
 5674SOL     OW17920   2.074   4.885   4.322
 5674SOL    HW117921   2.148   4.942   4.357
 5674SOL    HW217922   2.071   4.799   4.373
 5675SOL     OW17923   3.538   1.490   0.257
 5675SOL    HW117924   3.570   1.399   0.231
 5675SOL    HW217925   3.480   1.482   0.339
 5676SOL     OW17926   2.743   2.482   1.734
 5676SOL    HW117927   2.761   2.552   1.665
 5676SOL    HW217928   2.829   2.456   1.779
 5677SOL     OW17929   6.950   1.216   0.797
 5677SOL    HW117930   6.997   1.167   0.723
 5677SOL    HW217931   6.899   1.150   0.852
 5678SOL     OW17932   3.803   1.536   1.957
 5678SOL    HW117933   3.790   1.516   2.054
 5678SOL    HW217934   3.899   1.560   1.941
 5679SOL     OW17935   5.783   2.213   4.753
 5679SOL    HW117936   5.872   2.168   4.763
 5679SOL    HW217937   5.760   2.220   4.656
 5680SOL     OW17938   1.556   4.739   5.472
 5680SOL    HW117939   1.610   4.787   5.402
 5680SOL    HW217940   1.539   4.801   5.549
 5681SOL     OW17941   0.485   3.703   3.124
 5681SOL    HW117942   0.468   3.789   3.173
 5681SOL    HW217943   0.583   3.688   3.116
 5682SOL     OW17944   3.030   5.731   2.819
 5682SOL    HW117945   3.073   5.785   2.892
 5682SOL    HW217946   2.998   5.645   2.857
 5683SOL     OW17947   4.096   2.605   6.705
 5683SOL    HW117948   4.157   2.583   6.629
 5683SOL    HW217949   4.060   2.697   6.693
 5684SOL     OW17950   2.210   3.727   6.049
 5684SOL    HW117951   2.271   3.752   5.974
 5684SOL    HW217952   2.250   3.755   6.136
 5685SOL     OW17953   2.123   2.454   4.046
 5685SOL    HW117954   2.188   2.522   4.010
 5685SOL    HW217955   2.038   2.500   4.070
 5686SOL     OW17956   3.136   1.034   5.819
 5686SOL    HW117957   3.235   1.038   5.808
 5686SOL    HW217958   3.099   0.961   5.762
 5687SOL     OW17959   0.658   6.374   5.174
 5687SOL    HW117960   0.622   6.391   5.083
 5687SOL    HW217961   0.690   6.280   5.181
 5688SOL     OW17962   2.215   3.043   3.408
 5688SOL    HW117963   2.235   3.037   3.506
 5688SOL    HW217964   2.117   3.030   3.393
 5689SOL     OW17965   2.002   0.805   1.653
 5689SOL    HW117966   1.912   0.828   1.689
 5689SOL    HW217967   2.014   0.848   1.563
 5690SOL     OW17968   0.978   5.298   6.482
 5690SOL    HW117969   0.926   5.226   6.435
 5690SOL    HW217970   1.057   5.324   6.426
 5691SOL     OW17971   3.237   1.277   2.073
 5691SOL    HW117972   3.333   1.295   2.091
 5691SOL    HW217973   3.201   1.216   2.143
 5692SOL     OW17974   4.788   5.376   0.685
 5692SOL    HW117975   4.705   5.324   0.666
 5692SOL    HW217976   4.843   5.329   0.754
 5693SOL     OW17977   4.009   1.023   0.894
 5693SOL    HW117978   3.910   1.014   0.911
 5693SOL    HW217979   4.048   1.086   0.960
 5694SOL     OW17980   0.317   0.380   2.345
 5694SOL    HW117981   0.256   0.304   2.370
 5694SOL    HW217982   0.381   0.396   2.420
 5695SOL     OW17983   1.237   0.915   2.053
 5695SOL    HW117984   1.278   0.824   2.053
 5695SOL    HW217985   1.309   0.984   2.058
 5696SOL     OW17986   1.574   0.813   3.851
 5696SOL    HW117987   1.548   0.901   3.890
 5696SOL    HW217988   1.561   0.741   3.918
 5697SOL     OW17989   6.170   2.492   1.855
 5697SOL    HW117990   6.233   2.566   1.879
 5697SOL    HW217991   6.145   2.442   1.937
 5698SOL     OW17992   1.427   3.542   3.456
 5698SOL    HW117993   1.424   3.469   3.387
 5698SOL    HW217994   1.379   3.511   3.538
 5699SOL     OW17995   2.490   2.595   3.288
 5699SOL    HW117996   2.549   2.588   3.208
 5699SOL    HW217997   2.426   2.670   3.277
 5700SOL     OW17998   7.011   0.391   1.942
 5700SOL    HW117999   0.048   0.309   1.953
 5700SOL    HW218000   6.926   0.382   1.995
 5701SOL     OW18001   6.969   1.479   0.909
 5701SOL    HW118002   6.947   1.385   0.884
 5701SOL    HW218003   7.009   1.482   1.000
 5702SOL     OW18004   1.687   6.470   4.351
 5702SOL    HW118005   1.626   6.447   4.427
 5702SOL    HW218006   1.661   6.559   4.313
 5703SOL     OW18007   6.853   3.826   6.135
 5703SOL    HW118008   6.890   3.833   6.042
 5703SOL    HW218009   6.765   3.872   6.140
 5704SOL     OW18010   5.257   3.842   3.626
 5704SOL    HW118011   5.216   3.869   3.713
 5704SOL    HW218012   5.266   3.922   3.567
 5705SOL     OW18013   5.776   6.193   6.423
 5705SOL    HW118014   5.822   6.257   6.485
 5705SOL    HW218015   5.709   6.139   6.474
 5706SOL     OW18016   5.604   2.621   0.511
 5706SOL    HW118017   5.692   2.573   0.503
 5706SOL    HW218018   5.555   2.587   0.591
 5707SOL     OW18019   5.297   6.923   1.337
 5707SOL    HW118020   5.259   6.934   1.429
 5707SOL    HW218021   5.376   6.983   1.326
 5708SOL     OW18022   5.319   5.655   3.356
 5708SOL    HW118023   5.344   5.558   3.361
 5708SOL    HW218024   5.256   5.677   3.431
 5709SOL     OW18025   1.416   1.137   2.009
 5709SOL    HW118026   1.361   1.220   2.010
 5709SOL    HW218027   1.468   1.131   2.095
 5710SOL     OW18028   2.851   2.711   0.856
 5710SOL    HW118029   2.903   2.796   0.861
 5710SOL    HW218030   2.855   2.675   0.763
 5711SOL     OW18031   5.251   0.500   2.016
 5711SOL    HW118032   5.323   0.453   1.966
 5711SOL    HW218033   5.220   0.444   2.093
 5712SOL     OW18034   6.542   5.844   1.335
 5712SOL    HW118035   6.636   5.853   1.304
 5712SOL    HW218036   6.501   5.763   1.293
 5713SOL     OW18037   2.462   5.529   0.595
 5713SOL    HW118038   2.523   5.523   0.516
 5713SOL    HW218039   2.515   5.547   0.677
 5714SOL     OW18040   6.502   6.464   1.997
 5714SOL    HW118041   6.439   6.458   1.920
 5714SOL    HW218042   6.458   6.513   2.072
 5715SOL     OW18043   0.456   6.287   1.887
 5715SOL    HW118044   0.422   6.279   1.981
 5715SOL    HW218045   0.428   6.206   1.835
 5716SOL     OW18046   1.107   4.599   6.600
 5716SOL    HW118047   1.151   4.532   6.540
 5716SOL    HW218048   1.053   4.663   6.545
 5717SOL     OW18049   1.872   4.739   2.544
 5717SOL    HW118050   1.872   4.757   2.642
 5717SOL    HW218051   1.791   4.685   2.520
 5718SOL     OW18052   0.765   2.935   0.559
 5718SOL    HW118053   0.835   2.892   0.616
 5718SOL    HW218054   0.677   2.892   0.577
 5719SOL     OW18055   2.738   3.287   1.088
 5719SOL    HW118056   2.791   3.345   1.025
 5719SOL    HW218057   2.794   3.265   1.167
 5720SOL     OW18058   2.149   5.960   5.574
 5720SOL    HW118059   2.085   5.984   5.647
 5720SOL    HW218060   2.109   5.986   5.485
 5721SOL     OW18061   5.461   4.275   0.602
 5721SOL    HW118062   5.389   4.291   0.670
 5721SOL    HW218063   5.503   4.185   0.617
 5722SOL     OW18064   0.559   1.036   5.251
 5722SOL    HW118065   0.562   1.133   5.228
 5722SOL    HW218066   0.509   1.025   5.337
 5723SOL     OW18067   4.122   3.427   6.624
 5723SOL    HW118068   4.126   3.478   6.710
 5723SOL    HW218069   4.213   3.392   6.602
 5724SOL     OW18070   6.240   2.653   3.122
 5724SOL    HW118071   6.288   2.571   3.089
 5724SOL    HW218072   6.289   2.693   3.198
 5725SOL     OW18073   5.052   5.122   2.922
 5725SOL    HW118074   5.030   5.195   2.986
 5725SOL    HW218075   5.085   5.161   2.836
 5726SOL     OW18076   5.070   3.849   3.369
 5726SOL    HW118077   5.164   3.841   3.336
 5726SOL    HW218078   5.033   3.758   3.387
 5727SOL     OW18079   0.211   2.463   4.552
 5727SOL    HW118080   0.188   2.452   4.455
 5727SOL    HW218081   0.162   2.542   4.588
 5728SOL     OW18082   5.020   5.999   5.068
 5728SOL    HW118083   5.032   5.914   5.118
 5728SOL    HW218084   5.100   6.015   5.010
 5729SOL     OW18085   2.460   2.697   6.160
 5729SOL    HW118086   2.503   2.607   6.161
 5729SOL    HW218087   2.396   2.703   6.083
 5730SOL     OW18088   6.949   4.109   5.730
 5730SOL    HW118089   0.002   4.099   5.798
 5730SOL    HW218090   6.893   4.026   5.727
 5731SOL     OW18091   0.140   6.612   1.561
 5731SOL    HW118092   0.141   6.643   1.466
 5731SOL    HW218093   0.199   6.532   1.571
 5732SOL     OW18094   1.108   6.299   4.492
 5732SOL    HW118095   1.036   6.289   4.561
 5732SOL    HW218096   1.068   6.333   4.407
 5733SOL     OW18097   3.983   6.754   5.290
 5733SOL    HW118098   4.073   6.723   5.321
 5733SOL    HW218099   3.932   6.790   5.368
 5734SOL     OW18100   1.514   6.411   4.562
 5734SOL    HW118101   1.443   6.343   4.581
 5734SOL    HW218102   1.500   6.491   4.620
 5735SOL     OW18103   3.274   1.494   1.536
 5735SOL    HW118104   3.263   1.563   1.608
 5735SOL    HW218105   3.208   1.511   1.464
 5736SOL     OW18106   0.851   5.182   0.071
 5736SOL    HW118107   0.863   5.270   0.117
 5736SOL    HW218108   0.938   5.153   0.031
 5737SOL     OW18109   5.348   5.513   6.174
 5737SOL    HW118110   5.287   5.579   6.218
 5737SOL    HW218111   5.436   5.512   6.221
 5738SOL     OW18112   1.941   3.554   6.953
 5738SOL    HW118113   1.945   3.653   6.944
 5738SOL    HW218114   1.851   3.521   6.924
 5739SOL     OW18115   1.854   1.575   0.863
 5739SOL    HW118116   1.773   1.578   0.922
 5739SOL    HW218117   1.882   1.479   0.850
 5740SOL     OW18118   4.348   5.799   6.604
 5740SOL    HW118119   4.311   5.714   6.567
 5740SOL    HW218120   4.318   5.810   6.699
 5741SOL     OW18121   6.420   5.145   4.993
 5741SOL    HW118122   6.449   5.049   4.998
 5741SOL    HW218123   6.480   5.201   5.050
 5742SOL     OW18124   6.449   6.494   2.672
 5742SOL    HW118125   6.408   6.414   2.628
 5742SOL    HW218126   6.379   6.543   2.724
 5743SOL     OW18127   2.177   6.993   4.778
 5743SOL    HW118128   2.199   6.997   4.875
 5743SOL    HW218129   2.080   6.968   4.767
 5744SOL     OW18130   5.776   0.674   0.004
 5744SOL    HW118131   5.732   0.732   6.955
 5744SOL    HW218132   5.874   0.695   0.007
 5745SOL     OW18133   1.783   1.865   4.483
 5745SOL    HW118134   1.716   1.921   4.531
 5745SOL    HW218135   1.748   1.840   4.393
 5746SOL     OW18136   4.694   1.987   0.234
 5746SOL    HW118137   4.622   2.048   0.201
 5746SOL    HW218138   4.676   1.963   0.329
 5747SOL     OW18139   0.419   5.342   3.285
 5747SOL    HW118140   0.422   5.315   3.189
 5747SOL    HW218141   0.498   5.401   3.305
 5748SOL     OW18142   2.182   5.151   1.876
 5748SOL    HW118143   2.148   5.242   1.899
 5748SOL    HW218144   2.120   5.081   1.911
 5749SOL     OW18145   2.289   1.946   3.238
 5749SOL    HW118146   2.246   1.916   3.153
 5749SOL    HW218147   2.219   1.962   3.308
 5750SOL     OW18148   6.280   5.698   3.581
 5750SOL    HW118149   6.195   5.749   3.567
 5750SOL    HW218150   6.351   5.735   3.521
 5751SOL     OW18151   2.051   3.195   5.712
 5751SOL    HW118152   2.044   3.113   5.768
 5751SOL    HW218153   1.959   3.221   5.681
 5752SOL     OW18154   6.551   6.558   6.313
 5752SOL    HW118155   6.463   6.584   6.274
 5752SOL    HW218156   6.599   6.498   6.249
 5753SOL     OW18157   3.432   3.035   0.277
 5753SOL    HW118158   3.443   2.943   0.315
 5753SOL    HW218159   3.370   3.031   0.199
 5754SOL     OW18160   5.381   5.060   1.691
 5754SOL    HW118161   5.320   5.139   1.702
 5754SOL    HW218162   5.350   5.004   1.615
 5755SOL     OW18163   3.497   4.076   6.711
 5755SOL    HW118164   3.465   4.005   6.649
 5755SOL    HW218165   3.562   4.135   6.664
 5756SOL     OW18166   6.745   4.974   3.755
 5756SOL    HW118167   6.652   4.939   3.762
 5756SOL    HW218168   6.775   5.007   3.845
 5757SOL     OW18169   6.617   5.237   0.969
 5757SOL    HW118170   6.666   5.160   0.927
 5757SOL    HW218171   6.524   5.241   0.932
 5758SOL     OW18172   1.913   2.474   4.926
 5758SOL    HW118173   1.999   2.521   4.908
 5758SOL    HW218174   1.851   2.537   4.974
 5759SOL     OW18175   5.033   1.462   6.407
 5759SOL    HW118176   5.087   1.545   6.423
 5759SOL    HW218177   5.080   1.404   6.340
 5760SOL     OW18178   1.672   5.478   2.062
 5760SOL    HW118179   1.604   5.414   2.098
 5760SOL    HW218180   1.673   5.561   2.118
 5761SOL     OW18181   4.785   6.527   5.084
 5761SOL    HW118182   4.700   6.509   5.034
 5761SOL    HW218183   4.860   6.477   5.042
 5762SOL     OW18184   5.839   6.461   1.433
 5762SOL    HW118185   5.914   6.464   1.498
 5762SOL    HW218186   5.759   6.420   1.476
 5763SOL     OW18187   1.514   0.758   0.980
 5763SOL    HW118188   1.582   0.684   0.987
 5763SOL    HW218189   1.561   0.845   0.970
 5764SOL     OW18190   5.361   3.882   5.245
 5764SOL    HW118191   5.284   3.931   5.205
 5764SOL    HW218192   5.393   3.931   5.326
 5765SOL     OW18193   5.953   4.584   6.961
 5765SOL    HW118194   5.864   4.564   7.003
 5765SOL    HW218195   5.983   4.505   6.907
 5766SOL     OW18196   3.002   1.878   2.249
 5766SOL    HW118197   3.038   1.865   2.341
 5766SOL    HW218198   3.040   1.962   2.210
 5767SOL     OW18199   0.592   6.950   1.414
 5767SOL    HW118200   0.568   0.025   1.389
 5767SOL    HW218201   0.631   6.949   1.505
 5768SOL     OW18202   6.962   1.433   3.151
 5768SOL    HW118203   6.968   1.530   3.174
 5768SOL    HW218204   7.011   1.415   3.066
 5769SOL     OW18205   2.558   6.082   4.508
 5769SOL    HW118206   2.613   6.165   4.500
 5769SOL    HW218207   2.461   6.106   4.508
 5770SOL     OW18208   6.622   0.273   1.742
 5770SOL    HW118209   6.593   0.326   1.662
 5770SOL    HW218210   6.721   0.270   1.745
 5771SOL     OW18211   1.418   0.931   1.363
 5771SOL    HW118212   1.353   0.872   1.314
 5771SOL    HW218213   1.500   0.878   1.386
 5772SOL     OW18214   5.484   3.361   0.627
 5772SOL    HW118215   5.573   3.316   0.614
 5772SOL    HW218216   5.486   3.414   0.711
 5773SOL     OW18217   5.509   6.017   4.202
 5773SOL    HW118218   5.425   6.018   4.257
 5773SOL    HW218219   5.513   6.100   4.146
 5774SOL     OW18220   2.024   5.754   3.591
 5774SOL    HW118221   1.999   5.835   3.644
 5774SOL    HW218222   2.047   5.781   3.497
 5775SOL     OW18223   0.061   6.722   6.160
 5775SOL    HW118224   0.074   6.667   6.243
 5775SOL    HW218225   0.145   6.771   6.139
 5776SOL     OW18226   4.667   0.079   5.716
 5776SOL    HW118227   4.567   0.079   5.718
 5776SOL    HW218228   4.699   0.155   5.659
 5777SOL     OW18229   0.346   1.088   4.655
 5777SOL    HW118230   0.385   0.997   4.668
 5777SOL    HW218231   0.298   1.116   4.738
 5778SOL     OW18232   1.337   6.781   3.261
 5778SOL    HW118233   1.301   6.856   3.316
 5778SOL    HW218234   1.419   6.811   3.212
 5779SOL     OW18235   4.025   1.259   2.056
 5779SOL    HW118236   3.956   1.219   1.995
 5779SOL    HW218237   4.067   1.186   2.110
 5780SOL     OW18238   6.567   3.929   1.463
 5780SOL    HW118239   6.552   3.984   1.544
 5780SOL    HW218240   6.636   3.973   1.404
 5781SOL     OW18241   2.067   5.180   5.078
 5781SOL    HW118242   2.082   5.169   4.980
 5781SOL    HW218243   2.100   5.098   5.126
 5782SOL     OW18244   2.604   1.435   2.361
 5782SOL    HW118245   2.516   1.423   2.408
 5782SOL    HW218246   2.676   1.389   2.412
 5783SOL     OW18247   1.276   0.348   1.131
 5783SOL    HW118248   1.344   0.287   1.172
 5783SOL    HW218249   1.317   0.400   1.057
 5784SOL     OW18250   0.499   6.201   0.387
 5784SOL    HW118251   0.514   6.298   0.368
 5784SOL    HW218252   0.505   6.185   0.485
 5785SOL     OW18253   1.743   1.895   0.233
 5785SOL    HW118254   1.831   1.935   0.207
 5785SOL    HW218255   1.677   1.908   0.159
 5786SOL     OW18256   1.614   3.603   1.698
 5786SOL    HW118257   1.689   3.652   1.742
 5786SOL    HW218258   1.612   3.508   1.730
 5787SOL     OW18259   5.736   2.532   4.685
 5787SOL    HW118260   5.749   2.480   4.600
 5787SOL    HW218261   5.639   2.531   4.710
 5788SOL     OW18262   2.961   1.337   1.987
 5788SOL    HW118263   2.898   1.384   2.049
 5788SOL    HW218264   3.055   1.367   2.006
 5789SOL     OW18265   4.511   4.099   6.921
 5789SOL    HW118266   4.571   4.139   6.990
 5789SOL    HW218267   4.527   4.144   6.833
 5790SOL     OW18268   5.604   5.664   4.574
 5790SOL    HW118269   5.668   5.674   4.498
 5790SOL    HW218270   5.549   5.581   4.562
 5791SOL     OW18271   4.022   1.314   2.766
 5791SOL    HW118272   4.055   1.403   2.736
 5791SOL    HW218273   4.100   1.252   2.778
 5792SOL     OW18274   5.075   3.396   2.820
 5792SOL    HW118275   5.030   3.326   2.875
 5792SOL    HW218276   5.102   3.356   2.732
 5793SOL     OW18277   5.078   2.161   5.746
 5793SOL    HW118278   5.084   2.062   5.733
 5793SOL    HW218279   5.040   2.181   5.836
 5794SOL     OW18280   3.672   0.417   6.599
 5794SOL    HW118281   3.714   0.339   6.646
 5794SOL    HW218282   3.729   0.498   6.611
 5795SOL     OW18283   1.571   5.630   1.341
 5795SOL    HW118284   1.518   5.703   1.384
 5795SOL    HW218285   1.509   5.560   1.305
 5796SOL     OW18286   4.502   2.627   6.909
 5796SOL    HW118287   4.505   2.726   6.894
 5796SOL    HW218288   4.595   2.593   6.922
 5797SOL     OW18289   5.189   2.427   0.515
 5797SOL    HW118290   5.248   2.435   0.435
 5797SOL    HW218291   5.190   2.332   0.548
 5798SOL     OW18292   1.444   3.951   5.465
 5798SOL    HW118293   1.420   3.984   5.373
 5798SOL    HW218294   1.542   3.931   5.468
 5799SOL     OW18295   1.812   6.510   3.237
 5799SOL    HW118296   1.813   6.460   3.323
 5799SOL    HW218297   1.875   6.468   3.173
 5800SOL     OW18298   0.519   6.530   0.967
 5800SOL    HW118299   0.600   6.487   0.926
 5800SOL    HW218300   0.535   6.629   0.976
 5801SOL     OW18301   1.432   1.805   2.590
 5801SOL    HW118302   1.387   1.856   2.663
 5801SOL    HW218303   1.362   1.761   2.533
 5802SOL     OW18304   0.061   1.603   1.986
 5802SOL    HW118305   0.000   1.548   2.043
 5802SOL    HW218306   0.011   1.637   1.907
 5803SOL     OW18307   0.499   5.181   3.807
 5803SOL    HW118308   0.456   5.116   3.744
 5803SOL    HW218309   0.556   5.245   3.755
 5804SOL     OW18310   6.498   0.899   3.744
 5804SOL    HW118311   6.554   0.887   3.826
 5804SOL    HW218312   6.514   0.990   3.706
 5805SOL     OW18313   1.895   2.679   1.350
 5805SOL    HW118314   1.943   2.752   1.398
 5805SOL    HW218315   1.910   2.689   1.251
 5806SOL     OW18316   0.475   3.683   2.841
 5806SOL    HW118317   0.485   3.591   2.804
 5806SOL    HW218318   0.466   3.679   2.940
 5807SOL     OW18319   0.873   0.391   0.927
 5807SOL    HW118320   0.855   0.305   0.878
 5807SOL    HW218321   0.788   0.444   0.933
 5808SOL     OW18322   6.028   0.246   5.247
 5808SOL    HW118323   5.956   0.257   5.179
 5808SOL    HW218324   6.031   0.325   5.307
 5809SOL     OW18325   0.494   2.079   5.506
 5809SOL    HW118326   0.532   2.168   5.531
 5809SOL    HW218327   0.421   2.091   5.439
 5810SOL     OW18328   3.963   0.142   5.154
 5810SOL    HW118329   4.052   0.181   5.130
 5810SOL    HW218330   3.891   0.196   5.111
 5811SOL     OW18331   3.120   3.577   5.944
 5811SOL    HW118332   3.051   3.604   6.012
 5811SOL    HW218333   3.079   3.579   5.853
 5812SOL     OW18334   5.668   2.769   0.301
 5812SOL    HW118335   5.586   2.797   0.252
 5812SOL    HW218336   5.642   2.718   0.383
 5813SOL     OW18337   4.944   6.735   1.624
 5813SOL    HW118338   4.927   6.687   1.710
 5813SOL    HW218339   5.001   6.815   1.641
 5814SOL     OW18340   5.314   1.651   1.834
 5814SOL    HW118341   5.252   1.628   1.909
 5814SOL    HW218342   5.341   1.747   1.841
 5815SOL     OW18343   6.279   1.672   4.051
 5815SOL    HW118344   6.217   1.690   3.975
 5815SOL    HW218345   6.235   1.609   4.115
 5816SOL     OW18346   6.865   4.137   2.724
 5816SOL    HW118347   6.871   4.229   2.684
 5816SOL    HW218348   6.936   4.079   2.684
 5817SOL     OW18349   5.919   3.750   3.547
 5817SOL    HW118350   5.923   3.806   3.464
 5817SOL    HW218351   5.844   3.684   3.539
 5818SOL     OW18352   2.277   0.301   5.462
 5818SOL    HW118353   2.253   0.204   5.474
 5818SOL    HW218354   2.219   0.357   5.521
 5819SOL     OW18355   4.374   4.997   0.237
 5819SOL    HW118356   4.350   4.978   0.332
 5819SOL    HW218357   4.396   5.094   0.227
 5820SOL     OW18358   6.137   5.369   2.524
 5820SOL    HW118359   6.210   5.430   2.553
 5820SOL    HW218360   6.109   5.392   2.431
 5821SOL     OW18361   6.741   0.486   1.147
 5821SOL    HW118362   6.824   0.445   1.184
 5821SOL    HW218363   6.664   0.424   1.162
 5822SOL     OW18364   1.645   2.862   2.573
 5822SOL    HW118365   1.678   2.950   2.539
 5822SOL    HW218366   1.581   2.823   2.507
 5823SOL     OW18367   1.806   6.362   3.911
 5823SOL    HW118368   1.784   6.460   3.905
 5823SOL    HW218369   1.779   6.328   4.001
 5824SOL     OW18370   0.702   7.001   1.907
 5824SOL    HW118371   0.702   0.043   1.828
 5824SOL    HW218372   0.724   6.908   1.878
 5825SOL     OW18373   5.850   0.269   4.380
 5825SOL    HW118374   5.778   0.205   4.407
 5825SOL    HW218375   5.936   0.242   4.423
 5826SOL     OW18376   0.627   0.026   4.919
 5826SOL    HW118377   0.701   0.092   4.929
 5826SOL    HW218378   0.573   0.049   4.838
 5827SOL     OW18379   2.124   4.809   4.810
 5827SOL    HW118380   2.212   4.771   4.783
 5827SOL    HW218381   2.050   4.754   4.771
 5828SOL     OW18382   4.536   6.702   4.221
 5828SOL    HW118383   4.588   6.755   4.155
 5828SOL    HW218384   4.568   6.607   4.221
 5829SOL     OW18385   2.377   1.188   3.821
 5829SOL    HW118386   2.384   1.156   3.916
 5829SOL    HW218387   2.459   1.240   3.797
 5830SOL     OW18388   3.554   5.560   4.468
 5830SOL    HW118389   3.533   5.498   4.392
 5830SOL    HW218390   3.469   5.592   4.509
 5831SOL     OW18391   1.498   2.124   4.931
 5831SOL    HW118392   1.536   2.203   4.883
 5831SOL    HW218393   1.478   2.051   4.866
 5832SOL     OW18394   2.867   5.097   0.765
 5832SOL    HW118395   2.790   5.081   0.827
 5832SOL    HW218396   2.853   5.182   0.714
 5833SOL     OW18397   4.004   3.943   6.296
 5833SOL    HW118398   3.968   4.029   6.333
 5833SOL    HW218399   4.083   3.914   6.349
 5834SOL     OW18400   5.521   3.305   6.684
 5834SOL    HW118401   5.521   3.381   6.618
 5834SOL    HW218402   5.441   3.248   6.668
 5835SOL     OW18403   5.380   0.746   2.131
 5835SOL    HW118404   5.471   0.719   2.162
 5835SOL    HW218405   5.328   0.665   2.104
 5836SOL     OW18406   4.343   0.026   2.563
 5836SOL    HW118407   4.345   6.949   2.534
 5836SOL    HW218408   4.314   0.031   2.659
 5837SOL     OW18409   3.267   4.580   6.908
 5837SOL    HW118410   3.214   4.528   6.841
 5837SOL    HW218411   3.307   4.660   6.862
 5838SOL     OW18412   3.305   2.164   0.558
 5838SOL    HW118413   3.260   2.162   0.469
 5838SOL    HW218414   3.337   2.256   0.578
 5839SOL     OW18415   1.926   1.869   0.635
 5839SOL    HW118416   1.950   1.797   0.700
 5839SOL    HW218417   2.010   1.909   0.597
 5840SOL     OW18418   1.172   3.085   3.030
 5840SOL    HW118419   1.175   3.131   3.118
 5840SOL    HW218420   1.224   2.999   3.035
 5841SOL     OW18421   4.979   2.639   0.577
 5841SOL    HW118422   5.042   2.569   0.546
 5841SOL    HW218423   4.912   2.599   0.639
 5842SOL     OW18424   2.843   1.373   0.649
 5842SOL    HW118425   2.882   1.450   0.700
 5842SOL    HW218426   2.849   1.392   0.551
 5843SOL     OW18427   2.141   3.544   1.362
 5843SOL    HW118428   2.150   3.474   1.290
 5843SOL    HW218429   2.123   3.499   1.450
 5844SOL     OW18430   0.807   0.436   4.802
 5844SOL    HW118431   0.716   0.472   4.822
 5844SOL    HW218432   0.824   0.356   4.859
 5845SOL     OW18433   1.295   6.757   1.530
 5845SOL    HW118434   1.198   6.738   1.517
 5845SOL    HW218435   1.349   6.689   1.480
 5846SOL     OW18436   6.630   4.090   5.609
 5846SOL    HW118437   6.613   4.187   5.595
 5846SOL    HW218438   6.550   4.047   5.651
 5847SOL     OW18439   2.509   3.488   0.625
 5847SOL    HW118440   2.585   3.425   0.638
 5847SOL    HW218441   2.525   3.571   0.678
 5848SOL     OW18442   2.302   4.773   2.607
 5848SOL    HW118443   2.256   4.722   2.680
 5848SOL    HW218444   2.294   4.871   2.624
 5849SOL     OW18445   3.249   5.893   5.317
 5849SOL    HW118446   3.240   5.900   5.218
 5849SOL    HW218447   3.340   5.922   5.345
 5850SOL     OW18448   1.105   1.516   1.908
 5850SOL    HW118449   1.151   1.543   1.823
 5850SOL    HW218450   1.112   1.589   1.975
 5851SOL     OW18451   6.231   3.724   4.747
 5851SOL    HW118452   6.164   3.651   4.757
 5851SOL    HW218453   6.323   3.685   4.747
 5852SOL     OW18454   4.932   4.676   2.999
 5852SOL    HW118455   4.914   4.584   2.965
 5852SOL    HW218456   4.875   4.694   3.079
 5853SOL     OW18457   3.554   4.468   5.387
 5853SOL    HW118458   3.542   4.566   5.372
 5853SOL    HW218459   3.642   4.439   5.350
 5854SOL     OW18460   3.110   4.976   5.838
 5854SOL    HW118461   3.030   4.922   5.866
 5854SOL    HW218462   3.083   5.071   5.826
 5855SOL     OW18463   2.051   3.143   3.931
 5855SOL    HW118464   1.977   3.112   3.991
 5855SOL    HW218465   2.016   3.154   3.838
 5856SOL     OW18466   1.519   6.400   3.431
 5856SOL    HW118467   1.490   6.363   3.343
 5856SOL    HW218468   1.470   6.485   3.450
 5857SOL     OW18469   6.739   4.156   6.255
 5857SOL    HW118470   6.725   4.155   6.156
 5857SOL    HW218471   6.835   4.171   6.275
 5858SOL     OW18472   2.002   0.706   3.725
 5858SOL    HW118473   1.904   0.722   3.714
 5858SOL    HW218474   2.017   0.622   3.778
 5859SOL     OW18475   6.148   0.337   2.628
 5859SOL    HW118476   6.049   0.324   2.621
 5859SOL    HW218477   6.169   0.434   2.619
 5860SOL     OW18478   0.045   2.907   3.587
 5860SOL    HW118479   6.970   2.872   3.588
 5860SOL    HW218480   0.110   2.832   3.598
 5861SOL     OW18481   4.831   0.813   5.300
 5861SOL    HW118482   4.890   0.819   5.381
 5861SOL    HW218483   4.888   0.811   5.218
 5862SOL     OW18484   6.858   5.298   3.367
 5862SOL    HW118485   6.804   5.218   3.393
 5862SOL    HW218486   6.825   5.334   3.279
 5863SOL     OW18487   3.915   0.335   5.523
 5863SOL    HW118488   3.897   0.243   5.558
 5863SOL    HW218489   3.840   0.396   5.548
 5864SOL     OW18490   3.232   4.060   2.537
 5864SOL    HW118491   3.194   3.981   2.488
 5864SOL    HW218492   3.326   4.076   2.506
 5865SOL     OW18493   6.202   0.665   5.999
 5865SOL    HW118494   6.225   0.751   6.045
 5865SOL    HW218495   6.145   0.685   5.919
 5866SOL     OW18496   3.405   3.072   2.589
 5866SOL    HW118497   3.416   3.025   2.502
 5866SOL    HW218498   3.328   3.032   2.639
 5867SOL     OW18499   3.148   1.555   1.850
 5867SOL    HW118500   3.067   1.607   1.880
 5867SOL    HW218501   3.231   1.600   1.886
 5868SOL     OW18502   1.400   1.144   6.806
 5868SOL    HW118503   1.352   1.231   6.806
 5868SOL    HW218504   1.450   1.133   6.720
 5869SOL     OW18505   1.339   5.595   4.249
 5869SOL    HW118506   1.376   5.688   4.247
 5869SOL    HW218507   1.370   5.548   4.331
 5870SOL     OW18508   4.449   4.516   4.601
 5870SOL    HW118509   4.506   4.546   4.678
 5870SOL    HW218510   4.412   4.425   4.621
 5871SOL     OW18511   3.451   3.282   3.777
 5871SOL    HW118512   3.476   3.378   3.781
 5871SOL    HW218513   3.385   3.267   3.703
 5872SOL     OW18514   3.918   5.949   2.086
 5872SOL    HW118515   3.896   5.865   2.036
 5872SOL    HW218516   4.017   5.955   2.099
 5873SOL     OW18517   3.868   5.107   2.162
 5873SOL    HW118518   3.781   5.057   2.169
 5873SOL    HW218519   3.942   5.042   2.144
 5874SOL     OW18520   3.055   4.652   5.739
 5874SOL    HW118521   2.959   4.651   5.709
 5874SOL    HW218522   3.100   4.568   5.710
 5875SOL     OW18523   2.904   1.121   0.760
 5875SOL    HW118524   2.833   1.055   0.735
 5875SOL    HW218525   2.867   1.214   0.756
 5876SOL     OW18526   3.921   3.605   1.747
 5876SOL    HW118527   3.854   3.556   1.691
 5876SOL    HW218528   3.883   3.694   1.773
 5877SOL     OW18529   5.699   4.616   0.520
 5877SOL    HW118530   5.729   4.632   0.426
 5877SOL    HW218531   5.751   4.540   0.559
 5878SOL     OW18532   2.701   4.809   2.316
 5878SOL    HW118533   2.650   4.726   2.294
 5878SOL    HW218534   2.732   4.805   2.411
 5879SOL     OW18535   7.015   4.147   6.354
 5879SOL    HW118536   7.015   4.050   6.376
 5879SOL    HW218537   0.089   4.184   6.366
 5880SOL     OW18538   2.289   5.988   1.103
 5880SOL    HW118539   2.290   6.084   1.129
 5880SOL    HW218540   2.214   5.971   1.040
 5881SOL     OW18541   0.393   5.385   4.180
 5881SOL    HW118542   0.433   5.354   4.267
 5881SOL    HW218543   0.432   5.474   4.155
 5882SOL     OW18544   4.992   0.370   1.339
 5882SOL    HW118545   4.931   0.300   1.376
 5882SOL    HW218546   4.954   0.461   1.358
 5883SOL     OW18547   6.952   3.181   6.206
 5883SOL    HW118548   6.871   3.161   6.151
 5883SOL    HW218549   7.010   3.245   6.157
 5884SOL     OW18550   0.766   1.326   3.082
 5884SOL    HW118551   0.820   1.410   3.076
 5884SOL    HW218552   0.714   1.314   2.997
 5885SOL     OW18553   6.569   6.262   1.336
 5885SOL    HW118554   6.608   6.189   1.394
 5885SOL    HW218555   6.523   6.220   1.257
 5886SOL     OW18556   0.960   1.856   5.501
 5886SOL    HW118557   0.915   1.776   5.540
 5886SOL    HW218558   0.940   1.937   5.557
 5887SOL     OW18559   3.228   0.551   4.279
 5887SOL    HW118560   3.198   0.644   4.260
 5887SOL    HW218561   3.280   0.516   4.201
 5888SOL     OW18562   2.204   0.070   3.212
 5888SOL    HW118563   2.115   0.027   3.198
 5888SOL    HW218564   2.204   0.120   3.299
 5889SOL     OW18565   2.709   0.410   1.005
 5889SOL    HW118566   2.714   0.321   1.048
 5889SOL    HW218567   2.730   0.481   1.072
 5890SOL     OW18568   2.542   5.141   5.525
 5890SOL    HW118569   2.559   5.052   5.482
 5890SOL    HW218570   2.489   5.198   5.463
 5891SOL     OW18571   3.683   3.156   0.325
 5891SOL    HW118572   3.656   3.225   0.392
 5891SOL    HW218573   3.604   3.101   0.300
 5892SOL     OW18574   0.372   6.101   1.700
 5892SOL    HW118575   0.357   6.141   1.610
 5892SOL    HW218576   0.398   6.005   1.690
 5893SOL     OW18577   1.022   1.322   4.378
 5893SOL    HW118578   1.085   1.311   4.301
 5893SOL    HW218579   0.931   1.345   4.343
 5894SOL     OW18580   1.214   3.279   2.864
 5894SOL    HW118581   1.193   3.200   2.922
 5894SOL    HW218582   1.229   3.249   2.770
 5895SOL     OW18583   5.754   3.780   3.987
 5895SOL    HW118584   5.828   3.786   3.919
 5895SOL    HW218585   5.710   3.691   3.980
 5896SOL     OW18586   3.562   2.084   0.187
 5896SOL    HW118587   3.656   2.080   0.154
 5896SOL    HW218588   3.524   1.992   0.189
 5897SOL     OW18589   3.674   6.950   0.923
 5897SOL    HW118590   3.601   6.991   0.868
 5897SOL    HW218591   3.645   6.945   1.018
 5898SOL     OW18592   1.726   0.395   2.418
 5898SOL    HW118593   1.799   0.439   2.470
 5898SOL    HW218594   1.749   0.299   2.403
 5899SOL     OW18595   5.942   6.667   4.898
 5899SOL    HW118596   5.979   6.589   4.847
 5899SOL    HW218597   5.871   6.635   4.961
 5900SOL     OW18598   4.640   4.835   3.011
 5900SOL    HW118599   4.706   4.873   2.946
 5900SOL    HW218600   4.688   4.779   3.078
 5901SOL     OW18601   2.702   6.804   6.436
 5901SOL    HW118602   2.799   6.782   6.434
 5901SOL    HW218603   2.649   6.723   6.410
 5902SOL     OW18604   6.554   2.466   0.120
 5902SOL    HW118605   6.533   2.432   0.028
 5902SOL    HW218606   6.500   2.548   0.139
 5903SOL     OW18607   6.086   3.376   6.846
 5903SOL    HW118608   6.184   3.356   6.843
 5903SOL    HW218609   6.067   3.441   6.919
 5904SOL     OW18610   0.020   3.588   2.326
 5904SOL    HW118611   0.099   3.626   2.374
 5904SOL    HW218612   0.006   3.493   2.355
 5905SOL     OW18613   0.048   6.307   2.351
 5905SOL    HW118614   0.016   6.294   2.445
 5905SOL    HW218615   0.011   6.235   2.293
 5906SOL     OW18616   5.270   1.141   3.933
 5906SOL    HW118617   5.171   1.129   3.927
 5906SOL    HW218618   5.296   1.159   4.028
 5907SOL     OW18619   0.571   6.227   2.220
 5907SOL    HW118620   0.621   6.290   2.278
 5907SOL    HW218621   0.473   6.238   2.236
 5908SOL     OW18622   0.473   3.185   5.488
 5908SOL    HW118623   0.376   3.163   5.499
 5908SOL    HW218624   0.483   3.259   5.422
 5909SOL     OW18625   0.380   5.803   0.905
 5909SOL    HW118626   0.363   5.834   0.812
 5909SOL    HW218627   0.449   5.730   0.905
 5910SOL     OW18628   1.896   2.571   3.484
 5910SOL    HW118629   1.935   2.487   3.522
 5910SOL    HW218630   1.799   2.557   3.465
 5911SOL     OW18631   6.754   5.433   6.506
 5911SOL    HW118632   6.808   5.463   6.585
 5911SOL    HW218633   6.669   5.391   6.539
 5912SOL     OW18634   6.305   1.500   4.534
 5912SOL    HW118635   6.247   1.503   4.615
 5912SOL    HW218636   6.368   1.577   4.535
 5913SOL     OW18637   5.741   2.161   0.280
 5913SOL    HW118638   5.681   2.168   0.200
 5913SOL    HW218639   5.830   2.201   0.258
 5914SOL     OW18640   0.813   6.098   6.463
 5914SOL    HW118641   0.720   6.069   6.486
 5914SOL    HW218642   0.879   6.034   6.503
 5915SOL     OW18643   3.918   0.495   6.316
 5915SOL    HW118644   3.920   0.403   6.277
 5915SOL    HW218645   3.852   0.551   6.266
 5916SOL     OW18646   1.549   6.685   2.652
 5916SOL    HW118647   1.512   6.593   2.664
 5916SOL    HW218648   1.595   6.692   2.563
 5917SOL     OW18649   2.988   4.091   6.642
 5917SOL    HW118650   3.084   4.114   6.657
 5917SOL    HW218651   2.962   4.016   6.703
 5918SOL     OW18652   3.175   6.835   6.126
 5918SOL    HW118653   3.246   6.900   6.153
 5918SOL    HW218654   3.085   6.875   6.145
 5919SOL     OW18655   3.346   2.862   2.979
 5919SOL    HW118656   3.356   2.861   3.079
 5919SOL    HW218657   3.436   2.848   2.937
 5920SOL     OW18658   6.655   0.095   5.806
 5920SOL    HW118659   6.705   0.061   5.726
 5920SOL    HW218660   6.557   0.098   5.787
 5921SOL     OW18661   3.427   4.471   6.654
 5921SOL    HW118662   3.371   4.473   6.737
 5921SOL    HW218663   3.524   4.477   6.679
 5922SOL     OW18664   5.889   3.477   2.976
 5922SOL    HW118665   5.916   3.383   2.996
 5922SOL    HW218666   5.859   3.483   2.881
 5923SOL     OW18667   6.817   1.222   1.354
 5923SOL    HW118668   6.732   1.178   1.381
 5923SOL    HW218669   6.801   1.285   1.278
 5924SOL     OW18670   6.325   0.142   2.971
 5924SOL    HW118671   6.292   0.142   2.877
 5924SOL    HW218672   6.293   0.060   3.018
 5925SOL     OW18673   4.938   5.795   1.038
 5925SOL    HW118674   4.949   5.723   0.970
 5925SOL    HW218675   5.021   5.801   1.094
 5926SOL     OW18676   4.012   4.799   2.771
 5926SOL    HW118677   4.098   4.757   2.742
 5926SOL    HW218678   3.983   4.758   2.858
 5927SOL     OW18679   0.821   3.873   2.036
 5927SOL    HW118680   0.823   3.790   1.980
 5927SOL    HW218681   0.818   3.953   1.976
 5928SOL     OW18682   3.608   0.633   0.802
 5928SOL    HW118683   3.644   0.721   0.834
 5928SOL    HW218684   3.674   0.561   0.823
 5929SOL     OW18685   6.981   1.404   5.483
 5929SOL    HW118686   6.889   1.441   5.484
 5929SOL    HW218687   0.004   1.415   5.574
 5930SOL     OW18688   1.420   3.621   2.222
 5930SOL    HW118689   1.348   3.611   2.153
 5930SOL    HW218690   1.425   3.716   2.253
 5931SOL     OW18691   5.456   6.115   2.908
 5931SOL    HW118692   5.361   6.090   2.890
 5931SOL    HW218693   5.505   6.128   2.822
 5932SOL     OW18694   2.892   0.657   6.108
 5932SOL    HW118695   2.985   0.692   6.094
 5932SOL    HW218696   2.841   0.721   6.166
 5933SOL     OW18697   6.726   5.749   3.898
 5933SOL    HW118698   6.682   5.669   3.939
 5933SOL    HW218699   6.775   5.800   3.968
 5934SOL     OW18700   3.271   3.848   5.459
 5934SOL    HW118701   3.308   3.777   5.519
 5934SOL    HW218702   3.173   3.833   5.446
 5935SOL     OW18703   6.978   6.426   4.842
 5935SOL    HW118704   6.903   6.483   4.808
 5935SOL    HW218705   6.949   6.378   4.925
 5936SOL     OW18706   3.236   3.280   2.769
 5936SOL    HW118707   3.169   3.266   2.697
 5936SOL    HW218708   3.208   3.231   2.851
 5937SOL     OW18709   6.949   2.864   1.690
 5937SOL    HW118710   6.949   2.820   1.779
 5937SOL    HW218711   6.873   2.929   1.685
 5938SOL     OW18712   6.621   4.793   5.167
 5938SOL    HW118713   6.538   4.737   5.168
 5938SOL    HW218714   6.698   4.737   5.137
 5939SOL     OW18715   3.910   0.116   4.455
 5939SOL    HW118716   3.817   0.084   4.439
 5939SOL    HW218717   3.907   0.211   4.488
 5940SOL     OW18718   4.839   5.770   2.508
 5940SOL    HW118719   4.933   5.738   2.522
 5940SOL    HW218720   4.834   5.868   2.528
 5941SOL     OW18721   6.921   2.087   1.979
 5941SOL    HW118722   6.853   2.122   1.915
 5941SOL    HW218723   6.948   2.159   2.042
 5942SOL     OW18724   6.036   3.666   6.218
 5942SOL    HW118725   6.120   3.678   6.165
 5942SOL    HW218726   6.057   3.672   6.315
 5943SOL     OW18727   3.797   3.600   0.489
 5943SOL    HW118728   3.798   3.695   0.458
 5943SOL    HW218729   3.832   3.541   0.417
 5944SOL     OW18730   0.647   3.666   6.683
 5944SOL    HW118731   0.673   3.704   6.772
 5944SOL    HW218732   0.593   3.583   6.697
 5945SOL     OW18733   0.354   5.851   5.568
 5945SOL    HW118734   0.343   5.879   5.473
 5945SOL    HW218735   0.360   5.751   5.573
 5946SOL     OW18736   3.835   4.891   6.920
 5946SOL    HW118737   3.927   4.855   6.938
 5946SOL    HW218738   3.784   4.896   7.005
 5947SOL     OW18739   3.350   2.920   4.587
 5947SOL    HW118740   3.422   2.873   4.638
 5947SOL    HW218741   3.275   2.943   4.650
 5948SOL     OW18742   4.905   3.784   2.361
 5948SOL    HW118743   4.960   3.785   2.445
 5948SOL    HW218744   4.907   3.692   2.322
 5949SOL     OW18745   6.464   5.762   1.844
 5949SOL    HW118746   6.481   5.746   1.746
 5949SOL    HW218747   6.381   5.817   1.854
 5950SOL     OW18748   5.035   1.745   6.069
 5950SOL    HW118749   5.067   1.717   5.979
 5950SOL    HW218750   4.960   1.811   6.058
 5951SOL     OW18751   1.149   4.471   5.956
 5951SOL    HW118752   1.184   4.504   5.869
 5951SOL    HW218753   1.191   4.522   6.031
 5952SOL     OW18754   4.383   5.048   1.634
 5952SOL    HW118755   4.385   4.952   1.665
 5952SOL    HW218756   4.331   5.054   1.549
 5953SOL     OW18757   6.081   2.538   5.437
 5953SOL    HW118758   6.098   2.538   5.536
 5953SOL    HW218759   6.105   2.628   5.400
 5954SOL     OW18760   0.575   6.256   4.483
 5954SOL    HW118761   0.668   6.244   4.448
 5954SOL    HW218762   0.519   6.176   4.460
 5955SOL     OW18763   5.606   4.087   0.944
 5955SOL    HW118764   5.663   4.168   0.955
 5955SOL    HW218765   5.655   4.019   0.889
 5956SOL     OW18766   4.959   2.777   4.793
 5956SOL    HW118767   4.872   2.813   4.759
 5956SOL    HW218768   4.942   2.697   4.850
 5957SOL     OW18769   1.342   0.977   2.623
 5957SOL    HW118770   1.381   1.004   2.711
 5957SOL    HW218771   1.331   1.057   2.565
 5958SOL     OW18772   4.068   6.781   2.621
 5958SOL    HW118773   4.139   6.821   2.564
 5958SOL    HW218774   3.999   6.850   2.642
 5959SOL     OW18775   4.893   2.125   5.010
 5959SOL    HW118776   4.927   2.192   4.944
 5959SOL    HW218777   4.912   2.158   5.103
 5960SOL     OW18778   3.413   0.067   6.530
 5960SOL    HW118779   3.472   7.011   6.499
 5960SOL    HW218780   3.321   0.055   6.493
 5961SOL     OW18781   3.421   1.857   2.806
 5961SOL    HW118782   3.329   1.853   2.844
 5961SOL    HW218783   3.428   1.798   2.726
 5962SOL     OW18784   5.329   6.306   0.190
 5962SOL    HW118785   5.385   6.320   0.108
 5962SOL    HW218786   5.382   6.330   0.271
 5963SOL     OW18787   3.747   4.829   0.151
 5963SOL    HW118788   3.659   4.793   0.119
 5963SOL    HW218789   3.732   4.915   0.201
 5964SOL     OW18790   1.891   6.389   2.467
 5964SOL    HW118791   1.893   6.470   2.527
 5964SOL    HW218792   1.979   6.342   2.473
 5965SOL     OW18793   1.928   6.422   6.838
 5965SOL    HW118794   1.876   6.498   6.877
 5965SOL    HW218795   1.864   6.351   6.807
 5966SOL     OW18796   2.431   0.651   5.418
 5966SOL    HW118797   2.349   0.666   5.473
 5966SOL    HW218798   2.456   0.735   5.371
 5967SOL     OW18799   2.307   1.825   4.891
 5967SOL    HW118800   2.384   1.786   4.839
 5967SOL    HW218801   2.297   1.922   4.869
 5968SOL     OW18802   5.610   1.976   0.464
 5968SOL    HW118803   5.617   2.002   0.560
 5968SOL    HW218804   5.650   2.047   0.407
 5969SOL     OW18805   5.338   0.682   6.511
 5969SOL    HW118806   5.405   0.756   6.514
 5969SOL    HW218807   5.384   0.595   6.531
 5970SOL     OW18808   0.591   2.736   0.922
 5970SOL    HW118809   0.545   2.720   0.835
 5970SOL    HW218810   0.603   2.648   0.969
 5971SOL     OW18811   6.763   0.079   3.755
 5971SOL    HW118812   6.821   0.158   3.774
 5971SOL    HW218813   6.804   0.026   3.680
 5972SOL     OW18814   5.071   5.041   0.544
 5972SOL    HW118815   5.004   5.016   0.474
 5972SOL    HW218816   5.158   5.064   0.500
 5973SOL     OW18817   1.473   3.125   2.838
 5973SOL    HW118818   1.441   3.209   2.880
 5973SOL    HW218819   1.547   3.145   2.774
 5974SOL     OW18820   4.283   0.828   6.571
 5974SOL    HW118821   4.292   0.738   6.615
 5974SOL    HW218822   4.240   0.816   6.481
 5975SOL     OW18823   5.446   4.626   0.019
 5975SOL    HW118824   5.427   4.642   0.115
 5975SOL    HW218825   5.372   4.665   6.982
 5976SOL     OW18826   3.604   3.614   5.788
 5976SOL    HW118827   3.685   3.635   5.843
 5976SOL    HW218828   3.602   3.517   5.766
 5977SOL     OW18829   0.156   5.460   0.329
 5977SOL    HW118830   0.119   5.550   0.306
 5977SOL    HW218831   0.122   5.392   0.265
 5978SOL     OW18832   3.539   5.573   6.864
 5978SOL    HW118833   3.489   5.631   6.801
 5978SOL    HW218834   3.613   5.527   6.816
 5979SOL     OW18835   6.536   0.255   2.000
 5979SOL    HW118836   6.567   0.241   1.906
 5979SOL    HW218837   6.441   0.286   2.000
 5980SOL     OW18838   3.574   3.206   1.422
 5980SOL    HW118839   3.648   3.274   1.417
 5980SOL    HW218840   3.607   3.125   1.472
 5981SOL     OW18841   4.409   2.532   0.374
 5981SOL    HW118842   4.501   2.545   0.411
 5981SOL    HW218843   4.411   2.460   0.304
 5982SOL     OW18844   6.007   1.813   2.271
 5982SOL    HW118845   6.105   1.806   2.254
 5982SOL    HW218846   5.991   1.876   2.347
 5983SOL     OW18847   6.965   0.566   4.777
 5983SOL    HW118848   7.016   0.625   4.840
 5983SOL    HW218849   6.903   0.621   4.722
 5984SOL     OW18850   6.332   6.414   3.013
 5984SOL    HW118851   6.274   6.486   3.051
 5984SOL    HW218852   6.424   6.450   2.998
 5985SOL     OW18853   6.119   2.329   2.617
 5985SOL    HW118854   6.031   2.322   2.571
 5985SOL    HW218855   6.177   2.252   2.591
 5986SOL     OW18856   4.260   3.786   5.273
 5986SOL    HW118857   4.224   3.877   5.293
 5986SOL    HW218858   4.206   3.743   5.201
 5987SOL     OW18859   6.153   0.963   5.205
 5987SOL    HW118860   6.164   0.996   5.111
 5987SOL    HW218861   6.161   1.040   5.269
 5988SOL     OW18862   2.826   1.693   6.957
 5988SOL    HW118863   2.880   1.639   6.892
 5988SOL    HW218864   2.818   1.642   0.024
 5989SOL     OW18865   0.504   6.098   6.734
 5989SOL    HW118866   0.508   6.057   6.643
 5989SOL    HW218867   0.548   6.187   6.733
 5990SOL     OW18868   3.715   4.461   1.639
 5990SOL    HW118869   3.665   4.468   1.552
 5990SOL    HW218870   3.669   4.518   1.708
 5991SOL     OW18871   5.716   5.859   0.758
 5991SOL    HW118872   5.713   5.956   0.784
 5991SOL    HW218873   5.731   5.803   0.839
 5992SOL     OW18874   3.217   0.112   1.825
 5992SOL    HW118875   3.219   0.067   1.736
 5992SOL    HW218876   3.122   0.130   1.851
 5993SOL     OW18877   6.150   2.515   0.818
 5993SOL    HW118878   6.077   2.474   0.874
 5993SOL    HW218879   6.169   2.456   0.739
 5994SOL     OW18880   6.982   2.913   0.688
 5994SOL    HW118881   6.894   2.868   0.677
 5994SOL    HW218882   6.968   3.004   0.728
 5995SOL     OW18883   5.015   3.659   1.788
 5995SOL    HW118884   4.939   3.611   1.744
 5995SOL    HW218885   5.101   3.631   1.747
 5996SOL     OW18886   2.849   6.075   1.439
 5996SOL    HW118887   2.882   6.021   1.517
 5996SOL    HW218888   2.835   6.015   1.361
 5997SOL     OW18889   6.553   6.880   3.239
 5997SOL    HW118890   6.473   6.839   3.195
 5997SOL    HW218891   6.525   6.960   3.292
 5998SOL     OW18892   6.887   0.763   1.830
 5998SOL    HW118893   6.963   0.734   1.772
 5998SOL    HW218894   6.819   0.690   1.834
 5999SOL     OW18895   3.587   3.991   0.853
 5999SOL    HW118896   3.495   3.954   0.865
 5999SOL    HW218897   3.580   4.087   0.826
 6000SOL     OW18898   6.865   5.313   0.269
 6000SOL    HW118899   6.887   5.346   0.177
 6000SOL    HW218900   6.902   5.221   0.282
 6001SOL     OW18901   5.159   6.312   5.287
 6001SOL    HW118902   5.196   6.333   5.196
 6001SOL    HW218903   5.074   6.261   5.277
 6002SOL     OW18904   6.464   6.508   4.728
 6002SOL    HW118905   6.506   6.474   4.812
 6002SOL    HW218906   6.491   6.451   4.651
 6003SOL     OW18907   6.488   3.012   4.349
 6003SOL    HW118908   6.414   2.952   4.378
 6003SOL    HW218909   6.517   2.988   4.256
 6004SOL     OW18910   4.978   2.195   3.537
 6004SOL    HW118911   5.041   2.211   3.613
 6004SOL    HW218912   5.000   2.258   3.462
 6005SOL     OW18913   4.479   4.280   5.484
 6005SOL    HW118914   4.565   4.300   5.532
 6005SOL    HW218915   4.402   4.318   5.536
 6006SOL     OW18916   3.546   6.683   5.766
 6006SOL    HW118917   3.459   6.699   5.811
 6006SOL    HW218918   3.601   6.767   5.768
 6007SOL     OW18919   1.220   4.586   5.711
 6007SOL    HW118920   1.190   4.682   5.709
 6007SOL    HW218921   1.215   4.549   5.618
 6008SOL     OW18922   1.976   4.753   5.468
 6008SOL    HW118923   2.045   4.825   5.469
 6008SOL    HW218924   1.932   4.750   5.378
 6009SOL     OW18925   4.074   5.323   2.822
 6009SOL    HW118926   4.165   5.287   2.846
 6009SOL    HW218927   4.057   5.309   2.725
 6010SOL     OW18928   6.556   3.969   4.680
 6010SOL    HW118929   6.509   4.057   4.677
 6010SOL    HW218930   6.566   3.933   4.587
 6011SOL     OW18931   5.854   1.480   2.510
 6011SOL    HW118932   5.810   1.562   2.475
 6011SOL    HW218933   5.785   1.414   2.539
 6012SOL     OW18934   6.408   0.687   6.429
 6012SOL    HW118935   6.383   0.719   6.520
 6012SOL    HW218936   6.508   0.684   6.421
 6013SOL     OW18937   5.542   1.352   2.492
 6013SOL    HW118938   5.530   1.260   2.457
 6013SOL    HW218939   5.524   1.353   2.590
 6014SOL     OW18940   3.424   2.897   4.303
 6014SOL    HW118941   3.392   2.974   4.248
 6014SOL    HW218942   3.383   2.902   4.394
 6015SOL     OW18943   6.289   2.179   4.811
 6015SOL    HW118944   6.267   2.213   4.902
 6015SOL    HW218945   6.388   2.164   4.804
 6016SOL     OW18946   5.049   1.753   4.832
 6016SOL    HW118947   5.022   1.698   4.753
 6016SOL    HW218948   5.123   1.707   4.881
 6017SOL     OW18949   6.712   3.292   5.084
 6017SOL    HW118950   6.766   3.211   5.106
 6017SOL    HW218951   6.693   3.294   4.986
 6018SOL     OW18952   3.320   1.431   5.430
 6018SOL    HW118953   3.397   1.449   5.490
 6018SOL    HW218954   3.279   1.343   5.453
 6019SOL     OW18955   0.732   3.839   6.321
 6019SOL    HW118956   0.694   3.893   6.396
 6019SOL    HW218957   0.744   3.745   6.351
 6020SOL     OW18958   1.168   5.139   0.206
 6020SOL    HW118959   1.196   5.229   0.173
 6020SOL    HW218960   1.150   5.078   0.129
 6021SOL     OW18961   4.008   0.848   2.824
 6021SOL    HW118962   4.022   0.919   2.754
 6021SOL    HW218963   3.912   0.845   2.850
 6022SOL     OW18964   6.480   1.350   2.847
 6022SOL    HW118965   6.469   1.270   2.788
 6022SOL    HW218966   6.491   1.320   2.942
 6023SOL     OW18967   4.783   0.854   1.082
 6023SOL    HW118968   4.768   0.811   0.993
 6023SOL    HW218969   4.869   0.906   1.080
 6024SOL     OW18970   0.438   4.561   0.683
 6024SOL    HW118971   0.464   4.632   0.618
 6024SOL    HW218972   0.345   4.577   0.716
 6025SOL     OW18973   2.361   1.398   4.257
 6025SOL    HW118974   2.388   1.312   4.299
 6025SOL    HW218975   2.262   1.400   4.246
 6026SOL     OW18976   6.246   4.222   4.094
 6026SOL    HW118977   6.286   4.156   4.158
 6026SOL    HW218978   6.292   4.310   4.104
 6027SOL     OW18979   5.730   3.767   5.758
 6027SOL    HW118980   5.736   3.844   5.821
 6027SOL    HW218981   5.725   3.801   5.664
 6028SOL     OW18982   5.278   5.406   6.773
 6028SOL    HW118983   5.340   5.455   6.834
 6028SOL    HW218984   5.224   5.341   6.825
 6029SOL     OW18985   2.735   0.834   3.134
 6029SOL    HW118986   2.706   0.912   3.189
 6029SOL    HW218987   2.682   0.830   3.050
 6030SOL     OW18988   4.880   3.661   4.751
 6030SOL    HW118989   4.823   3.712   4.686
 6030SOL    HW218990   4.824   3.628   4.826
 6031SOL     OW18991   0.413   6.041   4.431
 6031SOL    HW118992   0.390   6.038   4.334
 6031SOL    HW218993   0.447   5.952   4.461
 6032SOL     OW18994   3.084   6.641   3.737
 6032SOL    HW118995   3.110   6.560   3.789
 6032SOL    HW218996   3.007   6.619   3.677
 6033SOL     OW18997   1.455   2.317   2.528
 6033SOL    HW118998   1.424   2.240   2.471
 6033SOL    HW218999   1.554   2.318   2.532
 6034SOL     OW19000   1.464   0.187   0.024
 6034SOL    HW119001   1.402   0.210   0.099
 6034SOL    HW219002   1.461   0.260   6.974
 6035SOL     OW19003   1.095   0.996   2.888
 6035SOL    HW119004   1.063   0.911   2.847
 6035SOL    HW219005   1.041   1.016   2.970
 6036SOL     OW19006   5.748   3.762   0.969
 6036SOL    HW119007   5.847   3.753   0.960
 6036SOL    HW219008   5.726   3.812   1.053
 6037SOL     OW19009   4.154   1.497   0.976
 6037SOL    HW119010   4.228   1.554   1.009
 6037SOL    HW219011   4.067   1.531   1.011
 6038SOL     OW19012   0.848   2.445   6.185
 6038SOL    HW119013   0.943   2.474   6.198
 6038SOL    HW219014   0.845   2.361   6.132
 6039SOL     OW19015   3.548   4.086   3.927
 6039SOL    HW119016   3.548   4.057   4.023
 6039SOL    HW219017   3.457   4.121   3.903
 6040SOL     OW19018   1.564   1.896   0.018
 6040SOL    HW119019   1.549   1.893   6.938
 6040SOL    HW219020   1.485   1.858   0.066
 6041SOL     OW19021   3.339   2.523   5.790
 6041SOL    HW119022   3.250   2.542   5.749
 6041SOL    HW219023   3.394   2.607   5.790
 6042SOL     OW19024   3.033   6.019   3.961
 6042SOL    HW119025   3.087   6.101   3.980
 6042SOL    HW219026   3.093   5.944   3.936
 6043SOL     OW19027   1.826   0.878   4.073
 6043SOL    HW119028   1.871   0.959   4.112
 6043SOL    HW219029   1.823   0.886   3.974
 6044SOL     OW19030   2.299   2.138   1.564
 6044SOL    HW119031   2.315   2.230   1.530
 6044SOL    HW219032   2.247   2.086   1.496
 6045SOL     OW19033   5.531   2.904   3.124
 6045SOL    HW119034   5.549   2.849   3.042
 6045SOL    HW219035   5.439   2.884   3.158
 6046SOL     OW19036   3.729   2.589   1.718
 6046SOL    HW119037   3.828   2.581   1.702
 6046SOL    HW219038   3.695   2.504   1.759
 6047SOL     OW19039   6.003   1.626   0.421
 6047SOL    HW119040   6.078   1.585   0.472
 6047SOL    HW219041   6.039   1.683   0.347
 6048SOL     OW19042   5.437   5.447   4.911
 6048SOL    HW119043   5.339   5.461   4.922
 6048SOL    HW219044   5.486   5.524   4.950
 6049SOL     OW19045   5.347   4.916   5.433
 6049SOL    HW119046   5.435   4.938   5.476
 6049SOL    HW219047   5.292   4.862   5.497
 6050SOL     OW19048   3.218   5.908   0.905
 6050SOL    HW119049   3.148   5.860   0.852
 6050SOL    HW219050   3.202   5.894   1.003
 6051SOL     OW19051   0.257   1.860   2.574
 6051SOL    HW119052   0.279   1.886   2.668
 6051SOL    HW219053   0.208   1.774   2.573
 6052SOL     OW19054   5.983   6.642   0.798
 6052SOL    HW119055   5.903   6.592   0.763
 6052SOL    HW219056   5.993   6.727   0.747
 6053SOL     OW19057   4.448   1.536   6.119
 6053SOL    HW119058   4.360   1.582   6.105
 6053SOL    HW219059   4.494   1.526   6.031
 6054SOL     OW19060   3.902   5.171   0.888
 6054SOL    HW119061   3.806   5.193   0.867
 6054SOL    HW219062   3.906   5.126   0.977
 6055SOL     OW19063   3.243   5.496   6.750
 6055SOL    HW119064   3.325   5.505   6.806
 6055SOL    HW219065   3.191   5.581   6.753
 6056SOL     OW19066   5.822   3.761   4.884
 6056SOL    HW119067   5.845   3.696   4.956
 6056SOL    HW219068   5.881   3.745   4.804
 6057SOL     OW19069   5.101   0.440   2.970
 6057SOL    HW119070   5.164   0.424   3.045
 6057SOL    HW219071   5.059   0.354   2.942
 6058SOL     OW19072   5.753   3.006   0.352
 6058SOL    HW119073   5.722   3.038   0.262
 6058SOL    HW219074   5.727   2.911   0.365
 6059SOL     OW19075   5.163   4.705   5.891
 6059SOL    HW119076   5.247   4.690   5.944
 6059SOL    HW219077   5.087   4.658   5.936
 6060SOL     OW19078   2.677   3.339   6.963
 6060SOL    HW119079   2.632   3.362   6.876
 6060SOL    HW219080   2.607   3.315   0.013
 6061SOL     OW19081   4.418   4.677   0.846
 6061SOL    HW119082   4.424   4.756   0.907
 6061SOL    HW219083   4.439   4.707   0.753
 6062SOL     OW19084   2.966   2.349   0.251
 6062SOL    HW119085   2.918   2.430   0.284
 6062SOL    HW219086   2.906   2.298   0.189
 6063SOL     OW19087   3.753   4.334   5.611
 6063SOL    HW119088   3.706   4.422   5.599
 6063SOL    HW219089   3.774   4.320   5.708
 6064SOL     OW19090   0.207   0.641   0.681
 6064SOL    HW119091   0.303   0.620   0.702
 6064SOL    HW219092   0.150   0.616   0.759
 6065SOL     OW19093   1.037   4.889   2.178
 6065SOL    HW119094   1.020   4.825   2.253
 6065SOL    HW219095   1.128   4.872   2.140
 6066SOL     OW19096   4.915   0.786   3.828
 6066SOL    HW119097   4.984   0.852   3.798
 6066SOL    HW219098   4.825   0.828   3.825
 6067SOL     OW19099   5.633   6.828   5.566
 6067SOL    HW119100   5.717   6.787   5.531
 6067SOL    HW219101   5.584   6.762   5.622
 6068SOL     OW19102   5.164   1.416   4.983
 6068SOL    HW119103   5.082   1.458   5.022
 6068SOL    HW219104   5.138   1.349   4.914
 6069SOL     OW19105   7.006   2.688   5.672
 6069SOL    HW119106   7.000   2.731   5.763
 6069SOL    HW219107   6.985   2.590   5.681
 6070SOL     OW19108   3.370   2.110   1.672
 6070SOL    HW119109   3.434   2.074   1.740
 6070SOL    HW219110   3.365   2.210   1.680
 6071SOL     OW19111   6.579   5.979   4.954
 6071SOL    HW119112   6.661   5.923   4.958
 6071SOL    HW219113   6.577   6.041   5.032
 6072SOL     OW19114   0.952   2.309   1.016
 6072SOL    HW119115   0.945   2.290   1.114
 6072SOL    HW219116   0.925   2.228   0.964
 6073SOL     OW19117   4.905   3.041   0.716
 6073SOL    HW119118   4.828   2.986   0.748
 6073SOL    HW219119   4.870   3.126   0.676
 6074SOL     OW19120   1.284   6.731   2.789
 6074SOL    HW119121   1.237   6.705   2.873
 6074SOL    HW219122   1.360   6.793   2.811
 6075SOL     OW19123   4.461   6.582   6.461
 6075SOL    HW119124   4.363   6.560   6.457
 6075SOL    HW219125   4.480   6.635   6.543
 6076SOL     OW19126   2.765   4.799   3.994
 6076SOL    HW119127   2.854   4.798   3.949
 6076SOL    HW219128   2.707   4.869   3.951
 6077SOL     OW19129   6.407   6.692   1.062
 6077SOL    HW119130   6.339   6.649   1.003
 6077SOL    HW219131   6.372   6.780   1.094
 6078SOL     OW19132   4.501   3.776   0.303
 6078SOL    HW119133   4.539   3.859   0.263
 6078SOL    HW219134   4.513   3.778   0.402
 6079SOL     OW19135   4.893   4.271   6.639
 6079SOL    HW119136   4.969   4.285   6.703
 6079SOL    HW219137   4.898   4.178   6.602
 6080SOL     OW19138   1.368   4.532   1.040
 6080SOL    HW119139   1.311   4.474   0.982
 6080SOL    HW219140   1.346   4.516   1.136
 6081SOL     OW19141   0.215   3.777   5.170
 6081SOL    HW119142   0.306   3.818   5.171
 6081SOL    HW219143   0.208   3.707   5.240
 6082SOL     OW19144   4.400   0.622   1.379
 6082SOL    HW119145   4.326   0.555   1.368
 6082SOL    HW219146   4.399   0.685   1.301
 6083SOL     OW19147   4.999   6.413   6.867
 6083SOL    HW119148   5.047   6.500   6.859
 6083SOL    HW219149   5.022   6.370   6.955
 6084SOL     OW19150   0.678   6.669   2.603
 6084SOL    HW119151   0.759   6.614   2.585
 6084SOL    HW219152   0.641   6.704   2.518
 6085SOL     OW19153   6.469   6.660   0.111
 6085SOL    HW119154   6.426   6.750   0.105
 6085SOL    HW219155   6.462   6.613   0.022
 6086SOL     OW19156   3.666   3.505   6.565
 6086SOL    HW119157   3.568   3.487   6.573
 6086SOL    HW219158   3.710   3.491   6.654
 6087SOL     OW19159   4.694   6.552   0.549
 6087SOL    HW119160   4.654   6.532   0.460
 6087SOL    HW219161   4.782   6.506   0.557
 6088SOL     OW19162   5.188   6.228   4.417
 6088SOL    HW119163   5.185   6.128   4.418
 6088SOL    HW219164   5.152   6.262   4.331
 6089SOL     OW19165   6.107   2.329   2.065
 6089SOL    HW119166   6.166   2.348   2.144
 6089SOL    HW219167   6.062   2.241   2.076
 6090SOL     OW19168   3.360   5.156   4.206
 6090SOL    HW119169   3.396   5.231   4.150
 6090SOL    HW219170   3.302   5.193   4.278
 6091SOL     OW19171   2.419   0.587   1.260
 6091SOL    HW119172   2.364   0.504   1.257
 6091SOL    HW219173   2.498   0.573   1.320
 6092SOL     OW19174   4.281   0.232   1.837
 6092SOL    HW119175   4.229   0.213   1.921
 6092SOL    HW219176   4.374   0.197   1.847
 6093SOL     OW19177   1.897   1.663   1.972
 6093SOL    HW119178   1.799   1.663   1.990
 6093SOL    HW219179   1.918   1.591   1.906
 6094SOL     OW19180   0.590   6.848   4.237
 6094SOL    HW119181   0.670   6.905   4.253
 6094SOL    HW219182   0.524   6.862   4.311
 6095SOL     OW19183   4.129   6.277   0.073
 6095SOL    HW119184   4.192   6.212   0.116
 6095SOL    HW219185   4.144   6.368   0.110
 6096SOL     OW19186   6.004   6.458   2.177
 6096SOL    HW119187   6.081   6.426   2.121
 6096SOL    HW219188   5.951   6.379   2.208
 6097SOL     OW19189   1.682   6.115   2.096
 6097SOL    HW119190   1.606   6.142   2.156
 6097SOL    HW219191   1.735   6.196   2.072
 6098SOL     OW19192   6.689   0.891   5.148
 6098SOL    HW119193   6.688   0.928   5.055
 6098SOL    HW219194   6.660   0.795   5.146
 6099SOL     OW19195   5.649   6.064   5.698
 6099SOL    HW119196   5.724   6.121   5.731
 6099SOL    HW219197   5.661   6.045   5.601
 6100SOL     OW19198   0.509   5.626   3.020
 6100SOL    HW119199   0.522   5.714   3.064
 6100SOL    HW219200   0.411   5.603   3.019
 6101SOL     OW19201   6.316   2.496   1.382
 6101SOL    HW119202   6.389   2.494   1.451
 6101SOL    HW219203   6.294   2.402   1.354
 6102SOL     OW19204   4.462   6.422   2.262
 6102SOL    HW119205   4.517   6.403   2.181
 6102SOL    HW219206   4.365   6.405   2.241
 6103SOL     OW19207   6.649   1.512   1.522
 6103SOL    HW119208   6.641   1.555   1.432
 6103SOL    HW219209   6.620   1.577   1.592
 6104SOL     OW19210   6.066   1.275   4.920
 6104SOL    HW119211   6.055   1.295   4.823
 6104SOL    HW219212   6.110   1.353   4.965
 6105SOL     OW19213   2.913   5.512   6.202
 6105SOL    HW119214   2.929   5.415   6.223
 6105SOL    HW219215   3.001   5.558   6.190
 6106SOL     OW19216   0.877   3.669   0.034
 6106SOL    HW119217   0.807   3.615   7.006
 6106SOL    HW219218   0.869   3.656   0.133
 6107SOL     OW19219   4.578   5.176   4.648
 6107SOL    HW119220   4.509   5.103   4.645
 6107SOL    HW219221   4.603   5.195   4.743
 6108SOL     OW19222   1.603   1.410   2.207
 6108SOL    HW119223   1.647   1.500   2.203
 6108SOL    HW219224   1.515   1.418   2.253
 6109SOL     OW19225   5.248   0.442   3.525
 6109SOL    HW119226   5.202   0.466   3.610
 6109SOL    HW219227   5.345   0.463   3.532
 6110SOL     OW19228   0.920   1.929   5.922
 6110SOL    HW119229   0.850   1.955   5.856
 6110SOL    HW219230   0.963   1.843   5.893
 6111SOL     OW19231   1.370   3.698   1.929
 6111SOL    HW119232   1.286   3.653   1.901
 6111SOL    HW219233   1.446   3.667   1.871
 6112SOL     OW19234   3.278   0.722   2.389
 6112SOL    HW119235   3.244   0.769   2.308
 6112SOL    HW219236   3.301   0.628   2.366
 6113SOL     OW19237   2.089   4.965   6.741
 6113SOL    HW119238   2.183   4.952   6.774
 6113SOL    HW219239   2.090   4.984   6.643
 6114SOL     OW19240   4.860   1.558   1.129
 6114SOL    HW119241   4.846   1.529   1.034
 6114SOL    HW219242   4.954   1.589   1.142
 6115SOL     OW19243   1.000   1.149   5.047
 6115SOL    HW119244   0.962   1.169   5.137
 6115SOL    HW219245   1.080   1.206   5.031
 6116SOL     OW19246   3.775   2.186   5.048
 6116SOL    HW119247   3.706   2.157   4.981
 6116SOL    HW219248   3.731   2.203   5.136
 6117SOL     OW19249   1.102   1.694   2.873
 6117SOL    HW119250   1.100   1.715   2.776
 6117SOL    HW219251   1.013   1.713   2.914
 6118SOL     OW19252   6.417   1.225   0.805
 6118SOL    HW119253   6.339   1.287   0.791
 6118SOL    HW219254   6.395   1.135   0.769
 6119SOL     OW19255   6.979   2.340   0.194
 6119SOL    HW119256   6.887   2.315   0.163
 6119SOL    HW219257   0.015   2.368   0.115
 6120SOL     OW19258   2.591   6.786   5.429
 6120SOL    HW119259   2.529   6.744   5.363
 6120SOL    HW219260   2.615   6.879   5.399
 6121SOL     OW19261   0.673   3.808   5.298
 6121SOL    HW119262   0.664   3.856   5.385
 6121SOL    HW219263   0.680   3.709   5.315
 6122SOL     OW19264   4.781   5.811   5.600
 6122SOL    HW119265   4.802   5.884   5.665
 6122SOL    HW219266   4.790   5.722   5.644
 6123SOL     OW19267   5.554   1.268   5.747
 6123SOL    HW119268   5.558   1.299   5.843
 6123SOL    HW219269   5.483   1.198   5.738
 6124SOL     OW19270   1.973   0.155   4.941
 6124SOL    HW119271   2.009   0.240   4.904
 6124SOL    HW219272   1.993   0.150   5.039
 6125SOL     OW19273   2.545   4.130   0.158
 6125SOL    HW119274   2.598   4.100   0.237
 6125SOL    HW219275   2.593   4.204   0.111
 6126SOL     OW19276   0.586   2.269   5.252
 6126SOL    HW119277   0.618   2.357   5.288
 6126SOL    HW219278   0.664   2.219   5.214
 6127SOL     OW19279   4.541   1.396   1.550
 6127SOL    HW119280   4.521   1.302   1.576
 6127SOL    HW219281   4.596   1.396   1.467
 6128SOL     OW19282   5.900   6.065   0.758
 6128SOL    HW119283   5.926   6.084   0.852
 6128SOL    HW219284   5.953   5.987   0.724
 6129SOL     OW19285   1.916   4.720   3.110
 6129SOL    HW119286   1.898   4.625   3.086
 6129SOL    HW219287   1.971   4.723   3.194
 6130SOL     OW19288   5.386   2.642   1.679
 6130SOL    HW119289   5.435   2.598   1.604
 6130SOL    HW219290   5.304   2.687   1.644
 6131SOL     OW19291   6.898   2.312   2.408
 6131SOL    HW119292   6.939   2.400   2.431
 6131SOL    HW219293   6.922   2.245   2.478
 6132SOL     OW19294   3.735   1.568   6.796
 6132SOL    HW119295   3.709   1.496   6.732
 6132SOL    HW219296   3.748   1.654   6.746
 6133SOL     OW19297   1.528   2.594   3.697
 6133SOL    HW119298   1.435   2.574   3.729
 6133SOL    HW219299   1.577   2.508   3.683
 6134SOL     OW19300   5.432   5.924   5.811
 6134SOL    HW119301   5.413   5.852   5.744
 6134SOL    HW219302   5.499   5.988   5.772
 6135SOL     OW19303   6.282   0.392   6.912
 6135SOL    HW119304   6.340   0.470   6.889
 6135SOL    HW219305   6.288   0.373   7.010
 6136SOL     OW19306   1.661   3.220   1.107
 6136SOL    HW119307   1.607   3.141   1.077
 6136SOL    HW219308   1.698   3.268   1.027
 6137SOL     OW19309   0.633   4.393   3.394
 6137SOL    HW119310   0.657   4.413   3.299
 6137SOL    HW219311   0.674   4.461   3.455
 6138SOL     OW19312   4.078   0.165   2.023
 6138SOL    HW119313   4.052   0.107   2.100
 6138SOL    HW219314   4.087   0.260   2.054
 6139SOL     OW19315   0.815   6.575   5.876
 6139SOL    HW119316   0.744   6.570   5.806
 6139SOL    HW219317   0.868   6.491   5.877
 6140SOL     OW19318   1.574   0.372   3.355
 6140SOL    HW119319   1.632   0.293   3.341
 6140SOL    HW219320   1.539   0.371   3.449
 6141SOL     OW19321   0.449   0.216   6.236
 6141SOL    HW119322   0.367   0.272   6.252
 6141SOL    HW219323   0.524   0.250   6.292
 6142SOL     OW19324   0.758   1.179   0.720
 6142SOL    HW119325   0.819   1.163   0.643
 6142SOL    HW219326   0.712   1.094   0.745
 6143SOL     OW19327   6.823   3.949   6.782
 6143SOL    HW119328   6.914   3.930   6.746
 6143SOL    HW219329   6.818   3.922   6.878
 6144SOL     OW19330   4.505   4.421   2.942
 6144SOL    HW119331   4.504   4.397   3.039
 6144SOL    HW219332   4.553   4.350   2.891
 6145SOL     OW19333   5.605   4.275   3.815
 6145SOL    HW119334   5.589   4.184   3.854
 6145SOL    HW219335   5.696   4.306   3.839
 6146SOL     OW19336   3.690   0.500   4.248
 6146SOL    HW119337   3.788   0.508   4.266
 6146SOL    HW219338   3.639   0.511   4.334
 6147SOL     OW19339   1.583   3.075   4.562
 6147SOL    HW119340   1.616   3.148   4.622
 6147SOL    HW219341   1.492   3.097   4.529
 6148SOL     OW19342   4.076   4.723   6.927
 6148SOL    HW119343   4.161   4.733   6.979
 6148SOL    HW219344   4.084   4.772   6.840
 6149SOL     OW19345   2.306   0.118   2.300
 6149SOL    HW119346   2.230   0.156   2.248
 6149SOL    HW219347   2.319   0.171   2.384
 6150SOL     OW19348   6.337   4.129   6.898
 6150SOL    HW119349   6.393   4.140   6.816
 6150SOL    HW219350   6.387   4.075   6.966
 6151SOL     OW19351   5.354   4.827   4.328
 6151SOL    HW119352   5.418   4.856   4.257
 6151SOL    HW219353   5.386   4.742   4.370
 6152SOL     OW19354   1.169   5.602   4.033
 6152SOL    HW119355   1.243   5.589   4.100
 6152SOL    HW219356   1.209   5.629   3.946
 6153SOL     OW19357   4.418   5.303   0.866
 6153SOL    HW119358   4.380   5.321   0.957
 6153SOL    HW219359   4.355   5.336   0.796
 6154SOL     OW19360   4.934   3.460   2.509
 6154SOL    HW119361   4.947   3.494   2.416
 6154SOL    HW219362   4.982   3.373   2.520
 6155SOL     OW19363   2.667   1.085   2.983
 6155SOL    HW119364   2.759   1.124   2.993
 6155SOL    HW219365   2.612   1.106   3.063
 6156SOL     OW19366   5.560   3.985   1.551
 6156SOL    HW119367   5.487   3.968   1.486
 6156SOL    HW219368   5.571   4.083   1.564
 6157SOL     OW19369   0.582   2.315   3.529
 6157SOL    HW119370   0.524   2.253   3.583
 6157SOL    HW219371   0.567   2.298   3.432
 6158SOL     OW19372   3.339   2.308   6.005
 6158SOL    HW119373   3.351   2.333   5.909
 6158SOL    HW219374   3.379   2.380   6.063
 6159SOL     OW19375   5.174   2.361   6.749
 6159SOL    HW119376   5.241   2.354   6.823
 6159SOL    HW219377   5.112   2.437   6.768
 6160SOL     OW19378   6.983   0.067   6.453
 6160SOL    HW119379   6.902   0.008   6.456
 6160SOL    HW219380   7.000   0.104   6.544
 6161SOL     OW19381   4.959   2.566   6.393
 6161SOL    HW119382   5.048   2.608   6.410
 6161SOL    HW219383   4.933   2.579   6.297
 6162SOL     OW19384   5.711   6.818   3.038
 6162SOL    HW119385   5.790   6.853   3.089
 6162SOL    HW219386   5.742   6.774   2.954
 6163SOL     OW19387   4.932   6.305   2.865
 6163SOL    HW119388   4.882   6.272   2.784
 6163SOL    HW219389   4.902   6.253   2.945
 6164SOL     OW19390   3.533   4.061   4.189
 6164SOL    HW119391   3.445   4.095   4.223
 6164SOL    HW219392   3.593   4.042   4.267
 6165SOL     OW19393   3.993   2.549   0.135
 6165SOL    HW119394   4.082   2.550   0.091
 6165SOL    HW219395   3.991   2.479   0.206
 6166SOL     OW19396   0.121   2.126   6.921
 6166SOL    HW119397   0.124   2.057   6.848
 6166SOL    HW219398   0.055   2.197   6.896
 6167SOL     OW19399   1.649   4.843   3.025
 6167SOL    HW119400   1.635   4.923   2.966
 6167SOL    HW219401   1.738   4.803   3.005
 6168SOL     OW19402   6.436   2.537   3.704
 6168SOL    HW119403   6.459   2.455   3.650
 6168SOL    HW219404   6.356   2.582   3.664
 6169SOL     OW19405   1.220   0.372   6.502
 6169SOL    HW119406   1.269   0.380   6.589
 6169SOL    HW219407   1.152   0.444   6.496
 6170SOL     OW19408   3.666   4.468   6.796
 6170SOL    HW119409   3.691   4.562   6.772
 6170SOL    HW219410   3.749   4.412   6.801
 6171SOL     OW19411   0.837   4.047   2.437
 6171SOL    HW119412   0.794   4.068   2.525
 6171SOL    HW219413   0.767   4.040   2.366
 6172SOL     OW19414   0.396   0.620   2.551
 6172SOL    HW119415   0.422   0.523   2.561
 6172SOL    HW219416   0.411   0.649   2.457
 6173SOL     OW19417   0.756   4.743   2.479
 6173SOL    HW119418   0.706   4.674   2.427
 6173SOL    HW219419   0.759   4.717   2.575
 6174SOL     OW19420   5.935   4.932   2.895
 6174SOL    HW119421   5.949   4.853   2.835
 6174SOL    HW219422   5.976   4.913   2.984
 6175SOL     OW19423   5.621   6.136   2.675
 6175SOL    HW119424   5.549   6.130   2.606
 6175SOL    HW219425   5.672   6.221   2.663
 6176SOL     OW19426   6.119   3.431   6.571
 6176SOL    HW119427   6.111   3.402   6.667
 6176SOL    HW219428   6.047   3.389   6.517
 6177SOL     OW19429   4.748   1.067   1.470
 6177SOL    HW119430   4.801   1.132   1.524
 6177SOL    HW219431   4.715   0.993   1.528
 6178SOL     OW19432   4.862   4.699   1.425
 6178SOL    HW119433   4.945   4.658   1.388
 6178SOL    HW219434   4.817   4.635   1.487
 6179SOL     OW19435   6.956   3.427   4.796
 6179SOL    HW119436   6.990   3.333   4.793
 6179SOL    HW219437   6.866   3.428   4.841
 6180SOL     OW19438   3.463   6.671   0.696
 6180SOL    HW119439   3.454   6.720   0.783
 6180SOL    HW219440   3.427   6.578   0.707
 6181SOL     OW19441   4.644   6.471   0.272
 6181SOL    HW119442   4.583   6.399   0.238
 6181SOL    HW219443   4.732   6.463   0.226
 6182SOL     OW19444   5.239   5.414   5.255
 6182SOL    HW119445   5.211   5.318   5.263
 6182SOL    HW219446   5.338   5.419   5.246
 6183SOL     OW19447   2.006   0.654   2.881
 6183SOL    HW119448   1.976   0.726   2.819
 6183SOL    HW219449   2.086   0.608   2.842
 6184SOL     OW19450   1.822   0.007   0.121
 6184SOL    HW119451   1.919   0.032   0.114
 6184SOL    HW219452   1.803   6.949   0.060
 6185SOL     OW19453   0.722   3.854   6.896
 6185SOL    HW119454   0.792   3.816   6.957
 6185SOL    HW219455   0.766   3.901   6.820
 6186SOL     OW19456   5.628   0.109   4.420
 6186SOL    HW119457   5.547   0.117   4.479
 6186SOL    HW219458   5.617   0.031   4.359
 6187SOL     OW19459   5.118   4.724   3.648
 6187SOL    HW119460   5.132   4.636   3.603
 6187SOL    HW219461   5.028   4.726   3.691
 6188SOL     OW19462   2.347   6.408   1.399
 6188SOL    HW119463   2.381   6.500   1.422
 6188SOL    HW219464   2.421   6.353   1.363
 6189SOL     OW19465   4.762   4.747   3.226
 6189SOL    HW119466   4.723   4.678   3.287
 6189SOL    HW219467   4.815   4.814   3.280
 6190SOL     OW19468   5.510   3.564   6.084
 6190SOL    HW119469   5.495   3.581   5.986
 6190SOL    HW219470   5.583   3.624   6.117
 6191SOL     OW19471   5.508   2.271   0.747
 6191SOL    HW119472   5.586   2.210   0.759
 6191SOL    HW219473   5.499   2.293   0.650
 6192SOL     OW19474   2.990   3.995   0.189
 6192SOL    HW119475   2.939   3.945   0.119
 6192SOL    HW219476   2.944   3.984   0.278
 6193SOL     OW19477   4.707   0.157   2.238
 6193SOL    HW119478   4.721   0.235   2.177
 6193SOL    HW219479   4.619   0.167   2.285
 6194SOL     OW19480   1.985   0.291   0.987
 6194SOL    HW119481   2.002   0.256   0.894
 6194SOL    HW219482   2.041   0.372   1.002
 6195SOL     OW19483   4.390   5.242   5.929
 6195SOL    HW119484   4.487   5.219   5.938
 6195SOL    HW219485   4.336   5.159   5.917
 6196SOL     OW19486   0.598   2.824   6.042
 6196SOL    HW119487   0.580   2.735   5.999
 6196SOL    HW219488   0.659   2.812   6.119
 6197SOL     OW19489   2.861   3.872   1.035
 6197SOL    HW119490   2.771   3.913   1.024
 6197SOL    HW219491   2.916   3.928   1.096
 6198SOL     OW19492   3.366   5.968   2.665
 6198SOL    HW119493   3.385   5.932   2.756
 6198SOL    HW219494   3.450   5.969   2.611
 6199SOL     OW19495   0.402   0.067   1.191
 6199SOL    HW119496   0.384   0.055   1.093
 6199SOL    HW219497   0.473   0.136   1.204
 6200SOL     OW19498   2.502   1.302   6.535
 6200SOL    HW119499   2.451   1.316   6.450
 6200SOL    HW219500   2.594   1.268   6.513
 6201SOL     OW19501   2.233   4.816   5.791
 6201SOL    HW119502   2.174   4.756   5.845
 6201SOL    HW219503   2.326   4.814   5.828
 6202SOL     OW19504   4.082   1.847   1.674
 6202SOL    HW119505   4.111   1.839   1.578
 6202SOL    HW219506   4.160   1.827   1.733
 6203SOL     OW19507   5.201   0.405   3.812
 6203SOL    HW119508   5.229   0.496   3.782
 6203SOL    HW219509   5.252   0.379   3.893
 6204SOL     OW19510   0.705   4.771   5.487
 6204SOL    HW119511   0.796   4.785   5.448
 6204SOL    HW219512   0.640   4.748   5.414
 6205SOL     OW19513   5.043   5.613   6.866
 6205SOL    HW119514   5.125   5.641   6.917
 6205SOL    HW219515   5.062   5.527   6.818
 6206SOL     OW19516   0.109   0.168   2.419
 6206SOL    HW119517   0.031   0.170   2.357
 6206SOL    HW219518   0.083   0.211   2.506
 6207SOL     OW19519   1.270   4.161   4.778
 6207SOL    HW119520   1.246   4.095   4.849
 6207SOL    HW219521   1.275   4.253   4.818
 6208SOL     OW19522   6.266   0.224   5.841
 6208SOL    HW119523   6.189   0.185   5.892
 6208SOL    HW219524   6.311   0.152   5.788
 6209SOL     OW19525   3.847   6.220   0.221
 6209SOL    HW119526   3.944   6.211   0.199
 6209SOL    HW219527   3.805   6.129   0.224
 6210SOL     OW19528   5.638   3.985   2.860
 6210SOL    HW119529   5.560   3.923   2.869
 6210SOL    HW219530   5.650   4.009   2.763
 6211SOL     OW19531   2.751   0.102   6.177
 6211SOL    HW119532   2.801   0.181   6.213
 6211SOL    HW219533   2.658   0.129   6.153
 6212SOL     OW19534   0.146   5.924   3.380
 6212SOL    HW119535   0.235   5.883   3.360
 6212SOL    HW219536   0.160   6.016   3.417
 6213SOL     OW19537   6.106   0.332   6.420
 6213SOL    HW119538   6.160   0.282   6.487
 6213SOL    HW219539   6.164   0.398   6.372
 6214SOL     OW19540   6.030   5.451   3.007
 6214SOL    HW119541   5.989   5.491   3.090
 6214SOL    HW219542   6.121   5.490   2.993
 6215SOL     OW19543   3.585   1.718   7.015
 6215SOL    HW119544   3.641   1.790   6.974
 6215SOL    HW219545   3.636   1.632   7.014
 6216SOL     OW19546   6.644   2.110   1.414
 6216SOL    HW119547   6.722   2.051   1.394
 6216SOL    HW219548   6.653   2.147   1.507
 6217SOL     OW19549   5.027   2.486   1.535
 6217SOL    HW119550   5.085   2.413   1.571
 6217SOL    HW219551   5.062   2.516   1.446
 6218SOL     OW19552   3.643   5.272   4.342
 6218SOL    HW119553   3.703   5.346   4.369
 6218SOL    HW219554   3.660   5.249   4.246
 6219SOL     OW19555   1.758   1.842   4.861
 6219SOL    HW119556   1.806   1.814   4.944
 6219SOL    HW219557   1.756   1.941   4.856
 6220SOL     OW19558   1.617   4.285   5.306
 6220SOL    HW119559   1.607   4.338   5.390
 6220SOL    HW219560   1.710   4.248   5.301
 6221SOL     OW19561   4.969   5.130   5.035
 6221SOL    HW119562   5.043   5.133   5.103
 6221SOL    HW219563   4.897   5.194   5.063
 6222SOL     OW19564   1.020   6.692   1.473
 6222SOL    HW119565   0.998   6.617   1.535
 6222SOL    HW219566   0.972   6.775   1.503
 6223SOL     OW19567   5.952   3.578   4.135
 6223SOL    HW119568   6.050   3.585   4.156
 6223SOL    HW219569   5.921   3.664   4.094
 6224SOL     OW19570   2.028   1.685   6.504
 6224SOL    HW119571   2.027   1.586   6.489
 6224SOL    HW219572   1.994   1.706   6.595
 6225SOL     OW19573   3.191   3.379   1.617
 6225SOL    HW119574   3.107   3.429   1.640
 6225SOL    HW219575   3.270   3.433   1.644
 6226SOL     OW19576   5.735   1.393   3.627
 6226SOL    HW119577   5.744   1.315   3.689
 6226SOL    HW219578   5.678   1.463   3.669
 6227SOL     OW19579   3.093   4.398   5.972
 6227SOL    HW119580   3.002   4.429   6.002
 6227SOL    HW219581   3.106   4.423   5.876
 6228SOL     OW19582   6.802   1.846   3.023
 6228SOL    HW119583   6.707   1.814   3.030
 6228SOL    HW219584   6.829   1.850   2.927
 6229SOL     OW19585   1.818   1.674   3.166
 6229SOL    HW119586   1.812   1.626   3.079
 6229SOL    HW219587   1.839   1.771   3.149
 6230SOL     OW19588   1.960   1.217   4.866
 6230SOL    HW119589   1.895   1.227   4.940
 6230SOL    HW219590   2.037   1.160   4.897
 6231SOL     OW19591   6.739   4.956   1.280
 6231SOL    HW119592   6.674   4.901   1.332
 6231SOL    HW219593   6.704   5.050   1.272
 6232SOL     OW19594   0.173   0.865   0.158
 6232SOL    HW119595   0.179   0.840   0.061
 6232SOL    HW219596   0.111   0.803   0.205
 6233SOL     OW19597   5.780   1.708   6.789
 6233SOL    HW119598   5.788   1.651   6.870
 6233SOL    HW219599   5.726   1.660   6.720
 6234SOL     OW19600   0.764   1.402   4.934
 6234SOL    HW119601   0.789   1.336   4.863
 6234SOL    HW219602   0.666   1.394   4.953
 6235SOL     OW19603   1.828   6.793   3.276
 6235SOL    HW119604   1.860   6.814   3.368
 6235SOL    HW219605   1.830   6.693   3.262
 6236SOL     OW19606   0.132   4.648   1.242
 6236SOL    HW119607   0.175   4.709   1.309
 6236SOL    HW219608   0.034   4.665   1.239
 6237SOL     OW19609   4.310   5.955   0.502
 6237SOL    HW119610   4.407   5.951   0.480
 6237SOL    HW219611   4.297   5.934   0.599
 6238SOL     OW19612   4.794   5.172   2.700
 6238SOL    HW119613   4.702   5.209   2.694
 6238SOL    HW219614   4.847   5.199   2.620
 6239SOL     OW19615   2.638   6.495   2.198
 6239SOL    HW119616   2.557   6.465   2.249
 6239SOL    HW219617   2.610   6.548   2.119
 6240SOL     OW19618   2.814   1.999   0.686
 6240SOL    HW119619   2.886   2.033   0.747
 6240SOL    HW219620   2.778   2.075   0.632
 6241SOL     OW19621   2.527   1.088   2.639
 6241SOL    HW119622   2.471   1.102   2.720
 6241SOL    HW219623   2.471   1.050   2.566
 6242SOL     OW19624   5.446   1.688   3.548
 6242SOL    HW119625   5.507   1.657   3.621
 6242SOL    HW219626   5.444   1.620   3.475
 6243SOL     OW19627   5.935   6.699   3.633
 6243SOL    HW119628   5.944   6.751   3.548
 6243SOL    HW219629   5.999   6.735   3.701
 6244SOL     OW19630   2.273   2.396   2.015
 6244SOL    HW119631   2.184   2.439   1.999
 6244SOL    HW219632   2.279   2.312   1.961
 6245SOL     OW19633   3.072   4.388   1.594
 6245SOL    HW119634   3.136   4.322   1.633
 6245SOL    HW219635   3.009   4.419   1.665
 6246SOL     OW19636   2.764   2.807   6.592
 6246SOL    HW119637   2.832   2.838   6.659
 6246SOL    HW219638   2.674   2.838   6.619
 6247SOL     OW19639   0.381   6.708   3.533
 6247SOL    HW119640   0.440   6.652   3.477
 6247SOL    HW219641   0.312   6.651   3.578
 6248SOL     OW19642   0.851   3.835   1.533
 6248SOL    HW119643   0.848   3.882   1.445
 6248SOL    HW219644   0.943   3.803   1.552
 6249SOL     OW19645   0.355   4.355   0.062
 6249SOL    HW119646   0.417   4.411   0.116
 6249SOL    HW219647   0.406   4.306   7.010
 6250SOL     OW19648   6.871   6.423   0.524
 6250SOL    HW119649   6.937   6.382   0.462
 6250SOL    HW219650   6.798   6.358   0.543
 6251SOL     OW19651   4.181   6.809   1.211
 6251SOL    HW119652   4.174   6.882   1.279
 6251SOL    HW219653   4.116   6.827   1.137
 6252SOL     OW19654   2.285   6.081   5.054
 6252SOL    HW119655   2.332   6.149   5.110
 6252SOL    HW219656   2.327   6.079   4.963
 6253SOL     OW19657   2.214   4.125   2.586
 6253SOL    HW119658   2.164   4.206   2.617
 6253SOL    HW219659   2.232   4.133   2.488
 6254SOL     OW19660   5.608   0.459   6.937
 6254SOL    HW119661   5.674   0.523   6.976
 6254SOL    HW219662   5.516   0.485   6.966
 6255SOL     OW19663   1.325   1.019   1.775
 6255SOL    HW119664   1.325   0.919   1.770
 6255SOL    HW219665   1.377   1.049   1.854
 6256SOL     OW19666   4.259   5.080   2.486
 6256SOL    HW119667   4.188   5.150   2.494
 6256SOL    HW219668   4.216   4.990   2.479
 6257SOL     OW19669   5.172   2.486   0.880
 6257SOL    HW119670   5.085   2.530   0.858
 6257SOL    HW219671   5.238   2.556   0.908
 6258SOL     OW19672   4.969   0.918   3.247
 6258SOL    HW119673   4.938   0.916   3.152
 6258SOL    HW219674   4.989   1.012   3.274
 6259SOL     OW19675   2.712   1.797   1.421
 6259SOL    HW119676   2.685   1.877   1.474
 6259SOL    HW219677   2.804   1.768   1.448
 6260SOL     OW19678   3.331   4.403   0.311
 6260SOL    HW119679   3.338   4.351   0.226
 6260SOL    HW219680   3.324   4.500   0.290
 6261SOL     OW19681   3.801   6.784   6.577
 6261SOL    HW119682   3.798   6.747   6.670
 6261SOL    HW219683   3.873   6.737   6.525
 6262SOL     OW19684   1.949   4.357   0.446
 6262SOL    HW119685   1.885   4.294   0.491
 6262SOL    HW219686   2.025   4.305   0.408
 6263SOL     OW19687   0.418   5.803   6.568
 6263SOL    HW119688   0.430   5.710   6.534
 6263SOL    HW219689   0.421   5.803   6.668
 6264SOL     OW19690   2.502   0.883   0.865
 6264SOL    HW119691   2.567   0.932   0.807
 6264SOL    HW219692   2.548   0.854   0.949
 6265SOL     OW19693   3.360   4.159   1.103
 6265SOL    HW119694   3.296   4.097   1.058
 6265SOL    HW219695   3.329   4.253   1.090
 6266SOL     OW19696   3.800   0.754   4.387
 6266SOL    HW119697   3.828   0.668   4.430
 6266SOL    HW219698   3.820   0.751   4.289
 6267SOL     OW19699   3.393   0.073   7.003
 6267SOL    HW119700   3.436   0.154   0.024
 6267SOL    HW219701   3.447   0.039   6.926
 6268SOL     OW19702   2.581   5.877   2.760
 6268SOL    HW119703   2.635   5.903   2.840
 6268SOL    HW219704   2.585   5.949   2.691
 6269SOL     OW19705   6.187   5.709   2.013
 6269SOL    HW119706   6.184   5.701   2.113
 6269SOL    HW219707   6.211   5.620   1.973
 6270SOL     OW19708   2.110   6.853   6.180
 6270SOL    HW119709   2.162   6.877   6.098
 6270SOL    HW219710   2.173   6.817   6.249
 6271SOL     OW19711   6.732   2.803   5.600
 6271SOL    HW119712   6.722   2.879   5.536
 6271SOL    HW219713   6.819   2.810   5.647
 6272SOL     OW19714   0.556   3.008   4.488
 6272SOL    HW119715   0.501   2.928   4.514
 6272SOL    HW219716   0.612   3.036   4.566
 6273SOL     OW19717   1.621   0.398   1.887
 6273SOL    HW119718   1.717   0.371   1.894
 6273SOL    HW219719   1.576   0.388   1.975
 6274SOL     OW19720   2.689   5.381   5.748
 6274SOL    HW119721   2.754   5.456   5.754
 6274SOL    HW219722   2.738   5.296   5.727
 6275SOL     OW19723   2.841   6.394   5.734
 6275SOL    HW119724   2.868   6.467   5.797
 6275SOL    HW219725   2.744   6.403   5.712
 6276SOL     OW19726   1.547   4.917   3.634
 6276SOL    HW119727   1.542   5.017   3.635
 6276SOL    HW219728   1.621   4.887   3.694
 6277SOL     OW19729   4.609   2.413   2.678
 6277SOL    HW119730   4.587   2.439   2.584
 6277SOL    HW219731   4.528   2.375   2.723
 6278SOL     OW19732   4.679   0.257   4.506
 6278SOL    HW119733   4.732   0.336   4.473
 6278SOL    HW219734   4.676   0.258   4.606
 6279SOL     OW19735   3.668   1.601   0.671
 6279SOL    HW119736   3.740   1.599   0.601
 6279SOL    HW219737   3.673   1.687   0.722
 6280SOL     OW19738   0.324   3.040   5.804
 6280SOL    HW119739   0.296   3.024   5.899
 6280SOL    HW219740   0.302   2.960   5.749
 6281SOL     OW19741   2.973   6.297   6.237
 6281SOL    HW119742   2.930   6.340   6.316
 6281SOL    HW219743   2.993   6.366   6.168
 6282SOL     OW19744   1.235   6.933   4.449
 6282SOL    HW119745   1.278   6.929   4.540
 6282SOL    HW219746   1.263   7.016   4.402
 6283SOL     OW19747   6.183   2.768   4.867
 6283SOL    HW119748   6.219   2.795   4.778
 6283SOL    HW219749   6.092   2.808   4.880
 6284SOL     OW19750   1.595   5.396   4.913
 6284SOL    HW119751   1.633   5.419   4.824
 6284SOL    HW219752   1.669   5.380   4.978
 6285SOL     OW19753   1.555   3.081   4.138
 6285SOL    HW119754   1.592   3.048   4.051
 6285SOL    HW219755   1.456   3.067   4.140
 6286SOL     OW19756   6.531   1.200   3.724
 6286SOL    HW119757   6.524   1.297   3.748
 6286SOL    HW219758   6.550   1.147   3.806
 6287SOL     OW19759   4.497   4.496   2.108
 6287SOL    HW119760   4.523   4.412   2.060
 6287SOL    HW219761   4.519   4.487   2.205
 6288SOL     OW19762   5.183   4.173   1.558
 6288SOL    HW119763   5.267   4.222   1.534
 6288SOL    HW219764   5.136   4.222   1.632
 6289SOL     OW19765   1.572   2.790   3.506
 6289SOL    HW119766   1.479   2.788   3.469
 6289SOL    HW219767   1.583   2.715   3.572
 6290SOL     OW19768   5.488   3.819   4.303
 6290SOL    HW119769   5.418   3.762   4.260
 6290SOL    HW219770   5.545   3.762   4.362
 6291SOL     OW19771   4.051   3.682   3.902
 6291SOL    HW119772   4.075   3.585   3.895
 6291SOL    HW219773   4.065   3.713   3.996
 6292SOL     OW19774   0.636   2.961   3.243
 6292SOL    HW119775   0.696   2.989   3.167
 6292SOL    HW219776   0.692   2.944   3.324
 6293SOL     OW19777   4.788   7.000   0.393
 6293SOL    HW119778   4.850   0.052   0.428
 6293SOL    HW219779   4.842   6.926   0.353
 6294SOL     OW19780   3.635   5.240   3.197
 6294SOL    HW119781   3.724   5.228   3.153
 6294SOL    HW219782   3.593   5.151   3.212
 6295SOL     OW19783   4.999   5.755   5.441
 6295SOL    HW119784   5.077   5.810   5.470
 6295SOL    HW219785   4.915   5.789   5.484
 6296SOL     OW19786   6.577   0.491   3.974
 6296SOL    HW119787   6.477   0.490   3.970
 6296SOL    HW219788   6.611   0.583   3.957
 6297SOL     OW19789   5.178   6.672   5.794
 6297SOL    HW119790   5.094   6.618   5.796
 6297SOL    HW219791   5.172   6.745   5.862
 6298SOL     OW19792   1.345   3.591   6.111
 6298SOL    HW119793   1.286   3.533   6.055
 6298SOL    HW219794   1.441   3.572   6.090
 6299SOL     OW19795   6.433   2.302   6.461
 6299SOL    HW119796   6.344   2.258   6.469
 6299SOL    HW219797   6.500   2.237   6.426
 6300SOL     OW19798   5.174   0.551   4.819
 6300SOL    HW119799   5.184   0.454   4.842
 6300SOL    HW219800   5.097   0.589   4.870
 6301SOL     OW19801   2.658   6.898   1.308
 6301SOL    HW119802   2.627   6.988   1.279
 6301SOL    HW219803   2.708   6.907   1.394
 6302SOL     OW19804   1.105   1.217   3.626
 6302SOL    HW119805   1.082   1.124   3.656
 6302SOL    HW219806   1.047   1.242   3.549
 6303SOL     OW19807   2.114   0.782   5.018
 6303SOL    HW119808   2.079   0.788   5.111
 6303SOL    HW219809   2.048   0.822   4.954
 6304SOL     OW19810   2.865   0.737   1.265
 6304SOL    HW119811   2.835   0.823   1.223
 6304SOL    HW219812   2.961   0.743   1.290
 6305SOL     OW19813   6.620   6.751   1.261
 6305SOL    HW119814   6.558   6.697   1.203
 6305SOL    HW219815   6.711   6.709   1.260
 6306SOL     OW19816   7.002   3.216   4.262
 6306SOL    HW119817   0.068   3.211   4.208
 6306SOL    HW219818   6.952   3.299   4.239
 6307SOL     OW19819   3.032   4.966   5.482
 6307SOL    HW119820   2.954   4.936   5.537
 6307SOL    HW219821   3.026   4.925   5.391
 6308SOL     OW19822   1.773   1.428   5.322
 6308SOL    HW119823   1.813   1.515   5.295
 6308SOL    HW219824   1.819   1.393   5.403
 6309SOL     OW19825   4.827   3.147   3.747
 6309SOL    HW119826   4.865   3.239   3.755
 6309SOL    HW219827   4.894   3.080   3.779
 6310SOL     OW19828   2.180   4.521   4.090
 6310SOL    HW119829   2.165   4.517   3.991
 6310SOL    HW219830   2.100   4.562   4.134
 6311SOL     OW19831   6.336   0.134   5.447
 6311SOL    HW119832   6.410   0.117   5.512
 6311SOL    HW219833   6.266   0.063   5.456
 6312SOL     OW19834   4.252   4.968   6.305
 6312SOL    HW119835   4.181   4.993   6.239
 6312SOL    HW219836   4.249   4.870   6.323
 6313SOL     OW19837   1.792   6.146   2.975
 6313SOL    HW119838   1.692   6.151   2.985
 6313SOL    HW219839   1.829   6.084   3.044
 6314SOL     OW19840   3.576   6.284   1.863
 6314SOL    HW119841   3.579   6.187   1.840
 6314SOL    HW219842   3.489   6.304   1.910
 6315SOL     OW19843   4.499   2.917   6.898
 6315SOL    HW119844   4.460   2.962   6.978
 6315SOL    HW219845   4.599   2.922   6.903
 6316SOL     OW19846   4.408   2.141   6.330
 6316SOL    HW119847   4.502   2.166   6.353
 6316SOL    HW219848   4.363   2.101   6.410
 6317SOL     OW19849   5.365   6.630   3.167
 6317SOL    HW119850   5.293   6.568   3.196
 6317SOL    HW219851   5.402   6.601   3.079
 6318SOL     OW19852   2.617   1.929   5.629
 6318SOL    HW119853   2.535   1.913   5.575
 6318SOL    HW219854   2.698   1.917   5.572
 6319SOL     OW19855   0.325   3.112   3.691
 6319SOL    HW119856   0.343   3.161   3.605
 6319SOL    HW219857   0.255   3.162   3.743
 6320SOL     OW19858   5.840   4.137   3.418
 6320SOL    HW119859   5.798   4.147   3.509
 6320SOL    HW219860   5.907   4.211   3.405
 6321SOL     OW19861   2.784   5.708   1.000
 6321SOL    HW119862   2.841   5.625   1.006
 6321SOL    HW219863   2.812   5.772   1.071
 6322SOL     OW19864   1.715   1.836   6.308
 6322SOL    HW119865   1.659   1.878   6.237
 6322SOL    HW219866   1.795   1.793   6.266
 6323SOL     OW19867   3.381   2.384   1.635
 6323SOL    HW119868   3.460   2.388   1.696
 6323SOL    HW219869   3.409   2.344   1.548
 6324SOL     OW19870   4.498   0.892   5.642
 6324SOL    HW119871   4.472   0.941   5.725
 6324SOL    HW219872   4.598   0.884   5.638
 6325SOL     OW19873   1.299   2.945   2.079
 6325SOL    HW119874   1.329   2.883   2.152
 6325SOL    HW219875   1.352   3.029   2.082
 6326SOL     OW19876   5.433   5.888   0.750
 6326SOL    HW119877   5.531   5.871   0.760
 6326SOL    HW219878   5.405   5.873   0.655
 6327SOL     OW19879   6.718   6.290   5.325
 6327SOL    HW119880   6.742   6.319   5.418
 6327SOL    HW219881   6.637   6.339   5.294
 6328SOL     OW19882   2.085   4.031   6.664
 6328SOL    HW119883   1.989   4.006   6.681
 6328SOL    HW219884   2.145   3.963   6.707
 6329SOL     OW19885   0.884   1.354   3.853
 6329SOL    HW119886   0.889   1.327   3.949
 6329SOL    HW219887   0.846   1.279   3.800
 6330SOL     OW19888   4.734   0.696   0.845
 6330SOL    HW119889   4.689   0.624   0.792
 6330SOL    HW219890   4.828   0.708   0.812
 6331SOL     OW19891   6.491   2.496   0.627
 6331SOL    HW119892   6.505   2.579   0.680
 6331SOL    HW219893   6.520   2.417   0.680
 6332SOL     OW19894   5.931   5.149   1.439
 6332SOL    HW119895   5.882   5.078   1.490
 6332SOL    HW219896   6.030   5.133   1.447
 6333SOL     OW19897   3.672   5.411   3.393
 6333SOL    HW119898   3.725   5.363   3.462
 6333SOL    HW219899   3.649   5.348   3.318
 6334SOL     OW19900   2.248   0.207   2.782
 6334SOL    HW119901   2.318   0.145   2.818
 6334SOL    HW219902   2.159   0.163   2.789
 6335SOL     OW19903   5.597   1.713   0.152
 6335SOL    HW119904   5.557   1.805   0.151
 6335SOL    HW219905   5.627   1.690   0.245
 6336SOL     OW19906   0.092   2.380   4.927
 6336SOL    HW119907   0.177   2.433   4.933
 6336SOL    HW219908   0.018   2.431   4.970
 6337SOL     OW19909   5.035   3.360   6.223
 6337SOL    HW119910   5.125   3.400   6.206
 6337SOL    HW219911   5.047   3.268   6.262
 6338SOL     OW19912   2.534   2.400   2.394
 6338SOL    HW119913   2.455   2.352   2.355
 6338SOL    HW219914   2.615   2.381   2.339
 6339SOL     OW19915   0.279   2.444   3.480
 6339SOL    HW119916   0.352   2.412   3.540
 6339SOL    HW219917   0.290   2.404   3.389
 6340SOL     OW19918   2.458   5.537   3.109
 6340SOL    HW119919   2.441   5.488   3.195
 6340SOL    HW219920   2.548   5.581   3.114
 6341SOL     OW19921   6.989   4.829   3.572
 6341SOL    HW119922   7.013   4.759   3.640
 6341SOL    HW219923   0.016   4.915   3.596
 6342SOL     OW19924   2.368   2.556   2.588
 6342SOL    HW119925   2.294   2.491   2.606
 6342SOL    HW219926   2.454   2.507   2.577
 6343SOL     OW19927   4.803   2.795   0.066
 6343SOL    HW119928   4.880   2.815   0.127
 6343SOL    HW219929   4.735   2.740   0.114
 6344SOL     OW19930   6.490   3.278   5.422
 6344SOL    HW119931   6.452   3.363   5.386
 6344SOL    HW219932   6.523   3.293   5.515
 6345SOL     OW19933   4.385   1.410   2.509
 6345SOL    HW119934   4.392   1.350   2.430
 6345SOL    HW219935   4.348   1.499   2.481
 6346SOL     OW19936   6.641   3.301   3.300
 6346SOL    HW119937   6.577   3.372   3.329
 6346SOL    HW219938   6.648   3.231   3.371
 6347SOL     OW19939   3.262   0.319   1.230
 6347SOL    HW119940   3.280   0.360   1.320
 6347SOL    HW219941   3.206   0.382   1.176
 6348SOL     OW19942   0.566   3.896   4.826
 6348SOL    HW119943   0.487   3.957   4.822
 6348SOL    HW219944   0.646   3.942   4.788
 6349SOL     OW19945   2.881   1.066   1.939
 6349SOL    HW119946   2.914   1.157   1.964
 6349SOL    HW219947   2.834   1.070   1.851
 6350SOL     OW19948   1.533   5.282   3.401
 6350SOL    HW119949   1.494   5.215   3.338
 6350SOL    HW219950   1.549   5.239   3.489
 6351SOL     OW19951   6.529   2.834   2.342
 6351SOL    HW119952   6.501   2.904   2.277
 6351SOL    HW219953   6.507   2.864   2.435
 6352SOL     OW19954   1.313   5.426   3.200
 6352SOL    HW119955   1.364   5.366   3.261
 6352SOL    HW219956   1.367   5.446   3.119
 6353SOL     OW19957   6.668   0.627   6.411
 6353SOL    HW119958   6.611   0.555   6.451
 6353SOL    HW219959   6.712   0.593   6.328
 6354SOL     OW19960   1.087   6.461   2.668
 6354SOL    HW119961   1.057   6.389   2.731
 6354SOL    HW219962   1.128   6.536   2.720
 6355SOL     OW19963   0.334   4.044   4.849
 6355SOL    HW119964   0.278   4.041   4.931
 6355SOL    HW219965   0.286   4.000   4.773
 6356SOL     OW19966   5.020   4.778   1.994
 6356SOL    HW119967   4.982   4.736   2.077
 6356SOL    HW219968   5.011   4.715   1.917
 6357SOL     OW19969   4.253   2.568   0.599
 6357SOL    HW119970   4.306   2.609   0.673
 6357SOL    HW219971   4.314   2.543   0.524
 6358SOL     OW19972   6.720   2.352   4.394
 6358SOL    HW119973   6.703   2.389   4.486
 6358SOL    HW219974   6.817   2.335   4.382
 6359SOL     OW19975   6.669   0.233   5.222
 6359SOL    HW119976   6.602   0.288   5.272
 6359SOL    HW219977   6.639   0.222   5.127
 6360SOL     OW19978   2.600   4.591   3.974
 6360SOL    HW119979   2.671   4.658   3.994
 6360SOL    HW219980   2.622   4.505   4.019
 6361SOL     OW19981   4.817   6.129   6.637
 6361SOL    HW119982   4.781   6.046   6.594
 6361SOL    HW219983   4.916   6.134   6.620
 6362SOL     OW19984   6.318   4.877   6.884
 6362SOL    HW119985   6.340   4.910   6.792
 6362SOL    HW219986   6.223   4.846   6.886
 6363SOL     OW19987   2.314   5.874   3.981
 6363SOL    HW119988   2.372   5.926   3.917
 6363SOL    HW219989   2.218   5.895   3.964
 6364SOL     OW19990   2.825   2.223   5.650
 6364SOL    HW119991   2.888   2.291   5.612
 6364SOL    HW219992   2.819   2.144   5.589
 6365SOL     OW19993   4.663   0.197   4.179
 6365SOL    HW119994   4.723   0.235   4.108
 6365SOL    HW219995   4.658   0.261   4.255
 6366SOL     OW19996   0.888   5.540   5.140
 6366SOL    HW119997   0.959   5.507   5.203
 6366SOL    HW219998   0.834   5.462   5.107
 6367SOL     OW19999   5.236   0.665   3.718
 6367SOL    HW120000   5.196   0.707   3.636
 6367SOL    HW220001   5.298   0.731   3.762
 6368SOL     OW20002   3.281   0.036   4.267
 6368SOL    HW120003   3.345   7.013   4.331
 6368SOL    HW220004   3.247   0.122   4.306
 6369SOL     OW20005   2.863   5.270   4.174
 6369SOL    HW120006   2.909   5.311   4.253
 6369SOL    HW220007   2.881   5.171   4.174
 6370SOL     OW20008   0.814   2.428   1.977
 6370SOL    HW120009   0.817   2.490   2.056
 6370SOL    HW220010   0.721   2.396   1.963
 6371SOL     OW20011   4.911   2.746   3.176
 6371SOL    HW120012   4.901   2.822   3.241
 6371SOL    HW220013   4.840   2.752   3.106
 6372SOL     OW20014   3.157   6.402   1.585
 6372SOL    HW120015   3.087   6.366   1.523
 6372SOL    HW220016   3.116   6.467   1.649
 6373SOL     OW20017   6.151   4.289   5.033
 6373SOL    HW120018   6.070   4.238   5.063
 6373SOL    HW220019   6.213   4.301   5.110
 6374SOL     OW20020   3.422   3.392   3.447
 6374SOL    HW120021   3.418   3.333   3.366
 6374SOL    HW220022   3.463   3.480   3.422
 6375SOL     OW20023   0.934   1.091   3.080
 6375SOL    HW120024   1.025   1.115   3.113
 6375SOL    HW220025   0.880   1.175   3.069
 6376SOL     OW20026   0.285   1.567   5.318
 6376SOL    HW120027   0.265   1.476   5.282
 6376SOL    HW220028   0.264   1.636   5.249
 6377SOL     OW20029   6.637   0.645   5.638
 6377SOL    HW120030   6.583   0.712   5.689
 6377SOL    HW220031   6.615   0.651   5.541
 6378SOL     OW20032   4.770   4.532   3.421
 6378SOL    HW120033   4.725   4.498   3.504
 6378SOL    HW220034   4.750   4.471   3.344
 6379SOL     OW20035   1.831   4.979   4.452
 6379SOL    HW120036   1.816   4.960   4.549
 6379SOL    HW220037   1.929   4.970   4.431
 6380SOL     OW20038   1.006   1.207   5.336
 6380SOL    HW120039   0.925   1.201   5.395
 6380SOL    HW220040   1.060   1.287   5.363
 6381SOL     OW20041   3.037   3.560   2.423
 6381SOL    HW120042   3.031   3.474   2.374
 6381SOL    HW220043   3.038   3.636   2.358
 6382SOL     OW20044   1.399   2.720   6.434
 6382SOL    HW120045   1.437   2.741   6.345
 6382SOL    HW220046   1.305   2.754   6.440
 6383SOL     OW20047   2.110   2.270   3.855
 6383SOL    HW120048   2.151   2.286   3.765
 6383SOL    HW220049   2.115   2.354   3.909
 6384SOL     OW20050   6.106   5.016   1.888
 6384SOL    HW120051   6.186   5.022   1.947
 6384SOL    HW220052   6.091   5.103   1.842
 6385SOL     OW20053   6.171   4.865   3.997
 6385SOL    HW120054   6.217   4.839   4.082
 6385SOL    HW220055   6.097   4.802   3.978
 6386SOL     OW20056   2.710   5.055   0.973
 6386SOL    HW120057   2.673   5.051   1.066
 6386SOL    HW220058   2.670   4.982   0.918
 6387SOL     OW20059   0.611   2.157   6.073
 6387SOL    HW120060   0.689   2.204   6.033
 6387SOL    HW220061   0.530   2.170   6.015
 6388SOL     OW20062   3.743   4.730   1.185
 6388SOL    HW120063   3.837   4.699   1.201
 6388SOL    HW220064   3.687   4.705   1.264
 6389SOL     OW20065   0.712   6.148   2.682
 6389SOL    HW120066   0.785   6.165   2.615
 6389SOL    HW220067   0.732   6.064   2.732
 6390SOL     OW20068   0.050   2.500   3.235
 6390SOL    HW120069   0.099   2.536   3.156
 6390SOL    HW220070   0.020   2.575   3.294
 6391SOL     OW20071   3.363   1.052   0.258
 6391SOL    HW120072   3.284   1.101   0.294
 6391SOL    HW220073   3.347   1.030   0.161
 6392SOL     OW20074   2.178   6.352   4.040
 6392SOL    HW120075   2.098   6.301   4.071
 6392SOL    HW220076   2.212   6.312   3.955
 6393SOL     OW20077   5.775   6.828   1.774
 6393SOL    HW120078   5.705   6.878   1.825
 6393SOL    HW220079   5.732   6.773   1.703
 6394SOL     OW20080   2.578   5.097   1.218
 6394SOL    HW120081   2.568   5.195   1.198
 6394SOL    HW220082   2.584   5.085   1.317
 6395SOL     OW20083   6.061   1.621   1.337
 6395SOL    HW120084   6.071   1.708   1.288
 6395SOL    HW220085   6.063   1.545   1.272
 6396SOL     OW20086   5.379   2.876   6.245
 6396SOL    HW120087   5.400   2.972   6.264
 6396SOL    HW220088   5.282   2.859   6.263
 6397SOL     OW20089   6.844   1.897   6.870
 6397SOL    HW120090   6.819   1.992   6.888
 6397SOL    HW220091   6.928   1.874   6.919
 6398SOL     OW20092   3.277   1.016   1.851
 6398SOL    HW120093   3.231   1.097   1.815
 6398SOL    HW220094   3.359   1.044   1.902
 6399SOL     OW20095   1.645   5.479   6.669
 6399SOL    HW120096   1.548   5.477   6.646
 6399SOL    HW220097   1.699   5.477   6.585
 6400SOL     OW20098   2.309   5.765   3.116
 6400SOL    HW120099   2.341   5.711   3.038
 6400SOL    HW220100   2.326   5.715   3.201
 6401SOL     OW20101   0.197   4.533   3.651
 6401SOL    HW120102   0.107   4.497   3.628
 6401SOL    HW220103   0.189   4.603   3.722
 6402SOL     OW20104   2.513   0.766   2.634
 6402SOL    HW120105   2.487   0.852   2.590
 6402SOL    HW220106   2.539   0.700   2.564
 6403SOL     OW20107   0.677   5.624   6.834
 6403SOL    HW120108   0.627   5.632   6.920
 6403SOL    HW220109   0.772   5.597   6.854
 6404SOL     OW20110   4.169   1.779   3.315
 6404SOL    HW120111   4.220   1.861   3.342
 6404SOL    HW220112   4.200   1.702   3.371
 6405SOL     OW20113   1.957   2.031   2.838
 6405SOL    HW120114   1.864   2.058   2.859
 6405SOL    HW220115   1.991   2.084   2.761
 6406SOL     OW20116   1.460   1.389   3.322
 6406SOL    HW120117   1.504   1.357   3.237
 6406SOL    HW220118   1.524   1.448   3.371
 6407SOL     OW20119   3.169   6.810   4.276
 6407SOL    HW120120   3.196   6.728   4.226
 6407SOL    HW220121   3.209   6.890   4.233
 6408SOL     OW20122   5.969   2.382   6.909
 6408SOL    HW120123   5.904   2.312   6.878
 6408SOL    HW220124   6.062   2.349   6.896
 6409SOL     OW20125   6.329   4.164   2.893
 6409SOL    HW120126   6.358   4.069   2.882
 6409SOL    HW220127   6.229   4.169   2.882
 6410SOL     OW20128   2.335   1.604   0.854
 6410SOL    HW120129   2.411   1.561   0.902
 6410SOL    HW220130   2.270   1.535   0.824
 6411SOL     OW20131   0.946   2.242   3.297
 6411SOL    HW120132   0.888   2.160   3.291
 6411SOL    HW220133   0.957   2.268   3.393
 6412SOL     OW20134   6.645   3.319   5.659
 6412SOL    HW120135   6.680   3.403   5.619
 6412SOL    HW220136   6.673   3.313   5.754
 6413SOL     OW20137   5.852   4.885   1.974
 6413SOL    HW120138   5.941   4.914   1.938
 6413SOL    HW220139   5.844   4.786   1.968
 6414SOL     OW20140   5.720   0.955   1.874
 6414SOL    HW120141   5.739   1.011   1.954
 6414SOL    HW220142   5.755   0.862   1.890
 6415SOL     OW20143   2.797   2.282   2.886
 6415SOL    HW120144   2.778   2.315   2.793
 6415SOL    HW220145   2.888   2.241   2.888
 6416SOL     OW20146   0.979   0.621   6.443
 6416SOL    HW120147   0.879   0.618   6.441
 6416SOL    HW220148   1.008   0.710   6.479
 6417SOL     OW20149   0.646   6.060   3.304
 6417SOL    HW120150   0.644   6.141   3.246
 6417SOL    HW220151   0.668   6.086   3.398
 6418SOL     OW20152   6.544   5.115   2.511
 6418SOL    HW120153   6.471   5.167   2.465
 6418SOL    HW220154   6.607   5.079   2.442
 6419SOL     OW20155   3.010   5.494   1.784
 6419SOL    HW120156   3.037   5.433   1.859
 6419SOL    HW220157   3.039   5.455   1.697
 6420SOL     OW20158   3.147   3.323   6.074
 6420SOL    HW120159   3.221   3.256   6.069
 6420SOL    HW220160   3.120   3.350   5.982
 6421SOL     OW20161   6.381   1.425   1.240
 6421SOL    HW120162   6.419   1.416   1.332
 6421SOL    HW220163   6.285   1.395   1.241
 6422SOL     OW20164   6.824   0.392   3.521
 6422SOL    HW120165   6.832   0.481   3.477
 6422SOL    HW220166   6.758   0.398   3.596
 6423SOL     OW20167   5.066   3.745   1.453
 6423SOL    HW120168   5.120   3.825   1.427
 6423SOL    HW220169   4.984   3.774   1.503
 6424SOL     OW20170   6.707   4.158   5.979
 6424SOL    HW120171   6.612   4.141   6.004
 6424SOL    HW220172   6.716   4.158   5.879
 6425SOL     OW20173   6.855   4.484   3.075
 6425SOL    HW120174   6.775   4.532   3.038
 6425SOL    HW220175   6.923   4.550   3.106
 6426SOL     OW20176   1.265   3.002   4.219
 6426SOL    HW120177   1.212   3.067   4.274
 6426SOL    HW220178   1.214   2.916   4.210
 6427SOL     OW20179   1.450   3.702   6.721
 6427SOL    HW120180   1.520   3.632   6.711
 6427SOL    HW220181   1.427   3.712   6.818
 6428SOL     OW20182   6.595   3.667   1.502
 6428SOL    HW120183   6.684   3.653   1.545
 6428SOL    HW220184   6.582   3.765   1.485
 6429SOL     OW20185   1.581   0.700   4.735
 6429SOL    HW120186   1.595   0.607   4.702
 6429SOL    HW220187   1.516   0.700   4.811
 6430SOL     OW20188   4.698   0.803   2.089
 6430SOL    HW120189   4.696   0.863   2.168
 6430SOL    HW220190   4.623   0.827   2.027
 6431SOL     OW20191   5.589   0.016   3.674
 6431SOL    HW120192   5.522   0.089   3.666
 6431SOL    HW220193   5.547   6.954   3.715
 6432SOL     OW20194   4.366   4.149   0.156
 6432SOL    HW120195   4.323   4.235   0.128
 6432SOL    HW220196   4.383   4.092   0.075
 6433SOL     OW20197   2.985   4.820   1.191
 6433SOL    HW120198   2.964   4.871   1.107
 6433SOL    HW220199   3.026   4.732   1.167
 6434SOL     OW20200   1.528   3.732   0.986
 6434SOL    HW120201   1.559   3.779   0.903
 6434SOL    HW220202   1.524   3.797   1.062
 6435SOL     OW20203   3.405   5.228   0.357
 6435SOL    HW120204   3.440   5.322   0.351
 6435SOL    HW220205   3.306   5.229   0.344
 6436SOL     OW20206   1.813   2.967   3.641
 6436SOL    HW120207   1.885   2.899   3.624
 6436SOL    HW220208   1.723   2.925   3.629
 6437SOL     OW20209   1.658   1.577   0.274
 6437SOL    HW120210   1.580   1.591   0.335
 6437SOL    HW220211   1.641   1.498   0.215
 6438SOL     OW20212   0.476   4.151   5.191
 6438SOL    HW120213   0.417   4.116   5.264
 6438SOL    HW220214   0.514   4.075   5.139
 6439SOL     OW20215   0.860   6.630   0.716
 6439SOL    HW120216   0.816   6.681   0.642
 6439SOL    HW220217   0.868   6.533   0.691
 6440SOL     OW20218   2.365   2.162   1.825
 6440SOL    HW120219   2.334   2.159   1.730
 6440SOL    HW220220   2.306   2.104   1.881
 6441SOL     OW20221   1.444   0.513   2.513
 6441SOL    HW120222   1.533   0.483   2.477
 6441SOL    HW220223   1.381   0.436   2.512
 6442SOL     OW20224   2.493   1.667   4.243
 6442SOL    HW120225   2.461   1.574   4.256
 6442SOL    HW220226   2.482   1.718   4.328
 6443SOL     OW20227   3.104   2.921   0.550
 6443SOL    HW120228   3.067   2.924   0.643
 6443SOL    HW220229   3.185   2.980   0.545
 6444SOL     OW20230   0.385   2.296   3.286
 6444SOL    HW120231   0.341   2.323   3.200
 6444SOL    HW220232   0.399   2.197   3.285
 6445SOL     OW20233   4.326   2.505   5.395
 6445SOL    HW120234   4.255   2.545   5.338
 6445SOL    HW220235   4.283   2.451   5.468
 6446SOL     OW20236   0.270   1.159   5.996
 6446SOL    HW120237   0.253   1.096   6.072
 6446SOL    HW220238   0.222   1.245   6.012
 6447SOL     OW20239   0.950   5.850   2.516
 6447SOL    HW120240   1.007   5.800   2.581
 6447SOL    HW220241   1.005   5.881   2.439
 6448SOL     OW20242   6.148   4.008   2.440
 6448SOL    HW120243   6.088   4.025   2.518
 6448SOL    HW220244   6.203   4.090   2.422
 6449SOL     OW20245   3.765   4.169   1.649
 6449SOL    HW120246   3.778   4.261   1.686
 6449SOL    HW220247   3.717   4.175   1.561
 6450SOL     OW20248   6.443   2.924   1.658
 6450SOL    HW120249   6.410   2.993   1.723
 6450SOL    HW220250   6.422   2.833   1.692
 6451SOL     OW20251   3.399   6.242   5.365
 6451SOL    HW120252   3.495   6.213   5.367
 6451SOL    HW220253   3.343   6.175   5.414
 6452SOL     OW20254   3.625   0.085   4.769
 6452SOL    HW120255   3.627   0.086   4.869
 6452SOL    HW220256   3.663   0.171   4.734
 6453SOL     OW20257   1.095   6.679   0.042
 6453SOL    HW120258   1.075   6.599   0.099
 6453SOL    HW220259   1.186   6.670   0.003
 6454SOL     OW20260   2.633   1.407   4.095
 6454SOL    HW120261   2.680   1.495   4.085
 6454SOL    HW220262   2.539   1.423   4.124
 6455SOL     OW20263   0.799   2.644   4.636
 6455SOL    HW120264   0.840   2.558   4.607
 6455SOL    HW220265   0.852   2.683   4.711
 6456SOL     OW20266   1.716   0.131   3.359
 6456SOL    HW120267   1.739   0.035   3.346
 6456SOL    HW220268   1.799   0.187   3.349
 6457SOL     OW20269   5.758   1.657   1.575
 6457SOL    HW120270   5.853   1.683   1.557
 6457SOL    HW220271   5.715   1.628   1.490
 6458SOL     OW20272   0.982   6.225   2.868
 6458SOL    HW120273   0.953   6.137   2.830
 6458SOL    HW220274   0.996   6.216   2.967
 6459SOL     OW20275   5.700   5.681   0.340
 6459SOL    HW120276   5.717   5.772   0.377
 6459SOL    HW220277   5.667   5.621   0.413
 6460SOL     OW20278   4.522   4.718   0.052
 6460SOL    HW120279   4.426   4.724   0.081
 6460SOL    HW220280   4.558   4.628   0.075
 6461SOL     OW20281   2.951   5.706   5.296
 6461SOL    HW120282   2.928   5.779   5.231
 6461SOL    HW220283   2.886   5.707   5.372
 6462SOL     OW20284   2.055   3.343   5.225
 6462SOL    HW120285   2.072   3.376   5.132
 6462SOL    HW220286   2.137   3.357   5.280
 6463SOL     OW20287   2.826   4.868   6.305
 6463SOL    HW120288   2.862   4.921   6.227
 6463SOL    HW220289   2.776   4.929   6.366
 6464SOL     OW20290   0.663   4.702   3.763
 6464SOL    HW120291   0.641   4.743   3.675
 6464SOL    HW220292   0.583   4.652   3.797
 6465SOL     OW20293   5.982   2.124   3.760
 6465SOL    HW120294   5.992   2.093   3.855
 6465SOL    HW220295   6.072   2.133   3.718
 6466SOL     OW20296   6.456   2.541   4.862
 6466SOL    HW120297   6.356   2.544   4.863
 6466SOL    HW220298   6.487   2.487   4.784
 6467SOL     OW20299   2.359   1.390   6.297
 6467SOL    HW120300   2.342   1.475   6.346
 6467SOL    HW220301   2.282   1.371   6.235
 6468SOL     OW20302   4.064   6.145   1.589
 6468SOL    HW120303   4.062   6.055   1.633
 6468SOL    HW220304   4.156   6.184   1.597
 6469SOL     OW20305   6.113   1.174   5.431
 6469SOL    HW120306   6.178   1.200   5.503
 6469SOL    HW220307   6.088   1.255   5.378
 6470SOL     OW20308   6.641   5.640   6.353
 6470SOL    HW120309   6.688   5.603   6.272
 6470SOL    HW220310   6.667   5.586   6.433
 6471SOL     OW20311   6.958   5.342   6.346
 6471SOL    HW120312   6.899   5.377   6.419
 6471SOL    HW220313   0.026   5.310   6.386
 6472SOL     OW20314   0.646   5.868   1.436
 6472SOL    HW120315   0.651   5.915   1.347
 6472SOL    HW220316   0.739   5.851   1.469
 6473SOL     OW20317   2.124   1.275   5.913
 6473SOL    HW120318   2.219   1.247   5.906
 6473SOL    HW220319   2.073   1.242   5.834
 6474SOL     OW20320   1.594   3.881   5.858
 6474SOL    HW120321   1.575   3.902   5.954
 6474SOL    HW220322   1.530   3.931   5.799
 6475SOL     OW20323   5.971   6.005   4.199
 6475SOL    HW120324   5.977   5.955   4.113
 6475SOL    HW220325   5.907   6.081   4.190
 6476SOL     OW20326   4.881   4.459   2.282
 6476SOL    HW120327   4.812   4.392   2.256
 6476SOL    HW220328   4.889   4.462   2.382
 6477SOL     OW20329   6.503   5.173   6.823
 6477SOL    HW120330   6.499   5.083   6.865
 6477SOL    HW220331   6.554   5.236   6.882
 6478SOL     OW20332   3.517   6.015   2.254
 6478SOL    HW120333   3.442   6.070   2.288
 6478SOL    HW220334   3.539   5.943   2.320
 6479SOL     OW20335   4.452   4.856   2.001
 6479SOL    HW120336   4.547   4.831   1.983
 6479SOL    HW220337   4.400   4.774   2.023
 6480SOL     OW20338   3.960   3.032   5.997
 6480SOL    HW120339   4.047   3.027   6.046
 6480SOL    HW220340   3.943   3.127   5.970
 6481SOL     OW20341   3.371   2.087   1.401
 6481SOL    HW120342   3.434   2.158   1.372
 6481SOL    HW220343   3.390   2.060   1.495
 6482SOL     OW20344   6.816   0.885   0.205
 6482SOL    HW120345   6.875   0.815   0.244
 6482SOL    HW220346   6.800   0.866   0.108
 6483SOL     OW20347   2.401   6.378   2.264
 6483SOL    HW120348   2.317   6.324   2.258
 6483SOL    HW220349   2.450   6.355   2.348
 6484SOL     OW20350   4.629   0.277   2.588
 6484SOL    HW120351   4.658   0.199   2.643
 6484SOL    HW220352   4.553   0.250   2.529
 6485SOL     OW20353   1.316   2.981   3.505
 6485SOL    HW120354   1.237   2.920   3.499
 6485SOL    HW220355   1.341   2.994   3.601
 6486SOL     OW20356   1.083   4.145   4.100
 6486SOL    HW120357   0.998   4.196   4.087
 6486SOL    HW220358   1.086   4.108   4.193
 6487SOL     OW20359   6.535   5.438   4.204
 6487SOL    HW120360   6.559   5.535   4.208
 6487SOL    HW220361   6.436   5.429   4.188
 6488SOL     OW20362   3.347   6.024   5.641
 6488SOL    HW120363   3.350   6.064   5.733
 6488SOL    HW220364   3.261   6.049   5.597
 6489SOL     OW20365   1.908   2.943   6.748
 6489SOL    HW120366   1.905   3.042   6.760
 6489SOL    HW220367   1.972   2.903   6.814
 6490SOL     OW20368   3.954   2.365   0.345
 6490SOL    HW120369   3.977   2.420   0.426
 6490SOL    HW220370   3.985   2.271   0.359
 6491SOL     OW20371   4.264   1.376   6.765
 6491SOL    HW120372   4.304   1.297   6.718
 6491SOL    HW220373   4.262   1.359   6.863
 6492SOL     OW20374   6.080   6.886   6.916
 6492SOL    HW120375   6.115   6.978   6.898
 6492SOL    HW220376   6.074   6.835   6.830
 6493SOL     OW20377   1.891   6.419   5.319
 6493SOL    HW120378   1.813   6.401   5.379
 6493SOL    HW220379   1.976   6.410   5.371
 6494SOL     OW20380   0.476   0.258   3.525
 6494SOL    HW120381   0.560   0.291   3.567
 6494SOL    HW220382   0.492   0.169   3.482
 6495SOL     OW20383   5.129   5.676   3.542
 6495SOL    HW120384   5.056   5.742   3.562
 6495SOL    HW220385   5.102   5.586   3.574
 6496SOL     OW20386   6.741   6.681   2.056
 6496SOL    HW120387   6.696   6.665   1.968
 6496SOL    HW220388   6.808   6.609   2.072
 6497SOL     OW20389   2.486   3.534   1.149
 6497SOL    HW120390   2.543   3.467   1.197
 6497SOL    HW220391   2.392   3.499   1.142
 6498SOL     OW20392   2.405   4.932   3.986
 6498SOL    HW120393   2.405   4.861   4.056
 6498SOL    HW220394   2.496   4.938   3.944
 6499SOL     OW20395   5.200   0.762   5.348
 6499SOL    HW120396   5.208   0.749   5.249
 6499SOL    HW220397   5.287   0.739   5.391
 6500SOL     OW20398   6.545   3.933   3.223
 6500SOL    HW120399   6.523   3.866   3.294
 6500SOL    HW220400   6.544   4.025   3.264
 6501SOL     OW20401   6.730   3.406   1.002
 6501SOL    HW120402   6.813   3.425   0.951
 6501SOL    HW220403   6.657   3.468   0.972
 6502SOL     OW20404   0.418   4.252   3.687
 6502SOL    HW120405   0.389   4.244   3.782
 6502SOL    HW220406   0.342   4.286   3.632
 6503SOL     OW20407   5.710   6.573   3.671
 6503SOL    HW120408   5.641   6.638   3.637
 6503SOL    HW220409   5.800   6.617   3.672
 6504SOL     OW20410   4.109   6.924   6.482
 6504SOL    HW120411   4.162   6.978   6.417
 6504SOL    HW220412   4.057   6.854   6.433
 6505SOL     OW20413   6.166   4.564   1.016
 6505SOL    HW120414   6.262   4.592   1.013
 6505SOL    HW220415   6.144   4.513   0.933
 6506SOL     OW20416   1.031   3.313   1.091
 6506SOL    HW120417   1.092   3.354   1.023
 6506SOL    HW220418   1.055   3.217   1.104
 6507SOL     OW20419   1.372   5.728   0.806
 6507SOL    HW120420   1.444   5.659   0.814
 6507SOL    HW220421   1.285   5.690   0.837
 6508SOL     OW20422   1.962   2.040   3.816
 6508SOL    HW120423   1.916   2.027   3.728
 6508SOL    HW220424   2.004   2.131   3.818
 6509SOL     OW20425   1.329   2.292   5.120
 6509SOL    HW120426   1.311   2.240   5.037
 6509SOL    HW220427   1.406   2.251   5.169
 6510SOL     OW20428   0.096   5.244   6.142
 6510SOL    HW120429   0.027   5.298   6.191
 6510SOL    HW220430   0.054   5.161   6.105
 6511SOL     OW20431   6.088   0.487   5.396
 6511SOL    HW120432   6.124   0.574   5.363
 6511SOL    HW220433   6.087   0.488   5.496
 6512SOL     OW20434   4.643   6.828   2.817
 6512SOL    HW120435   4.545   6.821   2.838
 6512SOL    HW220436   4.658   6.813   2.720
 6513SOL     OW20437   3.372   6.468   4.367
 6513SOL    HW120438   3.426   6.387   4.345
 6513SOL    HW220439   3.344   6.514   4.283
 6514SOL     OW20440   5.027   0.102   4.098
 6514SOL    HW120441   4.933   0.135   4.085
 6514SOL    HW220442   5.084   0.132   4.022
 6515SOL     OW20443   6.694   5.476   3.952
 6515SOL    HW120444   6.726   5.401   3.895
 6515SOL    HW220445   6.644   5.440   4.031
 6516SOL     OW20446   0.685   1.520   6.885
 6516SOL    HW120447   0.617   1.550   6.819
 6516SOL    HW220448   0.712   1.597   6.944
 6517SOL     OW20449   7.012   1.630   0.640
 6517SOL    HW120450   6.968   1.573   0.572
 6517SOL    HW220451   0.035   1.710   0.596
 6518SOL     OW20452   0.900   6.254   0.214
 6518SOL    HW120453   0.864   6.278   0.305
 6518SOL    HW220454   0.847   6.302   0.144
 6519SOL     OW20455   2.534   1.865   4.034
 6519SOL    HW120456   2.506   1.802   4.106
 6519SOL    HW220457   2.466   1.864   3.961
 6520SOL     OW20458   6.462   5.666   2.772
 6520SOL    HW120459   6.474   5.749   2.718
 6520SOL    HW220460   6.468   5.586   2.712
 6521SOL     OW20461   1.280   1.041   4.309
 6521SOL    HW120462   1.339   1.066   4.233
 6521SOL    HW220463   1.336   1.025   4.391
 6522SOL     OW20464   2.354   5.254   6.681
 6522SOL    HW120465   2.449   5.221   6.679
 6522SOL    HW220466   2.332   5.298   6.595
 6523SOL     OW20467   2.847   1.266   6.127
 6523SOL    HW120468   2.750   1.289   6.139
 6523SOL    HW220469   2.903   1.347   6.142
 6524SOL     OW20470   3.704   3.825   3.636
 6524SOL    HW120471   3.759   3.889   3.582
 6524SOL    HW220472   3.756   3.742   3.654
 6525SOL     OW20473   1.103   2.532   2.702
 6525SOL    HW120474   1.185   2.485   2.733
 6525SOL    HW220475   1.028   2.467   2.692
 6526SOL     OW20476   1.342   6.659   5.042
 6526SOL    HW120477   1.335   6.581   5.104
 6526SOL    HW220478   1.282   6.645   4.964
 6527SOL     OW20479   1.306   0.990   5.047
 6527SOL    HW120480   1.251   0.997   5.130
 6527SOL    HW220481   1.282   1.063   4.984
 6528SOL     OW20482   0.110   0.603   4.163
 6528SOL    HW120483   0.116   0.618   4.262
 6528SOL    HW220484   0.129   0.689   4.115
 6529SOL     OW20485   5.715   2.070   3.068
 6529SOL    HW120486   5.650   1.999   3.041
 6529SOL    HW220487   5.745   2.120   2.987
 6530SOL     OW20488   6.181   2.761   0.673
 6530SOL    HW120489   6.118   2.698   0.718
 6530SOL    HW220490   6.215   2.827   0.740
 6531SOL     OW20491   5.643   2.452   3.823
 6531SOL    HW120492   5.613   2.448   3.918
 6531SOL    HW220493   5.637   2.547   3.790
 6532SOL     OW20494   6.540   1.869   6.954
 6532SOL    HW120495   6.516   1.800   6.886
 6532SOL    HW220496   6.536   1.960   6.912
 6533SOL     OW20497   6.040   6.423   1.118
 6533SOL    HW120498   6.018   6.501   1.177
 6533SOL    HW220499   5.963   6.402   1.058
 6534SOL     OW20500   2.554   3.794   1.265
 6534SOL    HW120501   2.460   3.821   1.245
 6534SOL    HW220502   2.568   3.698   1.238
 6535SOL     OW20503   0.238   3.043   5.439
 6535SOL    HW120504   0.172   3.099   5.489
 6535SOL    HW220505   0.214   3.042   5.341
 6536SOL     OW20506   6.200   2.196   6.509
 6536SOL    HW120507   6.228   2.106   6.545
 6536SOL    HW220508   6.101   2.200   6.504
 6537SOL     OW20509   6.487   6.536   6.883
 6537SOL    HW120510   6.519   6.451   6.841
 6537SOL    HW220511   6.543   6.612   6.853
 6538SOL     OW20512   3.737   3.691   0.168
 6538SOL    HW120513   3.664   3.699   0.100
 6538SOL    HW220514   3.757   3.595   0.184
 6539SOL     OW20515   2.499   2.049   6.758
 6539SOL    HW120516   2.504   1.949   6.761
 6539SOL    HW220517   2.448   2.078   6.677
 6540SOL     OW20518   3.648   1.824   4.437
 6540SOL    HW120519   3.640   1.922   4.419
 6540SOL    HW220520   3.717   1.785   4.375
 6541SOL     OW20521   3.067   2.263   5.345
 6541SOL    HW120522   2.970   2.245   5.326
 6541SOL    HW220523   3.120   2.255   5.260
 6542SOL     OW20524   6.258   5.049   3.321
 6542SOL    HW120525   6.211   4.962   3.337
 6542SOL    HW220526   6.353   5.041   3.352
 6543SOL     OW20527   6.337   5.450   6.927
 6543SOL    HW120528   6.437   5.454   6.924
 6543SOL    HW220529   6.309   5.377   6.989
 6544SOL     OW20530   6.825   6.212   4.293
 6544SOL    HW120531   6.838   6.289   4.231
 6544SOL    HW220532   6.742   6.227   4.348
 6545SOL     OW20533   5.379   1.123   6.020
 6545SOL    HW120534   5.353   1.038   6.066
 6545SOL    HW220535   5.307   1.148   5.955
 6546SOL     OW20536   4.168   4.375   6.069
 6546SOL    HW120537   4.071   4.382   6.046
 6546SOL    HW220538   4.182   4.298   6.131
 6547SOL     OW20539   4.414   1.970   6.082
 6547SOL    HW120540   4.377   2.025   6.157
 6547SOL    HW220541   4.406   2.022   5.997
 6548SOL     OW20542   0.425   4.601   5.848
 6548SOL    HW120543   0.356   4.674   5.840
 6548SOL    HW220544   0.381   4.512   5.835
 6549SOL     OW20545   4.219   1.890   1.216
 6549SOL    HW120546   4.143   1.872   1.278
 6549SOL    HW220547   4.269   1.971   1.248
 6550SOL     OW20548   0.589   5.620   3.499
 6550SOL    HW120549   0.634   5.576   3.421
 6550SOL    HW220550   0.490   5.606   3.491
 6551SOL     OW20551   2.430   4.293   1.629
 6551SOL    HW120552   2.492   4.311   1.706
 6551SOL    HW220553   2.477   4.234   1.562
 6552SOL     OW20554   2.543   5.539   5.542
 6552SOL    HW120555   2.452   5.571   5.571
 6552SOL    HW220556   2.583   5.483   5.615
 6553SOL     OW20557   0.518   3.030   1.422
 6553SOL    HW120558   0.596   3.085   1.393
 6553SOL    HW220559   0.544   2.933   1.424
 6554SOL     OW20560   6.040   1.582   6.014
 6554SOL    HW120561   5.968   1.631   6.063
 6554SOL    HW220562   6.008   1.490   5.991
 6555SOL     OW20563   1.751   0.589   2.234
 6555SOL    HW120564   1.770   0.511   2.293
 6555SOL    HW220565   1.668   0.635   2.264
 6556SOL     OW20566   4.528   4.778   5.119
 6556SOL    HW120567   4.463   4.790   5.045
 6556SOL    HW220568   4.618   4.812   5.091
 6557SOL     OW20569   6.065   5.798   0.465
 6557SOL    HW120570   5.975   5.840   0.465
 6557SOL    HW220571   6.112   5.819   0.380
 6558SOL     OW20572   6.463   5.920   0.906
 6558SOL    HW120573   6.364   5.917   0.918
 6558SOL    HW220574   6.506   5.856   0.970
 6559SOL     OW20575   4.755   3.534   0.851
 6559SOL    HW120576   4.816   3.579   0.787
 6559SOL    HW220577   4.713   3.603   0.911
 6560SOL     OW20578   3.760   3.051   1.087
 6560SOL    HW120579   3.751   2.953   1.070
 6560SOL    HW220580   3.786   3.066   1.182
 6561SOL     OW20581   4.158   3.642   2.381
 6561SOL    HW120582   4.254   3.643   2.409
 6561SOL    HW220583   4.112   3.722   2.417
 6562SOL     OW20584   6.810   4.601   6.146
 6562SOL    HW120585   6.865   4.586   6.229
 6562SOL    HW220586   6.718   4.567   6.160
 6563SOL     OW20587   0.275   6.051   0.183
 6563SOL    HW120588   0.258   6.128   0.123
 6563SOL    HW220589   0.368   6.017   0.169
 6564SOL     OW20590   1.077   3.454   2.368
 6564SOL    HW120591   1.080   3.521   2.294
 6564SOL    HW220592   0.982   3.430   2.388
 6565SOL     OW20593   5.173   2.150   4.928
 6565SOL    HW120594   5.148   2.116   5.018
 6565SOL    HW220595   5.164   2.249   4.926
 6566SOL     OW20596   3.583   0.374   1.308
 6566SOL    HW120597   3.618   0.299   1.253
 6566SOL    HW220598   3.549   0.447   1.248
 6567SOL     OW20599   4.940   2.825   1.433
 6567SOL    HW120600   4.843   2.809   1.449
 6567SOL    HW220601   4.982   2.742   1.397
 6568SOL     OW20602   4.692   4.605   1.663
 6568SOL    HW120603   4.706   4.533   1.731
 6568SOL    HW220604   4.611   4.584   1.609
 6569SOL     OW20605   2.631   5.400   0.867
 6569SOL    HW120606   2.615   5.499   0.863
 6569SOL    HW220607   2.628   5.369   0.962
 6570SOL     OW20608   5.136   0.331   2.192
 6570SOL    HW120609   5.132   0.232   2.205
 6570SOL    HW220610   5.134   0.377   2.281
 6571SOL     OW20611   2.566   6.079   3.197
 6571SOL    HW120612   2.566   6.167   3.244
 6571SOL    HW220613   2.475   6.061   3.159
 6572SOL     OW20614   5.958   4.271   5.369
 6572SOL    HW120615   5.981   4.178   5.340
 6572SOL    HW220616   6.034   4.308   5.424
 6573SOL     OW20617   3.401   1.009   2.379
 6573SOL    HW120618   3.435   1.082   2.439
 6573SOL    HW220619   3.445   0.922   2.404
 6574SOL     OW20620   2.162   6.236   2.076
 6574SOL    HW120621   2.085   6.281   2.030
 6574SOL    HW220622   2.126   6.169   2.141
 6575SOL     OW20623   0.756   1.369   1.784
 6575SOL    HW120624   0.841   1.319   1.801
 6575SOL    HW220625   0.722   1.346   1.693
 6576SOL     OW20626   1.451   5.927   6.511
 6576SOL    HW120627   1.355   5.944   6.488
 6576SOL    HW220628   1.457   5.855   6.580
 6577SOL     OW20629   0.476   1.536   3.913
 6577SOL    HW120630   0.492   1.438   3.928
 6577SOL    HW220631   0.560   1.578   3.878
 6578SOL     OW20632   6.106   5.435   3.760
 6578SOL    HW120633   6.202   5.430   3.733
 6578SOL    HW220634   6.085   5.527   3.794
 6579SOL     OW20635   6.989   3.759   3.800
 6579SOL    HW120636   6.914   3.694   3.815
 6579SOL    HW220637   6.956   3.836   3.745
 6580SOL     OW20638   5.972   0.545   1.135
 6580SOL    HW120639   6.045   0.498   1.185
 6580SOL    HW220640   5.905   0.581   1.200
 6581SOL     OW20641   3.733   1.610   5.842
 6581SOL    HW120642   3.727   1.645   5.748
 6581SOL    HW220643   3.702   1.681   5.905
 6582SOL     OW20644   0.806   6.967   2.741
 6582SOL    HW120645   0.725   6.985   2.686
 6582SOL    HW220646   0.887   6.963   2.682
 6583SOL     OW20647   5.361   1.530   6.729
 6583SOL    HW120648   5.362   1.559   6.825
 6583SOL    HW220649   5.434   1.578   6.679
 6584SOL     OW20650   5.625   1.958   6.571
 6584SOL    HW120651   5.531   1.936   6.596
 6584SOL    HW220652   5.625   2.043   6.518
 6585SOL     OW20653   0.255   1.533   0.151
 6585SOL    HW120654   0.236   1.604   0.219
 6585SOL    HW220655   0.354   1.523   0.139
 6586SOL     OW20656   6.295   2.232   5.827
 6586SOL    HW120657   6.370   2.272   5.775
 6586SOL    HW220658   6.266   2.147   5.784
 6587SOL     OW20659   1.895   5.783   4.120
 6587SOL    HW120660   1.929   5.776   4.026
 6587SOL    HW220661   1.885   5.691   4.158
 6588SOL     OW20662   1.600   3.874   0.778
 6588SOL    HW120663   1.677   3.820   0.745
 6588SOL    HW220664   1.630   3.967   0.798
 6589SOL     OW20665   4.735   0.327   6.647
 6589SOL    HW120666   4.703   0.413   6.607
 6589SOL    HW220667   4.663   0.258   6.638
 6590SOL     OW20668   0.447   1.564   4.628
 6590SOL    HW120669   0.527   1.585   4.684
 6590SOL    HW220670   0.476   1.552   4.533
 6591SOL     OW20671   5.549   0.049   2.697
 6591SOL    HW120672   5.572   0.142   2.725
 6591SOL    HW220673   5.545   7.008   2.777
 6592SOL     OW20674   4.153   0.563   4.543
 6592SOL    HW120675   4.242   0.607   4.532
 6592SOL    HW220676   4.151   0.478   4.490
 6593SOL     OW20677   2.601   2.418   3.799
 6593SOL    HW120678   2.559   2.335   3.835
 6593SOL    HW220679   2.594   2.491   3.868
 6594SOL     OW20680   4.721   0.975   7.012
 6594SOL    HW120681   4.717   0.881   0.025
 6594SOL    HW220682   4.752   1.035   0.067
 6595SOL     OW20683   1.444   3.912   1.596
 6595SOL    HW120684   1.374   3.873   1.536
 6595SOL    HW220685   1.511   3.962   1.541
 6596SOL     OW20686   4.337   0.644   5.732
 6596SOL    HW120687   4.256   0.625   5.677
 6596SOL    HW220688   4.339   0.741   5.755
 6597SOL     OW20689   0.452   6.510   4.473
 6597SOL    HW120690   0.485   6.416   4.481
 6597SOL    HW220691   0.355   6.513   4.496
 6598SOL     OW20692   1.319   5.213   4.850
 6598SOL    HW120693   1.366   5.183   4.767
 6598SOL    HW220694   1.382   5.264   4.908
 6599SOL     OW20695   4.030   4.641   5.944
 6599SOL    HW120696   4.030   4.629   6.043
 6599SOL    HW220697   3.997   4.733   5.922
 6600SOL     OW20698   4.768   4.780   5.018
 6600SOL    HW120699   4.867   4.792   5.019
 6600SOL    HW220700   4.732   4.805   4.928
 6601SOL     OW20701   0.779   0.369   0.271
 6601SOL    HW120702   0.800   0.325   0.184
 6601SOL    HW220703   0.752   0.464   0.256
 6602SOL     OW20704   0.678   2.741   1.219
 6602SOL    HW120705   0.681   2.802   1.140
 6602SOL    HW220706   0.630   2.657   1.195
 6603SOL     OW20707   2.162   3.425   3.890
 6603SOL    HW120708   2.143   3.329   3.911
 6603SOL    HW220709   2.242   3.431   3.831
 6604SOL     OW20710   2.547   5.722   1.753
 6604SOL    HW120711   2.588   5.647   1.806
 6604SOL    HW220712   2.594   5.807   1.776
 6605SOL     OW20713   5.345   5.772   0.505
 6605SOL    HW120714   5.403   5.696   0.477
 6605SOL    HW220715   5.340   5.839   0.431
 6606SOL     OW20716   4.772   0.490   2.690
 6606SOL    HW120717   4.711   0.423   2.647
 6606SOL    HW220718   4.716   0.560   2.736
 6607SOL     OW20719   2.229   1.192   1.934
 6607SOL    HW120720   2.238   1.119   1.866
 6607SOL    HW220721   2.154   1.171   1.996
 6608SOL     OW20722   5.484   3.318   2.706
 6608SOL    HW120723   5.446   3.388   2.646
 6608SOL    HW220724   5.507   3.358   2.795
 6609SOL     OW20725   5.293   0.446   0.047
 6609SOL    HW120726   5.201   0.467   0.016
 6609SOL    HW220727   5.326   0.518   0.107
 6610SOL     OW20728   1.723   0.573   7.001
 6610SOL    HW120729   1.722   0.474   6.985
 6610SOL    HW220730   1.773   0.618   6.928
 6611SOL     OW20731   6.844   2.387   3.097
 6611SOL    HW120732   6.935   2.420   3.120
 6611SOL    HW220733   6.786   2.389   3.179
 6612SOL     OW20734   1.364   5.233   6.414
 6612SOL    HW120735   1.370   5.271   6.321
 6612SOL    HW220736   1.374   5.133   6.409
 6613SOL     OW20737   5.199   5.440   3.114
 6613SOL    HW120738   5.138   5.518   3.120
 6613SOL    HW220739   5.256   5.448   3.032
 6614SOL     OW20740   4.922   6.227   5.913
 6614SOL    HW120741   4.912   6.170   5.832
 6614SOL    HW220742   4.890   6.176   5.993
 6615SOL     OW20743   0.130   3.413   5.038
 6615SOL    HW120744   0.088   3.330   5.000
 6615SOL    HW220745   0.078   3.493   5.009
 6616SOL     OW20746   4.498   1.531   5.808
 6616SOL    HW120747   4.429   1.514   5.737
 6616SOL    HW220748   4.528   1.443   5.846
 6617SOL     OW20749   3.352   6.766   3.579
 6617SOL    HW120750   3.393   6.806   3.661
 6617SOL    HW220751   3.277   6.706   3.604
 6618SOL     OW20752   0.807   3.375   2.304
 6618SOL    HW120753   0.828   3.375   2.206
 6618SOL    HW220754   0.715   3.341   2.319
 6619SOL     OW20755   4.387   6.922   3.796
 6619SOL    HW120756   4.435   6.958   3.716
 6619SOL    HW220757   4.383   6.992   3.866
 6620SOL     OW20758   1.622   2.763   5.813
 6620SOL    HW120759   1.617   2.832   5.886
 6620SOL    HW220760   1.715   2.726   5.808
 6621SOL     OW20761   2.697   4.005   0.357
 6621SOL    HW120762   2.665   3.947   0.431
 6621SOL    HW220763   2.743   4.085   0.395
 6622SOL     OW20764   6.495   6.100   1.135
 6622SOL    HW120765   6.549   6.059   1.062
 6622SOL    HW220766   6.412   6.047   1.149
 6623SOL     OW20767   3.708   3.234   1.996
 6623SOL    HW120768   3.677   3.266   1.907
 6623SOL    HW220769   3.699   3.135   2.001
 6624SOL     OW20770   2.891   5.787   4.876
 6624SOL    HW120771   2.891   5.691   4.850
 6624SOL    HW220772   2.836   5.840   4.812
 6625SOL     OW20773   5.766   1.144   6.848
 6625SOL    HW120774   5.829   1.099   6.912
 6625SOL    HW220775   5.796   1.125   6.754
 6626SOL     OW20776   3.462   5.823   2.882
 6626SOL    HW120777   3.466   5.782   2.973
 6626SOL    HW220778   3.460   5.750   2.813
 6627SOL     OW20779   1.788   0.427   6.054
 6627SOL    HW120780   1.849   0.348   6.061
 6627SOL    HW220781   1.695   0.396   6.034
 6628SOL     OW20782   5.006   4.842   2.474
 6628SOL    HW120783   4.919   4.818   2.432
 6628SOL    HW220784   5.005   4.814   2.570
 6629SOL     OW20785   3.193   6.025   1.212
 6629SOL    HW120786   3.184   5.943   1.269
 6629SOL    HW220787   3.268   6.082   1.247
 6630SOL     OW20788   3.535   1.235   0.150
 6630SOL    HW120789   3.469   1.181   0.202
 6630SOL    HW220790   3.619   1.183   0.137
 6631SOL     OW20791   4.628   0.376   2.054
 6631SOL    HW120792   4.537   0.416   2.066
 6631SOL    HW220793   4.698   0.446   2.070
 6632SOL     OW20794   0.081   1.912   0.912
 6632SOL    HW120795   0.026   1.971   0.852
 6632SOL    HW220796   0.031   1.828   0.930
 6633SOL     OW20797   1.096   5.527   6.638
 6633SOL    HW120798   1.065   5.450   6.584
 6633SOL    HW220799   1.054   5.611   6.604
 6634SOL     OW20800   6.168   3.166   6.187
 6634SOL    HW120801   6.110   3.246   6.174
 6634SOL    HW220802   6.134   3.113   6.265
 6635SOL     OW20803   4.108   5.314   3.273
 6635SOL    HW120804   4.180   5.251   3.243
 6635SOL    HW220805   4.086   5.296   3.369
 6636SOL     OW20806   1.267   3.283   5.528
 6636SOL    HW120807   1.266   3.372   5.482
 6636SOL    HW220808   1.334   3.285   5.602
 6637SOL     OW20809   1.158   0.509   0.284
 6637SOL    HW120810   1.098   0.584   0.257
 6637SOL    HW220811   1.143   0.486   0.380
 6638SOL     OW20812   2.854   5.207   4.835
 6638SOL    HW120813   2.771   5.235   4.883
 6638SOL    HW220814   2.830   5.147   4.759
 6639SOL     OW20815   5.680   5.380   6.155
 6639SOL    HW120816   5.665   5.299   6.212
 6639SOL    HW220817   5.656   5.462   6.206
 6640SOL     OW20818   6.938   1.745   4.282
 6640SOL    HW120819   6.901   1.838   4.275
 6640SOL    HW220820   0.019   1.749   4.284
 6641SOL     OW20821   3.377   3.858   6.481
 6641SOL    HW120822   3.307   3.800   6.522
 6641SOL    HW220823   3.340   3.902   6.398
 6642SOL     OW20824   2.141   5.302   6.836
 6642SOL    HW120825   2.231   5.297   6.792
 6642SOL    HW220826   2.070   5.281   6.769
 6643SOL     OW20827   6.297   4.386   6.448
 6643SOL    HW120828   6.327   4.399   6.542
 6643SOL    HW220829   6.363   4.330   6.398
 6644SOL     OW20830   2.894   4.785   1.748
 6644SOL    HW120831   2.847   4.724   1.812
 6644SOL    HW220832   2.982   4.744   1.722
 6645SOL     OW20833   7.010   5.061   7.006
 6645SOL    HW120834   0.081   5.047   6.964
 6645SOL    HW220835   6.972   4.973   0.016
 6646SOL     OW20836   3.969   5.533   4.041
 6646SOL    HW120837   3.944   5.518   4.137
 6646SOL    HW220838   4.016   5.621   4.033
 6647SOL     OW20839   3.070   0.674   2.586
 6647SOL    HW120840   3.146   0.669   2.522
 6647SOL    HW220841   2.993   0.720   2.543
 6648SOL     OW20842   4.008   5.797   3.057
 6648SOL    HW120843   4.074   5.818   3.129
 6648SOL    HW220844   4.053   5.743   2.985
 6649SOL     OW20845   5.259   2.080   6.319
 6649SOL    HW120846   5.276   2.056   6.415
 6649SOL    HW220847   5.172   2.129   6.312
 6650SOL     OW20848   4.011   0.853   3.144
 6650SOL    HW120849   3.972   0.761   3.137
 6650SOL    HW220850   4.045   0.882   3.055
 6651SOL     OW20851   1.726   1.995   0.495
 6651SOL    HW120852   1.743   1.957   0.404
 6651SOL    HW220853   1.788   1.954   0.561
 6652SOL     OW20854   6.697   4.076   0.988
 6652SOL    HW120855   6.796   4.074   0.973
 6652SOL    HW220856   6.652   4.121   0.911
 6653SOL     OW20857   3.712   4.091   3.158
 6653SOL    HW120858   3.753   4.148   3.229
 6653SOL    HW220859   3.615   4.114   3.148
 6654SOL     OW20860   1.851   2.665   1.047
 6654SOL    HW120861   1.758   2.676   1.014
 6654SOL    HW220862   1.875   2.568   1.048
 6655SOL     OW20863   2.901   6.840   1.985
 6655SOL    HW120864   2.924   6.909   1.916
 6655SOL    HW220865   2.913   6.749   1.946
 6656SOL     OW20866   6.695   0.648   2.621
 6656SOL    HW120867   6.780   0.690   2.654
 6656SOL    HW220868   6.703   0.630   2.523
 6657SOL     OW20869   4.256   0.024   6.244
 6657SOL    HW120870   4.308   0.008   6.160
 6657SOL    HW220871   4.267   0.120   6.271
 6658SOL     OW20872   6.024   0.752   5.109
 6658SOL    HW120873   6.063   0.727   5.021
 6658SOL    HW220874   6.076   0.828   5.149
 6659SOL     OW20875   2.942   2.854   0.111
 6659SOL    HW120876   2.930   2.878   0.207
 6659SOL    HW220877   2.853   2.840   0.068
 6660SOL     OW20878   0.095   6.608   1.945
 6660SOL    HW120879   0.062   6.586   2.037
 6660SOL    HW220880   0.065   6.699   1.919
 6661SOL     OW20881   6.468   5.236   3.945
 6661SOL    HW120882   6.373   5.213   3.966
 6661SOL    HW220883   6.470   5.309   3.877
 6662SOL     OW20884   2.062   1.254   0.426
 6662SOL    HW120885   1.970   1.262   0.464
 6662SOL    HW220886   2.093   1.344   0.394
 6663SOL     OW20887   6.632   5.530   3.426
 6663SOL    HW120888   6.539   5.492   3.429
 6663SOL    HW220889   6.695   5.464   3.467
 6664SOL     OW20890   1.759   0.269   1.606
 6664SOL    HW120891   1.738   0.259   1.704
 6664SOL    HW220892   1.703   0.342   1.568
 6665SOL     OW20893   0.879   6.931   3.224
 6665SOL    HW120894   0.938   6.906   3.146
 6665SOL    HW220895   0.787   6.896   3.208
 6666SOL     OW20896   6.270   1.428   4.823
 6666SOL    HW120897   6.280   1.450   4.920
 6666SOL    HW220898   6.348   1.371   4.793
 6667SOL     OW20899   6.005   5.238   5.277
 6667SOL    HW120900   6.035   5.250   5.183
 6667SOL    HW220901   6.085   5.231   5.337
 6668SOL     OW20902   0.169   5.457   2.138
 6668SOL    HW120903   0.205   5.516   2.210
 6668SOL    HW220904   0.233   5.383   2.120
 6669SOL     OW20905   1.975   5.018   3.299
 6669SOL    HW120906   2.020   4.929   3.300
 6669SOL    HW220907   1.880   5.008   3.269
 6670SOL     OW20908   3.345   4.794   6.778
 6670SOL    HW120909   3.301   4.773   6.691
 6670SOL    HW220910   3.443   4.805   6.764
 6671SOL     OW20911   6.040   4.860   6.907
 6671SOL    HW120912   5.962   4.922   6.915
 6671SOL    HW220913   6.007   4.765   6.906
 6672SOL     OW20914   1.386   0.595   5.907
 6672SOL    HW120915   1.294   0.566   5.879
 6672SOL    HW220916   1.381   0.685   5.949
 6673SOL     OW20917   5.101   5.603   2.587
 6673SOL    HW120918   5.112   5.521   2.530
 6673SOL    HW220919   5.032   5.585   2.658
 6674SOL     OW20920   0.629   5.944   5.817
 6674SOL    HW120921   0.597   6.009   5.886
 6674SOL    HW220922   0.703   5.888   5.856
 6675SOL     OW20923   5.488   3.902   0.494
 6675SOL    HW120924   5.410   3.896   0.432
 6675SOL    HW220925   5.456   3.929   0.585
 6676SOL     OW20926   0.752   3.335   5.157
 6676SOL    HW120927   0.655   3.314   5.145
 6676SOL    HW220928   0.803   3.251   5.177
 6677SOL     OW20929   0.115   3.238   0.072
 6677SOL    HW120930   0.086   3.146   0.097
 6677SOL    HW220931   0.071   3.305   0.133
 6678SOL     OW20932   1.270   3.133   6.622
 6678SOL    HW120933   1.310   3.119   6.532
 6678SOL    HW220934   1.315   3.072   6.688
 6679SOL     OW20935   1.427   1.921   4.756
 6679SOL    HW120936   1.415   1.838   4.811
 6679SOL    HW220937   1.342   1.974   4.756
 6680SOL     OW20938   3.663   5.605   6.233
 6680SOL    HW120939   3.737   5.635   6.293
 6680SOL    HW220940   3.649   5.673   6.161
 6681SOL     OW20941   5.356   5.799   6.716
 6681SOL    HW120942   5.426   5.730   6.698
 6681SOL    HW220943   5.352   5.819   6.814
 6682SOL     OW20944   0.260   4.680   2.637
 6682SOL    HW120945   0.201   4.669   2.557
 6682SOL    HW220946   0.256   4.775   2.668
 6683SOL     OW20947   4.974   2.266   5.394
 6683SOL    HW120948   5.040   2.203   5.436
 6683SOL    HW220949   4.892   2.216   5.367
 6684SOL     OW20950   1.905   6.929   2.518
 6684SOL    HW120951   2.001   6.918   2.541
 6684SOL    HW220952   1.885   6.879   2.433
 6685SOL     OW20953   5.690   2.292   6.762
 6685SOL    HW120954   5.670   2.217   6.825
 6685SOL    HW220955   5.771   2.269   6.708
 6686SOL     OW20956   6.017   4.064   4.485
 6686SOL    HW120957   6.104   4.028   4.517
 6686SOL    HW220958   6.020   4.074   4.385
 6687SOL     OW20959   1.330   1.696   1.023
 6687SOL    HW120960   1.372   1.775   1.067
 6687SOL    HW220961   1.276   1.645   1.091
 6688SOL     OW20962   0.334   4.555   2.858
 6688SOL    HW120963   0.388   4.636   2.882
 6688SOL    HW220964   0.276   4.575   2.780
 6689SOL     OW20965   4.758   3.243   1.251
 6689SOL    HW120966   4.791   3.304   1.324
 6689SOL    HW220967   4.664   3.267   1.227
 6690SOL     OW20968   2.539   2.601   1.472
 6690SOL    HW120969   2.632   2.610   1.508
 6690SOL    HW220970   2.486   2.683   1.493
 6691SOL     OW20971   2.371   5.488   1.251
 6691SOL    HW120972   2.404   5.568   1.202
 6691SOL    HW220973   2.362   5.509   1.349
 6692SOL     OW20974   3.017   4.277   5.323
 6692SOL    HW120975   3.116   4.278   5.338
 6692SOL    HW220976   2.992   4.354   5.264
 6693SOL     OW20977   4.419   3.559   6.071
 6693SOL    HW120978   4.358   3.636   6.050
 6693SOL    HW220979   4.514   3.588   6.059
 6694SOL     OW20980   4.666   6.272   0.795
 6694SOL    HW120981   4.715   6.235   0.716
 6694SOL    HW220982   4.604   6.344   0.765
 6695SOL     OW20983   0.804   1.320   6.718
 6695SOL    HW120984   0.820   1.232   6.763
 6695SOL    HW220985   0.744   1.375   6.776
 6696SOL     OW20986   2.044   2.809   1.555
 6696SOL    HW120987   2.125   2.869   1.557
 6696SOL    HW220988   1.976   2.842   1.620
 6697SOL     OW20989   4.899   1.355   2.557
 6697SOL    HW120990   4.842   1.377   2.478
 6697SOL    HW220991   4.996   1.354   2.530
 6698SOL     OW20992   4.070   2.866   0.592
 6698SOL    HW120993   3.975   2.885   0.566
 6698SOL    HW220994   4.118   2.824   0.514
 6699SOL     OW20995   3.731   4.718   6.736
 6699SOL    HW120996   3.745   4.755   6.644
 6699SOL    HW220997   3.775   4.777   6.803
 6700SOL     OW20998   0.515   5.646   1.356
 6700SOL    HW120999   0.425   5.689   1.348
 6700SOL    HW221000   0.580   5.712   1.394
 6701SOL     OW21001   6.434   1.835   1.065
 6701SOL    HW121002   6.433   1.737   1.044
 6701SOL    HW221003   6.447   1.887   0.981
 6702SOL     OW21004   3.025   1.881   0.568
 6702SOL    HW121005   2.947   1.927   0.610
 6702SOL    HW221006   3.110   1.913   0.611
 6703SOL     OW21007   6.381   1.803   6.739
 6703SOL    HW121008   6.288   1.789   6.773
 6703SOL    HW221009   6.407   1.726   6.682
 6704SOL     OW21010   4.321   2.302   2.511
 6704SOL    HW121011   4.399   2.361   2.493
 6704SOL    HW221012   4.262   2.297   2.430
 6705SOL     OW21013   6.610   2.469   1.808
 6705SOL    HW121014   6.694   2.481   1.756
 6705SOL    HW221015   6.625   2.403   1.881
 6706SOL     OW21016   0.917   3.432   0.564
 6706SOL    HW121017   0.995   3.376   0.591
 6706SOL    HW221018   0.916   3.516   0.619
 6707SOL     OW21019   6.369   5.880   4.453
 6707SOL    HW121020   6.292   5.823   4.481
 6707SOL    HW221021   6.342   5.935   4.373
 6708SOL     OW21022   1.341   5.231   1.976
 6708SOL    HW121023   1.394   5.228   2.061
 6708SOL    HW221024   1.352   5.145   1.927
 6709SOL     OW21025   3.670   6.561   1.872
 6709SOL    HW121026   3.743   6.578   1.806
 6709SOL    HW221027   3.642   6.465   1.866
 6710SOL     OW21028   3.006   2.449   6.358
 6710SOL    HW121029   2.909   2.473   6.354
 6710SOL    HW221030   3.060   2.520   6.314
 6711SOL     OW21031   5.246   3.916   6.386
 6711SOL    HW121032   5.262   4.013   6.370
 6711SOL    HW221033   5.189   3.879   6.312
 6712SOL     OW21034   4.018   5.479   0.233
 6712SOL    HW121035   3.983   5.557   0.284
 6712SOL    HW221036   4.104   5.449   0.273
 6713SOL     OW21037   2.601   2.038   1.515
 6713SOL    HW121038   2.603   2.097   1.434
 6713SOL    HW221039   2.607   2.095   1.597
 6714SOL     OW21040   5.155   0.316   5.007
 6714SOL    HW121041   5.074   0.264   5.034
 6714SOL    HW221042   5.199   0.353   5.089
 6715SOL     OW21043   0.904   2.025   0.349
 6715SOL    HW121044   0.943   1.942   0.389
 6715SOL    HW221045   0.926   2.104   0.407
 6716SOL     OW21046   1.979   6.128   1.226
 6716SOL    HW121047   2.027   6.175   1.152
 6716SOL    HW221048   1.990   6.030   1.216
 6717SOL     OW21049   3.399   4.157   0.460
 6717SOL    HW121050   3.373   4.247   0.426
 6717SOL    HW221051   3.469   4.117   0.400
 6718SOL     OW21052   3.761   6.085   6.564
 6718SOL    HW121053   3.765   6.022   6.642
 6718SOL    HW221054   3.694   6.052   6.498
 6719SOL     OW21055   0.407   6.913   5.835
 6719SOL    HW121056   0.397   6.967   5.919
 6719SOL    HW221057   0.317   6.900   5.793
 6720SOL     OW21058   1.950   5.990   1.994
 6720SOL    HW121059   1.882   5.917   1.986
 6720SOL    HW221060   2.033   5.964   1.944
 6721SOL     OW21061   5.348   6.408   4.517
 6721SOL    HW121062   5.373   6.475   4.447
 6721SOL    HW221063   5.318   6.324   4.472
 6722SOL     OW21064   4.785   3.129   0.353
 6722SOL    HW121065   4.789   3.030   0.345
 6722SOL    HW221066   4.878   3.167   0.352
 6723SOL     OW21067   2.267   6.522   3.100
 6723SOL    HW121068   2.339   6.578   3.143
 6723SOL    HW221069   2.197   6.581   3.061
 6724SOL     OW21070   2.786   4.651   5.711
 6724SOL    HW121071   2.785   4.583   5.637
 6724SOL    HW221072   2.699   4.647   5.761
 6725SOL     OW21073   1.026   4.727   2.407
 6725SOL    HW121074   0.929   4.748   2.419
 6725SOL    HW221075   1.038   4.628   2.397
 6726SOL     OW21076   1.926   3.153   4.608
 6726SOL    HW121077   1.993   3.166   4.682
 6726SOL    HW221078   1.843   3.203   4.631
 6727SOL     OW21079   5.123   3.595   6.494
 6727SOL    HW121080   5.028   3.593   6.523
 6727SOL    HW221081   5.129   3.634   6.402
 6728SOL     OW21082   3.659   2.097   4.337
 6728SOL    HW121083   3.745   2.142   4.314
 6728SOL    HW221084   3.601   2.092   4.255
 6729SOL     OW21085   6.979   0.502   2.696
 6729SOL    HW121086   6.948   0.425   2.640
 6729SOL    HW221087   7.004   0.579   2.636
 6730SOL     OW21088   2.656   0.391   0.448
 6730SOL    HW121089   2.724   0.335   0.400
 6730SOL    HW221090   2.676   0.391   0.546
 6731SOL     OW21091   2.719   4.214   1.147
 6731SOL    HW121092   2.658   4.208   1.227
 6731SOL    HW221093   2.813   4.201   1.177
 6732SOL     OW21094   2.233   6.548   0.659
 6732SOL    HW121095   2.240   6.609   0.581
 6732SOL    HW221096   2.242   6.601   0.744
 6733SOL     OW21097   4.258   5.665   5.913
 6733SOL    HW121098   4.220   5.575   5.933
 6733SOL    HW221099   4.184   5.731   5.899
 6734SOL     OW21100   1.192   3.462   5.910
 6734SOL    HW121101   1.256   3.458   5.833
 6734SOL    HW221102   1.104   3.426   5.881
 6735SOL     OW21103   0.011   4.601   5.945
 6735SOL    HW121104   0.076   4.645   6.007
 6735SOL    HW221105   6.939   4.599   5.987
 6736SOL     OW21106   2.724   3.095   1.704
 6736SOL    HW121107   2.771   3.112   1.790
 6736SOL    HW221108   2.638   3.047   1.721
 6737SOL     OW21109   1.882   1.504   2.217
 6737SOL    HW121110   1.868   1.583   2.157
 6737SOL    HW221111   1.816   1.433   2.194
 6738SOL     OW21112   2.200   1.947   2.497
 6738SOL    HW121113   2.270   1.987   2.556
 6738SOL    HW221114   2.139   1.889   2.552
 6739SOL     OW21115   4.102   6.326   4.983
 6739SOL    HW121116   4.066   6.282   5.065
 6739SOL    HW221117   4.026   6.359   4.927
 6740SOL     OW21118   1.426   1.052   4.539
 6740SOL    HW121119   1.520   1.072   4.509
 6740SOL    HW221120   1.423   1.046   4.638
 6741SOL     OW21121   5.962   0.969   6.197
 6741SOL    HW121122   5.931   1.058   6.231
 6741SOL    HW221123   5.988   0.978   6.101
 6742SOL     OW21124   6.516   5.571   5.382
 6742SOL    HW121125   6.517   5.649   5.445
 6742SOL    HW221126   6.510   5.604   5.288
 6743SOL     OW21127   3.957   3.507   1.151
 6743SOL    HW121128   4.039   3.564   1.162
 6743SOL    HW221129   3.979   3.428   1.094
 6744SOL     OW21130   4.669   4.380   5.711
 6744SOL    HW121131   4.646   4.399   5.806
 6744SOL    HW221132   4.753   4.324   5.708
 6745SOL     OW21133   0.697   5.030   2.902
 6745SOL    HW121134   0.707   5.097   2.976
 6745SOL    HW221135   0.788   4.999   2.874
 6746SOL     OW21136   0.679   1.897   1.467
 6746SOL    HW121137   0.709   1.972   1.526
 6746SOL    HW221138   0.637   1.825   1.522
 6747SOL     OW21139   5.289   5.739   4.847
 6747SOL    HW121140   5.239   5.743   4.760
 6747SOL    HW221141   5.282   5.827   4.893
 6748SOL     OW21142   1.018   0.519   2.341
 6748SOL    HW121143   0.991   0.574   2.263
 6748SOL    HW221144   1.049   0.578   2.415
 6749SOL     OW21145   4.058   0.663   6.937
 6749SOL    HW121146   4.081   0.756   6.908
 6749SOL    HW221147   4.042   0.662   0.017
 6750SOL     OW21148   2.768   2.334   4.758
 6750SOL    HW121149   2.753   2.396   4.835
 6750SOL    HW221150   2.867   2.318   4.748
 6751SOL     OW21151   2.531   2.589   4.738
 6751SOL    HW121152   2.475   2.615   4.660
 6751SOL    HW221153   2.625   2.573   4.707
 6752SOL     OW21154   5.575   2.990   0.735
 6752SOL    HW121155   5.501   2.967   0.799
 6752SOL    HW221156   5.663   2.980   0.781
 6753SOL     OW21157   4.141   1.789   6.571
 6753SOL    HW121158   4.118   1.742   6.486
 6753SOL    HW221159   4.238   1.814   6.570
 6754SOL     OW21160   6.043   1.654   6.610
 6754SOL    HW121161   6.069   1.614   6.522
 6754SOL    HW221162   6.012   1.582   6.671
 6755SOL     OW21163   5.274   2.064   3.452
 6755SOL    HW121164   5.207   1.993   3.431
 6755SOL    HW221165   5.273   2.083   3.550
 6756SOL     OW21166   5.021   5.146   4.096
 6756SOL    HW121167   5.120   5.134   4.087
 6756SOL    HW221168   4.987   5.090   4.173
 6757SOL     OW21169   5.663   6.431   2.038
 6757SOL    HW121170   5.607   6.370   2.095
 6757SOL    HW221171   5.738   6.378   1.998
 6758SOL     OW21172   5.130   3.117   2.183
 6758SOL    HW121173   5.151   3.214   2.168
 6758SOL    HW221174   5.215   3.064   2.185
 6759SOL     OW21175   1.365   5.020   2.792
 6759SOL    HW121176   1.461   4.999   2.778
 6759SOL    HW221177   1.309   4.965   2.730
 6760SOL     OW21178   6.658   4.331   3.990
 6760SOL    HW121179   6.637   4.410   3.933
 6760SOL    HW221180   6.754   4.335   4.017
 6761SOL     OW21181   5.175   3.014   5.682
 6761SOL    HW121182   5.172   2.954   5.763
 6761SOL    HW221183   5.107   3.087   5.693
 6762SOL     OW21184   6.628   4.211   3.330
 6762SOL    HW121185   6.724   4.197   3.305
 6762SOL    HW221186   6.583   4.264   3.258
 6763SOL     OW21187   6.212   6.874   5.551
 6763SOL    HW121188   6.154   6.921   5.485
 6763SOL    HW221189   6.181   6.895   5.644
 6764SOL     OW21190   3.156   3.724   6.628
 6764SOL    HW121191   3.080   3.788   6.641
 6764SOL    HW221192   3.120   3.637   6.594
 6765SOL     OW21193   6.138   3.775   2.291
 6765SOL    HW121194   6.189   3.697   2.327
 6765SOL    HW221195   6.126   3.843   2.363
 6766SOL     OW21196   2.124   0.656   5.362
 6766SOL    HW121197   2.207   0.711   5.352
 6766SOL    HW221198   2.043   0.714   5.352
 6767SOL     OW21199   0.732   2.820   6.475
 6767SOL    HW121200   0.651   2.766   6.497
 6767SOL    HW221201   0.772   2.856   6.560
 6768SOL     OW21202   0.536   0.217   4.307
 6768SOL    HW121203   0.514   0.148   4.238
 6768SOL    HW221204   0.453   0.264   4.335
 6769SOL     OW21205   2.093   2.710   5.315
 6769SOL    HW121206   1.994   2.700   5.310
 6769SOL    HW221207   2.117   2.807   5.311
 6770SOL     OW21208   0.439   1.467   3.353
 6770SOL    HW121209   0.401   1.439   3.442
 6770SOL    HW221210   0.517   1.528   3.368
 6771SOL     OW21211   3.733   2.142   3.516
 6771SOL    HW121212   3.769   2.052   3.541
 6771SOL    HW221213   3.640   2.152   3.552
 6772SOL     OW21214   6.737   1.883   2.579
 6772SOL    HW121215   6.689   1.816   2.522
 6772SOL    HW221216   6.790   1.836   2.649
 6773SOL     OW21217   0.540   6.005   2.066
 6773SOL    HW121218   0.571   6.080   2.125
 6773SOL    HW221219   0.441   6.010   2.056
 6774SOL     OW21220   2.260   2.654   5.710
 6774SOL    HW121221   2.321   2.711   5.656
 6774SOL    HW221222   2.246   2.696   5.800
 6775SOL     OW21223   0.652   2.352   4.970
 6775SOL    HW121224   0.694   2.317   5.053
 6775SOL    HW221225   0.582   2.289   4.938
 6776SOL     OW21226   3.702   4.100   2.795
 6776SOL    HW121227   3.721   4.186   2.747
 6776SOL    HW221228   3.761   4.093   2.875
 6777SOL     OW21229   5.958   5.336   0.415
 6777SOL    HW121230   5.906   5.375   0.339
 6777SOL    HW221231   5.901   5.271   0.465
 6778SOL     OW21232   6.852   4.821   2.536
 6778SOL    HW121233   6.902   4.904   2.560
 6778SOL    HW221234   6.786   4.842   2.464
 6779SOL     OW21235   5.747   4.185   5.824
 6779SOL    HW121236   5.768   4.106   5.882
 6779SOL    HW221237   5.667   4.233   5.860
 6780SOL     OW21238   2.895   1.999   2.782
 6780SOL    HW121239   2.897   1.990   2.682
 6780SOL    HW221240   2.962   2.067   2.811
 6781SOL     OW21241   6.968   1.302   4.436
 6781SOL    HW121242   0.044   1.269   4.436
 6781SOL    HW221243   6.966   1.397   4.467
 6782SOL     OW21244   6.961   1.708   3.179
 6782SOL    HW121245   6.902   1.779   3.141
 6782SOL    HW221246   0.029   1.748   3.207
 6783SOL     OW21247   1.779   4.968   4.986
 6783SOL    HW121248   1.865   5.014   5.007
 6783SOL    HW221249   1.762   4.973   4.888
 6784SOL     OW21250   2.355   4.043   1.380
 6784SOL    HW121251   2.299   4.051   1.462
 6784SOL    HW221252   2.327   3.962   1.328
 6785SOL     OW21253   5.109   5.320   4.374
 6785SOL    HW121254   5.121   5.362   4.284
 6785SOL    HW221255   5.014   5.333   4.404
 6786SOL     OW21256   6.472   2.378   6.879
 6786SOL    HW121257   6.449   2.474   6.865
 6786SOL    HW221258   6.540   2.349   6.812
 6787SOL     OW21259   3.836   2.104   6.558
 6787SOL    HW121260   3.789   2.016   6.557
 6787SOL    HW221261   3.778   2.172   6.603
 6788SOL     OW21262   6.060   4.181   2.900
 6788SOL    HW121263   5.982   4.230   2.937
 6788SOL    HW221264   6.029   4.097   2.855
 6789SOL     OW21265   6.212   3.826   3.904
 6789SOL    HW121266   6.312   3.823   3.914
 6789SOL    HW221267   6.169   3.814   3.993
 6790SOL     OW21268   0.910   5.305   5.951
 6790SOL    HW121269   0.824   5.256   5.937
 6790SOL    HW221270   0.954   5.320   5.862
 6791SOL     OW21271   3.623   0.577   3.346
 6791SOL    HW121272   3.586   0.524   3.269
 6791SOL    HW221273   3.610   0.674   3.328
 6792SOL     OW21274   4.014   6.931   5.536
 6792SOL    HW121275   4.044   6.991   5.463
 6792SOL    HW221276   3.950   6.980   5.596
 6793SOL     OW21277   1.784   3.812   0.111
 6793SOL    HW121278   1.861   3.815   0.047
 6793SOL    HW221279   1.818   3.788   0.202
 6794SOL     OW21280   5.103   1.705   5.486
 6794SOL    HW121281   5.110   1.673   5.580
 6794SOL    HW221282   5.138   1.635   5.424
 6795SOL     OW21283   1.177   1.192   1.060
 6795SOL    HW121284   1.150   1.193   0.963
 6795SOL    HW221285   1.247   1.262   1.075
 6796SOL     OW21286   6.563   0.972   2.908
 6796SOL    HW121287   6.546   0.931   2.818
 6796SOL    HW221288   6.562   1.071   2.900
 6797SOL     OW21289   1.140   2.651   1.021
 6797SOL    HW121290   1.137   2.634   1.120
 6797SOL    HW221291   1.047   2.647   0.984
 6798SOL     OW21292   5.433   0.444   1.550
 6798SOL    HW121293   5.503   0.481   1.611
 6798SOL    HW221294   5.370   0.518   1.523
 6799SOL     OW21295   5.856   0.729   3.432
 6799SOL    HW121296   5.951   0.704   3.411
 6799SOL    HW221297   5.818   0.663   3.496
 6800SOL     OW21298   0.222   2.120   1.592
 6800SOL    HW121299   0.238   2.216   1.614
 6800SOL    HW221300   0.140   2.113   1.535
 6801SOL     OW21301   0.761   5.862   5.309
 6801SOL    HW121302   0.853   5.827   5.288
 6801SOL    HW221303   0.713   5.797   5.368
 6802SOL     OW21304   2.948   4.830   2.160
 6802SOL    HW121305   2.955   4.746   2.107
 6802SOL    HW221306   2.855   4.839   2.196
 6803SOL     OW21307   5.055   4.959   5.853
 6803SOL    HW121308   5.109   4.875   5.857
 6803SOL    HW221309   4.970   4.942   5.802
 6804SOL     OW21310   3.160   4.961   3.080
 6804SOL    HW121311   3.168   5.042   3.138
 6804SOL    HW221312   3.251   4.937   3.044
 6805SOL     OW21313   0.032   4.144   5.303
 6805SOL    HW121314   6.982   4.076   5.330
 6805SOL    HW221315   7.007   4.219   5.254
 6806SOL     OW21316   6.985   2.080   2.520
 6806SOL    HW121317   6.890   2.055   2.502
 6806SOL    HW221318   0.027   2.034   2.455
 6807SOL     OW21319   3.153   4.066   1.890
 6807SOL    HW121320   3.220   4.105   1.954
 6807SOL    HW221321   3.105   3.990   1.934
 6808SOL     OW21322   3.399   1.120   4.398
 6808SOL    HW121323   3.315   1.168   4.421
 6808SOL    HW221324   3.461   1.121   4.477
 6809SOL     OW21325   5.493   3.114   1.092
 6809SOL    HW121326   5.472   3.128   0.995
 6809SOL    HW221327   5.415   3.071   1.137
 6810SOL     OW21328   2.472   0.375   4.147
 6810SOL    HW121329   2.427   0.288   4.126
 6810SOL    HW221330   2.568   0.358   4.170
 6811SOL     OW21331   6.777   1.388   1.151
 6811SOL    HW121332   6.722   1.390   1.067
 6811SOL    HW221333   6.874   1.391   1.127
 6812SOL     OW21334   3.646   3.878   5.002
 6812SOL    HW121335   3.583   3.954   4.982
 6812SOL    HW221336   3.678   3.885   5.096
 6813SOL     OW21337   5.846   4.190   1.753
 6813SOL    HW121338   5.932   4.206   1.704
 6813SOL    HW221339   5.824   4.092   1.750
 6814SOL     OW21340   5.330   1.160   6.862
 6814SOL    HW121341   5.278   1.198   6.786
 6814SOL    HW221342   5.267   1.122   6.930
 6815SOL     OW21343   1.877   4.816   5.708
 6815SOL    HW121344   1.914   4.785   5.621
 6815SOL    HW221345   1.805   4.884   5.692
 6816SOL     OW21346   0.685   0.963   2.905
 6816SOL    HW121347   0.650   0.870   2.911
 6816SOL    HW221348   0.783   0.962   2.887
 6817SOL     OW21349   3.632   2.066   2.220
 6817SOL    HW121350   3.632   2.132   2.145
 6817SOL    HW221351   3.649   1.975   2.184
 6818SOL     OW21352   1.621   6.854   5.393
 6818SOL    HW121353   1.551   6.840   5.463
 6818SOL    HW221354   1.712   6.834   5.431
 6819SOL     OW21355   4.736   4.325   1.408
 6819SOL    HW121356   4.810   4.275   1.362
 6819SOL    HW221357   4.727   4.292   1.502
 6820SOL     OW21358   3.013   5.940   1.613
 6820SOL    HW121359   3.102   5.901   1.590
 6820SOL    HW221360   3.023   6.005   1.688
 6821SOL     OW21361   4.011   2.696   5.326
 6821SOL    HW121362   4.053   2.631   5.263
 6821SOL    HW221363   4.010   2.658   5.418
 6822SOL     OW21364   6.623   2.705   6.328
 6822SOL    HW121365   6.687   2.714   6.405
 6822SOL    HW221366   6.541   2.759   6.346
 6823SOL     OW21367   6.009   3.399   6.170
 6823SOL    HW121368   5.910   3.382   6.171
 6823SOL    HW221369   6.028   3.488   6.212
 6824SOL     OW21370   0.696   0.776   5.745
 6824SOL    HW121371   0.673   0.823   5.660
 6824SOL    HW221372   0.614   0.768   5.802
 6825SOL     OW21373   5.846   4.671   1.170
 6825SOL    HW121374   5.852   4.667   1.070
 6825SOL    HW221375   5.857   4.579   1.207
 6826SOL     OW21376   6.786   3.843   3.505
 6826SOL    HW121377   6.862   3.899   3.539
 6826SOL    HW221378   6.806   3.814   3.411
 6827SOL     OW21379   4.039   5.621   4.707
 6827SOL    HW121380   4.082   5.694   4.759
 6827SOL    HW221381   3.994   5.660   4.627
 6828SOL     OW21382   2.899   1.936   2.503
 6828SOL    HW121383   2.800   1.926   2.511
 6828SOL    HW221384   2.922   2.031   2.481
 6829SOL     OW21385   4.292   0.095   4.268
 6829SOL    HW121386   4.336   0.135   4.349
 6829SOL    HW221387   4.240   0.014   4.295
 6830SOL     OW21388   5.049   0.161   3.290
 6830SOL    HW121389   5.030   0.169   3.192
 6830SOL    HW221390   5.125   0.098   3.305
 6831SOL     OW21391   1.448   1.489   6.245
 6831SOL    HW121392   1.547   1.501   6.232
 6831SOL    HW221393   1.423   1.518   6.337
 6832SOL     OW21394   3.175   2.740   0.065
 6832SOL    HW121395   3.176   2.640   0.070
 6832SOL    HW221396   3.082   2.774   0.081
 6833SOL     OW21397   3.313   4.757   5.875
 6833SOL    HW121398   3.352   4.668   5.855
 6833SOL    HW221399   3.229   4.770   5.822
 6834SOL     OW21400   5.604   0.080   0.831
 6834SOL    HW121401   5.605   0.180   0.834
 6834SOL    HW221402   5.691   0.045   0.864
 6835SOL     OW21403   2.560   1.770   4.744
 6835SOL    HW121404   2.660   1.774   4.737
 6835SOL    HW221405   2.520   1.816   4.665
 6836SOL     OW21406   2.253   4.335   5.950
 6836SOL    HW121407   2.203   4.304   6.031
 6836SOL    HW221408   2.321   4.266   5.924
 6837SOL     OW21409   0.919   0.105   1.659
 6837SOL    HW121410   0.995   0.092   1.595
 6837SOL    HW221411   0.850   0.164   1.617
 6838SOL     OW21412   2.812   3.827   5.156
 6838SOL    HW121413   2.809   3.778   5.244
 6838SOL    HW221414   2.872   3.906   5.165
 6839SOL     OW21415   5.846   2.747   4.202
 6839SOL    HW121416   5.941   2.777   4.204
 6839SOL    HW221417   5.797   2.796   4.129
 6840SOL     OW21418   2.507   6.850   5.859
 6840SOL    HW121419   2.488   6.795   5.777
 6840SOL    HW221420   2.568   6.799   5.919
 6841SOL     OW21421   4.185   5.759   1.441
 6841SOL    HW121422   4.176   5.825   1.366
 6841SOL    HW221423   4.121   5.782   1.513
 6842SOL     OW21424   0.320   4.001   6.101
 6842SOL    HW121425   0.416   3.978   6.086
 6842SOL    HW221426   0.270   3.918   6.126
 6843SOL     OW21427   3.314   2.104   2.292
 6843SOL    HW121428   3.409   2.094   2.262
 6843SOL    HW221429   3.255   2.118   2.212
 6844SOL     OW21430   4.504   5.029   3.939
 6844SOL    HW121431   4.595   5.063   3.962
 6844SOL    HW221432   4.438   5.104   3.944
 6845SOL     OW21433   4.832   4.696   2.186
 6845SOL    HW121434   4.802   4.751   2.264
 6845SOL    HW221435   4.851   4.602   2.216
 6846SOL     OW21436   3.182   3.027   2.361
 6846SOL    HW121437   3.151   3.019   2.266
 6846SOL    HW221438   3.274   2.990   2.370
 6847SOL     OW21439   6.269   3.372   1.393
 6847SOL    HW121440   6.303   3.401   1.304
 6847SOL    HW221441   6.287   3.443   1.461
 6848SOL     OW21442   0.864   6.380   3.656
 6848SOL    HW121443   0.842   6.477   3.672
 6848SOL    HW221444   0.911   6.344   3.737
 6849SOL     OW21445   3.680   6.509   3.933
 6849SOL    HW121446   3.694   6.589   3.875
 6849SOL    HW221447   3.741   6.435   3.903
 6850SOL     OW21448   5.442   3.039   2.652
 6850SOL    HW121449   5.451   3.138   2.639
 6850SOL    HW221450   5.362   3.020   2.708
 6851SOL     OW21451   1.619   5.101   5.413
 6851SOL    HW121452   1.639   5.029   5.346
 6851SOL    HW221453   1.620   5.190   5.367
 6852SOL     OW21454   0.684   4.083   1.906
 6852SOL    HW121455   0.620   4.159   1.913
 6852SOL    HW221456   0.650   4.017   1.838
 6853SOL     OW21457   0.748   4.181   4.953
 6853SOL    HW121458   0.671   4.242   4.975
 6853SOL    HW221459   0.778   4.134   5.036
 6854SOL     OW21460   6.407   2.572   6.576
 6854SOL    HW121461   6.387   2.480   6.541
 6854SOL    HW221462   6.470   2.618   6.513
 6855SOL     OW21463   2.904   0.060   1.822
 6855SOL    HW121464   2.909   0.144   1.768
 6855SOL    HW221465   2.812   0.051   1.861
 6856SOL     OW21466   5.662   3.885   5.164
 6856SOL    HW121467   5.603   3.819   5.117
 6856SOL    HW221468   5.738   3.910   5.104
 6857SOL     OW21469   4.074   1.780   5.743
 6857SOL    HW121470   4.018   1.853   5.782
 6857SOL    HW221471   4.052   1.693   5.788
 6858SOL     OW21472   3.873   3.080   4.922
 6858SOL    HW121473   3.893   3.054   5.016
 6858SOL    HW221474   3.901   3.175   4.906
 6859SOL     OW21475   3.704   0.870   0.855
 6859SOL    HW121476   3.696   0.948   0.793
 6859SOL    HW221477   3.687   0.900   0.949
 6860SOL     OW21478   5.209   3.764   0.288
 6860SOL    HW121479   5.263   3.703   0.346
 6860SOL    HW221480   5.212   3.730   0.194
 6861SOL     OW21481   6.551   4.970   6.990
 6861SOL    HW121482   6.477   4.905   6.974
 6861SOL    HW221483   6.553   4.996   0.067
 6862SOL     OW21484   3.201   5.553   3.965
 6862SOL    HW121485   3.262   5.587   3.893
 6862SOL    HW221486   3.167   5.631   4.018
 6863SOL     OW21487   5.526   2.779   4.535
 6863SOL    HW121488   5.584   2.791   4.616
 6863SOL    HW221489   5.545   2.852   4.470
 6864SOL     OW21490   3.123   6.246   4.817
 6864SOL    HW121491   3.053   6.284   4.878
 6864SOL    HW221492   3.176   6.177   4.867
 6865SOL     OW21493   6.671   4.528   3.795
 6865SOL    HW121494   6.647   4.450   3.737
 6865SOL    HW221495   6.681   4.609   3.738
 6866SOL     OW21496   6.984   3.332   2.395
 6866SOL    HW121497   6.908   3.341   2.460
 6866SOL    HW221498   0.009   3.242   2.407
 6867SOL     OW21499   2.072   4.134   2.147
 6867SOL    HW121500   2.034   4.044   2.126
 6867SOL    HW221501   2.002   4.204   2.134
 6868SOL     OW21502   2.134   5.694   4.561
 6868SOL    HW121503   2.215   5.729   4.514
 6868SOL    HW221504   2.124   5.597   4.542
 6869SOL     OW21505   5.629   2.694   5.396
 6869SOL    HW121506   5.707   2.644   5.358
 6869SOL    HW221507   5.544   2.653   5.363
 6870SOL     OW21508   5.670   3.611   3.067
 6870SOL    HW121509   5.758   3.589   3.025
 6870SOL    HW221510   5.623   3.678   3.010
 6871SOL     OW21511   5.295   5.729   0.922
 6871SOL    HW121512   5.209   5.687   0.894
 6871SOL    HW221513   5.327   5.791   0.850
 6872SOL     OW21514   2.230   3.850   6.829
 6872SOL    HW121515   2.255   3.838   6.925
 6872SOL    HW221516   2.279   3.783   6.773
 6873SOL     OW21517   6.098   3.694   6.490
 6873SOL    HW121518   6.023   3.743   6.534
 6873SOL    HW221519   6.115   3.608   6.539
 6874SOL     OW21520   0.109   2.647   4.765
 6874SOL    HW121521   0.163   2.615   4.843
 6874SOL    HW221522   0.112   2.747   4.762
 6875SOL     OW21523   2.574   1.332   3.196
 6875SOL    HW121524   2.647   1.266   3.215
 6875SOL    HW221525   2.604   1.423   3.225
 6876SOL     OW21526   4.026   6.111   6.880
 6876SOL    HW121527   3.961   6.184   6.902
 6876SOL    HW221528   4.120   6.144   6.896
 6877SOL     OW21529   2.055   4.019   0.127
 6877SOL    HW121530   2.146   4.060   0.133
 6877SOL    HW221531   2.062   3.927   0.089
 6878SOL     OW21532   1.759   1.426   5.742
 6878SOL    HW121533   1.725   1.517   5.768
 6878SOL    HW221534   1.797   1.431   5.649
 6879SOL     OW21535   1.175   2.165   6.174
 6879SOL    HW121536   1.241   2.240   6.163
 6879SOL    HW221537   1.155   2.152   6.271
 6880SOL     OW21538   2.218   3.940   4.681
 6880SOL    HW121539   2.232   3.852   4.637
 6880SOL    HW221540   2.247   3.934   4.777
 6881SOL     OW21541   0.068   3.804   2.134
 6881SOL    HW121542   0.144   3.807   2.070
 6881SOL    HW221543   0.084   3.730   2.200
 6882SOL     OW21544   2.047   0.458   5.168
 6882SOL    HW121545   2.095   0.376   5.197
 6882SOL    HW221546   2.067   0.533   5.232
 6883SOL     OW21547   4.228   0.402   1.377
 6883SOL    HW121548   4.177   0.327   1.334
 6883SOL    HW221549   4.289   0.365   1.447
 6884SOL     OW21550   1.806   5.400   4.011
 6884SOL    HW121551   1.892   5.369   3.971
 6884SOL    HW221552   1.824   5.480   4.069
 6885SOL     OW21553   2.590   5.534   4.227
 6885SOL    HW121554   2.533   5.479   4.165
 6885SOL    HW221555   2.675   5.558   4.182
 6886SOL     OW21556   5.785   1.193   2.322
 6886SOL    HW121557   5.748   1.284   2.307
 6886SOL    HW221558   5.790   1.176   2.421
 6887SOL     OW21559   5.675   0.914   4.593
 6887SOL    HW121560   5.634   0.840   4.540
 6887SOL    HW221561   5.694   0.883   4.686
 6888SOL     OW21562   5.736   0.059   4.688
 6888SOL    HW121563   5.807   7.011   4.663
 6888SOL    HW221564   5.716   0.118   4.610
 6889SOL     OW21565   1.577   4.323   5.761
 6889SOL    HW121566   1.561   4.228   5.787
 6889SOL    HW221567   1.560   4.334   5.662
 6890SOL     OW21568   2.016   6.570   1.643
 6890SOL    HW121569   2.018   6.667   1.615
 6890SOL    HW221570   1.991   6.514   1.565
 6891SOL     OW21571   1.223   4.167   3.757
 6891SOL    HW121572   1.152   4.163   3.828
 6891SOL    HW221573   1.277   4.084   3.759
 6892SOL     OW21574   3.115   0.112   3.993
 6892SOL    HW121575   3.016   0.113   4.000
 6892SOL    HW221576   3.155   0.105   4.085
 6893SOL     OW21577   4.520   6.082   3.057
 6893SOL    HW121578   4.497   6.122   2.969
 6893SOL    HW221579   4.525   5.982   3.048
 6894SOL     OW21580   6.345   5.073   6.623
 6894SOL    HW121581   6.406   4.999   6.595
 6894SOL    HW221582   6.395   5.138   6.679
 6895SOL     OW21583   2.785   4.726   6.703
 6895SOL    HW121584   2.805   4.679   6.617
 6895SOL    HW221585   2.694   4.699   6.735
 6896SOL     OW21586   3.586   0.521   2.837
 6896SOL    HW121587   3.550   0.474   2.757
 6896SOL    HW221588   3.537   0.607   2.849
 6897SOL     OW21589   3.552   3.689   0.652
 6897SOL    HW121590   3.560   3.732   0.742
 6897SOL    HW221591   3.638   3.644   0.628
 6898SOL     OW21592   4.182   1.861   2.136
 6898SOL    HW121593   4.092   1.885   2.101
 6898SOL    HW221594   4.215   1.778   2.091
 6899SOL     OW21595   4.467   6.338   6.959
 6899SOL    HW121596   4.560   6.357   6.928
 6899SOL    HW221597   4.404   6.403   6.916
 6900SOL     OW21598   5.119   0.350   6.417
 6900SOL    HW121599   5.091   0.279   6.352
 6900SOL    HW221600   5.219   0.349   6.427
 6901SOL     OW21601   1.687   0.038   6.685
 6901SOL    HW121602   1.780   0.001   6.679
 6901SOL    HW221603   1.658   0.037   6.781
 6902SOL     OW21604   0.054   6.348   0.246
 6902SOL    HW121605   0.150   6.375   0.245
 6902SOL    HW221606   0.000   6.413   0.192
 6903SOL     OW21607   4.344   4.962   0.537
 6903SOL    HW121608   4.349   4.863   0.533
 6903SOL    HW221609   4.325   4.991   0.630
 6904SOL     OW21610   6.369   1.515   3.829
 6904SOL    HW121611   6.385   1.580   3.904
 6904SOL    HW221612   6.456   1.487   3.790
 6905SOL     OW21613   5.881   6.733   1.053
 6905SOL    HW121614   5.939   6.728   1.134
 6905SOL    HW221615   5.925   6.685   0.977
 6906SOL     OW21616   4.099   0.546   2.772
 6906SOL    HW121617   4.087   0.643   2.793
 6906SOL    HW221618   4.096   0.493   2.857
 6907SOL     OW21619   3.469   1.824   1.642
 6907SOL    HW121620   3.533   1.814   1.718
 6907SOL    HW221621   3.421   1.911   1.649
 6908SOL     OW21622   1.536   6.488   5.334
 6908SOL    HW121623   1.564   6.557   5.267
 6908SOL    HW221624   1.595   6.408   5.326
 6909SOL     OW21625   4.714   4.063   0.375
 6909SOL    HW121626   4.674   4.105   0.457
 6909SOL    HW221627   4.678   4.108   0.294
 6910SOL     OW21628   6.311   1.472   1.714
 6910SOL    HW121629   6.371   1.409   1.763
 6910SOL    HW221630   6.309   1.560   1.762
 6911SOL     OW21631   4.144   1.315   5.025
 6911SOL    HW121632   4.204   1.309   5.106
 6911SOL    HW221633   4.123   1.224   4.992
 6912SOL     OW21634   5.402   5.095   0.840
 6912SOL    HW121635   5.487   5.054   0.873
 6912SOL    HW221636   5.334   5.092   0.913
 6913SOL     OW21637   5.324   5.110   4.770
 6913SOL    HW121638   5.247   5.172   4.754
 6913SOL    HW221639   5.338   5.052   4.689
 6914SOL     OW21640   6.225   5.443   0.815
 6914SOL    HW121641   6.183   5.462   0.727
 6914SOL    HW221642   6.179   5.496   0.886
 6915SOL     OW21643   0.578   4.894   2.699
 6915SOL    HW121644   0.614   4.958   2.768
 6915SOL    HW221645   0.648   4.827   2.677
 6916SOL     OW21646   6.388   3.064   0.092
 6916SOL    HW121647   6.442   3.093   0.013
 6916SOL    HW221648   6.448   3.021   0.160
 6917SOL     OW21649   4.847   6.563   5.621
 6917SOL    HW121650   4.838   6.602   5.530
 6917SOL    HW221651   4.919   6.493   5.620
 6918SOL     OW21652   6.962   3.109   3.719
 6918SOL    HW121653   7.010   3.050   3.655
 6918SOL    HW221654   0.002   3.185   3.746
 6919SOL     OW21655   2.232   5.915   2.534
 6919SOL    HW121656   2.181   5.842   2.579
 6919SOL    HW221657   2.253   5.987   2.601
 6920SOL     OW21658   5.089   6.342   4.181
 6920SOL    HW121659   5.015   6.380   4.236
 6920SOL    HW221660   5.055   6.267   4.125
 6921SOL     OW21661   6.994   0.708   3.645
 6921SOL    HW121662   0.052   0.757   3.604
 6921SOL    HW221663   6.928   0.686   3.573
 6922SOL     OW21664   2.586   6.795   0.751
 6922SOL    HW121665   2.622   6.825   0.839
 6922SOL    HW221666   2.662   6.779   0.688
 6923SOL     OW21667   4.645   0.918   3.787
 6923SOL    HW121668   4.595   0.989   3.838
 6923SOL    HW221669   4.644   0.941   3.689
 6924SOL     OW21670   0.187   5.487   1.423
 6924SOL    HW121671   0.149   5.436   1.500
 6924SOL    HW221672   0.233   5.570   1.457
 6925SOL     OW21673   4.433   6.150   2.812
 6925SOL    HW121674   4.430   6.250   2.813
 6925SOL    HW221675   4.378   6.116   2.736
 6926SOL     OW21676   2.888   3.436   4.386
 6926SOL    HW121677   2.840   3.383   4.456
 6926SOL    HW221678   2.886   3.386   4.299
 6927SOL     OW21679   4.855   3.851   6.151
 6927SOL    HW121680   4.788   3.809   6.090
 6927SOL    HW221681   4.867   3.947   6.128
 6928SOL     OW21682   4.897   0.858   6.319
 6928SOL    HW121683   4.903   0.956   6.299
 6928SOL    HW221684   4.987   0.824   6.347
 6929SOL     OW21685   4.019   5.730   0.429
 6929SOL    HW121686   4.007   5.814   0.374
 6929SOL    HW221687   4.002   5.751   0.525
 6930SOL     OW21688   0.379   0.193   2.727
 6930SOL    HW121689   0.374   0.209   2.826
 6930SOL    HW221690   0.290   0.210   2.686
 6931SOL     OW21691   1.785   1.401   1.851
 6931SOL    HW121692   1.792   1.441   1.759
 6931SOL    HW221693   1.876   1.378   1.884
 6932SOL     OW21694   2.941   1.740   0.345
 6932SOL    HW121695   2.856   1.787   0.322
 6932SOL    HW221696   2.984   1.785   0.422
 6933SOL     OW21697   4.166   5.400   5.986
 6933SOL    HW121698   4.075   5.362   5.971
 6933SOL    HW221699   4.235   5.334   5.956
 6934SOL     OW21700   5.047   3.149   6.873
 6934SOL    HW121701   5.052   3.072   6.810
 6934SOL    HW221702   5.069   3.233   6.825
 6935SOL     OW21703   4.511   6.095   3.334
 6935SOL    HW121704   4.426   6.122   3.378
 6935SOL    HW221705   4.496   6.085   3.235
 6936SOL     OW21706   1.284   3.099   1.377
 6936SOL    HW121707   1.305   3.003   1.361
 6936SOL    HW221708   1.357   3.156   1.337
 6937SOL     OW21709   4.437   0.007   6.007
 6937SOL    HW121710   4.447   6.930   5.978
 6937SOL    HW221711   4.435   0.066   5.927
 6938SOL     OW21712   5.194   2.855   5.439
 6938SOL    HW121713   5.115   2.870   5.378
 6938SOL    HW221714   5.182   2.909   5.522
 6939SOL     OW21715   6.687   4.467   2.468
 6939SOL    HW121716   6.708   4.555   2.425
 6939SOL    HW221717   6.732   4.393   2.417
 6940SOL     OW21718   5.122   0.763   5.895
 6940SOL    HW121719   5.072   0.738   5.812
 6940SOL    HW221720   5.070   0.832   5.946
 6941SOL     OW21721   3.854   3.492   3.331
 6941SOL    HW121722   3.898   3.451   3.410
 6941SOL    HW221723   3.759   3.461   3.325
 6942SOL     OW21724   6.509   2.693   0.386
 6942SOL    HW121725   6.424   2.685   0.335
 6942SOL    HW221726   6.507   2.631   0.465
 6943SOL     OW21727   5.753   5.821   6.000
 6943SOL    HW121728   5.681   5.886   6.024
 6943SOL    HW221729   5.711   5.736   5.966
 6944SOL     OW21730   1.158   5.475   6.281
 6944SOL    HW121731   1.245   5.515   6.312
 6944SOL    HW221732   1.143   5.498   6.185
 6945SOL     OW21733   6.529   2.692   6.054
 6945SOL    HW121734   6.628   2.690   6.069
 6945SOL    HW221735   6.484   2.640   6.127
 6946SOL     OW21736   5.557   4.032   2.578
 6946SOL    HW121737   5.522   4.124   2.560
 6946SOL    HW221738   5.633   4.013   2.516
 6947SOL     OW21739   3.310   6.645   2.793
 6947SOL    HW121740   3.353   6.729   2.825
 6947SOL    HW221741   3.380   6.581   2.762
 6948SOL     OW21742   4.701   0.883   6.531
 6948SOL    HW121743   4.676   0.965   6.481
 6948SOL    HW221744   4.767   0.830   6.477
 6949SOL     OW21745   4.993   6.607   3.443
 6949SOL    HW121746   5.054   6.605   3.522
 6949SOL    HW221747   5.016   6.532   3.381
 6950SOL     OW21748   2.184   1.520   3.062
 6950SOL    HW121749   2.235   1.444   3.023
 6950SOL    HW221750   2.241   1.569   3.128
 6951SOL     OW21751   6.390   5.528   5.867
 6951SOL    HW121752   6.339   5.496   5.947
 6951SOL    HW221753   6.487   5.534   5.890
 6952SOL     OW21754   0.479   5.168   4.795
 6952SOL    HW121755   0.427   5.088   4.763
 6952SOL    HW221756   0.573   5.162   4.761
 6953SOL     OW21757   4.608   1.305   5.931
 6953SOL    HW121758   4.662   1.317   6.014
 6953SOL    HW221759   4.667   1.273   5.857
 6954SOL     OW21760   6.676   2.947   4.122
 6954SOL    HW121761   6.674   2.853   4.087
 6954SOL    HW221762   6.771   2.974   4.141
 6955SOL     OW21763   0.301   6.281   2.239
 6955SOL    HW121764   0.300   6.366   2.187
 6955SOL    HW221765   0.233   6.284   2.312
 6956SOL     OW21766   4.561   5.253   1.785
 6956SOL    HW121767   4.613   5.265   1.870
 6956SOL    HW221768   4.621   5.269   1.707
 6957SOL     OW21769   6.902   4.766   1.768
 6957SOL    HW121770   6.937   4.692   1.711
 6957SOL    HW221771   6.846   4.727   1.842
 6958SOL     OW21772   2.329   2.862   6.317
 6958SOL    HW121773   2.384   2.787   6.280
 6958SOL    HW221774   2.257   2.825   6.375
 6959SOL     OW21775   3.715   1.808   4.855
 6959SOL    HW121776   3.648   1.766   4.793
 6959SOL    HW221777   3.742   1.898   4.819
 6960SOL     OW21778   0.290   4.763   6.787
 6960SOL    HW121779   0.241   4.700   6.846
 6960SOL    HW221780   0.306   4.849   6.835
 6961SOL     OW21781   1.317   1.154   3.417
 6961SOL    HW121782   1.369   1.229   3.378
 6961SOL    HW221783   1.286   1.179   3.509
 6962SOL     OW21784   5.022   4.540   1.820
 6962SOL    HW121785   4.933   4.495   1.830
 6962SOL    HW221786   5.095   4.477   1.847
 6963SOL     OW21787   0.468   4.888   1.889
 6963SOL    HW121788   0.401   4.925   1.955
 6963SOL    HW221789   0.560   4.915   1.917
 6964SOL     OW21790   4.314   5.382   4.959
 6964SOL    HW121791   4.230   5.329   4.946
 6964SOL    HW221792   4.378   5.362   4.885
 6965SOL     OW21793   6.978   2.797   5.899
 6965SOL    HW121794   0.020   2.840   5.966
 6965SOL    HW221795   6.904   2.749   5.947
 6966SOL     OW21796   4.949   2.316   2.745
 6966SOL    HW121797   4.921   2.220   2.734
 6966SOL    HW221798   5.043   2.326   2.712
 6967SOL     OW21799   1.222   2.020   5.857
 6967SOL    HW121800   1.287   1.944   5.858
 6967SOL    HW221801   1.133   1.988   5.889
 6968SOL     OW21802   4.429   5.774   1.355
 6968SOL    HW121803   4.464   5.864   1.381
 6968SOL    HW221804   4.335   5.764   1.386
 6969SOL     OW21805   3.417   1.621   0.607
 6969SOL    HW121806   3.515   1.623   0.627
 6969SOL    HW221807   3.383   1.715   0.600
 6970SOL     OW21808   4.600   4.315   0.503
 6970SOL    HW121809   4.535   4.319   0.428
 6970SOL    HW221810   4.551   4.303   0.589
 6971SOL     OW21811   5.958   2.633   2.078
 6971SOL    HW121812   5.885   2.655   2.013
 6971SOL    HW221813   5.978   2.535   2.075
 6972SOL     OW21814   5.449   4.620   4.455
 6972SOL    HW121815   5.547   4.600   4.441
 6972SOL    HW221816   5.409   4.551   4.515
 6973SOL     OW21817   2.209   5.165   4.169
 6973SOL    HW121818   2.135   5.123   4.117
 6973SOL    HW221819   2.278   5.201   4.107
 6974SOL     OW21820   3.287   4.112   3.875
 6974SOL    HW121821   3.273   4.052   3.797
 6974SOL    HW221822   3.228   4.192   3.867
 6975SOL     OW21823   4.102   0.632   5.611
 6975SOL    HW121824   4.089   0.584   5.524
 6975SOL    HW221825   4.101   0.731   5.595
 6976SOL     OW21826   2.669   5.008   6.500
 6976SOL    HW121827   2.572   4.995   6.480
 6976SOL    HW221828   2.679   5.033   6.597
 6977SOL     OW21829   3.557   1.627   2.661
 6977SOL    HW121830   3.570   1.592   2.754
 6977SOL    HW221831   3.487   1.572   2.615
 6978SOL     OW21832   0.526   0.857   1.906
 6978SOL    HW121833   0.440   0.838   1.859
 6978SOL    HW221834   0.553   0.952   1.888
 6979SOL     OW21835   0.492   4.579   2.523
 6979SOL    HW121836   0.403   4.601   2.564
 6979SOL    HW221837   0.494   4.611   2.429
 6980SOL     OW21838   2.462   1.053   4.042
 6980SOL    HW121839   2.471   1.095   4.132
 6980SOL    HW221840   2.485   0.956   4.048
 6981SOL     OW21841   2.477   5.228   0.672
 6981SOL    HW121842   2.539   5.283   0.727
 6981SOL    HW221843   2.412   5.180   0.732
 6982SOL     OW21844   1.067   6.990   4.033
 6982SOL    HW121845   1.061   0.013   4.123
 6982SOL    HW221846   0.986   7.014   3.980
 6983SOL     OW21847   6.620   0.275   4.739
 6983SOL    HW121848   6.597   0.369   4.714
 6983SOL    HW221849   6.700   0.246   4.688
 6984SOL     OW21850   1.996   2.132   5.628
 6984SOL    HW121851   2.003   2.199   5.702
 6984SOL    HW221852   2.050   2.051   5.650
 6985SOL     OW21853   4.186   5.784   2.399
 6985SOL    HW121854   4.158   5.854   2.465
 6985SOL    HW221855   4.168   5.693   2.438
 6986SOL     OW21856   1.957   6.083   5.736
 6986SOL    HW121857   1.936   6.105   5.640
 6986SOL    HW221858   1.873   6.081   5.789
 6987SOL     OW21859   0.280   2.843   6.542
 6987SOL    HW121860   0.298   2.847   6.444
 6987SOL    HW221861   0.359   2.803   6.589
 6988SOL     OW21862   5.132   1.507   3.633
 6988SOL    HW121863   5.042   1.474   3.661
 6988SOL    HW221864   5.200   1.435   3.648
 6989SOL     OW21865   1.120   1.781   3.617
 6989SOL    HW121866   1.083   1.845   3.684
 6989SOL    HW221867   1.047   1.725   3.579
 6990SOL     OW21868   4.518   3.284   6.880
 6990SOL    HW121869   4.446   3.238   6.828
 6990SOL    HW221870   4.604   3.280   6.829
 6991SOL     OW21871   2.596   4.912   5.371
 6991SOL    HW121872   2.665   4.850   5.335
 6991SOL    HW221873   2.532   4.936   5.298
 6992SOL     OW21874   5.972   6.451   4.554
 6992SOL    HW121875   6.033   6.458   4.475
 6992SOL    HW221876   6.014   6.498   4.632
 6993SOL     OW21877   0.048   0.589   3.152
 6993SOL    HW121878   7.011   0.552   3.077
 6993SOL    HW221879   0.004   0.671   3.189
 6994SOL     OW21880   1.554   2.932   6.032
 6994SOL    HW121881   1.603   2.946   6.118
 6994SOL    HW221882   1.467   2.887   6.050
 6995SOL     OW21883   5.539   5.406   3.542
 6995SOL    HW121884   5.468   5.411   3.472
 6995SOL    HW221885   5.531   5.319   3.591
 6996SOL     OW21886   2.554   0.263   5.165
 6996SOL    HW121887   2.579   0.300   5.255
 6996SOL    HW221888   2.470   0.307   5.133
 6997SOL     OW21889   4.684   6.057   4.607
 6997SOL    HW121890   4.716   5.988   4.542
 6997SOL    HW221891   4.679   6.018   4.698
 6998SOL     OW21892   1.587   3.395   2.549
 6998SOL    HW121893   1.601   3.326   2.477
 6998SOL    HW221894   1.510   3.454   2.525
 6999SOL     OW21895   2.975   1.968   6.081
 6999SOL    HW121896   2.987   1.902   6.156
 6999SOL    HW221897   3.007   2.058   6.112
 7000SOL     OW21898   0.760   6.403   2.848
 7000SOL    HW121899   0.701   6.356   2.783
 7000SOL    HW221900   0.834   6.342   2.877
 7001SOL     OW21901   2.365   2.972   5.884
 7001SOL    HW121902   2.303   3.012   5.816
 7001SOL    HW221903   2.334   2.997   5.976
 7002SOL     OW21904   0.688   5.298   3.623
 7002SOL    HW121905   0.782   5.287   3.593
 7002SOL    HW221906   0.628   5.301   3.543
 7003SOL     OW21907   3.137   6.777   0.852
 7003SOL    HW121908   3.142   6.850   0.785
 7003SOL    HW221909   3.226   6.767   0.897
 7004SOL     OW21910   1.358   4.114   1.192
 7004SOL    HW121911   1.411   4.192   1.160
 7004SOL    HW221912   1.310   4.138   1.277
 7005SOL     OW21913   5.283   6.437   6.700
 7005SOL    HW121914   5.206   6.493   6.727
 7005SOL    HW221915   5.342   6.421   6.779
 7006SOL     OW21916   4.732   4.338   4.608
 7006SOL    HW121917   4.691   4.369   4.694
 7006SOL    HW221918   4.800   4.404   4.578
 7007SOL     OW21919   4.443   6.447   2.803
 7007SOL    HW121920   4.401   6.485   2.886
 7007SOL    HW221921   4.542   6.437   2.817
 7008SOL     OW21922   2.109   5.069   4.835
 7008SOL    HW121923   2.134   4.973   4.821
 7008SOL    HW221924   2.158   5.126   4.768
 7009SOL     OW21925   6.511   5.544   2.310
 7009SOL    HW121926   6.471   5.635   2.319
 7009SOL    HW221927   6.488   5.506   2.220
 7010SOL     OW21928   3.597   4.797   6.261
 7010SOL    HW121929   3.627   4.862   6.191
 7010SOL    HW221930   3.498   4.805   6.275
 7011SOL     OW21931   2.429   6.694   5.656
 7011SOL    HW121932   2.479   6.753   5.593
 7011SOL    HW221933   2.330   6.706   5.643
 7012SOL     OW21934   1.171   0.472   2.071
 7012SOL    HW121935   1.242   0.537   2.095
 7012SOL    HW221936   1.159   0.407   2.146
 7013SOL     OW21937   0.830   0.230   1.299
 7013SOL    HW121938   0.866   0.137   1.312
 7013SOL    HW221939   0.906   0.292   1.279
 7014SOL     OW21940   2.675   4.475   1.025
 7014SOL    HW121941   2.740   4.491   1.099
 7014SOL    HW221942   2.668   4.377   1.007
 7015SOL     OW21943   4.825   2.677   2.380
 7015SOL    HW121944   4.826   2.639   2.473
 7015SOL    HW221945   4.831   2.776   2.385
 7016SOL     OW21946   4.320   4.752   1.349
 7016SOL    HW121947   4.416   4.722   1.343
 7016SOL    HW221948   4.317   4.850   1.368
 7017SOL     OW21949   3.076   1.761   3.440
 7017SOL    HW121950   3.028   1.841   3.404
 7017SOL    HW221951   3.019   1.716   3.509
 7018SOL     OW21952   0.219   3.969   4.621
 7018SOL    HW121953   0.121   3.987   4.620
 7018SOL    HW221954   0.243   3.907   4.546
 7019SOL     OW21955   2.897   5.320   6.520
 7019SOL    HW121956   2.817   5.365   6.561
 7019SOL    HW221957   2.935   5.255   6.586
 7020SOL     OW21958   5.852   0.241   6.419
 7020SOL    HW121959   5.939   0.284   6.398
 7020SOL    HW221960   5.854   0.208   6.514
 7021SOL     OW21961   2.400   0.888   5.314
 7021SOL    HW121962   2.418   0.930   5.225
 7021SOL    HW221963   2.332   0.942   5.363
 7022SOL     OW21964   5.167   3.441   0.336
 7022SOL    HW121965   5.245   3.379   0.341
 7022SOL    HW221966   5.189   3.526   0.385
 7023SOL     OW21967   6.168   2.294   1.642
 7023SOL    HW121968   6.206   2.358   1.709
 7023SOL    HW221969   6.069   2.289   1.653
 7024SOL     OW21970   1.743   5.883   6.704
 7024SOL    HW121971   1.722   5.866   6.607
 7024SOL    HW221972   1.837   5.856   6.722
 7025SOL     OW21973   3.264   2.093   6.639
 7025SOL    HW121974   3.193   2.154   6.605
 7025SOL    HW221975   3.296   2.125   6.728
 7026SOL     OW21976   3.767   2.010   1.447
 7026SOL    HW121977   3.703   1.943   1.409
 7026SOL    HW221978   3.808   2.063   1.373
 7027SOL     OW21979   3.728   5.448   3.931
 7027SOL    HW121980   3.696   5.501   3.853
 7027SOL    HW221981   3.825   5.464   3.946
 7028SOL     OW21982   4.528   6.490   3.572
 7028SOL    HW121983   4.488   6.418   3.629
 7028SOL    HW221984   4.486   6.487   3.481
 7029SOL     OW21985   3.527   6.377   0.218
 7029SOL    HW121986   3.583   6.457   0.240
 7029SOL    HW221987   3.483   6.344   0.301
 7030SOL     OW21988   0.067   3.269   5.268
 7030SOL    HW121989   0.018   3.310   5.345
 7030SOL    HW221990   0.116   3.340   5.218
 7031SOL     OW21991   1.909   5.528   4.230
 7031SOL    HW121992   1.988   5.479   4.267
 7031SOL    HW221993   1.854   5.565   4.305
 7032SOL     OW21994   5.969   0.465   2.926
 7032SOL    HW121995   5.958   0.382   2.871
 7032SOL    HW221996   6.066   0.480   2.945
 7033SOL     OW21997   0.194   1.107   4.133
 7033SOL    HW121998   0.197   1.026   4.076
 7033SOL    HW221999   0.284   1.122   4.175
 7034SOL     OW22000   6.120   0.362   3.331
 7034SOL    HW122001   6.088   0.339   3.423
 7034SOL    HW222002   6.190   0.297   3.303
 7035SOL     OW22003   0.070   6.074   2.829
 7035SOL    HW122004   0.002   6.097   2.760
 7035SOL    HW222005   0.138   6.147   2.836
 7036SOL     OW22006   6.622   5.460   1.760
 7036SOL    HW122007   6.616   5.549   1.715
 7036SOL    HW222008   6.637   5.473   1.858
 7037SOL     OW22009   1.031   6.114   5.524
 7037SOL    HW122010   1.054   6.209   5.502
 7037SOL    HW222011   0.932   6.102   5.518
 7038SOL     OW22012   1.060   4.475   3.683
 7038SOL    HW122013   1.043   4.376   3.676
 7038SOL    HW222014   1.138   4.499   3.625
 7039SOL     OW22015   3.940   1.024   6.210
 7039SOL    HW122016   4.013   1.034   6.142
 7039SOL    HW222017   3.968   1.068   6.295
 7040SOL     OW22018   4.427   2.488   6.454
 7040SOL    HW122019   4.411   2.587   6.463
 7040SOL    HW222020   4.380   2.454   6.373
 7041SOL     OW22021   1.658   1.703   2.684
 7041SOL    HW122022   1.701   1.642   2.618
 7041SOL    HW222023   1.568   1.731   2.649
 7042SOL     OW22024   4.222   5.551   6.579
 7042SOL    HW122025   4.267   5.469   6.544
 7042SOL    HW222026   4.152   5.525   6.645
 7043SOL     OW22027   1.821   1.944   3.509
 7043SOL    HW122028   1.840   1.846   3.507
 7043SOL    HW222029   1.729   1.960   3.543
 7044SOL     OW22030   4.835   4.464   2.876
 7044SOL    HW122031   4.765   4.395   2.894
 7044SOL    HW222032   4.799   4.531   2.810
 7045SOL     OW22033   5.563   6.241   1.116
 7045SOL    HW122034   5.469   6.207   1.128
 7045SOL    HW222035   5.577   6.320   1.175
 7046SOL     OW22036   3.751   0.953   4.556
 7046SOL    HW122037   3.784   0.886   4.490
 7046SOL    HW222038   3.748   0.912   4.647
 7047SOL     OW22039   0.917   0.782   4.188
 7047SOL    HW122040   0.924   0.759   4.285
 7047SOL    HW222041   0.944   0.877   4.174
 7048SOL     OW22042   6.735   6.430   1.192
 7048SOL    HW122043   6.688   6.352   1.234
 7048SOL    HW222044   6.711   6.435   1.095
 7049SOL     OW22045   2.367   1.215   0.825
 7049SOL    HW122046   2.371   1.166   0.912
 7049SOL    HW222047   2.459   1.230   0.790
 7050SOL     OW22048   3.229   4.106   4.636
 7050SOL    HW122049   3.145   4.052   4.628
 7050SOL    HW222050   3.221   4.166   4.716
 7051SOL     OW22051   0.323   0.328   1.586
 7051SOL    HW122052   0.333   0.233   1.613
 7051SOL    HW222053   0.402   0.381   1.618
 7052SOL     OW22054   6.977   2.139   4.358
 7052SOL    HW122055   0.045   2.093   4.378
 7052SOL    HW222056   6.994   2.219   4.301
 7053SOL     OW22057   0.362   4.084   6.534
 7053SOL    HW122058   0.347   4.164   6.592
 7053SOL    HW222059   0.446   4.038   6.562
 7054SOL     OW22060   6.081   6.936   1.340
 7054SOL    HW122061   6.074   6.912   1.437
 7054SOL    HW222062   6.064   0.015   1.328
 7055SOL     OW22063   4.405   0.427   4.993
 7055SOL    HW122064   4.474   0.356   5.004
 7055SOL    HW222065   4.402   0.484   5.075
 7056SOL     OW22066   5.921   4.960   3.455
 7056SOL    HW122067   5.829   4.924   3.472
 7056SOL    HW222068   5.915   5.039   3.394
 7057SOL     OW22069   0.414   4.580   3.487
 7057SOL    HW122070   0.336   4.563   3.546
 7057SOL    HW222071   0.469   4.497   3.479
 7058SOL     OW22072   0.537   5.075   5.074
 7058SOL    HW122073   0.566   4.995   5.020
 7058SOL    HW222074   0.573   5.158   5.032
 7059SOL     OW22075   0.780   0.387   2.217
 7059SOL    HW122076   0.698   0.418   2.265
 7059SOL    HW222077   0.861   0.407   2.272
 7060SOL     OW22078   3.356   6.589   1.495
 7060SOL    HW122079   3.378   6.637   1.580
 7060SOL    HW222080   3.296   6.511   1.515
 7061SOL     OW22081   0.384   1.393   3.092
 7061SOL    HW122082   0.439   1.314   3.064
 7061SOL    HW222083   0.385   1.401   3.191
 7062SOL     OW22084   5.764   1.751   5.108
 7062SOL    HW122085   5.817   1.835   5.094
 7062SOL    HW222086   5.700   1.765   5.184
 7063SOL     OW22087   1.978   6.389   1.399
 7063SOL    HW122088   2.056   6.342   1.440
 7063SOL    HW222089   1.918   6.322   1.355
 7064SOL     OW22090   4.366   2.045   2.225
 7064SOL    HW122091   4.318   2.132   2.233
 7064SOL    HW222092   4.302   1.975   2.190
 7065SOL     OW22093   4.274   3.948   1.413
 7065SOL    HW122094   4.328   3.916   1.490
 7065SOL    HW222095   4.227   3.870   1.371
 7066SOL     OW22096   3.942   0.255   0.605
 7066SOL    HW122097   3.922   0.190   0.678
 7066SOL    HW222098   3.876   0.243   0.530
 7067SOL     OW22099   0.938   3.653   5.844
 7067SOL    HW122100   0.939   3.555   5.823
 7067SOL    HW222101   1.031   3.688   5.851
 7068SOL     OW22102   1.419   1.983   3.316
 7068SOL    HW122103   1.493   1.979   3.248
 7068SOL    HW222104   1.339   1.936   3.280
 7069SOL     OW22105   6.433   4.101   5.344
 7069SOL    HW122106   6.487   4.021   5.317
 7069SOL    HW222107   6.349   4.071   5.388
 7070SOL     OW22108   6.362   4.681   5.219
 7070SOL    HW122109   6.322   4.595   5.186
 7070SOL    HW222110   6.310   4.758   5.183
 7071SOL     OW22111   1.387   5.561   5.332
 7071SOL    HW122112   1.422   5.613   5.410
 7071SOL    HW222113   1.371   5.623   5.255
 7072SOL     OW22114   6.423   6.402   5.974
 7072SOL    HW122115   6.343   6.390   5.915
 7072SOL    HW222116   6.493   6.336   5.948
 7073SOL     OW22117   0.024   1.041   5.556
 7073SOL    HW122118   6.968   1.104   5.578
 7073SOL    HW222119   0.085   1.032   5.634
 7074SOL     OW22120   3.212   2.573   1.518
 7074SOL    HW122121   3.133   2.519   1.490
 7074SOL    HW222122   3.277   2.515   1.568
 7075SOL     OW22123   1.994   6.196   4.135
 7075SOL    HW122124   1.998   6.122   4.202
 7075SOL    HW222125   1.922   6.177   4.068
 7076SOL     OW22126   3.831   1.720   6.522
 7076SOL    HW122127   3.783   1.798   6.482
 7076SOL    HW222128   3.924   1.717   6.486
 7077SOL     OW22129   2.261   5.711   5.491
 7077SOL    HW122130   2.276   5.734   5.395
 7077SOL    HW222131   2.225   5.791   5.539
 7078SOL     OW22132   6.250   6.778   3.476
 7078SOL    HW122133   6.326   6.793   3.540
 7078SOL    HW222134   6.252   6.684   3.443
 7079SOL     OW22135   6.443   5.953   6.450
 7079SOL    HW122136   6.441   6.044   6.491
 7079SOL    HW222137   6.508   5.952   6.374
 7080SOL     OW22138   4.208   2.324   4.071
 7080SOL    HW122139   4.258   2.398   4.027
 7080SOL    HW222140   4.221   2.239   4.019
 7081SOL     OW22141   3.083   1.583   5.414
 7081SOL    HW122142   3.069   1.676   5.448
 7081SOL    HW222143   3.181   1.563   5.411
 7082SOL     OW22144   5.587   1.345   6.819
 7082SOL    HW122145   5.505   1.314   6.868
 7082SOL    HW222146   5.664   1.285   6.842
 7083SOL     OW22147   3.186   0.928   6.082
 7083SOL    HW122148   3.285   0.935   6.086
 7083SOL    HW222149   3.152   0.974   6.000
 7084SOL     OW22150   6.614   6.245   5.855
 7084SOL    HW122151   6.557   6.171   5.818
 7084SOL    HW222152   6.617   6.320   5.789
 7085SOL     OW22153   2.365   2.354   3.337
 7085SOL    HW122154   2.416   2.440   3.333
 7085SOL    HW222155   2.416   2.283   3.288
 7086SOL     OW22156   5.105   0.972   6.694
 7086SOL    HW122157   5.136   1.031   6.620
 7086SOL    HW222158   5.009   0.990   6.714
 7087SOL     OW22159   0.783   3.736   4.439
 7087SOL    HW122160   0.773   3.656   4.379
 7087SOL    HW222161   0.695   3.758   4.480
 7088SOL     OW22162   5.220   2.978   4.260
 7088SOL    HW122163   5.185   3.039   4.331
 7088SOL    HW222164   5.151   2.964   4.190
 7089SOL     OW22165   3.456   2.552   6.186
 7089SOL    HW122166   3.550   2.585   6.194
 7089SOL    HW222167   3.406   2.573   6.270
 7090SOL     OW22168   1.872   1.722   5.364
 7090SOL    HW122169   1.969   1.744   5.355
 7090SOL    HW222170   1.845   1.730   5.460
 7091SOL     OW22171   0.598   0.911   0.397
 7091SOL    HW122172   0.646   0.997   0.414
 7091SOL    HW222173   0.501   0.929   0.382
 7092SOL     OW22174   3.559   4.046   0.260
 7092SOL    HW122175   3.595   4.036   0.168
 7092SOL    HW222176   3.589   3.970   0.317
 7093SOL     OW22177   3.288   3.852   4.378
 7093SOL    HW122178   3.281   3.951   4.366
 7093SOL    HW222179   3.385   3.826   4.384
 7094SOL     OW22180   0.611   6.591   6.064
 7094SOL    HW122181   0.620   6.691   6.063
 7094SOL    HW222182   0.668   6.551   5.993
 7095SOL     OW22183   1.925   3.253   6.758
 7095SOL    HW122184   1.935   3.285   6.852
 7095SOL    HW222185   1.889   3.327   6.701
 7096SOL     OW22186   4.993   2.077   4.019
 7096SOL    HW122187   4.902   2.040   4.039
 7096SOL    HW222188   5.059   2.002   4.018
 7097SOL     OW22189   0.028   0.847   2.024
 7097SOL    HW122190   6.989   0.785   1.971
 7097SOL    HW222191   6.989   0.907   2.080
 7098SOL     OW22192   1.720   5.987   5.856
 7098SOL    HW122193   1.643   6.046   5.834
 7098SOL    HW222194   1.718   5.906   5.797
 7099SOL     OW22195   1.547   1.188   4.944
 7099SOL    HW122196   1.570   1.118   4.876
 7099SOL    HW222197   1.510   1.144   5.025
 7100SOL     OW22198   4.829   3.881   1.089
 7100SOL    HW122199   4.925   3.860   1.071
 7100SOL    HW222200   4.772   3.808   1.052
 7101SOL     OW22201   3.156   0.441   4.691
 7101SOL    HW122202   3.159   0.520   4.629
 7101SOL    HW222203   3.166   0.473   4.785
 7102SOL     OW22204   4.419   1.235   1.119
 7102SOL    HW122205   4.499   1.175   1.118
 7102SOL    HW222206   4.443   1.324   1.080
 7103SOL     OW22207   3.766   6.479   0.118
 7103SOL    HW122208   3.738   6.459   0.024
 7103SOL    HW222209   3.776   6.394   0.169
 7104SOL     OW22210   1.708   2.715   3.262
 7104SOL    HW122211   1.804   2.695   3.282
 7104SOL    HW222212   1.669   2.768   3.337
 7105SOL     OW22213   3.229   3.285   4.500
 7105SOL    HW122214   3.139   3.243   4.501
 7105SOL    HW222215   3.231   3.360   4.434
 7106SOL     OW22216   3.605   3.130   5.002
 7106SOL    HW122217   3.696   3.171   4.994
 7106SOL    HW222218   3.615   3.032   5.018
 7107SOL     OW22219   2.995   1.250   0.181
 7107SOL    HW122220   3.011   1.227   0.085
 7107SOL    HW222221   3.064   1.205   0.237
 7108SOL     OW22222   5.300   6.475   1.274
 7108SOL    HW122223   5.359   6.555   1.266
 7108SOL    HW222224   5.345   6.405   1.329
 7109SOL     OW22225   3.193   0.448   6.402
 7109SOL    HW122226   3.285   0.422   6.429
 7109SOL    HW222227   3.176   0.417   6.308
 7110SOL     OW22228   5.291   5.111   4.095
 7110SOL    HW122229   5.315   5.094   4.000
 7110SOL    HW222230   5.364   5.077   4.155
 7111SOL     OW22231   1.534   3.840   4.327
 7111SOL    HW122232   1.485   3.860   4.412
 7111SOL    HW222233   1.477   3.865   4.249
 7112SOL     OW22234   1.490   6.053   3.781
 7112SOL    HW122235   1.464   6.147   3.757
 7112SOL    HW222236   1.581   6.054   3.823
 7113SOL     OW22237   3.778   4.010   4.394
 7113SOL    HW122238   3.730   3.923   4.407
 7113SOL    HW222239   3.871   4.002   4.431
 7114SOL     OW22240   4.206   0.554   1.925
 7114SOL    HW122241   4.260   0.503   1.859
 7114SOL    HW222242   4.116   0.574   1.887
 7115SOL     OW22243   5.072   1.874   1.365
 7115SOL    HW122244   5.017   1.923   1.432
 7115SOL    HW222245   5.118   1.797   1.410
 7116SOL     OW22246   5.307   4.344   3.865
 7116SOL    HW122247   5.347   4.300   3.945
 7116SOL    HW222248   5.365   4.327   3.785
 7117SOL     OW22249   6.422   5.948   3.390
 7117SOL    HW122250   6.359   5.901   3.328
 7117SOL    HW222251   6.490   5.998   3.335
 7118SOL     OW22252   5.250   3.946   1.412
 7118SOL    HW122253   5.229   3.998   1.495
 7118SOL    HW222254   5.205   3.990   1.334
 7119SOL     OW22255   6.110   1.487   2.761
 7119SOL    HW122256   6.174   1.484   2.838
 7119SOL    HW222257   6.106   1.580   2.725
 7120SOL     OW22258   5.129   1.585   3.372
 7120SOL    HW122259   5.101   1.528   3.450
 7120SOL    HW222260   5.215   1.551   3.335
 7121SOL     OW22261   2.421   6.824   3.617
 7121SOL    HW122262   2.458   6.755   3.555
 7121SOL    HW222263   2.370   6.780   3.690
 7122SOL     OW22264   6.734   1.096   0.371
 7122SOL    HW122265   6.725   1.173   0.307
 7122SOL    HW222266   6.757   1.013   0.320
 7123SOL     OW22267   2.837   5.596   1.947
 7123SOL    HW122268   2.877   5.667   2.005
 7123SOL    HW222269   2.911   5.548   1.899
 7124SOL     OW22270   0.704   5.067   0.453
 7124SOL    HW122271   0.666   5.130   0.521
 7124SOL    HW222272   0.798   5.092   0.433
 7125SOL     OW22273   6.200   6.652   1.999
 7125SOL    HW122274   6.288   6.666   1.955
 7125SOL    HW222275   6.139   6.601   1.938
 7126SOL     OW22276   2.476   4.123   0.592
 7126SOL    HW122277   2.496   4.056   0.663
 7126SOL    HW222278   2.409   4.086   0.528
 7127SOL     OW22279   3.635   5.710   3.991
 7127SOL    HW122280   3.662   5.752   4.078
 7127SOL    HW222281   3.657   5.613   3.993
 7128SOL     OW22282   3.607   4.886   0.564
 7128SOL    HW122283   3.553   4.825   0.508
 7128SOL    HW222284   3.690   4.839   0.596
 7129SOL     OW22285   3.111   0.823   0.978
 7129SOL    HW122286   3.017   0.853   0.964
 7129SOL    HW222287   3.174   0.895   0.947
 7130SOL     OW22288   3.273   4.886   4.144
 7130SOL    HW122289   3.345   4.836   4.096
 7130SOL    HW222290   3.295   4.984   4.145
 7131SOL     OW22291   3.001   1.531   2.275
 7131SOL    HW122292   2.924   1.501   2.220
 7131SOL    HW222293   2.970   1.597   2.344
 7132SOL     OW22294   4.092   3.287   2.874
 7132SOL    HW122295   4.064   3.303   2.969
 7132SOL    HW222296   4.117   3.374   2.832
 7133SOL     OW22297   4.438   5.641   3.232
 7133SOL    HW122298   4.376   5.678   3.301
 7133SOL    HW222299   4.385   5.598   3.159
 7134SOL     OW22300   5.983   5.881   3.954
 7134SOL    HW122301   6.020   5.963   3.910
 7134SOL    HW222302   5.998   5.802   3.894
 7135SOL     OW22303   1.387   0.710   4.316
 7135SOL    HW122304   1.326   0.636   4.289
 7135SOL    HW222305   1.336   0.796   4.318
 7136SOL     OW22306   2.106   1.132   0.707
 7136SOL    HW122307   2.126   1.132   0.609
 7136SOL    HW222308   2.185   1.096   0.757
 7137SOL     OW22309   4.633   0.864   4.879
 7137SOL    HW122310   4.685   0.940   4.917
 7137SOL    HW222311   4.689   0.815   4.813
 7138SOL     OW22312   3.433   3.115   1.032
 7138SOL    HW122313   3.340   3.114   1.069
 7138SOL    HW222314   3.488   3.183   1.082
 7139SOL     OW22315   4.727   3.164   1.683
 7139SOL    HW122316   4.823   3.174   1.660
 7139SOL    HW222317   4.717   3.103   1.762
 7140SOL     OW22318   6.089   3.919   4.880
 7140SOL    HW122319   6.143   3.841   4.849
 7140SOL    HW222320   6.151   3.995   4.902
 7141SOL     OW22321   3.091   0.149   1.008
 7141SOL    HW122322   3.187   0.147   0.980
 7141SOL    HW222323   3.067   0.240   1.041
 7142SOL     OW22324   4.331   6.214   3.640
 7142SOL    HW122325   4.278   6.212   3.555
 7142SOL    HW222326   4.331   6.123   3.682
 7143SOL     OW22327   1.751   4.396   5.963
 7143SOL    HW122328   1.706   4.376   5.876
 7143SOL    HW222329   1.813   4.474   5.951
 7144SOL     OW22330   0.654   1.347   2.808
 7144SOL    HW122331   0.685   1.315   2.719
 7144SOL    HW222332   0.557   1.324   2.820
 7145SOL     OW22333   4.358   6.925   6.903
 7145SOL    HW122334   4.452   6.953   6.926
 7145SOL    HW222335   4.317   6.880   6.982
 7146SOL     OW22336   3.164   6.508   0.648
 7146SOL    HW122337   3.095   6.436   0.643
 7146SOL    HW222338   3.179   6.533   0.743
 7147SOL     OW22339   6.817   0.142   3.376
 7147SOL    HW122340   6.811   0.076   3.451
 7147SOL    HW222341   6.841   0.232   3.412
 7148SOL     OW22342   1.364   6.466   1.613
 7148SOL    HW122343   1.425   6.485   1.690
 7148SOL    HW222344   1.269   6.481   1.642
 7149SOL     OW22345   6.103   0.925   3.721
 7149SOL    HW122346   6.049   0.919   3.805
 7149SOL    HW222347   6.150   0.839   3.705
 7150SOL     OW22348   5.293   2.951   0.851
 7150SOL    HW122349   5.241   3.016   0.906
 7150SOL    HW222350   5.240   2.928   0.769
 7151SOL     OW22351   1.946   5.849   1.172
 7151SOL    HW122352   2.002   5.776   1.213
 7151SOL    HW222353   1.952   5.844   1.073
 7152SOL     OW22354   0.415   3.281   4.668
 7152SOL    HW122355   0.496   3.292   4.610
 7152SOL    HW222356   0.357   3.361   4.659
 7153SOL     OW22357   4.183   0.217   5.003
 7153SOL    HW122358   4.260   0.277   5.021
 7153SOL    HW222359   4.217   0.126   4.976
 7154SOL     OW22360   3.722   5.828   4.200
 7154SOL    HW122361   3.805   5.883   4.190
 7154SOL    HW222362   3.692   5.832   4.295
 7155SOL     OW22363   1.081   6.021   2.139
 7155SOL    HW122364   0.991   5.978   2.142
 7155SOL    HW222365   1.097   6.057   2.047
 7156SOL     OW22366   6.770   5.090   5.455
 7156SOL    HW122367   6.818   5.096   5.368
 7156SOL    HW222368   6.672   5.075   5.438
 7157SOL     OW22369   6.129   5.845   0.007
 7157SOL    HW122370   6.030   5.860   7.013
 7157SOL    HW222371   6.161   5.776   6.961
 7158SOL     OW22372   6.948   6.782   2.989
 7158SOL    HW122373   6.871   6.771   3.053
 7158SOL    HW222374   6.920   6.839   2.912
 7159SOL     OW22375   0.366   5.322   1.272
 7159SOL    HW122376   0.314   5.390   1.325
 7159SOL    HW222377   0.464   5.339   1.282
 7160SOL     OW22378   6.649   6.947   1.652
 7160SOL    HW122379   6.551   6.961   1.637
 7160SOL    HW222380   6.700   6.999   1.583
 7161SOL     OW22381   3.634   3.073   3.773
 7161SOL    HW122382   3.562   3.138   3.798
 7161SOL    HW222383   3.612   2.983   3.810
 7162SOL     OW22384   3.462   5.170   4.520
 7162SOL    HW122385   3.441   5.075   4.497
 7162SOL    HW222386   3.528   5.206   4.455
 7163SOL     OW22387   3.775   6.875   3.566
 7163SOL    HW122388   3.796   6.946   3.633
 7163SOL    HW222389   3.688   6.896   3.522
 7164SOL     OW22390   2.266   1.628   3.453
 7164SOL    HW122391   2.296   1.550   3.509
 7164SOL    HW222392   2.238   1.703   3.514
 7165SOL     OW22393   5.921   1.341   0.325
 7165SOL    HW122394   5.872   1.285   0.393
 7165SOL    HW222395   5.993   1.393   0.371
 7166SOL     OW22396   4.668   4.324   1.154
 7166SOL    HW122397   4.686   4.332   1.252
 7166SOL    HW222398   4.579   4.364   1.133
 7167SOL     OW22399   4.800   3.737   5.287
 7167SOL    HW122400   4.755   3.657   5.247
 7167SOL    HW222401   4.737   3.781   5.351
 7168SOL     OW22402   1.159   1.316   4.132
 7168SOL    HW122403   1.145   1.369   4.049
 7168SOL    HW222404   1.243   1.262   4.123
 7169SOL     OW22405   1.545   3.145   5.836
 7169SOL    HW122406   1.545   3.079   5.911
 7169SOL    HW222407   1.606   3.112   5.763
 7170SOL     OW22408   5.066   4.857   3.211
 7170SOL    HW122409   4.988   4.921   3.210
 7170SOL    HW222410   5.045   4.779   3.152
 7171SOL     OW22411   4.375   3.183   5.418
 7171SOL    HW122412   4.334   3.108   5.367
 7171SOL    HW222413   4.408   3.150   5.506
 7172SOL     OW22414   1.537   6.521   0.528
 7172SOL    HW122415   1.468   6.524   0.600
 7172SOL    HW222416   1.559   6.614   0.499
 7173SOL     OW22417   6.856   5.328   4.344
 7173SOL    HW122418   6.784   5.292   4.284
 7173SOL    HW222419   6.913   5.392   4.292
 7174SOL     OW22420   2.051   5.004   0.221
 7174SOL    HW122421   2.067   5.085   0.164
 7174SOL    HW222422   2.097   4.925   0.180
 7175SOL     OW22423   5.328   3.604   0.467
 7175SOL    HW122424   5.384   3.527   0.496
 7175SOL    HW222425   5.306   3.661   0.547
 7176SOL     OW22426   6.962   4.481   2.087
 7176SOL    HW122427   0.035   4.455   2.056
 7176SOL    HW222428   6.963   4.496   2.186
 7177SOL     OW22429   1.156   5.781   3.549
 7177SOL    HW122430   1.174   5.783   3.451
 7177SOL    HW222431   1.107   5.696   3.572
 7178SOL     OW22432   1.394   3.191   5.185
 7178SOL    HW122433   1.466   3.163   5.249
 7178SOL    HW222434   1.350   3.110   5.146
 7179SOL     OW22435   2.931   3.591   5.727
 7179SOL    HW122436   2.905   3.660   5.794
 7179SOL    HW222437   2.858   3.584   5.658
 7180SOL     OW22438   1.049   6.067   6.825
 7180SOL    HW122439   1.119   6.093   6.891
 7180SOL    HW222440   1.011   5.978   6.850
 7181SOL     OW22441   3.826   0.842   1.160
 7181SOL    HW122442   3.923   0.866   1.157
 7181SOL    HW222443   3.814   0.747   1.133
 7182SOL     OW22444   2.009   4.441   5.207
 7182SOL    HW122445   2.090   4.466   5.259
 7182SOL    HW222446   1.960   4.368   5.254
 7183SOL     OW22447   1.583   5.071   2.503
 7183SOL    HW122448   1.650   5.049   2.433
 7183SOL    HW222449   1.497   5.022   2.485
 7184SOL     OW22450   1.307   6.443   4.206
 7184SOL    HW122451   1.356   6.515   4.254
 7184SOL    HW222452   1.345   6.431   4.114
 7185SOL     OW22453   4.819   2.933   6.639
 7185SOL    HW122454   4.782   2.977   6.558
 7185SOL    HW222455   4.802   2.989   6.720
 7186SOL     OW22456   6.785   6.410   5.555
 7186SOL    HW122457   6.864   6.465   5.584
 7186SOL    HW222458   6.702   6.464   5.566
 7187SOL     OW22459   1.378   4.717   1.677
 7187SOL    HW122460   1.468   4.761   1.674
 7187SOL    HW222461   1.349   4.706   1.772
 7188SOL     OW22462   5.425   0.175   2.289
 7188SOL    HW122463   5.417   0.274   2.303
 7188SOL    HW222464   5.339   0.140   2.252
 7189SOL     OW22465   6.558   1.015   6.112
 7189SOL    HW122466   6.625   1.000   6.184
 7189SOL    HW222467   6.537   1.113   6.105
 7190SOL     OW22468   5.396   4.260   3.176
 7190SOL    HW122469   5.414   4.331   3.108
 7190SOL    HW222470   5.321   4.288   3.235
 7191SOL     OW22471   0.928   3.378   2.870
 7191SOL    HW122472   1.014   3.343   2.906
 7191SOL    HW222473   0.862   3.387   2.944
 7192SOL     OW22474   2.397   5.063   6.046
 7192SOL    HW122475   2.390   5.098   5.952
 7192SOL    HW222476   2.307   5.066   6.089
 7193SOL     OW22477   3.093   1.890   4.693
 7193SOL    HW122478   3.105   1.965   4.628
 7193SOL    HW222479   3.002   1.897   4.735
 7194SOL     OW22480   2.508   1.536   1.405
 7194SOL    HW122481   2.608   1.533   1.407
 7194SOL    HW222482   2.478   1.605   1.338
 7195SOL     OW22483   0.202   5.348   0.605
 7195SOL    HW122484   0.191   5.404   0.523
 7195SOL    HW222485   0.139   5.382   0.676
 7196SOL     OW22486   2.918   3.311   3.151
 7196SOL    HW122487   2.961   3.232   3.194
 7196SOL    HW222488   2.939   3.394   3.204
 7197SOL     OW22489   6.806   1.756   4.920
 7197SOL    HW122490   6.902   1.734   4.908
 7197SOL    HW222491   6.750   1.674   4.906
 7198SOL     OW22492   1.797   6.553   5.725
 7198SOL    HW122493   1.702   6.561   5.754
 7198SOL    HW222494   1.846   6.492   5.787
 7199SOL     OW22495   6.931   0.820   2.688
 7199SOL    HW122496   0.012   0.829   2.698
 7199SOL    HW222497   6.886   0.902   2.722
 7200SOL     OW22498   2.550   0.899   0.434
 7200SOL    HW122499   2.458   0.905   0.395
 7200SOL    HW222500   2.588   0.809   0.416
 7201SOL     OW22501   1.753   4.599   2.811
 7201SOL    HW122502   1.667   4.649   2.823
 7201SOL    HW222503   1.829   4.664   2.803
 7202SOL     OW22504   3.893   0.223   6.283
 7202SOL    HW122505   3.860   0.157   6.351
 7202SOL    HW222506   3.930   0.175   6.204
 7203SOL     OW22507   6.140   0.358   0.467
 7203SOL    HW122508   6.213   0.424   0.450
 7203SOL    HW222509   6.129   0.345   0.566
 7204SOL     OW22510   6.284   0.698   3.717
 7204SOL    HW122511   6.373   0.742   3.722
 7204SOL    HW222512   6.256   0.690   3.622
 7205SOL     OW22513   1.533   5.396   2.835
 7205SOL    HW122514   1.436   5.421   2.845
 7205SOL    HW222515   1.553   5.378   2.739
 7206SOL     OW22516   6.951   1.720   1.042
 7206SOL    HW122517   6.854   1.742   1.053
 7206SOL    HW222518   6.960   1.633   0.993
 7207SOL     OW22519   3.615   6.632   1.179
 7207SOL    HW122520   3.656   6.632   1.270
 7207SOL    HW222521   3.579   6.541   1.158
 7208SOL     OW22522   3.733   6.872   4.646
 7208SOL    HW122523   3.651   6.928   4.639
 7208SOL    HW222524   3.795   6.911   4.715
 7209SOL     OW22525   4.125   3.418   4.291
 7209SOL    HW122526   4.206   3.404   4.234
 7209SOL    HW222527   4.074   3.333   4.297
 7210SOL     OW22528   4.791   1.168   3.683
 7210SOL    HW122529   4.806   1.265   3.703
 7210SOL    HW222530   4.718   1.159   3.615
 7211SOL     OW22531   1.033   6.398   4.217
 7211SOL    HW122532   1.001   6.492   4.229
 7211SOL    HW222533   1.133   6.398   4.209
 7212SOL     OW22534   6.630   5.384   4.749
 7212SOL    HW122535   6.623   5.448   4.673
 7212SOL    HW222536   6.703   5.414   4.811
 7213SOL     OW22537   5.475   0.449   5.460
 7213SOL    HW122538   5.376   0.442   5.468
 7213SOL    HW222539   5.502   0.545   5.466
 7214SOL     OW22540   2.440   5.389   4.510
 7214SOL    HW122541   2.460   5.472   4.458
 7214SOL    HW222542   2.477   5.397   4.603
 7215SOL     OW22543   0.846   3.393   4.014
 7215SOL    HW122544   0.905   3.470   4.036
 7215SOL    HW222545   0.851   3.375   3.916
 7216SOL     OW22546   2.453   6.290   0.158
 7216SOL    HW122547   2.520   6.364   0.165
 7216SOL    HW222548   2.409   6.276   0.246
 7217SOL     OW22549   1.502   4.087   2.625
 7217SOL    HW122550   1.571   4.072   2.696
 7217SOL    HW222551   1.526   4.034   2.544
 7218SOL     OW22552   4.777   1.969   5.695
 7218SOL    HW122553   4.874   1.976   5.672
 7218SOL    HW222554   4.734   1.897   5.641
 7219SOL     OW22555   4.478   6.523   3.305
 7219SOL    HW122556   4.428   6.609   3.297
 7219SOL    HW222557   4.576   6.540   3.293
 7220SOL     OW22558   6.444   1.166   2.670
 7220SOL    HW122559   6.430   1.210   2.581
 7220SOL    HW222560   6.452   1.067   2.657
 7221SOL     OW22561   5.793   4.539   5.468
 7221SOL    HW122562   5.873   4.596   5.454
 7221SOL    HW222563   5.819   4.442   5.461
 7222SOL     OW22564   6.633   6.684   0.913
 7222SOL    HW122565   6.551   6.704   0.968
 7222SOL    HW222566   6.638   6.586   0.895
 7223SOL     OW22567   3.122   1.534   6.463
 7223SOL    HW122568   3.023   1.524   6.458
 7223SOL    HW222569   3.148   1.627   6.438
 7224SOL     OW22570   6.008   0.874   4.770
 7224SOL    HW122571   5.931   0.843   4.826
 7224SOL    HW222572   5.980   0.951   4.714
 7225SOL     OW22573   1.694   5.658   0.194
 7225SOL    HW122574   1.761   5.733   0.192
 7225SOL    HW222575   1.701   5.606   0.109
 7226SOL     OW22576   0.714   6.701   0.429
 7226SOL    HW122577   0.796   6.755   0.411
 7226SOL    HW222578   0.632   6.757   0.415
 7227SOL     OW22579   0.444   2.344   0.058
 7227SOL    HW122580   0.510   2.376   0.126
 7227SOL    HW222581   0.491   2.321   6.992
 7228SOL     OW22582   6.937   6.904   1.893
 7228SOL    HW122583   6.870   6.839   1.856
 7228SOL    HW222584   6.924   6.914   1.991
 7229SOL     OW22585   1.317   0.194   4.401
 7229SOL    HW122586   1.308   0.273   4.463
 7229SOL    HW222587   1.414   0.175   4.386
 7230SOL     OW22588   4.643   5.323   3.766
 7230SOL    HW122589   4.635   5.311   3.865
 7230SOL    HW222590   4.582   5.397   3.736
 7231SOL     OW22591   5.867   1.819   6.463
 7231SOL    HW122592   5.789   1.860   6.510
 7231SOL    HW222593   5.916   1.759   6.526
 7232SOL     OW22594   4.471   4.450   2.430
 7232SOL    HW122595   4.414   4.374   2.400
 7232SOL    HW222596   4.424   4.501   2.502
 7233SOL     OW22597   0.228   2.847   5.623
 7233SOL    HW122598   0.140   2.801   5.622
 7233SOL    HW222599   0.234   2.910   5.545
 7234SOL     OW22600   6.448   1.752   1.632
 7234SOL    HW122601   6.389   1.744   1.552
 7234SOL    HW222602   6.542   1.772   1.603
 7235SOL     OW22603   5.142   3.674   4.588
 7235SOL    HW122604   5.082   3.688   4.668
 7235SOL    HW222605   5.194   3.758   4.571
 7236SOL     OW22606   3.877   1.474   3.254
 7236SOL    HW122607   3.912   1.479   3.160
 7236SOL    HW222608   3.783   1.439   3.252
 7237SOL     OW22609   6.072   5.884   5.564
 7237SOL    HW122610   6.076   5.971   5.612
 7237SOL    HW222611   6.101   5.811   5.625
 7238SOL     OW22612   2.694   1.989   2.209
 7238SOL    HW122613   2.788   1.958   2.192
 7238SOL    HW222614   2.646   1.919   2.263
 7239SOL     OW22615   1.866   1.229   2.592
 7239SOL    HW122616   1.778   1.261   2.624
 7239SOL    HW222617   1.939   1.287   2.629
 7240SOL     OW22618   2.989   4.130   0.513
 7240SOL    HW122619   3.042   4.214   0.506
 7240SOL    HW222620   2.957   4.119   0.607
 7241SOL     OW22621   3.457   0.125   5.300
 7241SOL    HW122622   3.358   0.124   5.286
 7241SOL    HW222623   3.491   0.218   5.290
 7242SOL     OW22624   6.034   4.585   6.646
 7242SOL    HW122625   6.087   4.509   6.609
 7242SOL    HW222626   6.091   4.667   6.652
 7243SOL     OW22627   0.859   5.827   6.957
 7243SOL    HW122628   0.922   5.759   6.920
 7243SOL    HW222629   0.819   5.793   0.023
 7244SOL     OW22630   6.013   1.989   1.535
 7244SOL    HW122631   5.963   2.066   1.573
 7244SOL    HW222632   6.103   2.020   1.503
 7245SOL     OW22633   0.386   1.884   4.716
 7245SOL    HW122634   0.310   1.856   4.657
 7245SOL    HW222635   0.472   1.874   4.667
 7246SOL     OW22636   5.884   0.013   4.968
 7246SOL    HW122637   5.891   6.964   4.895
 7246SOL    HW222638   5.906   6.990   5.056
 7247SOL     OW22639   2.573   5.952   1.937
 7247SOL    HW122640   2.497   6.013   1.913
 7247SOL    HW222641   2.649   6.005   1.974
 7248SOL     OW22642   3.990   1.141   3.891
 7248SOL    HW122643   3.911   1.084   3.915
 7248SOL    HW222644   4.073   1.100   3.928
 7249SOL     OW22645   5.691   4.486   0.032
 7249SOL    HW122646   5.734   4.473   0.122
 7249SOL    HW222647   5.608   4.540   0.042
 7250SOL     OW22648   2.959   4.706   6.020
 7250SOL    HW122649   2.960   4.804   6.035
 7250SOL    HW222650   2.983   4.686   5.925
 7251SOL     OW22651   6.902   6.734   4.534
 7251SOL    HW122652   6.928   6.828   4.556
 7251SOL    HW222653   6.872   6.729   4.439
 7252SOL     OW22654   3.494   3.154   4.729
 7252SOL    HW122655   3.520   3.174   4.824
 7252SOL    HW222656   3.468   3.058   4.722
 7253SOL     OW22657   3.158   6.172   0.849
 7253SOL    HW122658   3.238   6.113   0.853
 7253SOL    HW222659   3.090   6.140   0.915
 7254SOL     OW22660   3.902   6.016   4.138
 7254SOL    HW122661   3.980   6.076   4.120
 7254SOL    HW222662   3.847   6.006   4.054
 7255SOL     OW22663   3.342   3.561   2.127
 7255SOL    HW122664   3.429   3.512   2.132
 7255SOL    HW222665   3.290   3.528   2.048
 7256SOL     OW22666   4.154   4.734   3.961
 7256SOL    HW122667   4.106   4.807   3.912
 7256SOL    HW222668   4.247   4.725   3.925
 7257SOL     OW22669   5.730   2.484   3.311
 7257SOL    HW122670   5.772   2.446   3.228
 7257SOL    HW222671   5.798   2.535   3.363
 7258SOL     OW22672   3.470   0.626   5.025
 7258SOL    HW122673   3.521   0.708   4.998
 7258SOL    HW222674   3.372   0.642   5.017
 7259SOL     OW22675   2.281   4.176   0.138
 7259SOL    HW122676   2.379   4.161   0.125
 7259SOL    HW222677   2.264   4.273   0.157
 7260SOL     OW22678   3.137   2.164   2.847
 7260SOL    HW122679   3.196   2.170   2.766
 7260SOL    HW222680   3.184   2.206   2.925
 7261SOL     OW22681   2.063   3.315   2.164
 7261SOL    HW122682   2.098   3.228   2.201
 7261SOL    HW222683   2.108   3.335   2.077
 7262SOL     OW22684   5.667   2.018   4.957
 7262SOL    HW122685   5.572   1.988   4.946
 7262SOL    HW222686   5.694   2.074   4.879
 7263SOL     OW22687   1.437   6.064   1.269
 7263SOL    HW122688   1.417   6.119   1.350
 7263SOL    HW222689   1.527   6.091   1.233
 7264SOL     OW22690   6.683   0.889   6.339
 7264SOL    HW122691   6.673   0.797   6.377
 7264SOL    HW222692   6.779   0.913   6.333
 7265SOL     OW22693   4.480   4.690   5.640
 7265SOL    HW122694   4.423   4.644   5.708
 7265SOL    HW222695   4.576   4.687   5.668
 7266SOL     OW22696   4.840   0.556   2.100
 7266SOL    HW122697   4.842   0.524   2.195
 7266SOL    HW222698   4.790   0.642   2.095
 7267SOL     OW22699   6.953   3.995   4.562
 7267SOL    HW122700   6.898   3.935   4.504
 7267SOL    HW222701   6.925   3.982   4.658
 7268SOL     OW22702   4.028   6.718   1.496
 7268SOL    HW122703   4.025   6.654   1.420
 7268SOL    HW222704   4.068   6.805   1.466
 7269SOL     OW22705   0.874   5.846   2.151
 7269SOL    HW122706   0.915   5.755   2.162
 7269SOL    HW222707   0.788   5.850   2.202
 7270SOL     OW22708   2.416   1.389   2.987
 7270SOL    HW122709   2.411   1.292   2.961
 7270SOL    HW222710   2.457   1.397   3.077
 7271SOL     OW22711   0.077   3.852   3.001
 7271SOL    HW122712   0.107   3.931   3.054
 7271SOL    HW222713   6.997   3.840   3.011
 7272SOL     OW22714   4.802   2.290   2.455
 7272SOL    HW122715   4.841   2.280   2.547
 7272SOL    HW222716   4.820   2.383   2.422
 7273SOL     OW22717   5.900   4.280   0.833
 7273SOL    HW122718   5.835   4.299   0.906
 7273SOL    HW222719   5.857   4.300   0.744
 7274SOL     OW22720   6.827   4.896   5.646
 7274SOL    HW122721   6.916   4.860   5.618
 7274SOL    HW222722   6.805   4.978   5.593
 7275SOL     OW22723   6.997   0.605   0.499
 7275SOL    HW122724   6.950   0.517   0.496
 7275SOL    HW222725   0.054   0.600   0.564
 7276SOL     OW22726   2.214   2.648   4.247
 7276SOL    HW122727   2.256   2.660   4.157
 7276SOL    HW222728   2.127   2.698   4.250
 7277SOL     OW22729   4.204   1.928   4.765
 7277SOL    HW122730   4.160   1.838   4.774
 7277SOL    HW222731   4.272   1.925   4.692
 7278SOL     OW22732   3.289   1.381   3.354
 7278SOL    HW122733   3.332   1.456   3.405
 7278SOL    HW222734   3.343   1.298   3.366
 7279SOL     OW22735   4.883   4.954   0.353
 7279SOL    HW122736   4.917   4.893   0.282
 7279SOL    HW222737   4.783   4.954   0.351
 7280SOL     OW22738   5.452   2.222   5.026
 7280SOL    HW122739   5.434   2.131   5.063
 7280SOL    HW222740   5.471   2.285   5.101
 7281SOL     OW22741   3.659   6.836   2.101
 7281SOL    HW122742   3.735   6.811   2.162
 7281SOL    HW222743   3.667   6.786   2.015
 7282SOL     OW22744   6.930   5.338   2.141
 7282SOL    HW122745   6.870   5.360   2.217
 7282SOL    HW222746   0.001   5.378   2.156
 7283SOL     OW22747   4.022   4.883   2.406
 7283SOL    HW122748   3.932   4.893   2.448
 7283SOL    HW222749   4.013   4.880   2.306
 7284SOL     OW22750   6.574   1.814   3.731
 7284SOL    HW122751   6.568   1.764   3.645
 7284SOL    HW222752   6.495   1.875   3.741
 7285SOL     OW22753   4.869   3.056   2.231
 7285SOL    HW122754   4.965   3.055   2.204
 7285SOL    HW222755   4.815   3.100   2.159
 7286SOL     OW22756   0.713   1.121   1.073
 7286SOL    HW122757   0.727   1.204   1.019
 7286SOL    HW222758   0.735   1.139   1.168
 7287SOL     OW22759   1.464   2.625   4.183
 7287SOL    HW122760   1.364   2.630   4.183
 7287SOL    HW222761   1.500   2.681   4.108
 7288SOL     OW22762   3.165   2.063   3.345
 7288SOL    HW122763   3.086   2.014   3.306
 7288SOL    HW222764   3.136   2.115   3.425
 7289SOL     OW22765   6.088   2.293   1.276
 7289SOL    HW122766   6.121   2.231   1.348
 7289SOL    HW222767   6.163   2.315   1.214
 7290SOL     OW22768   3.330   1.716   5.150
 7290SOL    HW122769   3.247   1.772   5.149
 7290SOL    HW222770   3.407   1.770   5.118
 7291SOL     OW22771   4.404   1.125   0.291
 7291SOL    HW122772   4.350   1.202   0.328
 7291SOL    HW222773   4.345   1.067   0.236
 7292SOL     OW22774   2.032   0.084   2.874
 7292SOL    HW122775   1.996   0.037   2.955
 7292SOL    HW222776   1.959   0.094   2.807
 7293SOL     OW22777   1.464   0.650   5.207
 7293SOL    HW122778   1.451   0.653   5.108
 7293SOL    HW222779   1.418   0.728   5.250
 7294SOL     OW22780   2.562   6.085   1.088
 7294SOL    HW122781   2.577   6.143   1.169
 7294SOL    HW222782   2.516   6.001   1.115
 7295SOL     OW22783   6.352   5.186   2.336
 7295SOL    HW122784   6.296   5.110   2.303
 7295SOL    HW222785   6.378   5.243   2.258
 7296SOL     OW22786   4.966   5.171   1.904
 7296SOL    HW122787   4.885   5.229   1.910
 7296SOL    HW222788   4.943   5.088   1.854
 7297SOL     OW22789   3.846   6.145   1.422
 7297SOL    HW122790   3.783   6.211   1.464
 7297SOL    HW222791   3.940   6.164   1.453
 7298SOL     OW22792   5.029   5.825   6.656
 7298SOL    HW122793   4.931   5.812   6.639
 7298SOL    HW222794   5.060   5.755   6.721
 7299SOL     OW22795   1.677   2.981   0.098
 7299SOL    HW122796   1.741   3.045   0.142
 7299SOL    HW222797   1.676   2.998   7.018
 7300SOL     OW22798   0.651   5.110   1.697
 7300SOL    HW122799   0.596   5.192   1.712
 7300SOL    HW222800   0.643   5.081   1.602
 7301SOL     OW22801   5.165   6.889   5.965
 7301SOL    HW122802   5.248   6.925   5.920
 7301SOL    HW222803   5.098   6.962   5.973
 7302SOL     OW22804   5.075   1.757   6.342
 7302SOL    HW122805   5.156   1.806   6.373
 7302SOL    HW222806   5.076   1.749   6.243
 7303SOL     OW22807   2.740   1.331   1.242
 7303SOL    HW122808   2.770   1.426   1.249
 7303SOL    HW222809   2.765   1.283   1.326
 7304SOL     OW22810   2.848   5.705   1.530
 7304SOL    HW122811   2.868   5.657   1.615
 7304SOL    HW222812   2.905   5.787   1.523
 7305SOL     OW22813   6.215   2.073   0.754
 7305SOL    HW122814   6.143   2.033   0.696
 7305SOL    HW222815   6.176   2.100   0.842
 7306SOL     OW22816   2.292   2.081   1.030
 7306SOL    HW122817   2.322   2.114   1.119
 7306SOL    HW222818   2.333   1.991   1.012
 7307SOL     OW22819   1.687   6.749   1.711
 7307SOL    HW122820   1.610   6.810   1.695
 7307SOL    HW222821   1.744   6.745   1.629
 7308SOL     OW22822   5.295   1.080   2.657
 7308SOL    HW122823   5.230   1.006   2.669
 7308SOL    HW222824   5.367   1.074   2.726
 7309SOL     OW22825   1.748   5.464   3.258
 7309SOL    HW122826   1.667   5.471   3.200
 7309SOL    HW222827   1.803   5.547   3.248
 7310SOL     OW22828   2.292   3.168   0.244
 7310SOL    HW122829   2.283   3.128   0.336
 7310SOL    HW222830   2.202   3.194   0.210
 7311SOL     OW22831   6.798   6.553   6.413
 7311SOL    HW122832   6.870   6.519   6.353
 7311SOL    HW222833   6.709   6.529   6.374
 7312SOL     OW22834   6.759   2.279   4.923
 7312SOL    HW122835   6.722   2.264   5.015
 7312SOL    HW222836   6.830   2.211   4.905
 7313SOL     OW22837   2.999   0.819   1.925
 7313SOL    HW122838   3.007   0.785   1.831
 7313SOL    HW222839   2.971   0.915   1.923
 7314SOL     OW22840   0.240   4.033   0.000
 7314SOL    HW122841   0.325   4.006   6.974
 7314SOL    HW222842   0.186   4.090   6.957
 7315SOL     OW22843   1.546   4.351   2.733
 7315SOL    HW122844   1.475   4.420   2.731
 7315SOL    HW222845   1.511   4.265   2.696
 7316SOL     OW22846   3.560   2.212   0.726
 7316SOL    HW122847   3.475   2.250   0.690
 7316SOL    HW222848   3.625   2.199   0.652
 7317SOL     OW22849   3.828   1.891   1.689
 7317SOL    HW122850   3.788   1.916   1.601
 7317SOL    HW222851   3.928   1.897   1.683
 7318SOL     OW22852   4.196   6.957   0.596
 7318SOL    HW122853   4.135   6.886   0.562
 7318SOL    HW222854   4.209   6.947   0.694
 7319SOL     OW22855   6.285   4.518   0.105
 7319SOL    HW122856   6.213   4.467   0.057
 7319SOL    HW222857   6.342   4.566   0.039
 7320SOL     OW22858   6.725   2.823   0.880
 7320SOL    HW122859   6.792   2.748   0.882
 7320SOL    HW222860   6.685   2.834   0.971
 7321SOL     OW22861   1.523   6.994   6.899
 7321SOL    HW122862   1.443   6.949   6.859
 7321SOL    HW222863   1.493   0.048   6.961
 7322SOL     OW22864   0.487   2.874   2.741
 7322SOL    HW122865   0.555   2.804   2.719
 7322SOL    HW222866   0.412   2.869   2.676
 7323SOL     OW22867   1.211   1.892   1.533
 7323SOL    HW122868   1.122   1.931   1.556
 7323SOL    HW222869   1.283   1.937   1.586
 7324SOL     OW22870   5.681   4.813   3.560
 7324SOL    HW122871   5.624   4.895   3.558
 7324SOL    HW222872   5.630   4.739   3.603
 7325SOL     OW22873   4.467   0.877   5.974
 7325SOL    HW122874   4.399   0.824   6.024
 7325SOL    HW222875   4.557   0.863   6.015
 7326SOL     OW22876   2.575   0.496   6.952
 7326SOL    HW122877   2.628   0.417   6.983
 7326SOL    HW222878   2.632   0.554   6.894
 7327SOL     OW22879   6.833   3.743   2.646
 7327SOL    HW122880   6.780   3.660   2.627
 7327SOL    HW222881   6.841   3.797   2.562
 7328SOL     OW22882   4.356   4.759   4.898
 7328SOL    HW122883   4.388   4.669   4.926
 7328SOL    HW222884   4.349   4.762   4.798
 7329SOL     OW22885   2.813   3.046   0.951
 7329SOL    HW122886   2.731   2.989   0.940
 7329SOL    HW222887   2.786   3.140   0.970
 7330SOL     OW22888   3.310   3.433   1.053
 7330SOL    HW122889   3.246   3.406   1.125
 7330SOL    HW222890   3.403   3.436   1.090
 7331SOL     OW22891   4.806   0.513   3.008
 7331SOL    HW122892   4.903   0.517   2.986
 7331SOL    HW222893   4.793   0.534   3.105
 7332SOL     OW22894   2.875   4.320   6.659
 7332SOL    HW122895   2.804   4.327   6.589
 7332SOL    HW222896   2.926   4.234   6.646
 7333SOL     OW22897   6.822   2.565   1.262
 7333SOL    HW122898   6.731   2.575   1.223
 7333SOL    HW222899   6.825   2.606   1.353
 7334SOL     OW22900   2.836   0.397   5.133
 7334SOL    HW122901   2.754   0.382   5.078
 7334SOL    HW222902   2.830   0.342   5.217
 7335SOL     OW22903   0.072   2.754   2.489
 7335SOL    HW122904   0.016   2.836   2.476
 7335SOL    HW222905   0.166   2.781   2.508
 7336SOL     OW22906   1.367   6.338   1.162
 7336SOL    HW122907   1.369   6.339   1.062
 7336SOL    HW222908   1.305   6.266   1.193
 7337SOL     OW22909   2.197   2.350   2.645
 7337SOL    HW122910   2.141   2.403   2.709
 7337SOL    HW222911   2.248   2.281   2.696
 7338SOL     OW22912   5.836   3.247   1.868
 7338SOL    HW122913   5.744   3.209   1.875
 7338SOL    HW222914   5.899   3.176   1.837
 7339SOL     OW22915   6.740   5.135   4.820
 7339SOL    HW122916   6.669   5.205   4.831
 7339SOL    HW222917   6.701   5.045   4.837
 7340SOL     OW22918   2.854   0.269   0.283
 7340SOL    HW122919   2.947   0.303   0.267
 7340SOL    HW222920   2.816   0.234   0.197
 7341SOL     OW22921   6.437   5.054   3.730
 7341SOL    HW122922   6.401   4.966   3.763
 7341SOL    HW222923   6.454   5.114   3.808
 7342SOL     OW22924   6.758   0.206   1.017
 7342SOL    HW122925   6.785   0.277   0.953
 7342SOL    HW222926   6.836   0.146   1.035
 7343SOL     OW22927   6.278   3.893   2.065
 7343SOL    HW122928   6.367   3.923   2.101
 7343SOL    HW222929   6.219   3.865   2.141
 7344SOL     OW22930   1.567   6.342   0.173
 7344SOL    HW122931   1.644   6.280   0.160
 7344SOL    HW222932   1.495   6.295   0.224
 7345SOL     OW22933   4.224   5.263   6.351
 7345SOL    HW122934   4.130   5.281   6.380
 7345SOL    HW222935   4.235   5.166   6.330
 7346SOL     OW22936   3.933   4.816   1.839
 7346SOL    HW122937   3.975   4.725   1.843
 7346SOL    HW222938   3.994   4.878   1.790
 7347SOL     OW22939   6.441   1.582   2.128
 7347SOL    HW122940   6.395   1.636   2.058
 7347SOL    HW222941   6.540   1.596   2.121
 7348SOL     OW22942   1.396   1.777   3.545
 7348SOL    HW122943   1.318   1.788   3.608
 7348SOL    HW222944   1.427   1.867   3.515
 7349SOL     OW22945   3.619   1.872   0.761
 7349SOL    HW122946   3.546   1.911   0.705
 7349SOL    HW222947   3.679   1.946   0.792
 7350SOL     OW22948   1.746   2.348   3.314
 7350SOL    HW122949   1.666   2.377   3.260
 7350SOL    HW222950   1.749   2.249   3.319
 7351SOL     OW22951   4.751   4.724   6.906
 7351SOL    HW122952   4.668   4.730   6.960
 7351SOL    HW222953   4.765   4.630   6.876
 7352SOL     OW22954   0.681   1.833   2.695
 7352SOL    HW122955   0.623   1.840   2.613
 7352SOL    HW222956   0.654   1.754   2.748
 7353SOL     OW22957   5.557   1.675   4.322
 7353SOL    HW122958   5.513   1.757   4.286
 7353SOL    HW222959   5.657   1.685   4.315
 7354SOL     OW22960   6.147   5.668   5.748
 7354SOL    HW122961   6.234   5.636   5.788
 7354SOL    HW222962   6.075   5.602   5.770
 7355SOL     OW22963   1.310   5.506   1.578
 7355SOL    HW122964   1.377   5.499   1.504
 7355SOL    HW222965   1.357   5.503   1.666
 7356SOL     OW22966   6.417   1.861   6.009
 7356SOL    HW122967   6.477   1.782   6.015
 7356SOL    HW222968   6.336   1.837   5.956
 7357SOL     OW22969   6.219   2.002   7.003
 7357SOL    HW122970   6.300   1.949   6.976
 7357SOL    HW222971   6.243   2.064   0.059
 7358SOL     OW22972   3.097   1.151   4.424
 7358SOL    HW122973   3.110   1.059   4.462
 7358SOL    HW222974   3.083   1.145   4.325
 7359SOL     OW22975   3.717   2.920   2.994
 7359SOL    HW122976   3.799   2.973   2.974
 7359SOL    HW222977   3.675   2.889   2.908
 7360SOL     OW22978   0.837   2.940   5.225
 7360SOL    HW122979   0.846   2.841   5.216
 7360SOL    HW222980   0.751   2.961   5.271
 7361SOL     OW22981   5.240   6.207   1.911
 7361SOL    HW122982   5.336   6.196   1.885
 7361SOL    HW222983   5.235   6.246   2.003
 7362SOL     OW22984   2.105   5.532   5.636
 7362SOL    HW122985   2.176   5.567   5.574
 7362SOL    HW222986   2.130   5.553   5.731
 7363SOL     OW22987   4.845   3.223   0.021
 7363SOL    HW122988   4.889   3.286   0.085
 7363SOL    HW222989   4.914   3.181   6.981
 7364SOL     OW22990   4.519   5.999   1.467
 7364SOL    HW122991   4.599   6.043   1.507
 7364SOL    HW222992   4.459   6.068   1.425
 7365SOL     OW22993   2.615   0.077   1.892
 7365SOL    HW122994   2.608   0.140   1.969
 7365SOL    HW222995   2.547   0.005   1.902
 7366SOL     OW22996   0.453   5.141   6.774
 7366SOL    HW122997   0.498   5.078   6.710
 7366SOL    HW222998   0.370   5.178   6.731
 7367SOL     OW22999   4.820   3.932   1.993
 7367SOL    HW123000   4.909   3.971   2.017
 7367SOL    HW223001   4.766   3.918   2.075
 7368SOL     OW23002   3.155   3.148   4.771
 7368SOL    HW123003   3.132   3.109   4.860
 7368SOL    HW223004   3.080   3.132   4.707
 7369SOL     OW23005   4.972   3.587   0.677
 7369SOL    HW123006   5.064   3.564   0.710
 7369SOL    HW223007   4.979   3.625   0.585
 7370SOL     OW23008   2.836   6.869   0.611
 7370SOL    HW123009   2.934   6.889   0.620
 7370SOL    HW223010   2.794   6.936   0.549
 7371SOL     OW23011   2.990   4.962   4.223
 7371SOL    HW123012   3.024   4.959   4.129
 7371SOL    HW223013   2.910   4.902   4.231
 7372SOL     OW23014   3.280   0.376   5.507
 7372SOL    HW123015   3.194   0.324   5.505
 7372SOL    HW223016   3.306   0.401   5.414
 7373SOL     OW23017   3.555   0.989   2.155
 7373SOL    HW123018   3.486   0.998   2.226
 7373SOL    HW223019   3.520   1.027   2.069
 7374SOL     OW23020   1.641   3.078   6.841
 7374SOL    HW123021   1.653   3.013   6.766
 7374SOL    HW223022   1.651   3.171   6.806
 7375SOL     OW23023   1.159   0.544   4.239
 7375SOL    HW123024   1.166   0.451   4.274
 7375SOL    HW223025   1.066   0.578   4.253
 7376SOL     OW23026   2.461   3.259   0.057
 7376SOL    HW123027   2.418   3.211   6.999
 7376SOL    HW223028   2.401   3.255   0.137
 7377SOL     OW23029   4.788   4.397   1.854
 7377SOL    HW123030   4.830   4.308   1.838
 7377SOL    HW223031   4.715   4.387   1.922
 7378SOL     OW23032   6.793   1.098   5.299
 7378SOL    HW123033   6.743   1.049   5.228
 7378SOL    HW223034   6.830   1.033   5.365
 7379SOL     OW23035   4.165   1.490   2.252
 7379SOL    HW123036   4.099   1.558   2.285
 7379SOL    HW223037   4.155   1.478   2.153
 7380SOL     OW23038   0.116   3.497   5.810
 7380SOL    HW123039   0.163   3.583   5.825
 7380SOL    HW223040   0.168   3.440   5.747
 7381SOL     OW23041   4.593   2.184   2.196
 7381SOL    HW123042   4.623   2.182   2.101
 7381SOL    HW223043   4.514   2.123   2.207
 7382SOL     OW23044   6.786   4.815   4.486
 7382SOL    HW123045   6.728   4.843   4.410
 7382SOL    HW223046   6.882   4.821   4.459
 7383SOL     OW23047   6.851   6.201   3.320
 7383SOL    HW123048   6.819   6.107   3.326
 7383SOL    HW223049   6.869   6.224   3.224
 7384SOL     OW23050   5.317   6.534   2.234
 7384SOL    HW123051   5.315   6.556   2.332
 7384SOL    HW223052   5.378   6.598   2.187
 7385SOL     OW23053   4.825   6.139   1.316
 7385SOL    HW123054   4.921   6.148   1.290
 7385SOL    HW223055   4.802   6.210   1.383
 7386SOL     OW23056   0.784   2.124   5.516
 7386SOL    HW123057   0.757   2.071   5.435
 7386SOL    HW223058   0.831   2.207   5.488
 7387SOL     OW23059   3.987   5.427   3.583
 7387SOL    HW123060   4.016   5.334   3.563
 7387SOL    HW223061   4.036   5.461   3.663
 7388SOL     OW23062   6.730   4.666   3.546
 7388SOL    HW123063   6.686   4.660   3.456
 7388SOL    HW223064   6.792   4.744   3.548
 7389SOL     OW23065   1.742   4.706   6.815
 7389SOL    HW123066   1.649   4.707   6.778
 7389SOL    HW223067   1.772   4.800   6.830
 7390SOL     OW23068   0.987   0.810   5.715
 7390SOL    HW123069   0.916   0.799   5.645
 7390SOL    HW223070   0.965   0.754   5.794
 7391SOL     OW23071   6.370   3.330   6.589
 7391SOL    HW123072   6.300   3.385   6.542
 7391SOL    HW223073   6.326   3.255   6.638
 7392SOL     OW23074   1.441   4.900   4.376
 7392SOL    HW123075   1.505   4.930   4.305
 7392SOL    HW223076   1.375   4.837   4.336
 7393SOL     OW23077   0.014   5.080   2.083
 7393SOL    HW123078   0.113   5.071   2.092
 7393SOL    HW223079   7.005   5.173   2.106
 7394SOL     OW23080   3.824   3.500   6.298
 7394SOL    HW123081   3.842   3.436   6.373
 7394SOL    HW223082   3.744   3.555   6.318
 7395SOL     OW23083   0.707   0.036   0.296
 7395SOL    HW123084   0.804   0.051   0.276
 7395SOL    HW223085   0.655   0.033   0.211
 7396SOL     OW23086   1.331   0.169   6.333
 7396SOL    HW123087   1.424   0.162   6.369
 7396SOL    HW223088   1.273   0.214   6.400
 7397SOL     OW23089   6.825   4.613   5.085
 7397SOL    HW123090   6.911   4.664   5.084
 7397SOL    HW223091   6.811   4.573   5.176
 7398SOL     OW23092   4.527   4.510   4.059
 7398SOL    HW123093   4.505   4.603   4.029
 7398SOL    HW223094   4.475   4.489   4.142
 7399SOL     OW23095   5.235   3.804   5.954
 7399SOL    HW123096   5.327   3.770   5.937
 7399SOL    HW223097   5.178   3.730   5.990
 7400SOL     OW23098   3.018   4.919   6.482
 7400SOL    HW123099   2.937   4.898   6.428
 7400SOL    HW223100   3.038   4.842   6.544
 7401SOL     OW23101   0.219   1.784   4.266
 7401SOL    HW123102   0.201   1.744   4.356
 7401SOL    HW223103   0.232   1.711   4.199
 7402SOL     OW23104   2.591   0.347   3.552
 7402SOL    HW123105   2.617   0.349   3.648
 7402SOL    HW223106   2.568   0.253   3.525
 7403SOL     OW23107   2.082   3.119   2.950
 7403SOL    HW123108   2.006   3.055   2.966
 7403SOL    HW223109   2.101   3.169   3.034
 7404SOL     OW23110   1.339   0.685   1.215
 7404SOL    HW123111   1.400   0.671   1.138
 7404SOL    HW223112   1.277   0.761   1.195
 7405SOL     OW23113   2.782   5.266   5.487
 7405SOL    HW123114   2.686   5.245   5.507
 7405SOL    HW223115   2.819   5.197   5.426
 7406SOL     OW23116   1.097   4.066   2.330
 7406SOL    HW123117   0.998   4.068   2.346
 7406SOL    HW223118   1.144   4.117   2.401
 7407SOL     OW23119   1.349   6.209   5.601
 7407SOL    HW123120   1.330   6.243   5.508
 7407SOL    HW223121   1.299   6.123   5.616
 7408SOL     OW23122   1.364   4.633   5.283
 7408SOL    HW123123   1.418   4.679   5.353
 7408SOL    HW223124   1.357   4.691   5.202
 7409SOL     OW23125   1.521   0.421   4.648
 7409SOL    HW123126   1.550   0.387   4.558
 7409SOL    HW223127   1.429   0.459   4.640
 7410SOL     OW23128   6.794   5.652   1.336
 7410SOL    HW123129   6.812   5.629   1.431
 7410SOL    HW223130   6.861   5.606   1.277
 7411SOL     OW23131   2.729   6.130   4.830
 7411SOL    HW123132   2.786   6.168   4.903
 7411SOL    HW223133   2.669   6.202   4.794
 7412SOL     OW23134   1.734   1.050   1.119
 7412SOL    HW123135   1.818   1.011   1.158
 7412SOL    HW223136   1.713   1.004   1.033
 7413SOL     OW23137   5.905   3.824   4.517
 7413SOL    HW123138   5.865   3.815   4.426
 7413SOL    HW223139   5.954   3.911   4.523
 7414SOL     OW23140   6.394   6.598   2.228
 7414SOL    HW123141   6.381   6.619   2.324
 7414SOL    HW223142   6.323   6.643   2.174
 7415SOL     OW23143   1.979   3.492   3.165
 7415SOL    HW123144   2.008   3.556   3.236
 7415SOL    HW223145   2.033   3.408   3.173
 7416SOL     OW23146   3.638   1.149   4.191
 7416SOL    HW123147   3.571   1.075   4.188
 7416SOL    HW223148   3.592   1.233   4.220
 7417SOL     OW23149   1.388   6.694   6.986
 7417SOL    HW123150   1.465   6.674   6.926
 7417SOL    HW223151   1.419   6.694   0.062
 7418SOL     OW23152   2.783   3.914   1.371
 7418SOL    HW123153   2.769   3.929   1.469
 7418SOL    HW223154   2.702   3.870   1.333
 7419SOL     OW23155   5.606   1.530   5.085
 7419SOL    HW123156   5.659   1.446   5.077
 7419SOL    HW223157   5.668   1.608   5.089
 7420SOL     OW23158   6.385   6.030   2.290
 7420SOL    HW123159   6.289   6.055   2.281
 7420SOL    HW223160   6.436   6.065   2.211
 7421SOL     OW23161   3.999   3.824   1.580
 7421SOL    HW123162   3.986   3.751   1.646
 7421SOL    HW223163   4.027   3.907   1.627
 7422SOL     OW23164   0.139   3.599   0.422
 7422SOL    HW123165   0.069   3.670   0.427
 7422SOL    HW223166   0.162   3.568   0.514
 7423SOL     OW23167   1.904   4.603   5.890
 7423SOL    HW123168   1.997   4.604   5.927
 7423SOL    HW223169   1.899   4.663   5.811
 7424SOL     OW23170   5.152   0.809   4.393
 7424SOL    HW123171   5.191   0.865   4.465
 7424SOL    HW223172   5.213   0.732   4.372
 7425SOL     OW23173   3.736   4.621   6.034
 7425SOL    HW123174   3.691   4.703   5.997
 7425SOL    HW223175   3.812   4.649   6.092
 7426SOL     OW23176   1.010   1.518   6.074
 7426SOL    HW123177   1.088   1.572   6.105
 7426SOL    HW223178   0.989   1.448   6.142
 7427SOL     OW23179   3.222   5.953   4.848
 7427SOL    HW123180   3.219   5.955   4.948
 7427SOL    HW223181   3.148   5.895   4.814
 7428SOL     OW23182   3.704   2.534   5.928
 7428SOL    HW123183   3.800   2.560   5.942
 7428SOL    HW223184   3.654   2.614   5.895
 7429SOL     OW23185   0.226   0.766   2.722
 7429SOL    HW123186   0.223   0.728   2.815
 7429SOL    HW223187   0.288   0.710   2.666
 7430SOL     OW23188   6.252   3.785   5.277
 7430SOL    HW123189   6.174   3.786   5.216
 7430SOL    HW223190   6.333   3.817   5.229
 7431SOL     OW23191   0.538   3.346   2.065
 7431SOL    HW123192   0.465   3.343   2.133
 7431SOL    HW223193   0.498   3.353   1.974
 7432SOL     OW23194   6.925   6.457   4.178
 7432SOL    HW123195   6.973   6.455   4.266
 7432SOL    HW223196   6.987   6.488   4.107
 7433SOL     OW23197   6.379   5.239   0.837
 7433SOL    HW123198   6.301   5.301   0.838
 7433SOL    HW223199   6.353   5.154   0.791
 7434SOL     OW23200   2.899   1.779   6.521
 7434SOL    HW123201   2.896   1.802   6.618
 7434SOL    HW223202   2.843   1.697   6.504
 7435SOL     OW23203   3.011   6.103   6.737
 7435SOL    HW123204   3.037   6.035   6.669
 7435SOL    HW223205   3.054   6.191   6.716
 7436SOL     OW23206   5.317   3.105   6.628
 7436SOL    HW123207   5.242   3.043   6.603
 7436SOL    HW223208   5.389   3.053   6.674
 7437SOL     OW23209   0.445   5.842   6.089
 7437SOL    HW123210   0.389   5.887   6.158
 7437SOL    HW223211   0.412   5.868   5.998
 7438SOL     OW23212   0.396   4.545   2.252
 7438SOL    HW123213   0.347   4.460   2.232
 7438SOL    HW223214   0.470   4.557   2.185
 7439SOL     OW23215   2.165   6.793   3.407
 7439SOL    HW123216   2.178   6.703   3.366
 7439SOL    HW223217   2.242   6.814   3.467
 7440SOL     OW23218   1.079   2.777   4.291
 7440SOL    HW123219   1.121   2.688   4.311
 7440SOL    HW223220   1.020   2.804   4.366
 7441SOL     OW23221   5.362   1.213   4.201
 7441SOL    HW123222   5.326   1.303   4.226
 7441SOL    HW223223   5.390   1.165   4.283
 7442SOL     OW23224   1.204   1.643   6.208
 7442SOL    HW123225   1.279   1.578   6.223
 7442SOL    HW223226   1.242   1.730   6.178
 7443SOL     OW23227   1.074   1.174   6.187
 7443SOL    HW123228   0.990   1.193   6.238
 7443SOL    HW223229   1.153   1.186   6.248
 7444SOL     OW23230   0.298   3.290   5.709
 7444SOL    HW123231   0.314   3.194   5.730
 7444SOL    HW223232   0.380   3.343   5.734
 7445SOL     OW23233   5.158   1.431   1.694
 7445SOL    HW123234   5.113   1.434   1.784
 7445SOL    HW223235   5.209   1.345   1.686
 7446SOL     OW23236   6.910   3.858   1.057
 7446SOL    HW123237   6.878   3.800   1.131
 7446SOL    HW223238   6.853   3.844   0.976
 7447SOL     OW23239   1.066   4.105   0.136
 7447SOL    HW123240   0.974   4.114   0.098
 7447SOL    HW223241   1.083   4.009   0.158
 7448SOL     OW23242   5.578   0.080   5.472
 7448SOL    HW123243   5.657   0.060   5.414
 7448SOL    HW223244   5.530   7.014   5.494
 7449SOL     OW23245   5.125   2.058   2.014
 7449SOL    HW123246   5.193   2.122   1.981
 7449SOL    HW223247   5.135   2.046   2.113
 7450SOL     OW23248   4.610   1.940   3.008
 7450SOL    HW123249   4.620   2.023   3.062
 7450SOL    HW223250   4.553   1.959   2.927
 7451SOL     OW23251   1.858   0.751   4.632
 7451SOL    HW123252   1.875   0.774   4.536
 7451SOL    HW223253   1.762   0.724   4.643
 7452SOL     OW23254   1.891   6.986   4.733
 7452SOL    HW123255   1.824   0.009   4.672
 7452SOL    HW223256   1.930   0.037   4.792
 7453SOL     OW23257   5.982   6.285   5.255
 7453SOL    HW123258   5.911   6.347   5.288
 7453SOL    HW223259   5.940   6.208   5.207
 7454SOL     OW23260   0.706   3.655   1.665
 7454SOL    HW123261   0.640   3.596   1.617
 7454SOL    HW223262   0.757   3.708   1.598
 7455SOL     OW23263   4.826   2.733   0.361
 7455SOL    HW123264   4.896   2.695   0.422
 7455SOL    HW223265   4.742   2.750   0.413
 7456SOL     OW23266   1.276   3.523   4.861
 7456SOL    HW123267   1.256   3.460   4.937
 7456SOL    HW223268   1.204   3.516   4.792
 7457SOL     OW23269   5.828   0.943   5.205
 7457SOL    HW123270   5.899   0.886   5.164
 7457SOL    HW223271   5.788   1.002   5.135
 7458SOL     OW23272   3.278   0.805   6.719
 7458SOL    HW123273   3.228   0.757   6.647
 7458SOL    HW223274   3.256   0.764   6.808
 7459SOL     OW23275   4.686   0.280   5.492
 7459SOL    HW123276   4.603   0.285   5.437
 7459SOL    HW223277   4.766   0.298   5.434
 7460SOL     OW23278   0.841   4.492   0.759
 7460SOL    HW123279   0.911   4.449   0.703
 7460SOL    HW223280   0.828   4.587   0.729
 7461SOL     OW23281   5.266   1.084   5.408
 7461SOL    HW123282   5.228   1.137   5.331
 7461SOL    HW223283   5.199   1.080   5.482
 7462SOL     OW23284   2.216   1.994   2.220
 7462SOL    HW123285   2.188   1.919   2.159
 7462SOL    HW223286   2.222   1.960   2.313
 7463SOL     OW23287   4.300   3.245   1.694
 7463SOL    HW123288   4.218   3.287   1.732
 7463SOL    HW223289   4.368   3.316   1.676
 7464SOL     OW23290   4.794   6.389   1.000
 7464SOL    HW123291   4.735   6.328   0.949
 7464SOL    HW223292   4.859   6.336   1.055
 7465SOL     OW23293   2.609   0.353   1.560
 7465SOL    HW123294   2.554   0.422   1.607
 7465SOL    HW223295   2.618   0.378   1.463
 7466SOL     OW23296   0.554   0.110   0.060
 7466SOL    HW123297   0.473   0.145   0.106
 7466SOL    HW223298   0.631   0.171   0.076
 7467SOL     OW23299   0.226   2.114   1.250
 7467SOL    HW123300   0.130   2.115   1.222
 7467SOL    HW223301   0.244   2.190   1.312
 7468SOL     OW23302   5.576   1.807   3.009
 7468SOL    HW123303   5.481   1.784   2.988
 7468SOL    HW223304   5.636   1.769   2.939
 7469SOL     OW23305   0.984   1.084   0.304
 7469SOL    HW123306   0.933   1.098   0.220
 7469SOL    HW223307   1.072   1.042   0.283
 7470SOL     OW23308   0.408   1.996   1.798
 7470SOL    HW123309   0.378   2.003   1.703
 7470SOL    HW223310   0.489   1.938   1.804
 7471SOL     OW23311   6.488   6.459   5.248
 7471SOL    HW123312   6.389   6.444   5.250
 7471SOL    HW223313   6.507   6.557   5.253
 7472SOL     OW23314   4.014   0.288   4.200
 7472SOL    HW123315   4.100   0.316   4.242
 7472SOL    HW223316   3.962   0.231   4.263
 7473SOL     OW23317   7.018   3.681   4.102
 7473SOL    HW123318   0.086   3.659   4.058
 7473SOL    HW223319   6.955   3.604   4.092
 7474SOL     OW23320   3.268   1.000   3.825
 7474SOL    HW123321   3.301   0.913   3.862
 7474SOL    HW223322   3.232   0.986   3.733
 7475SOL     OW23323   4.020   0.584   1.354
 7475SOL    HW123324   4.021   0.651   1.280
 7475SOL    HW223325   4.099   0.524   1.346
 7476SOL     OW23326   3.899   5.722   4.464
 7476SOL    HW123327   3.821   5.774   4.499
 7476SOL    HW223328   3.867   5.639   4.418
 7477SOL     OW23329   4.354   1.067   3.467
 7477SOL    HW123330   4.313   0.980   3.440
 7477SOL    HW223331   4.321   1.140   3.407
 7478SOL     OW23332   2.542   3.974   6.665
 7478SOL    HW123333   2.596   3.997   6.746
 7478SOL    HW223334   2.476   4.048   6.647
 7479SOL     OW23335   4.441   0.713   0.136
 7479SOL    HW123336   4.522   0.683   0.085
 7479SOL    HW223337   4.468   0.782   0.203
 7480SOL     OW23338   5.877   5.836   1.328
 7480SOL    HW123339   5.941   5.829   1.404
 7480SOL    HW223340   5.809   5.906   1.348
 7481SOL     OW23341   6.124   4.626   0.468
 7481SOL    HW123342   6.087   4.550   0.414
 7481SOL    HW223343   6.222   4.612   0.481
 7482SOL     OW23344   4.880   0.827   2.799
 7482SOL    HW123345   4.797   0.772   2.805
 7482SOL    HW223346   4.863   0.917   2.839
 7483SOL     OW23347   3.533   1.422   4.223
 7483SOL    HW123348   3.548   1.495   4.156
 7483SOL    HW223349   3.439   1.390   4.217
 7484SOL     OW23350   1.846   6.203   1.846
 7484SOL    HW123351   1.865   6.124   1.903
 7484SOL    HW223352   1.861   6.287   1.898
 7485SOL     OW23353   3.399   5.583   5.888
 7485SOL    HW123354   3.498   5.599   5.884
 7485SOL    HW223355   3.362   5.628   5.969
 7486SOL     OW23356   3.528   6.031   5.091
 7486SOL    HW123357   3.551   6.024   4.994
 7486SOL    HW223358   3.455   6.098   5.103
 7487SOL     OW23359   3.026   6.607   3.342
 7487SOL    HW123360   3.073   6.661   3.272
 7487SOL    HW223361   2.927   6.612   3.327
 7488SOL     OW23362   2.856   6.960   5.416
 7488SOL    HW123363   2.822   6.877   5.371
 7488SOL    HW223364   2.934   6.936   5.474
 7489SOL     OW23365   4.561   2.615   4.166
 7489SOL    HW123366   4.603   2.535   4.123
 7489SOL    HW223367   4.630   2.668   4.214
 7490SOL     OW23368   6.647   1.385   0.912
 7490SOL    HW123369   6.692   1.444   0.846
 7490SOL    HW223370   6.597   1.313   0.864
 7491SOL     OW23371   0.160   5.713   6.370
 7491SOL    HW123372   0.184   5.808   6.350
 7491SOL    HW223373   0.242   5.656   6.363
 7492SOL     OW23374   2.144   3.000   5.222
 7492SOL    HW123375   2.088   3.072   5.181
 7492SOL    HW223376   2.223   2.982   5.163
 7493SOL     OW23377   5.683   3.919   6.004
 7493SOL    HW123378   5.635   3.987   6.058
 7493SOL    HW223379   5.681   3.830   6.051
 7494SOL     OW23380   5.809   0.697   1.955
 7494SOL    HW123381   5.896   0.652   1.935
 7494SOL    HW223382   5.734   0.632   1.943
 7495SOL     OW23383   2.633   1.579   0.424
 7495SOL    HW123384   2.714   1.523   0.406
 7495SOL    HW223385   2.649   1.635   0.506
 7496SOL     OW23386   1.042   5.085   6.136
 7496SOL    HW123387   0.980   5.088   6.214
 7496SOL    HW223388   1.016   5.157   6.071
 7497SOL     OW23389   2.181   4.605   2.398
 7497SOL    HW123390   2.167   4.543   2.475
 7497SOL    HW223391   2.208   4.695   2.432
 7498SOL     OW23392   2.738   1.200   4.720
 7498SOL    HW123393   2.642   1.228   4.714
 7498SOL    HW223394   2.791   1.273   4.764
 7499SOL     OW23395   5.271   6.567   4.699
 7499SOL    HW123396   5.307   6.488   4.648
 7499SOL    HW223397   5.240   6.537   4.789
 7500SOL     OW23398   4.535   5.806   2.095
 7500SOL    HW123399   4.601   5.732   2.107
 7500SOL    HW223400   4.570   5.871   2.027
 7501SOL     OW23401   1.059   3.503   3.705
 7501SOL    HW123402   1.023   3.416   3.737
 7501SOL    HW223403   0.984   3.570   3.700
 7502SOL     OW23404   2.634   0.798   4.940
 7502SOL    HW123405   2.540   0.772   4.963
 7502SOL    HW223406   2.637   0.838   4.849
 7503SOL     OW23407   2.849   0.810   6.703
 7503SOL    HW123408   2.833   0.853   6.792
 7503SOL    HW223409   2.917   0.863   6.652
 7504SOL     OW23410   3.900   6.502   3.318
 7504SOL    HW123411   3.841   6.552   3.254
 7504SOL    HW223412   3.849   6.481   3.401
 7505SOL     OW23413   1.668   0.959   5.229
 7505SOL    HW123414   1.752   1.008   5.254
 7505SOL    HW223415   1.687   0.895   5.154
 7506SOL     OW23416   3.179   1.113   2.288
 7506SOL    HW123417   3.249   1.059   2.333
 7506SOL    HW223418   3.105   1.133   2.352
 7507SOL     OW23419   0.155   6.395   6.092
 7507SOL    HW123420   0.165   6.379   5.994
 7507SOL    HW223421   0.245   6.393   6.136
 7508SOL     OW23422   5.539   6.699   3.364
 7508SOL    HW123423   5.621   6.648   3.338
 7508SOL    HW223424   5.465   6.676   3.301
 7509SOL     OW23425   5.474   3.785   6.487
 7509SOL    HW123426   5.470   3.813   6.583
 7509SOL    HW223427   5.399   3.828   6.436
 7510SOL     OW23428   3.217   3.755   4.740
 7510SOL    HW123429   3.158   3.820   4.693
 7510SOL    HW223430   3.297   3.734   4.684
 7511SOL     OW23431   1.719   0.091   2.330
 7511SOL    HW123432   1.802   0.042   2.359
 7511SOL    HW223433   1.719   0.098   2.230
 7512SOL     OW23434   2.645   3.295   1.514
 7512SOL    HW123435   2.684   3.384   1.493
 7512SOL    HW223436   2.694   3.254   1.591
 7513SOL     OW23437   1.600   2.313   5.910
 7513SOL    HW123438   1.590   2.279   5.817
 7513SOL    HW223439   1.655   2.249   5.963
 7514SOL     OW23440   2.794   6.108   2.025
 7514SOL    HW123441   2.871   6.172   2.024
 7514SOL    HW223442   2.826   6.017   2.049
 7515SOL     OW23443   0.293   0.271   2.975
 7515SOL    HW123444   0.200   0.296   3.000
 7515SOL    HW223445   0.355   0.293   3.050
 7516SOL     OW23446   0.073   0.374   4.625
 7516SOL    HW123447   0.020   0.442   4.678
 7516SOL    HW223448   0.147   0.339   4.682
 7517SOL     OW23449   0.233   3.729   1.245
 7517SOL    HW123450   0.264   3.752   1.153
 7517SOL    HW223451   0.136   3.706   1.243
 7518SOL     OW23452   4.032   5.563   3.322
 7518SOL    HW123453   4.007   5.538   3.415
 7518SOL    HW223454   4.057   5.481   3.271
 7519SOL     OW23455   1.302   6.338   4.855
 7519SOL    HW123456   1.346   6.292   4.778
 7519SOL    HW223457   1.270   6.428   4.825
 7520SOL     OW23458   1.425   6.642   3.487
 7520SOL    HW123459   1.405   6.668   3.393
 7520SOL    HW223460   1.377   6.704   3.549
 7521SOL     OW23461   4.740   4.212   4.977
 7521SOL    HW123462   4.815   4.253   5.030
 7521SOL    HW223463   4.656   4.213   5.032
 7522SOL     OW23464   2.074   1.469   0.070
 7522SOL    HW123465   1.976   1.459   0.086
 7522SOL    HW223466   2.122   1.477   0.157
 7523SOL     OW23467   5.560   0.168   5.729
 7523SOL    HW123468   5.577   0.131   5.637
 7523SOL    HW223469   5.634   0.230   5.755
 7524SOL     OW23470   0.407   1.821   5.576
 7524SOL    HW123471   0.487   1.761   5.575
 7524SOL    HW223472   0.437   1.916   5.564
 7525SOL     OW23473   1.736   0.955   0.262
 7525SOL    HW123474   1.745   0.875   0.202
 7525SOL    HW223475   1.770   1.036   0.216
 7526SOL     OW23476   3.703   2.897   4.513
 7526SOL    HW123477   3.686   2.994   4.492
 7526SOL    HW223478   3.638   2.841   4.462
 7527SOL     OW23479   5.027   4.287   2.486
 7527SOL    HW123480   5.039   4.200   2.535
 7527SOL    HW223481   5.092   4.291   2.410
 7528SOL     OW23482   4.458   2.979   0.347
 7528SOL    HW123483   4.418   3.034   0.421
 7528SOL    HW223484   4.483   3.039   0.271
 7529SOL     OW23485   4.228   1.080   3.991
 7529SOL    HW123486   4.310   1.120   4.032
 7529SOL    HW223487   4.254   1.028   3.909
 7530SOL     OW23488   6.890   3.849   2.395
 7530SOL    HW123489   6.932   3.764   2.361
 7530SOL    HW223490   6.870   3.909   2.318
 7531SOL     OW23491   4.434   1.863   3.913
 7531SOL    HW123492   4.399   1.791   3.972
 7531SOL    HW223493   4.529   1.885   3.939
 7532SOL     OW23494   5.733   6.100   2.046
 7532SOL    HW123495   5.778   6.014   2.019
 7532SOL    HW223496   5.777   6.135   2.128
 7533SOL     OW23497   3.250   1.292   4.094
 7533SOL    HW123498   3.281   1.369   4.038
 7533SOL    HW223499   3.321   1.221   4.095
 7534SOL     OW23500   4.060   6.169   5.209
 7534SOL    HW123501   4.070   6.258   5.254
 7534SOL    HW223502   3.972   6.129   5.234
 7535SOL     OW23503   2.850   2.538   5.772
 7535SOL    HW123504   2.755   2.539   5.801
 7535SOL    HW223505   2.862   2.469   5.700
 7536SOL     OW23506   4.192   5.476   4.532
 7536SOL    HW123507   4.195   5.378   4.549
 7536SOL    HW223508   4.150   5.522   4.611
 7537SOL     OW23509   1.804   4.513   4.525
 7537SOL    HW123510   1.768   4.435   4.474
 7537SOL    HW223511   1.746   4.593   4.508
 7538SOL     OW23512   3.292   3.545   2.761
 7538SOL    HW123513   3.364   3.602   2.799
 7538SOL    HW223514   3.316   3.448   2.771
 7539SOL     OW23515   1.806   3.261   5.297
 7539SOL    HW123516   1.898   3.298   5.289
 7539SOL    HW223517   1.796   3.181   5.237
 7540SOL     OW23518   2.703   1.366   6.914
 7540SOL    HW123519   2.634   1.326   6.975
 7540SOL    HW223520   2.727   1.300   6.843
 7541SOL     OW23521   5.876   2.332   5.546
 7541SOL    HW123522   5.935   2.259   5.511
 7541SOL    HW223523   5.781   2.313   5.520
 7542SOL     OW23524   1.124   0.115   6.011
 7542SOL    HW123525   1.130   0.042   5.943
 7542SOL    HW223526   1.091   0.077   6.098
 7543SOL     OW23527   4.240   3.162   0.424
 7543SOL    HW123528   4.208   3.220   0.349
 7543SOL    HW223529   4.203   3.070   0.413
 7544SOL     OW23530   1.427   2.066   3.007
 7544SOL    HW123531   1.350   2.013   3.044
 7544SOL    HW223532   1.411   2.163   3.022
 7545SOL     OW23533   4.735   0.086   2.749
 7545SOL    HW123534   4.701   7.012   2.767
 7545SOL    HW223535   4.742   0.136   2.835
 7546SOL     OW23536   5.364   0.639   0.234
 7546SOL    HW123537   5.449   0.680   0.266
 7546SOL    HW223538   5.293   0.652   0.303
 7547SOL     OW23539   3.870   0.625   0.539
 7547SOL    HW123540   3.842   0.530   0.552
 7547SOL    HW223541   3.789   0.682   0.526
 7548SOL     OW23542   2.614   1.610   1.656
 7548SOL    HW123543   2.645   1.627   1.749
 7548SOL    HW223544   2.555   1.685   1.626
 7549SOL     OW23545   5.447   1.674   2.621
 7549SOL    HW123546   5.439   1.629   2.532
 7549SOL    HW223547   5.364   1.660   2.673
 7550SOL     OW23548   2.085   6.066   2.283
 7550SOL    HW123549   2.130   5.978   2.267
 7550SOL    HW223550   1.986   6.053   2.284
 7551SOL     OW23551   4.437   3.478   6.573
 7551SOL    HW123552   4.488   3.441   6.651
 7551SOL    HW223553   4.493   3.546   6.526
 7552SOL     OW23554   2.329   5.575   3.942
 7552SOL    HW123555   2.376   5.564   3.855
 7552SOL    HW223556   2.332   5.671   3.970
 7553SOL     OW23557   4.063   5.028   6.137
 7553SOL    HW123558   4.069   4.956   6.067
 7553SOL    HW223559   3.999   5.099   6.106
 7554SOL     OW23560   4.812   1.503   0.879
 7554SOL    HW123561   4.777   1.531   0.790
 7554SOL    HW223562   4.824   1.404   0.881
 7555SOL     OW23563   0.317   5.582   5.644
 7555SOL    HW123564   0.408   5.562   5.679
 7555SOL    HW223565   0.296   5.520   5.568
 7556SOL     OW23566   0.689   3.271   4.841
 7556SOL    HW123567   0.752   3.324   4.897
 7556SOL    HW223568   0.595   3.294   4.865
 7557SOL     OW23569   5.348   4.145   6.073
 7557SOL    HW123570   5.345   4.045   6.081
 7557SOL    HW223571   5.261   4.179   6.038
 7558SOL     OW23572   1.973   2.784   3.880
 7558SOL    HW123573   2.060   2.814   3.918
 7558SOL    HW223574   1.981   2.773   3.781
 7559SOL     OW23575   6.627   4.814   0.738
 7559SOL    HW123576   6.661   4.901   0.775
 7559SOL    HW223577   6.541   4.831   0.689
 7560SOL     OW23578   5.446   6.566   0.877
 7560SOL    HW123579   5.438   6.616   0.791
 7560SOL    HW223580   5.528   6.595   0.926
 7561SOL     OW23581   0.275   3.507   0.639
 7561SOL    HW123582   0.323   3.420   0.655
 7561SOL    HW223583   0.245   3.544   0.727
 7562SOL     OW23584   5.405   6.442   5.356
 7562SOL    HW123585   5.458   6.414   5.436
 7562SOL    HW223586   5.309   6.416   5.367
 7563SOL     OW23587   3.369   0.410   1.466
 7563SOL    HW123588   3.453   0.376   1.424
 7563SOL    HW223589   3.378   0.508   1.485
 7564SOL     OW23590   5.127   6.952   2.903
 7564SOL    HW123591   5.169   7.014   2.837
 7564SOL    HW223592   5.183   6.948   2.986
 7565SOL     OW23593   4.634   5.119   6.551
 7565SOL    HW123594   4.644   5.187   6.624
 7565SOL    HW223595   4.669   5.031   6.583
 7566SOL     OW23596   0.039   5.534   4.253
 7566SOL    HW123597   0.033   5.558   4.156
 7566SOL    HW223598   0.099   5.599   4.300
 7567SOL     OW23599   2.387   4.550   5.777
 7567SOL    HW123600   2.330   4.494   5.837
 7567SOL    HW223601   2.428   4.624   5.830
 7568SOL     OW23602   5.470   5.656   3.119
 7568SOL    HW123603   5.497   5.560   3.119
 7568SOL    HW223604   5.432   5.680   3.209
 7569SOL     OW23605   4.299   5.848   6.857
 7569SOL    HW123606   4.275   5.945   6.851
 7569SOL    HW223607   4.394   5.840   6.886
 7570SOL     OW23608   5.944   5.079   4.097
 7570SOL    HW123609   5.948   5.035   4.187
 7570SOL    HW223610   6.010   5.036   4.036
 7571SOL     OW23611   5.752   3.911   1.729
 7571SOL    HW123612   5.798   3.828   1.697
 7571SOL    HW223613   5.678   3.935   1.666
 7572SOL     OW23614   4.183   0.836   4.140
 7572SOL    HW123615   4.182   0.935   4.132
 7572SOL    HW223616   4.232   0.797   4.061
 7573SOL     OW23617   0.114   5.370   4.711
 7573SOL    HW123618   0.138   5.407   4.621
 7573SOL    HW223619   0.040   5.303   4.701
 7574SOL     OW23620   5.731   1.193   3.797
 7574SOL    HW123621   5.724   1.101   3.759
 7574SOL    HW223622   5.723   1.188   3.897
 7575SOL     OW23623   3.858   1.141   5.630
 7575SOL    HW123624   3.837   1.230   5.670
 7575SOL    HW223625   3.956   1.121   5.641
 7576SOL     OW23626   5.924   4.236   0.087
 7576SOL    HW123627   5.884   4.221   0.178
 7576SOL    HW223628   5.949   4.148   0.047
 7577SOL     OW23629   6.497   1.277   4.858
 7577SOL    HW123630   6.467   1.196   4.908
 7577SOL    HW223631   6.537   1.249   4.771
 7578SOL     OW23632   2.083   6.462   4.801
 7578SOL    HW123633   2.015   6.403   4.758
 7578SOL    HW223634   2.050   6.557   4.801
 7579SOL     OW23635   3.864   2.154   2.422
 7579SOL    HW123636   3.773   2.138   2.382
 7579SOL    HW223637   3.854   2.176   2.519
 7580SOL     OW23638   2.004   4.105   2.824
 7580SOL    HW123639   1.967   4.027   2.874
 7580SOL    HW223640   2.085   4.139   2.871
 7581SOL     OW23641   5.714   1.328   0.814
 7581SOL    HW123642   5.658   1.274   0.877
 7581SOL    HW223643   5.807   1.293   0.814
 7582SOL     OW23644   3.494   1.716   0.962
 7582SOL    HW123645   3.533   1.795   0.914
 7582SOL    HW223646   3.468   1.743   1.054
 7583SOL     OW23647   5.944   3.966   2.130
 7583SOL    HW123648   5.933   4.065   2.140
 7583SOL    HW223649   5.988   3.929   2.212
 7584SOL     OW23650   2.623   6.482   1.169
 7584SOL    HW123651   2.589   6.549   1.234
 7584SOL    HW223652   2.604   6.513   1.076
 7585SOL     OW23653   1.722   4.322   6.455
 7585SOL    HW123654   1.776   4.377   6.518
 7585SOL    HW223655   1.684   4.380   6.383
 7586SOL     OW23656   2.742   0.180   2.942
 7586SOL    HW123657   2.815   0.140   2.887
 7586SOL    HW223658   2.715   0.268   2.902
 7587SOL     OW23659   1.330   1.942   0.264
 7587SOL    HW123660   1.388   1.880   0.317
 7587SOL    HW223661   1.257   1.890   0.219
 7588SOL     OW23662   0.604   5.271   2.188
 7588SOL    HW123663   0.679   5.327   2.223
 7588SOL    HW223664   0.561   5.316   2.110
 7589SOL     OW23665   6.104   6.141   0.350
 7589SOL    HW123666   6.132   6.235   0.368
 7589SOL    HW223667   6.008   6.139   0.320
 7590SOL     OW23668   2.591   1.892   5.890
 7590SOL    HW123669   2.601   1.936   5.801
 7590SOL    HW223670   2.534   1.949   5.949
 7591SOL     OW23671   0.469   5.301   7.001
 7591SOL    HW123672   0.468   5.237   6.925
 7591SOL    HW223673   0.474   5.251   0.069
 7592SOL     OW23674   6.621   5.416   6.977
 7592SOL    HW123675   6.613   5.497   0.016
 7592SOL    HW223676   6.717   5.403   6.952
 7593SOL     OW23677   5.170   2.268   0.153
 7593SOL    HW123678   5.136   2.353   0.111
 7593SOL    HW223679   5.093   2.207   0.170
 7594SOL     OW23680   0.908   5.702   3.301
 7594SOL    HW123681   0.923   5.612   3.259
 7594SOL    HW223682   0.890   5.690   3.399
 7595SOL     OW23683   0.101   3.306   6.017
 7595SOL    HW123684   0.185   3.318   6.070
 7595SOL    HW223685   0.109   3.356   5.930
 7596SOL     OW23686   5.067   4.526   2.609
 7596SOL    HW123687   5.139   4.491   2.668
 7596SOL    HW223688   5.015   4.449   2.572
 7597SOL     OW23689   3.367   5.614   2.028
 7597SOL    HW123690   3.422   5.580   1.951
 7597SOL    HW223691   3.297   5.677   1.993
 7598SOL     OW23692   6.756   0.007   3.135
 7598SOL    HW123693   6.683   6.966   3.168
 7598SOL    HW223694   6.799   0.053   3.213
 7599SOL     OW23695   6.155   1.704   3.136
 7599SOL    HW123696   6.060   1.690   3.163
 7599SOL    HW223697   6.180   1.800   3.149
 7600SOL     OW23698   1.447   0.072   2.307
 7600SOL    HW123699   1.409   0.131   2.378
 7600SOL    HW223700   1.547   0.080   2.307
 7601SOL     OW23701   2.283   6.158   3.430
 7601SOL    HW123702   2.347   6.219   3.384
 7601SOL    HW223703   2.205   6.210   3.465
 7602SOL     OW23704   2.317   4.263   4.681
 7602SOL    HW123705   2.346   4.184   4.734
 7602SOL    HW223706   2.218   4.261   4.667
 7603SOL     OW23707   0.748   6.063   0.010
 7603SOL    HW123708   0.789   5.976   7.001
 7603SOL    HW223709   0.801   6.139   6.992
 7604SOL     OW23710   3.451   5.940   4.121
 7604SOL    HW123711   3.476   5.984   4.035
 7604SOL    HW223712   3.533   5.925   4.176
 7605SOL     OW23713   1.058   5.006   6.986
 7605SOL    HW123714   1.142   4.953   6.973
 7605SOL    HW223715   0.979   4.951   6.961
 7606SOL     OW23716   0.497   2.893   1.805
 7606SOL    HW123717   0.524   2.802   1.775
 7606SOL    HW223718   0.565   2.960   1.775
 7607SOL     OW23719   5.113   0.141   0.171
 7607SOL    HW123720   5.047   0.150   0.245
 7607SOL    HW223721   5.090   0.061   0.115
 7608SOL     OW23722   2.992   3.572   3.292
 7608SOL    HW123723   3.072   3.576   3.233
 7608SOL    HW223724   2.989   3.653   3.350
 7609SOL     OW23725   0.351   3.423   4.244
 7609SOL    HW123726   0.329   3.450   4.338
 7609SOL    HW223727   0.450   3.420   4.232
 7610SOL     OW23728   5.813   0.702   1.401
 7610SOL    HW123729   5.719   0.674   1.379
 7610SOL    HW223730   5.819   0.727   1.497
 7611SOL     OW23731   1.212   1.976   6.951
 7611SOL    HW123732   1.145   1.964   0.005
 7611SOL    HW223733   1.278   1.900   6.953
 7612SOL     OW23734   3.979   1.642   4.042
 7612SOL    HW123735   3.977   1.546   4.013
 7612SOL    HW223736   4.019   1.697   3.969
 7613SOL     OW23737   4.706   1.102   1.206
 7613SOL    HW123738   4.705   1.089   1.305
 7613SOL    HW223739   4.693   1.013   1.162
 7614SOL     OW23740   3.882   2.051   1.910
 7614SOL    HW123741   3.864   2.007   1.822
 7614SOL    HW223742   3.808   2.116   1.930
 7615SOL     OW23743   4.153   5.199   6.625
 7615SOL    HW123744   4.074   5.224   6.570
 7615SOL    HW223745   4.229   5.172   6.565
 7616SOL     OW23746   0.325   3.915   4.013
 7616SOL    HW123747   0.324   3.817   4.034
 7616SOL    HW223748   0.293   3.929   3.919
 7617SOL     OW23749   3.021   5.647   3.189
 7617SOL    HW123750   2.941   5.633   3.246
 7617SOL    HW223751   3.010   5.598   3.103
 7618SOL     OW23752   1.126   2.435   6.582
 7618SOL    HW123753   1.172   2.390   6.505
 7618SOL    HW223754   1.162   2.399   6.668
 7619SOL     OW23755   5.731   2.843   5.153
 7619SOL    HW123756   5.680   2.767   5.112
 7619SOL    HW223757   5.738   2.829   5.252
 7620SOL     OW23758   3.752   6.728   0.698
 7620SOL    HW123759   3.667   6.677   0.684
 7620SOL    HW223760   3.738   6.799   0.767
 7621SOL     OW23761   1.303   0.920   0.594
 7621SOL    HW123762   1.216   0.883   0.628
 7621SOL    HW223763   1.355   0.846   0.550
 7622SOL     OW23764   4.543   3.083   1.472
 7622SOL    HW123765   4.469   3.058   1.534
 7622SOL    HW223766   4.619   3.121   1.525
 7623SOL     OW23767   4.416   6.065   6.597
 7623SOL    HW123768   4.425   5.966   6.590
 7623SOL    HW223769   4.453   6.108   6.514
 7624SOL     OW23770   0.610   1.845   3.162
 7624SOL    HW123771   0.566   1.785   3.095
 7624SOL    HW223772   0.659   1.790   3.229
 7625SOL     OW23773   5.554   0.846   1.032
 7625SOL    HW123774   5.639   0.832   0.981
 7625SOL    HW223775   5.563   0.805   1.123
 7626SOL     OW23776   0.915   6.871   5.035
 7626SOL    HW123777   0.884   6.776   5.033
 7626SOL    HW223778   0.940   6.900   4.942
 7627SOL     OW23779   6.281   3.245   0.908
 7627SOL    HW123780   6.295   3.343   0.919
 7627SOL    HW223781   6.233   3.227   0.823
 7628SOL     OW23782   2.968   0.426   1.382
 7628SOL    HW123783   2.973   0.327   1.389
 7628SOL    HW223784   2.977   0.467   1.473
 7629SOL     OW23785   6.393   6.230   2.567
 7629SOL    HW123786   6.372   6.132   2.562
 7629SOL    HW223787   6.421   6.262   2.476
 7630SOL     OW23788   6.255   6.941   2.470
 7630SOL    HW123789   6.212   6.930   2.380
 7630SOL    HW223790   6.354   6.953   2.458
 7631SOL     OW23791   1.191   1.552   5.693
 7631SOL    HW123792   1.219   1.466   5.737
 7631SOL    HW223793   1.203   1.544   5.594
 7632SOL     OW23794   4.249   2.202   1.038
 7632SOL    HW123795   4.304   2.238   1.114
 7632SOL    HW223796   4.198   2.277   0.996
 7633SOL     OW23797   5.436   3.907   6.734
 7633SOL    HW123798   5.507   3.916   6.805
 7633SOL    HW223799   5.348   3.892   6.778
 7634SOL     OW23800   1.564   0.907   2.474
 7634SOL    HW123801   1.498   0.943   2.541
 7634SOL    HW223802   1.644   0.872   2.522
 7635SOL     OW23803   2.495   5.715   5.873
 7635SOL    HW123804   2.477   5.772   5.952
 7635SOL    HW223805   2.569   5.651   5.894
 7636SOL     OW23806   1.175   1.510   3.903
 7636SOL    HW123807   1.123   1.596   3.900
 7636SOL    HW223808   1.192   1.478   3.810
 7637SOL     OW23809   1.346   6.974   3.924
 7637SOL    HW123810   1.294   6.995   3.842
 7637SOL    HW223811   1.283   6.957   4.000
 7638SOL     OW23812   5.689   5.705   1.852
 7638SOL    HW123813   5.755   5.676   1.783
 7638SOL    HW223814   5.613   5.754   1.807
 7639SOL     OW23815   1.007   1.805   6.308
 7639SOL    HW123816   0.963   1.770   6.225
 7639SOL    HW223817   1.094   1.757   6.321
 7640SOL     OW23818   2.568   2.779   0.850
 7640SOL    HW123819   2.649   2.737   0.808
 7640SOL    HW223820   2.492   2.715   0.846
 7641SOL     OW23821   0.207   4.758   2.275
 7641SOL    HW123822   0.293   4.708   2.279
 7641SOL    HW223823   0.131   4.694   2.286
 7642SOL     OW23824   2.827   1.672   2.628
 7642SOL    HW123825   2.817   1.759   2.578
 7642SOL    HW223826   2.737   1.633   2.645
 7643SOL     OW23827   4.546   2.354   3.526
 7643SOL    HW123828   4.480   2.279   3.530
 7643SOL    HW223829   4.514   2.431   3.580
 7644SOL     OW23830   6.768   2.837   2.829
 7644SOL    HW123831   6.835   2.763   2.827
 7644SOL    HW223832   6.679   2.801   2.856
 7645SOL     OW23833   4.787   5.127   6.939
 7645SOL    HW123834   4.704   5.071   6.944
 7645SOL    HW223835   4.768   5.218   6.974
 7646SOL     OW23836   1.825   1.923   1.944
 7646SOL    HW123837   1.838   1.827   1.918
 7646SOL    HW223838   1.809   1.929   2.042
 7647SOL     OW23839   1.856   3.491   2.093
 7647SOL    HW123840   1.931   3.428   2.115
 7647SOL    HW223841   1.893   3.570   2.043
 7648SOL     OW23842   4.476   1.427   3.423
 7648SOL    HW123843   4.411   1.367   3.378
 7648SOL    HW223844   4.440   1.455   3.512
 7649SOL     OW23845   1.523   0.708   2.308
 7649SOL    HW123846   1.480   0.639   2.366
 7649SOL    HW223847   1.532   0.793   2.359
 7650SOL     OW23848   6.360   2.851   1.975
 7650SOL    HW123849   6.262   2.849   1.994
 7650SOL    HW223850   6.390   2.946   1.964
 7651SOL     OW23851   2.613   0.251   0.048
 7651SOL    HW123852   2.616   0.157   0.082
 7651SOL    HW223853   2.517   0.280   0.042
 7652SOL     OW23854   6.303   3.340   4.008
 7652SOL    HW123855   6.245   3.340   3.926
 7652SOL    HW223856   6.309   3.247   4.044
 7653SOL     OW23857   2.695   1.776   0.663
 7653SOL    HW123858   2.679   1.740   0.755
 7653SOL    HW223859   2.742   1.864   0.670
 7654SOL     OW23860   4.711   2.522   3.317
 7654SOL    HW123861   4.787   2.577   3.349
 7654SOL    HW223862   4.680   2.461   3.390
 7655SOL     OW23863   3.917   6.928   3.987
 7655SOL    HW123864   3.878   6.880   4.065
 7655SOL    HW223865   3.906   0.008   3.999
 7656SOL     OW23866   0.295   5.999   5.334
 7656SOL    HW123867   0.201   6.033   5.337
 7656SOL    HW223868   0.312   5.954   5.247
 7657SOL     OW23869   2.726   2.399   3.395
 7657SOL    HW123870   2.734   2.497   3.376
 7657SOL    HW223871   2.652   2.360   3.340
 7658SOL     OW23872   4.407   0.572   6.110
 7658SOL    HW123873   4.412   0.504   6.184
 7658SOL    HW223874   4.491   0.566   6.055
 7659SOL     OW23875   6.339   6.956   1.212
 7659SOL    HW123876   6.370   0.028   1.240
 7659SOL    HW223877   6.249   6.937   1.253
 7660SOL     OW23878   5.343   5.342   3.317
 7660SOL    HW123879   5.289   5.264   3.345
 7660SOL    HW223880   5.305   5.380   3.232
 7661SOL     OW23881   5.811   2.302   4.228
 7661SOL    HW123882   5.828   2.338   4.320
 7661SOL    HW223883   5.774   2.375   4.170
 7662SOL     OW23884   1.497   2.786   2.341
 7662SOL    HW123885   1.413   2.784   2.395
 7662SOL    HW223886   1.513   2.695   2.301
 7663SOL     OW23887   0.381   5.507   6.739
 7663SOL    HW123888   0.450   5.504   6.666
 7663SOL    HW223889   0.426   5.494   6.827
 7664SOL     OW23890   3.343   6.355   2.616
 7664SOL    HW123891   3.261   6.399   2.579
 7664SOL    HW223892   3.414   6.424   2.631
 7665SOL     OW23893   2.718   0.276   4.227
 7665SOL    HW123894   2.705   0.259   4.325
 7665SOL    HW223895   2.769   0.361   4.214
 7666SOL     OW23896   0.466   6.681   1.418
 7666SOL    HW123897   0.456   6.600   1.360
 7666SOL    HW223898   0.541   6.737   1.385
 7667SOL     OW23899   4.703   6.669   6.874
 7667SOL    HW123900   4.711   6.571   6.857
 7667SOL    HW223901   4.724   6.688   6.970
 7668SOL     OW23902   3.428   4.351   1.533
 7668SOL    HW123903   3.351   4.293   1.560
 7668SOL    HW223904   3.478   4.306   1.459
 7669SOL     OW23905   4.710   0.697   4.674
 7669SOL    HW123906   4.714   0.753   4.591
 7669SOL    HW223907   4.617   0.664   4.687
 7670SOL     OW23908   1.263   5.644   6.837
 7670SOL    HW123909   1.205   5.613   6.761
 7670SOL    HW223910   1.346   5.686   6.802
 7671SOL     OW23911   4.812   1.469   4.498
 7671SOL    HW123912   4.769   1.457   4.408
 7671SOL    HW223913   4.741   1.491   4.566
 7672SOL     OW23914   6.209   0.338   3.661
 7672SOL    HW123915   6.244   0.245   3.671
 7672SOL    HW223916   6.282   0.399   3.630
 7673SOL     OW23917   1.170   4.741   0.870
 7673SOL    HW123918   1.164   4.669   0.940
 7673SOL    HW223919   1.181   4.699   0.780
 7674SOL     OW23920   6.369   1.899   4.958
 7674SOL    HW123921   6.436   1.841   5.005
 7674SOL    HW223922   6.408   1.932   4.872
 7675SOL     OW23923   4.983   0.400   1.934
 7675SOL    HW123924   4.935   0.449   2.007
 7675SOL    HW223925   5.078   0.431   1.931
 7676SOL     OW23926   1.257   1.372   6.805
 7676SOL    HW123927   1.336   1.433   6.800
 7676SOL    HW223928   1.216   1.377   6.896
 7677SOL     OW23929   1.708   3.116   2.443
 7677SOL    HW123930   1.778   3.184   2.467
 7677SOL    HW223931   1.740   3.060   2.368
 7678SOL     OW23932   1.094   0.845   6.553
 7678SOL    HW123933   1.171   0.909   6.550
 7678SOL    HW223934   1.119   0.766   6.609
 7679SOL     OW23935   0.886   5.296   4.753
 7679SOL    HW123936   0.949   5.325   4.825
 7679SOL    HW223937   0.911   5.343   4.667
 7680SOL     OW23938   3.164   3.173   6.625
 7680SOL    HW123939   3.097   3.241   6.655
 7680SOL    HW223940   3.254   3.198   6.660
 7681SOL     OW23941   3.174   1.195   0.390
 7681SOL    HW123942   3.247   1.265   0.389
 7681SOL    HW223943   3.146   1.178   0.484
 7682SOL     OW23944   2.582   6.611   1.946
 7682SOL    HW123945   2.552   6.706   1.947
 7682SOL    HW223946   2.501   6.551   1.953
 7683SOL     OW23947   6.399   2.445   3.043
 7683SOL    HW123948   6.462   2.392   3.099
 7683SOL    HW223949   6.392   2.402   2.952
 7684SOL     OW23950   4.942   1.966   6.481
 7684SOL    HW123951   4.995   1.892   6.441
 7684SOL    HW223952   4.861   1.983   6.426
 7685SOL     OW23953   3.378   2.765   0.232
 7685SOL    HW123954   3.313   2.747   0.159
 7685SOL    HW223955   3.349   2.719   0.316
 7686SOL     OW23956   4.740   0.248   2.968
 7686SOL    HW123957   4.745   0.348   2.976
 7686SOL    HW223958   4.687   0.211   3.043
 7687SOL     OW23959   5.046   5.314   5.495
 7687SOL    HW123960   5.090   5.225   5.507
 7687SOL    HW223961   5.047   5.363   5.582
 7688SOL     OW23962   6.521   6.472   5.642
 7688SOL    HW123963   6.518   6.568   5.612
 7688SOL    HW223964   6.430   6.442   5.668
 7689SOL     OW23965   4.435   6.107   4.485
 7689SOL    HW123966   4.422   6.015   4.449
 7689SOL    HW223967   4.526   6.114   4.527
 7690SOL     OW23968   5.214   4.904   2.967
 7690SOL    HW123969   5.167   4.991   2.948
 7690SOL    HW223970   5.173   4.862   3.048
 7691SOL     OW23971   5.009   2.879   3.812
 7691SOL    HW123972   4.975   2.786   3.796
 7691SOL    HW223973   5.062   2.909   3.733
 7692SOL     OW23974   1.398   6.540   1.368
 7692SOL    HW123975   1.389   6.467   1.300
 7692SOL    HW223976   1.379   6.502   1.459
 7693SOL     OW23977   4.284   1.072   6.701
 7693SOL    HW123978   4.196   1.113   6.673
 7693SOL    HW223979   4.284   0.975   6.678
 7694SOL     OW23980   0.430   4.575   3.859
 7694SOL    HW123981   0.362   4.509   3.830
 7694SOL    HW223982   0.396   4.625   3.939
 7695SOL     OW23983   4.176   0.293   0.756
 7695SOL    HW123984   4.190   0.392   0.760
 7695SOL    HW223985   4.099   0.272   0.696
 7696SOL     OW23986   6.766   2.012   4.481
 7696SOL    HW123987   6.834   2.085   4.473
 7696SOL    HW223988   6.735   1.986   4.389
 7697SOL     OW23989   2.582   1.937   3.499
 7697SOL    HW123990   2.493   1.982   3.511
 7697SOL    HW223991   2.569   1.838   3.503
 7698SOL     OW23992   6.488   2.807   4.875
 7698SOL    HW123993   6.424   2.834   4.803
 7698SOL    HW223994   6.496   2.707   4.876
 7699SOL     OW23995   2.122   5.629   0.146
 7699SOL    HW123996   2.185   5.656   0.219
 7699SOL    HW223997   2.120   5.529   0.140
 7700SOL     OW23998   4.600   6.972   5.289
 7700SOL    HW123999   4.527   6.955   5.355
 7700SOL    HW224000   4.667   6.898   5.293
 7701SOL     OW24001   6.528   0.869   5.872
 7701SOL    HW124002   6.548   0.930   5.948
 7701SOL    HW224003   6.478   0.919   5.801
 7702SOL     OW24004   3.294   6.695   5.890
 7702SOL    HW124005   3.224   6.628   5.914
 7702SOL    HW224006   3.281   6.778   5.945
 7703SOL     OW24007   0.245   1.313   5.200
 7703SOL    HW124008   0.265   1.239   5.264
 7703SOL    HW224009   0.151   1.343   5.211
 7704SOL     OW24010   4.123   4.370   0.143
 7704SOL    HW124011   4.049   4.431   0.172
 7704SOL    HW224012   4.170   4.411   0.064
 7705SOL     OW24013   3.461   4.882   5.163
 7705SOL    HW124014   3.402   4.954   5.126
 7705SOL    HW224015   3.405   4.811   5.205
 7706SOL     OW24016   5.876   6.830   5.228
 7706SOL    HW124017   5.797   6.799   5.175
 7706SOL    HW224018   5.853   6.912   5.279
 7707SOL     OW24019   0.266   5.464   6.121
 7707SOL    HW124020   0.255   5.534   6.050
 7707SOL    HW224021   0.191   5.397   6.114
 7708SOL     OW24022   4.775   5.779   4.832
 7708SOL    HW124023   4.752   5.755   4.738
 7708SOL    HW224024   4.695   5.761   4.891
 7709SOL     OW24025   4.486   2.440   2.152
 7709SOL    HW124026   4.453   2.469   2.062
 7709SOL    HW224027   4.557   2.371   2.140
 7710SOL     OW24028   2.878   0.154   0.693
 7710SOL    HW124029   2.906   0.074   0.746
 7710SOL    HW224030   2.959   0.201   0.657
 7711SOL     OW24031   5.849   6.270   6.155
 7711SOL    HW124032   5.888   6.194   6.103
 7711SOL    HW224033   5.829   6.240   6.249
 7712SOL     OW24034   5.769   4.886   1.282
 7712SOL    HW124035   5.790   4.798   1.240
 7712SOL    HW224036   5.816   4.959   1.233
 7713SOL     OW24037   1.827   4.173   0.148
 7713SOL    HW124038   1.903   4.115   0.177
 7713SOL    HW224039   1.741   4.124   0.161
 7714SOL     OW24040   6.195   4.324   4.551
 7714SOL    HW124041   6.126   4.263   4.512
 7714SOL    HW224042   6.160   4.365   4.635
 7715SOL     OW24043   5.274   0.618   1.139
 7715SOL    HW124044   5.280   0.527   1.099
 7715SOL    HW224045   5.310   0.685   1.073
 7716SOL     OW24046   4.501   2.502   2.435
 7716SOL    HW124047   4.511   2.482   2.338
 7716SOL    HW224048   4.540   2.593   2.454
 7717SOL     OW24049   2.873   1.386   4.847
 7717SOL    HW124050   2.950   1.376   4.910
 7717SOL    HW224051   2.904   1.428   4.762
 7718SOL     OW24052   2.023   1.643   2.885
 7718SOL    HW124053   2.072   1.600   2.961
 7718SOL    HW224054   1.927   1.615   2.887
 7719SOL     OW24055   6.951   2.944   4.909
 7719SOL    HW124056   6.974   2.885   4.986
 7719SOL    HW224057   6.874   2.904   4.859
 7720SOL     OW24058   6.679   6.394   0.912
 7720SOL    HW124059   6.766   6.412   0.866
 7720SOL    HW224060   6.646   6.302   0.887
 7721SOL     OW24061   2.142   4.531   3.655
 7721SOL    HW124062   2.102   4.515   3.745
 7721SOL    HW224063   2.241   4.544   3.664
 7722SOL     OW24064   6.284   5.273   3.138
 7722SOL    HW124065   6.230   5.245   3.059
 7722SOL    HW224066   6.304   5.193   3.195
 7723SOL     OW24067   6.886   3.001   0.360
 7723SOL    HW124068   6.828   3.079   0.382
 7723SOL    HW224069   6.839   2.916   0.385
 7724SOL     OW24070   1.950   4.245   1.625
 7724SOL    HW124071   2.037   4.282   1.594
 7724SOL    HW224072   1.956   4.220   1.721
 7725SOL     OW24073   5.471   2.597   3.250
 7725SOL    HW124074   5.569   2.582   3.265
 7725SOL    HW224075   5.448   2.573   3.155
 7726SOL     OW24076   0.550   4.730   2.942
 7726SOL    HW124077   0.529   4.809   3.000
 7726SOL    HW224078   0.590   4.762   2.856
 7727SOL     OW24079   6.160   2.107   4.205
 7727SOL    HW124080   6.253   2.110   4.168
 7727SOL    HW224081   6.137   2.197   4.243
 7728SOL     OW24082   1.647   3.336   2.903
 7728SOL    HW124083   1.686   3.264   2.846
 7728SOL    HW224084   1.664   3.316   2.999
 7729SOL     OW24085   5.282   2.223   0.892
 7729SOL    HW124086   5.363   2.251   0.842
 7729SOL    HW224087   5.226   2.303   0.912
 7730SOL     OW24088   4.703   6.454   2.895
 7730SOL    HW124089   4.797   6.418   2.899
 7730SOL    HW224090   4.678   6.492   2.985
 7731SOL     OW24091   6.300   0.870   0.293
 7731SOL    HW124092   6.340   0.824   0.215
 7731SOL    HW224093   6.205   0.840   0.305
 7732SOL     OW24094   5.096   5.768   0.598
 7732SOL    HW124095   5.189   5.777   0.563
 7732SOL    HW224096   5.059   5.679   0.569
 7733SOL     OW24097   4.084   0.187   1.297
 7733SOL    HW124098   4.000   0.190   1.351
 7733SOL    HW224099   4.130   0.100   1.311
 7734SOL     OW24100   1.689   3.130   3.411
 7734SOL    HW124101   1.680   3.177   3.499
 7734SOL    HW224102   1.635   3.046   3.413
 7735SOL     OW24103   5.355   4.304   6.814
 7735SOL    HW124104   5.418   4.369   6.772
 7735SOL    HW224105   5.298   4.352   6.881
 7736SOL     OW24106   5.464   4.599   0.316
 7736SOL    HW124107   5.535   4.574   0.382
 7736SOL    HW224108   5.395   4.526   0.313
 7737SOL     OW24109   4.855   2.051   0.998
 7737SOL    HW124110   4.769   2.070   0.950
 7737SOL    HW224111   4.845   2.077   1.094
 7738SOL     OW24112   2.961   6.142   0.230
 7738SOL    HW124113   2.864   6.138   0.203
 7738SOL    HW224114   3.002   6.052   0.217
 7739SOL     OW24115   1.141   2.559   0.608
 7739SOL    HW124116   1.086   2.494   0.660
 7739SOL    HW224117   1.183   2.512   0.530
 7740SOL     OW24118   6.804   0.051   2.528
 7740SOL    HW124119   6.832   0.061   2.433
 7740SOL    HW224120   6.868   7.008   2.575
 7741SOL     OW24121   2.059   5.956   3.911
 7741SOL    HW124122   2.106   6.036   3.874
 7741SOL    HW224123   1.987   5.985   3.974
 7742SOL     OW24124   6.178   1.970   3.160
 7742SOL    HW124125   6.125   2.045   3.199
 7742SOL    HW224126   6.269   2.003   3.136
 7743SOL     OW24127   4.572   3.304   5.704
 7743SOL    HW124128   4.561   3.336   5.610
 7743SOL    HW224129   4.491   3.329   5.758
 7744SOL     OW24130   6.652   6.682   3.891
 7744SOL    HW124131   6.674   6.630   3.974
 7744SOL    HW224132   6.627   6.775   3.916
 7745SOL     OW24133   3.651   2.737   6.291
 7745SOL    HW124134   3.703   2.755   6.374
 7745SOL    HW224135   3.680   2.801   6.219
 7746SOL     OW24136   2.002   0.312   0.182
 7746SOL    HW124137   2.030   0.224   0.143
 7746SOL    HW224138   2.082   0.357   0.222
 7747SOL     OW24139   5.233   6.401   0.927
 7747SOL    HW124140   5.179   6.429   1.007
 7747SOL    HW224141   5.317   6.455   0.923
 7748SOL     OW24142   2.025   3.854   6.236
 7748SOL    HW124143   2.023   3.832   6.138
 7748SOL    HW224144   2.109   3.819   6.276
 7749SOL     OW24145   4.844   3.257   6.050
 7749SOL    HW124146   4.784   3.331   6.081
 7749SOL    HW224147   4.937   3.275   6.081
 7750SOL     OW24148   0.775   6.338   2.022
 7750SOL    HW124149   0.719   6.261   1.993
 7750SOL    HW224150   0.716   6.411   2.057
 7751SOL     OW24151   0.951   1.724   1.568
 7751SOL    HW124152   0.880   1.773   1.517
 7751SOL    HW224153   0.939   1.740   1.665
 7752SOL     OW24154   4.796   0.910   4.229
 7752SOL    HW124155   4.858   0.955   4.164
 7752SOL    HW224156   4.706   0.898   4.187
 7753SOL     OW24157   2.084   1.306   5.143
 7753SOL    HW124158   2.170   1.351   5.117
 7753SOL    HW224159   2.007   1.366   5.124
 7754SOL     OW24160   4.482   6.626   1.681
 7754SOL    HW124161   4.405   6.686   1.700
 7754SOL    HW224162   4.482   6.600   1.584
 7755SOL     OW24163   2.126   4.206   6.177
 7755SOL    HW124164   2.114   4.295   6.222
 7755SOL    HW224165   2.037   4.171   6.149
 7756SOL     OW24166   2.730   6.259   1.585
 7756SOL    HW124167   2.769   6.197   1.517
 7756SOL    HW224168   2.784   6.255   1.669
 7757SOL     OW24169   0.458   4.627   3.222
 7757SOL    HW124170   0.430   4.613   3.317
 7757SOL    HW224171   0.484   4.540   3.182
 7758SOL     OW24172   1.131   0.749   5.295
 7758SOL    HW124173   1.116   0.710   5.386
 7758SOL    HW224174   1.144   0.848   5.302
 7759SOL     OW24175   2.909   2.125   6.747
 7759SOL    HW124176   2.992   2.151   6.795
 7759SOL    HW224177   2.902   2.025   6.745
 7760SOL     OW24178   4.390   2.471   1.908
 7760SOL    HW124179   4.438   2.499   1.825
 7760SOL    HW224180   4.322   2.401   1.884
 7761SOL     OW24181   4.463   5.527   4.164
 7761SOL    HW124182   4.415   5.590   4.102
 7761SOL    HW224183   4.397   5.483   4.224
 7762SOL     OW24184   0.222   0.866   3.984
 7762SOL    HW124185   0.226   0.799   3.910
 7762SOL    HW224186   0.314   0.884   4.019
 7763SOL     OW24187   2.484   0.131   4.627
 7763SOL    HW124188   2.405   0.069   4.624
 7763SOL    HW224189   2.506   0.153   4.722
 7764SOL     OW24190   3.324   3.953   5.208
 7764SOL    HW124191   3.408   4.009   5.209
 7764SOL    HW224192   3.320   3.898   5.291
 7765SOL     OW24193   6.462   3.462   4.502
 7765SOL    HW124194   6.543   3.405   4.512
 7765SOL    HW224195   6.387   3.407   4.465
 7766SOL     OW24196   0.682   4.500   6.885
 7766SOL    HW124197   0.731   4.440   6.949
 7766SOL    HW224198   0.614   4.447   6.835
 7767SOL     OW24199   2.626   0.809   2.870
 7767SOL    HW124200   2.575   0.776   2.790
 7767SOL    HW224201   2.676   0.892   2.846
 7768SOL     OW24202   4.238   4.730   3.151
 7768SOL    HW124203   4.256   4.672   3.231
 7768SOL    HW224204   4.291   4.697   3.073
 7769SOL     OW24205   3.390   2.347   5.344
 7769SOL    HW124206   3.337   2.310   5.268
 7769SOL    HW224207   3.438   2.429   5.315
 7770SOL     OW24208   1.029   3.428   4.734
 7770SOL    HW124209   0.981   3.440   4.821
 7770SOL    HW224210   1.003   3.340   4.693
 7771SOL     OW24211   3.274   2.696   6.050
 7771SOL    HW124212   3.290   2.719   5.954
 7771SOL    HW224213   3.346   2.633   6.082
 7772SOL     OW24214   5.287   0.656   1.431
 7772SOL    HW124215   5.286   0.676   1.333
 7772SOL    HW224216   5.258   0.738   1.482
 7773SOL     OW24217   3.505   6.130   0.097
 7773SOL    HW124218   3.478   6.063   0.167
 7773SOL    HW224219   3.515   6.220   0.139
 7774SOL     OW24220   4.587   1.402   2.698
 7774SOL    HW124221   4.660   1.470   2.689
 7774SOL    HW224222   4.513   1.423   2.634
 7775SOL     OW24223   3.259   0.718   6.979
 7775SOL    HW124224   3.222   0.630   7.010
 7775SOL    HW224225   3.358   0.720   6.993
 7776SOL     OW24226   1.506   0.043   5.593
 7776SOL    HW124227   1.456   0.126   5.619
 7776SOL    HW224228   1.564   0.062   5.514
 7777SOL     OW24229   5.098   5.691   3.049
 7777SOL    HW124230   5.082   5.758   3.121
 7777SOL    HW224231   5.197   5.686   3.030
 7778SOL     OW24232   5.602   4.284   2.852
 7778SOL    HW124233   5.503   4.297   2.855
 7778SOL    HW224234   5.626   4.198   2.896
 7779SOL     OW24235   3.192   6.072   2.181
 7779SOL    HW124236   3.148   5.985   2.200
 7779SOL    HW224237   3.246   6.101   2.260
 7780SOL     OW24238   6.302   6.205   5.493
 7780SOL    HW124239   6.349   6.145   5.428
 7780SOL    HW224240   6.251   6.275   5.442
 7781SOL     OW24241   1.605   2.584   0.293
 7781SOL    HW124242   1.685   2.601   0.350
 7781SOL    HW224243   1.541   2.524   0.341
 7782SOL     OW24244   5.967   4.492   3.576
 7782SOL    HW124245   6.015   4.405   3.562
 7782SOL    HW224246   5.905   4.483   3.654
 7783SOL     OW24247   1.036   0.614   5.078
 7783SOL    HW124248   0.936   0.607   5.076
 7783SOL    HW224249   1.063   0.690   5.138
 7784SOL     OW24250   2.503   2.534   2.866
 7784SOL    HW124251   2.465   2.620   2.831
 7784SOL    HW224252   2.441   2.459   2.844
 7785SOL     OW24253   0.866   6.509   2.504
 7785SOL    HW124254   0.826   6.451   2.433
 7785SOL    HW224255   0.942   6.462   2.547
 7786SOL     OW24256   4.529   0.305   6.031
 7786SOL    HW124257   4.498   0.360   5.954
 7786SOL    HW224258   4.453   0.247   6.063
 7787SOL     OW24259   2.801   2.682   1.547
 7787SOL    HW124260   2.861   2.611   1.509
 7787SOL    HW224261   2.823   2.770   1.506
 7788SOL     OW24262   0.252   4.355   1.659
 7788SOL    HW124263   0.204   4.311   1.583
 7788SOL    HW224264   0.351   4.344   1.648
 7789SOL     OW24265   3.711   0.893   6.229
 7789SOL    HW124266   3.725   0.794   6.225
 7789SOL    HW224267   3.798   0.939   6.213
 7790SOL     OW24268   5.267   4.626   2.053
 7790SOL    HW124269   5.260   4.557   1.981
 7790SOL    HW224270   5.207   4.703   2.032
 7791SOL     OW24271   2.605   5.363   2.215
 7791SOL    HW124272   2.650   5.356   2.304
 7791SOL    HW224273   2.655   5.308   2.148
 7792SOL     OW24274   1.137   1.754   2.117
 7792SOL    HW124275   1.043   1.730   2.143
 7792SOL    HW224276   1.163   1.840   2.161
 7793SOL     OW24277   4.836   0.968   6.752
 7793SOL    HW124278   4.798   0.980   6.843
 7793SOL    HW224279   4.767   0.926   6.692
 7794SOL     OW24280   0.532   5.795   2.635
 7794SOL    HW124281   0.601   5.803   2.706
 7794SOL    HW224282   0.445   5.833   2.668
 7795SOL     OW24283   3.079   5.197   6.078
 7795SOL    HW124284   3.134   5.250   6.142
 7795SOL    HW224285   3.079   5.242   5.989
 7796SOL     OW24286   3.393   3.154   5.905
 7796SOL    HW124287   3.297   3.132   5.887
 7796SOL    HW224288   3.421   3.113   5.992
 7797SOL     OW24289   1.028   5.943   3.279
 7797SOL    HW124290   1.000   5.850   3.304
 7797SOL    HW224291   1.012   6.005   3.355
 7798SOL     OW24292   0.885   2.552   0.877
 7798SOL    HW124293   0.798   2.549   0.828
 7798SOL    HW224294   0.897   2.468   0.929
 7799SOL     OW24295   2.649   6.290   3.620
 7799SOL    HW124296   2.719   6.223   3.643
 7799SOL    HW224297   2.638   6.355   3.695
 7800SOL     OW24298   0.298   6.406   1.616
 7800SOL    HW124299   0.354   6.464   1.676
 7800SOL    HW224300   0.358   6.346   1.563
 7801SOL     OW24301   1.723   2.255   2.514
 7801SOL    HW124302   1.765   2.266   2.424
 7801SOL    HW224303   1.721   2.157   2.538
 7802SOL     OW24304   6.644   3.516   5.196
 7802SOL    HW124305   6.698   3.588   5.152
 7802SOL    HW224306   6.658   3.430   5.149
 7803SOL     OW24307   4.724   2.308   5.624
 7803SOL    HW124308   4.652   2.278   5.687
 7803SOL    HW224309   4.747   2.233   5.562
 7804SOL     OW24310   2.701   2.015   5.215
 7804SOL    HW124311   2.767   2.090   5.212
 7804SOL    HW224312   2.749   1.929   5.233
 7805SOL     OW24313   5.885   3.006   0.827
 7805SOL    HW124314   5.892   2.925   0.885
 7805SOL    HW224315   5.901   3.088   0.881
 7806SOL     OW24316   0.057   2.077   5.486
 7806SOL    HW124317   0.021   2.149   5.545
 7806SOL    HW224318   0.058   1.990   5.536
 7807SOL     OW24319   2.094   5.107   5.814
 7807SOL    HW124320   2.137   5.018   5.828
 7807SOL    HW224321   2.050   5.109   5.724
 7808SOL     OW24322   5.476   3.739   2.914
 7808SOL    HW124323   5.471   3.713   2.817
 7808SOL    HW224324   5.395   3.792   2.938
 7809SOL     OW24325   4.861   5.251   3.409
 7809SOL    HW124326   4.877   5.297   3.496
 7809SOL    HW224327   4.824   5.160   3.425
 7810SOL     OW24328   4.006   6.362   5.632
 7810SOL    HW124329   4.048   6.453   5.636
 7810SOL    HW224330   4.075   6.294   5.608
 7811SOL     OW24331   1.224   5.669   2.431
 7811SOL    HW124332   1.269   5.723   2.360
 7811SOL    HW224333   1.278   5.674   2.516
 7812SOL     OW24334   2.343   2.247   6.010
 7812SOL    HW124335   2.274   2.320   6.008
 7812SOL    HW224336   2.362   2.216   5.917
 7813SOL     OW24337   6.164   1.386   0.983
 7813SOL    HW124338   6.186   1.483   0.972
 7813SOL    HW224339   6.140   1.368   1.078
 7814SOL     OW24340   0.466   2.948   2.258
 7814SOL    HW124341   0.521   3.032   2.267
 7814SOL    HW224342   0.425   2.945   2.167
 7815SOL     OW24343   5.619   2.594   5.086
 7815SOL    HW124344   5.677   2.513   5.076
 7815SOL    HW224345   5.569   2.609   5.000
 7816SOL     OW24346   0.490   1.405   4.950
 7816SOL    HW124347   0.431   1.334   4.913
 7816SOL    HW224348   0.444   1.494   4.945
 7817SOL     OW24349   3.000   3.118   6.414
 7817SOL    HW124350   3.074   3.131   6.480
 7817SOL    HW224351   3.002   3.192   6.347
 7818SOL     OW24352   5.272   0.921   2.310
 7818SOL    HW124353   5.188   0.869   2.325
 7818SOL    HW224354   5.327   0.876   2.240
 7819SOL     OW24355   1.188   3.714   4.006
 7819SOL    HW124356   1.162   3.759   4.092
 7819SOL    HW224357   1.202   3.616   4.023
 7820SOL     OW24358   2.032   0.189   5.622
 7820SOL    HW124359   1.973   0.166   5.544
 7820SOL    HW224360   2.072   0.280   5.608
 7821SOL     OW24361   5.976   5.531   6.652
 7821SOL    HW124362   5.976   5.434   6.679
 7821SOL    HW224363   6.062   5.553   6.606
 7822SOL     OW24364   1.150   0.696   4.608
 7822SOL    HW124365   1.171   0.792   4.628
 7822SOL    HW224366   1.170   0.640   4.689
 7823SOL     OW24367   1.164   4.367   0.097
 7823SOL    HW124368   1.171   4.408   0.188
 7823SOL    HW224369   1.146   4.269   0.106
 7824SOL     OW24370   4.801   2.582   2.633
 7824SOL    HW124371   4.733   2.519   2.668
 7824SOL    HW224372   4.847   2.628   2.709
 7825SOL     OW24373   3.584   3.319   1.761
 7825SOL    HW124374   3.545   3.410   1.754
 7825SOL    HW224375   3.555   3.264   1.683
 7826SOL     OW24376   0.006   0.680   0.253
 7826SOL    HW124377   0.073   0.623   0.205
 7826SOL    HW224378   7.010   0.642   0.345
 7827SOL     OW24379   5.422   4.900   1.173
 7827SOL    HW124380   5.376   4.988   1.178
 7827SOL    HW224381   5.518   4.914   1.147
 7828SOL     OW24382   0.410   6.485   1.225
 7828SOL    HW124383   0.476   6.508   1.153
 7828SOL    HW224384   0.322   6.462   1.183
 7829SOL     OW24385   3.470   2.727   1.689
 7829SOL    HW124386   3.538   2.669   1.735
 7829SOL    HW224387   3.465   2.701   1.592
 7830SOL     OW24388   5.742   3.066   6.898
 7830SOL    HW124389   5.653   3.049   6.855
 7830SOL    HW224390   5.788   3.141   6.849
 7831SOL     OW24391   0.972   3.359   0.199
 7831SOL    HW124392   0.975   3.265   0.234
 7831SOL    HW224393   1.000   3.359   0.103
 7832SOL     OW24394   2.492   2.301   5.493
 7832SOL    HW124395   2.433   2.302   5.412
 7832SOL    HW224396   2.551   2.382   5.493
 7833SOL     OW24397   0.393   6.856   0.744
 7833SOL    HW124398   0.345   6.911   0.677
 7833SOL    HW224399   0.335   6.779   0.771
 7834SOL     OW24400   0.940   0.616   1.378
 7834SOL    HW124401   0.927   0.710   1.346
 7834SOL    HW224402   0.944   0.616   1.478
 7835SOL     OW24403   2.142   3.168   4.941
 7835SOL    HW124404   2.132   3.265   4.962
 7835SOL    HW224405   2.235   3.138   4.963
 7836SOL     OW24406   2.324   6.244   6.950
 7836SOL    HW124407   2.406   6.255   6.893
 7836SOL    HW224408   2.351   6.242   0.028
 7837SOL     OW24409   6.166   6.686   3.025
 7837SOL    HW124410   6.100   6.659   2.955
 7837SOL    HW224411   6.136   6.654   3.114
 7838SOL     OW24412   4.259   6.629   4.871
 7838SOL    HW124413   4.287   6.537   4.898
 7838SOL    HW224414   4.282   6.644   4.774
 7839SOL     OW24415   6.597   4.903   4.867
 7839SOL    HW124416   6.564   4.854   4.948
 7839SOL    HW224417   6.564   4.858   4.785
 7840SOL     OW24418   5.388   2.779   4.236
 7840SOL    HW124419   5.340   2.864   4.257
 7840SOL    HW224420   5.453   2.758   4.309
 7841SOL     OW24421   0.507   1.367   6.459
 7841SOL    HW124422   0.423   1.314   6.466
 7841SOL    HW224423   0.586   1.306   6.466
 7842SOL     OW24424   2.061   1.410   2.699
 7842SOL    HW124425   2.155   1.380   2.686
 7842SOL    HW224426   2.056   1.470   2.779
 7843SOL     OW24427   5.238   3.515   0.732
 7843SOL    HW124428   5.288   3.513   0.818
 7843SOL    HW224429   5.218   3.421   0.703
 7844SOL     OW24430   4.299   0.555   3.286
 7844SOL    HW124431   4.377   0.547   3.225
 7844SOL    HW224432   4.282   0.651   3.308
 7845SOL     OW24433   6.189   1.531   4.301
 7845SOL    HW124434   6.244   1.504   4.380
 7845SOL    HW224435   6.145   1.619   4.319
 7846SOL     OW24436   3.156   0.300   1.585
 7846SOL    HW124437   3.231   0.349   1.540
 7846SOL    HW224438   3.172   0.202   1.577
 7847SOL     OW24439   6.633   0.694   0.845
 7847SOL    HW124440   6.570   0.759   0.887
 7847SOL    HW224441   6.700   0.743   0.789
 7848SOL     OW24442   4.355   3.844   1.626
 7848SOL    HW124443   4.311   3.771   1.678
 7848SOL    HW224444   4.447   3.861   1.662
 7849SOL     OW24445   5.826   3.016   4.686
 7849SOL    HW124446   5.833   3.061   4.597
 7849SOL    HW224447   5.773   2.932   4.677
 7850SOL     OW24448   0.845   0.572   5.369
 7850SOL    HW124449   0.898   0.494   5.402
 7850SOL    HW224450   0.779   0.541   5.300
 7851SOL     OW24451   6.095   6.922   0.374
 7851SOL    HW124452   6.145   6.935   0.460
 7851SOL    HW224453   6.077   7.010   0.332
 7852SOL     OW24454   2.917   6.618   6.984
 7852SOL    HW124455   2.870   6.619   6.895
 7852SOL    HW224456   3.008   6.578   6.972
 7853SOL     OW24457   2.673   2.817   0.076
 7853SOL    HW124458   2.650   2.721   0.095
 7853SOL    HW224459   2.591   2.873   0.088
 7854SOL     OW24460   3.661   4.117   2.201
 7854SOL    HW124461   3.722   4.051   2.245
 7854SOL    HW224462   3.712   4.199   2.177
 7855SOL     OW24463   4.380   5.722   6.326
 7855SOL    HW124464   4.353   5.626   6.320
 7855SOL    HW224465   4.336   5.764   6.405
 7856SOL     OW24466   5.650   3.553   5.134
 7856SOL    HW124467   5.615   3.461   5.115
 7856SOL    HW224468   5.582   3.621   5.108
 7857SOL     OW24469   6.146   1.794   5.890
 7857SOL    HW124470   6.100   1.721   5.941
 7857SOL    HW224471   6.078   1.850   5.843
 7858SOL     OW24472   6.175   3.669   3.435
 7858SOL    HW124473   6.076   3.677   3.443
 7858SOL    HW224474   6.201   3.659   3.339
 7859SOL     OW24475   1.251   4.976   5.913
 7859SOL    HW124476   1.193   4.916   5.857
 7859SOL    HW224477   1.222   4.971   6.008
 7860SOL     OW24478   4.143   0.017   1.698
 7860SOL    HW124479   4.049   7.017   1.726
 7860SOL    HW224480   4.183   0.085   1.760
 7861SOL     OW24481   4.786   4.890   0.840
 7861SOL    HW124482   4.711   4.956   0.833
 7861SOL    HW224483   4.873   4.938   0.841
 7862SOL     OW24484   3.026   4.348   1.311
 7862SOL    HW124485   3.018   4.370   1.408
 7862SOL    HW224486   3.016   4.249   1.299
 7863SOL     OW24487   6.354   5.759   2.332
 7863SOL    HW124488   6.308   5.771   2.420
 7863SOL    HW224489   6.367   5.848   2.289
 7864SOL     OW24490   0.714   5.339   4.315
 7864SOL    HW124491   0.693   5.324   4.219
 7864SOL    HW224492   0.802   5.298   4.337
 7865SOL     OW24493   3.431   6.827   2.955
 7865SOL    HW124494   3.519   6.855   2.993
 7865SOL    HW224495   3.360   6.889   2.988
 7866SOL     OW24496   2.690   2.098   3.947
 7866SOL    HW124497   2.614   2.148   3.905
 7866SOL    HW224498   2.659   2.008   3.977
 7867SOL     OW24499   6.057   4.474   2.026
 7867SOL    HW124500   6.108   4.400   2.069
 7867SOL    HW224501   6.051   4.551   2.088
 7868SOL     OW24502   5.380   6.132   0.604
 7868SOL    HW124503   5.428   6.075   0.671
 7868SOL    HW224504   5.291   6.159   0.641
 7869SOL     OW24505   0.695   3.070   1.699
 7869SOL    HW124506   0.688   3.116   1.611
 7869SOL    HW224507   0.788   3.081   1.735
 7870SOL     OW24508   6.931   5.007   4.041
 7870SOL    HW124509   6.984   5.071   3.985
 7870SOL    HW224510   6.983   4.983   4.123
 7871SOL     OW24511   5.267   3.389   3.039
 7871SOL    HW124512   5.182   3.395   2.986
 7871SOL    HW224513   5.244   3.378   3.136
 7872SOL     OW24514   0.139   3.443   2.679
 7872SOL    HW124515   0.071   3.371   2.685
 7872SOL    HW224516   0.095   3.532   2.695
 7873SOL     OW24517   0.387   5.726   5.144
 7873SOL    HW124518   0.400   5.633   5.176
 7873SOL    HW224519   0.474   5.761   5.107
 7874SOL     OW24520   6.174   1.737   0.250
 7874SOL    HW124521   6.146   1.693   0.165
 7874SOL    HW224522   6.152   1.835   0.245
 7875SOL     OW24523   4.304   2.972   6.246
 7875SOL    HW124524   4.366   2.916   6.192
 7875SOL    HW224525   4.355   3.016   6.320
 7876SOL     OW24526   6.585   0.378   3.713
 7876SOL    HW124527   6.522   0.301   3.704
 7876SOL    HW224528   6.575   0.419   3.804
 7877SOL     OW24529   0.052   2.209   2.967
 7877SOL    HW124530   0.038   2.301   3.004
 7877SOL    HW224531   0.070   2.216   2.869
 7878SOL     OW24532   4.722   4.403   2.529
 7878SOL    HW124533   4.687   4.456   2.607
 7878SOL    HW224534   4.649   4.389   2.463
 7879SOL     OW24535   4.857   0.272   3.972
 7879SOL    HW124536   4.893   0.364   3.954
 7879SOL    HW224537   4.851   0.221   3.886
 7880SOL     OW24538   0.077   6.702   6.420
 7880SOL    HW124539   0.044   6.631   6.482
 7880SOL    HW224540   0.022   6.784   6.430
 7881SOL     OW24541   6.769   4.105   4.815
 7881SOL    HW124542   6.700   4.091   4.745
 7881SOL    HW224543   6.732   4.164   4.887
 7882SOL     OW24544   0.180   2.949   2.841
 7882SOL    HW124545   0.250   2.882   2.820
 7882SOL    HW224546   0.222   3.030   2.883
 7883SOL     OW24547   2.868   1.290   3.072
 7883SOL    HW124548   2.918   1.309   3.157
 7883SOL    HW224549   2.820   1.372   3.042
 7884SOL     OW24550   1.323   4.253   4.039
 7884SOL    HW124551   1.309   4.342   3.997
 7884SOL    HW224552   1.234   4.209   4.052
 7885SOL     OW24553   6.074   5.683   2.704
 7885SOL    HW124554   6.094   5.612   2.772
 7885SOL    HW224555   6.159   5.726   2.674
 7886SOL     OW24556   4.653   2.731   1.846
 7886SOL    HW124557   4.661   2.694   1.939
 7886SOL    HW224558   4.624   2.826   1.850
 7887SOL     OW24559   3.207   3.485   0.374
 7887SOL    HW124560   3.277   3.492   0.446
 7887SOL    HW224561   3.188   3.576   0.338
 7888SOL     OW24562   6.128   1.193   3.957
 7888SOL    HW124563   6.108   1.196   3.859
 7888SOL    HW224564   6.049   1.228   4.008
 7889SOL     OW24565   6.035   4.847   0.915
 7889SOL    HW124566   6.054   4.827   0.819
 7889SOL    HW224567   6.035   4.762   0.967
 7890SOL     OW24568   1.123   3.117   4.439
 7890SOL    HW124569   1.033   3.102   4.396
 7890SOL    HW224570   1.110   3.151   4.532
 7891SOL     OW24571   0.121   2.248   4.022
 7891SOL    HW124572   0.140   2.165   4.075
 7891SOL    HW224573   0.036   2.289   4.055
 7892SOL     OW24574   0.879   3.290   6.138
 7892SOL    HW124575   0.961   3.267   6.191
 7892SOL    HW224576   0.903   3.294   6.041
 7893SOL     OW24577   6.488   0.707   1.650
 7893SOL    HW124578   6.574   0.673   1.690
 7893SOL    HW224579   6.411   0.676   1.706
 7894SOL     OW24580   2.256   1.022   5.989
 7894SOL    HW124581   2.324   1.082   6.032
 7894SOL    HW224582   2.267   1.026   5.889
 7895SOL     OW24583   3.650   6.006   3.264
 7895SOL    HW124584   3.586   6.027   3.191
 7895SOL    HW224585   3.741   6.042   3.241
 7896SOL     OW24586   4.167   2.540   1.288
 7896SOL    HW124587   4.228   2.618   1.291
 7896SOL    HW224588   4.089   2.556   1.349
 7897SOL     OW24589   3.572   3.993   7.013
 7897SOL    HW124590   3.528   3.904   0.005
 7897SOL    HW224591   3.590   4.010   6.917
 7898SOL     OW24592   4.834   0.506   4.441
 7898SOL    HW124593   4.840   0.606   4.438
 7898SOL    HW224594   4.864   0.474   4.531
 7899SOL     OW24595   5.320   4.464   1.196
 7899SOL    HW124596   5.361   4.551   1.225
 7899SOL    HW224597   5.221   4.476   1.188
 7900SOL     OW24598   0.658   3.444   0.472
 7900SOL    HW124599   0.757   3.445   0.491
 7900SOL    HW224600   0.613   3.514   0.528
 7901SOL     OW24601   5.769   1.173   6.329
 7901SOL    HW124602   5.831   1.251   6.319
 7901SOL    HW224603   5.733   1.147   6.239
 7902SOL     OW24604   0.491   6.508   2.685
 7902SOL    HW124605   0.572   6.558   2.656
 7902SOL    HW224606   0.423   6.571   2.722
 7903SOL     OW24607   1.986   1.807   4.659
 7903SOL    HW124608   1.908   1.831   4.602
 7903SOL    HW224609   1.958   1.804   4.754
 7904SOL     OW24610   5.748   0.681   2.462
 7904SOL    HW124611   5.836   0.714   2.497
 7904SOL    HW224612   5.677   0.749   2.483
 7905SOL     OW24613   5.840   0.260   0.140
 7905SOL    HW124614   5.879   0.179   0.183
 7905SOL    HW224615   5.899   0.289   0.064
 7906SOL     OW24616   1.253   5.201   0.952
 7906SOL    HW124617   1.323   5.142   0.992
 7906SOL    HW224618   1.235   5.173   0.858
 7907SOL     OW24619   6.198   0.020   3.623
 7907SOL    HW124620   6.110   0.059   3.650
 7907SOL    HW224621   6.186   6.982   3.541
 7908SOL     OW24622   0.796   6.972   6.619
 7908SOL    HW124623   0.699   6.963   6.596
 7908SOL    HW224624   0.827   0.046   6.600
 7909SOL     OW24625   5.693   3.945   2.063
 7909SOL    HW124626   5.783   3.962   2.103
 7909SOL    HW224627   5.703   3.892   1.979
 7910SOL     OW24628   2.108   3.557   0.869
 7910SOL    HW124629   2.140   3.495   0.940
 7910SOL    HW224630   2.083   3.505   0.787
 7911SOL     OW24631   1.335   4.207   0.502
 7911SOL    HW124632   1.417   4.151   0.491
 7911SOL    HW224633   1.345   4.265   0.583
 7912SOL     OW24634   5.773   5.134   0.194
 7912SOL    HW124635   5.789   5.227   0.226
 7912SOL    HW224636   5.785   5.130   0.095
 7913SOL     OW24637   0.500   3.647   0.656
 7913SOL    HW124638   0.414   3.596   0.651
 7913SOL    HW224639   0.481   3.745   0.654
 7914SOL     OW24640   6.162   5.217   5.054
 7914SOL    HW124641   6.257   5.209   5.025
 7914SOL    HW224642   6.109   5.263   4.982
 7915SOL     OW24643   3.512   6.995   2.707
 7915SOL    HW124644   3.461   0.012   2.785
 7915SOL    HW224645   3.531   6.898   2.722
 7916SOL     OW24646   1.573   0.504   4.388
 7916SOL    HW124647   1.482   0.540   4.410
 7916SOL    HW224648   1.615   0.562   4.318
 7917SOL     OW24649   3.483   3.352   6.890
 7917SOL    HW124650   3.426   3.369   6.970
 7917SOL    HW224651   3.440   3.284   6.831
 7918SOL     OW24652   2.041   0.897   4.775
 7918SOL    HW124653   1.972   0.843   4.728
 7918SOL    HW224654   2.107   0.933   4.709
 7919SOL     OW24655   0.796   5.031   2.434
 7919SOL    HW124656   0.769   4.935   2.435
 7919SOL    HW224657   0.727   5.085   2.483
 7920SOL     OW24658   4.525   0.377   0.664
 7920SOL    HW124659   4.475   0.294   0.639
 7920SOL    HW224660   4.506   0.399   0.760
 7921SOL     OW24661   4.918   1.263   1.555
 7921SOL    HW124662   4.993   1.281   1.491
 7921SOL    HW224663   4.928   1.323   1.635
 7922SOL     OW24664   0.595   5.662   0.921
 7922SOL    HW124665   0.694   5.661   0.902
 7922SOL    HW224666   0.575   5.593   0.990
 7923SOL     OW24667   3.616   1.356   6.662
 7923SOL    HW124668   3.578   1.360   6.755
 7923SOL    HW224669   3.587   1.271   6.618
 7924SOL     OW24670   6.544   0.420   1.488
 7924SOL    HW124671   6.560   0.364   1.407
 7924SOL    HW224672   6.447   0.414   1.514
 7925SOL     OW24673   2.467   6.500   0.911
 7925SOL    HW124674   2.485   6.564   0.836
 7925SOL    HW224675   2.381   6.526   0.956
 7926SOL     OW24676   4.935   6.388   6.311
 7926SOL    HW124677   5.012   6.379   6.374
 7926SOL    HW224678   4.970   6.397   6.218
 7927SOL     OW24679   5.192   6.759   2.507
 7927SOL    HW124680   5.148   6.740   2.595
 7927SOL    HW224681   5.278   6.807   2.522
 7928SOL     OW24682   6.354   1.203   3.513
 7928SOL    HW124683   6.297   1.285   3.505
 7928SOL    HW224684   6.388   1.195   3.607
 7929SOL     OW24685   4.293   4.133   5.870
 7929SOL    HW124686   4.212   4.093   5.827
 7929SOL    HW224687   4.271   4.225   5.904
 7930SOL     OW24688   3.916   5.849   5.427
 7930SOL    HW124689   3.871   5.810   5.507
 7930SOL    HW224690   3.909   5.948   5.429
 7931SOL     OW24691   2.904   2.582   0.620
 7931SOL    HW124692   2.986   2.526   0.633
 7931SOL    HW224693   2.885   2.592   0.522
 7932SOL     OW24694   0.249   5.737   1.513
 7932SOL    HW124695   0.263   5.779   1.423
 7932SOL    HW224696   0.322   5.767   1.575
 7933SOL     OW24697   6.850   1.205   6.182
 7933SOL    HW124698   6.807   1.209   6.092
 7933SOL    HW224699   6.878   1.297   6.210
 7934SOL     OW24700   1.213   4.377   0.880
 7934SOL    HW124701   1.290   4.323   0.848
 7934SOL    HW224702   1.175   4.430   0.803
 7935SOL     OW24703   5.490   3.732   2.610
 7935SOL    HW124704   5.530   3.823   2.593
 7935SOL    HW224705   5.564   3.667   2.628
 7936SOL     OW24706   3.235   6.196   4.020
 7936SOL    HW124707   3.319   6.240   3.987
 7936SOL    HW224708   3.244   6.176   4.118
 7937SOL     OW24709   2.731   5.607   6.362
 7937SOL    HW124710   2.654   5.544   6.362
 7937SOL    HW224711   2.804   5.571   6.305
 7938SOL     OW24712   4.166   6.866   4.692
 7938SOL    HW124713   4.210   6.802   4.630
 7938SOL    HW224714   4.151   6.953   4.646
 7939SOL     OW24715   0.589   1.687   5.181
 7939SOL    HW124716   0.509   1.729   5.225
 7939SOL    HW224717   0.561   1.649   5.093
 7940SOL     OW24718   5.229   1.359   2.890
 7940SOL    HW124719   5.303   1.342   2.824
 7940SOL    HW224720   5.157   1.292   2.876
 7941SOL     OW24721   4.001   6.639   1.983
 7941SOL    HW124722   3.985   6.645   1.884
 7941SOL    HW224723   4.046   6.722   2.015
 7942SOL     OW24724   0.611   3.933   1.701
 7942SOL    HW124725   0.692   3.902   1.652
 7942SOL    HW224726   0.530   3.919   1.644
 7943SOL     OW24727   2.398   4.947   6.546
 7943SOL    HW124728   2.313   4.999   6.543
 7943SOL    HW224729   2.397   4.885   6.624
 7944SOL     OW24730   1.164   2.998   1.077
 7944SOL    HW124731   1.215   2.926   1.031
 7944SOL    HW224732   1.227   3.063   1.120
 7945SOL     OW24733   5.507   5.020   2.616
 7945SOL    HW124734   5.443   4.945   2.603
 7945SOL    HW224735   5.560   5.006   2.699
 7946SOL     OW24736   4.165   1.324   5.504
 7946SOL    HW124737   4.149   1.240   5.556
 7946SOL    HW224738   4.080   1.374   5.492
 7947SOL     OW24739   0.879   2.665   5.196
 7947SOL    HW124740   0.953   2.599   5.210
 7947SOL    HW224741   0.823   2.637   5.119
 7948SOL     OW24742   1.514   5.260   2.208
 7948SOL    HW124743   1.612   5.242   2.210
 7948SOL    HW224744   1.489   5.313   2.289
 7949SOL     OW24745   3.990   4.968   6.482
 7949SOL    HW124746   3.926   5.010   6.547
 7949SOL    HW224747   3.981   5.013   6.393
 7950SOL     OW24748   5.857   5.035   5.611
 7950SOL    HW124749   5.864   5.122   5.660
 7950SOL    HW224750   5.839   5.054   5.514
 7951SOL     OW24751   3.181   5.530   2.680
 7951SOL    HW124752   3.125   5.460   2.637
 7951SOL    HW224753   3.121   5.598   2.723
 7952SOL     OW24754   5.515   3.477   6.896
 7952SOL    HW124755   5.441   3.477   6.963
 7952SOL    HW224756   5.486   3.425   6.816
 7953SOL     OW24757   3.677   2.098   0.483
 7953SOL    HW124758   3.631   2.092   0.394
 7953SOL    HW224759   3.744   2.024   0.490
 7954SOL     OW24760   3.817   2.948   0.492
 7954SOL    HW124761   3.833   3.036   0.447
 7954SOL    HW224762   3.720   2.925   0.488
 7955SOL     OW24763   1.556   1.497   6.657
 7955SOL    HW124764   1.655   1.490   6.673
 7955SOL    HW224765   1.539   1.563   6.584
 7956SOL     OW24766   6.768   0.775   1.157
 7956SOL    HW124767   6.765   0.675   1.154
 7956SOL    HW224768   6.712   0.808   1.232
 7957SOL     OW24769   4.762   0.420   5.038
 7957SOL    HW124770   4.745   0.491   5.107
 7957SOL    HW224771   4.714   0.336   5.064
 7958SOL     OW24772   5.751   3.577   6.647
 7958SOL    HW124773   5.668   3.581   6.703
 7958SOL    HW224774   5.818   3.641   6.683
 7959SOL     OW24775   5.080   1.032   5.719
 7959SOL    HW124776   5.142   1.108   5.740
 7959SOL    HW224777   5.009   1.026   5.790
 7960SOL     OW24778   6.944   0.719   6.764
 7960SOL    HW124779   6.901   0.636   6.730
 7960SOL    HW224780   6.962   0.782   6.688
 7961SOL     OW24781   6.564   0.556   0.227
 7961SOL    HW124782   6.478   0.504   0.231
 7961SOL    HW224783   6.634   0.501   0.182
 7962SOL     OW24784   6.252   6.494   5.770
 7962SOL    HW124785   6.199   6.514   5.688
 7962SOL    HW224786   6.222   6.553   5.845
 7963SOL     OW24787   6.640   5.201   4.167
 7963SOL    HW124788   6.593   5.194   4.078
 7963SOL    HW224789   6.613   5.286   4.211
 7964SOL     OW24790   6.285   3.511   1.911
 7964SOL    HW124791   6.280   3.434   1.847
 7964SOL    HW224792   6.194   3.531   1.947
 7965SOL     OW24793   4.232   1.827   7.012
 7965SOL    HW124794   4.298   1.802   6.942
 7965SOL    HW224795   4.163   1.755   0.002
 7966SOL     OW24796   4.545   4.268   5.170
 7966SOL    HW124797   4.513   4.252   5.263
 7966SOL    HW224798   4.471   4.308   5.116
 7967SOL     OW24799   1.416   4.954   1.869
 7967SOL    HW124800   1.357   4.907   1.935
 7967SOL    HW224801   1.509   4.958   1.904
 7968SOL     OW24802   6.483   1.865   4.251
 7968SOL    HW124803   6.561   1.927   4.238
 7968SOL    HW224804   6.476   1.805   4.171
 7969SOL     OW24805   4.770   6.199   0.120
 7969SOL    HW124806   4.864   6.188   0.088
 7969SOL    HW224807   4.765   6.178   0.218
 7970SOL     OW24808   6.268   3.253   2.439
 7970SOL    HW124809   6.173   3.245   2.469
 7970SOL    HW224810   6.291   3.176   2.380
 7971SOL     OW24811   3.241   1.660   0.845
 7971SOL    HW124812   3.319   1.713   0.811
 7971SOL    HW224813   3.273   1.586   0.903
 7972SOL     OW24814   3.684   2.969   2.519
 7972SOL    HW124815   3.773   2.983   2.562
 7972SOL    HW224816   3.641   3.057   2.500
 7973SOL     OW24817   6.151   3.513   2.995
 7973SOL    HW124818   6.184   3.458   2.918
 7973SOL    HW224819   6.051   3.514   2.995
 7974SOL     OW24820   6.037   1.897   5.337
 7974SOL    HW124821   6.052   1.856   5.248
 7974SOL    HW224822   6.107   1.966   5.355
 7975SOL     OW24823   5.393   1.267   0.758
 7975SOL    HW124824   5.355   1.178   0.732
 7975SOL    HW224825   5.365   1.288   0.852
 7976SOL     OW24826   1.346   6.829   0.246
 7976SOL    HW124827   1.381   6.736   0.254
 7976SOL    HW224828   1.421   6.893   0.232
 7977SOL     OW24829   5.444   6.269   3.153
 7977SOL    HW124830   5.386   6.215   3.214
 7977SOL    HW224831   5.448   6.224   3.063
 7978SOL     OW24832   0.208   4.661   0.865
 7978SOL    HW124833   0.165   4.751   0.850
 7978SOL    HW224834   0.250   4.659   0.956
 7979SOL     OW24835   1.465   3.641   4.693
 7979SOL    HW124836   1.397   3.672   4.626
 7979SOL    HW224837   1.419   3.587   4.763
 7980SOL     OW24838   3.584   4.836   5.938
 7980SOL    HW124839   3.489   4.811   5.921
 7980SOL    HW224840   3.606   4.921   5.890
 7981SOL     OW24841   1.810   5.237   3.085
 7981SOL    HW124842   1.826   5.318   3.142
 7981SOL    HW224843   1.785   5.160   3.143
 7982SOL     OW24844   1.350   1.872   6.125
 7982SOL    HW124845   1.305   1.962   6.130
 7982SOL    HW224846   1.432   1.878   6.069
 7983SOL     OW24847   5.288   0.894   0.978
 7983SOL    HW124848   5.266   0.912   0.882
 7983SOL    HW224849   5.383   0.863   0.985
 7984SOL     OW24850   1.238   1.642   1.699
 7984SOL    HW124851   1.251   1.567   1.634
 7984SOL    HW224852   1.230   1.728   1.649
 7985SOL     OW24853   2.076   2.529   5.544
 7985SOL    HW124854   2.079   2.584   5.461
 7985SOL    HW224855   2.149   2.558   5.606
 7986SOL     OW24856   3.406   1.058   4.038
 7986SOL    HW124857   3.355   1.044   3.953
 7986SOL    HW224858   3.426   0.969   4.080
 7987SOL     OW24859   1.380   3.499   1.044
 7987SOL    HW124860   1.300   3.497   0.984
 7987SOL    HW224861   1.445   3.567   1.010
 7988SOL     OW24862   0.366   1.415   1.355
 7988SOL    HW124863   0.418   1.499   1.373
 7988SOL    HW224864   0.295   1.405   1.425
 7989SOL     OW24865   0.982   4.356   0.553
 7989SOL    HW124866   1.068   4.381   0.508
 7989SOL    HW224867   0.978   4.257   0.565
 7990SOL     OW24868   3.134   5.639   5.479
 7990SOL    HW124869   3.066   5.663   5.410
 7990SOL    HW224870   3.213   5.699   5.470
 7991SOL     OW24871   5.514   1.480   5.346
 7991SOL    HW124872   5.493   1.386   5.373
 7991SOL    HW224873   5.540   1.481   5.249
 7992SOL     OW24874   2.543   0.635   0.423
 7992SOL    HW124875   2.589   0.546   0.428
 7992SOL    HW224876   2.515   0.663   0.514
 7993SOL     OW24877   6.581   6.469   1.528
 7993SOL    HW124878   6.667   6.518   1.543
 7993SOL    HW224879   6.594   6.396   1.461
 7994SOL     OW24880   5.488   1.034   3.286
 7994SOL    HW124881   5.436   1.118   3.302
 7994SOL    HW224882   5.567   1.031   3.348
 7995SOL     OW24883   0.489   4.588   1.918
 7995SOL    HW124884   0.581   4.556   1.896
 7995SOL    HW224885   0.495   4.679   1.959
 7996SOL     OW24886   3.736   0.060   2.995
 7996SOL    HW124887   3.695   0.116   3.067
 7996SOL    HW224888   3.752   0.116   2.914
 7997SOL     OW24889   0.721   2.255   6.522
 7997SOL    HW124890   0.791   2.200   6.477
 7997SOL    HW224891   0.633   2.209   6.518
 7998SOL     OW24892   2.937   0.656   0.263
 7998SOL    HW124893   2.841   0.638   0.242
 7998SOL    HW224894   2.977   0.713   0.191
 7999SOL     OW24895   1.317   1.274   5.278
 7999SOL    HW124896   1.322   1.365   5.319
 7999SOL    HW224897   1.401   1.223   5.299
 8000SOL     OW24898   5.485   6.426   6.513
 8000SOL    HW124899   5.469   6.443   6.415
 8000SOL    HW224900   5.398   6.431   6.562
 8001SOL     OW24901   5.000   0.283   1.089
 8001SOL    HW124902   4.948   0.198   1.100
 8001SOL    HW224903   4.999   0.334   1.175
 8002SOL     OW24904   0.064   0.511   6.016
 8002SOL    HW124905   0.098   0.434   6.071
 8002SOL    HW224906   0.136   0.541   5.953
 8003SOL     OW24907   1.841   6.596   2.649
 8003SOL    HW124908   1.790   6.682   2.640
 8003SOL    HW224909   1.806   6.545   2.727
 8004SOL     OW24910   0.877   2.775   4.095
 8004SOL    HW124911   0.948   2.837   4.128
 8004SOL    HW224912   0.850   2.713   4.169
 8005SOL     OW24913   2.513   0.311   3.266
 8005SOL    HW124914   2.448   0.323   3.192
 8005SOL    HW224915   2.567   0.228   3.251
 8006SOL     OW24916   3.741   4.864   5.202
 8006SOL    HW124917   3.780   4.847   5.293
 8006SOL    HW224918   3.641   4.867   5.208
 8007SOL     OW24919   6.175   1.352   6.600
 8007SOL    HW124920   6.157   1.299   6.683
 8007SOL    HW224921   6.164   1.294   6.520
 8008SOL     OW24922   4.482   6.757   0.198
 8008SOL    HW124923   4.580   6.738   0.204
 8008SOL    HW224924   4.446   6.775   0.290
 8009SOL     OW24925   4.719   1.486   0.609
 8009SOL    HW124926   4.747   1.550   0.537
 8009SOL    HW224927   4.619   1.479   0.610
 8010SOL     OW24928   2.700   2.519   5.232
 8010SOL    HW124929   2.652   2.593   5.185
 8010SOL    HW224930   2.687   2.529   5.330
 8011SOL     OW24931   3.363   1.754   2.167
 8011SOL    HW124932   3.356   1.762   2.267
 8011SOL    HW224933   3.314   1.829   2.124
 8012SOL     OW24934   1.021   3.198   5.617
 8012SOL    HW124935   1.113   3.229   5.594
 8012SOL    HW224936   1.026   3.132   5.692
 8013SOL     OW24937   1.666   2.296   3.658
 8013SOL    HW124938   1.764   2.293   3.639
 8013SOL    HW224939   1.649   2.268   3.753
 8014SOL     OW24940   2.154   1.030   3.328
 8014SOL    HW124941   2.142   0.949   3.385
 8014SOL    HW224942   2.069   1.084   3.328
 8015SOL     OW24943   2.320   0.032   5.496
 8015SOL    HW124944   2.315   7.011   5.404
 8015SOL    HW224945   2.415   0.030   5.527
 8016SOL     OW24946   4.704   1.876   5.400
 8016SOL    HW124947   4.668   1.872   5.493
 8016SOL    HW224948   4.656   1.810   5.343
 8017SOL     OW24949   6.861   0.239   0.471
 8017SOL    HW124950   6.825   0.213   0.382
 8017SOL    HW224951   6.785   0.251   0.535
 8018SOL     OW24952   3.969   1.246   0.528
 8018SOL    HW124953   4.051   1.257   0.473
 8018SOL    HW224954   3.906   1.184   0.482
 8019SOL     OW24955   3.106   3.528   0.876
 8019SOL    HW124956   3.141   3.600   0.817
 8019SOL    HW224957   3.176   3.501   0.941
 8020SOL     OW24958   6.541   0.151   4.988
 8020SOL    HW124959   6.454   0.154   5.037
 8020SOL    HW224960   6.528   0.183   4.894
 8021SOL     OW24961   1.677   1.986   2.573
 8021SOL    HW124962   1.723   1.905   2.537
 8021SOL    HW224963   1.651   1.971   2.669
 8022SOL     OW24964   5.220   1.165   2.123
 8022SOL    HW124965   5.184   1.082   2.166
 8022SOL    HW224966   5.257   1.143   2.033
 8023SOL     OW24967   5.092   6.214   3.714
 8023SOL    HW124968   5.174   6.202   3.768
 8023SOL    HW224969   5.030   6.278   3.760
 8024SOL     OW24970   1.908   6.070   6.308
 8024SOL    HW124971   1.931   6.012   6.386
 8024SOL    HW224972   1.871   6.156   6.340
 8025SOL     OW24973   2.162   5.017   1.455
 8025SOL    HW124974   2.204   5.020   1.365
 8025SOL    HW224975   2.232   5.009   1.525
 8026SOL     OW24976   0.860   5.081   6.363
 8026SOL    HW124977   0.842   5.048   6.456
 8026SOL    HW224978   0.774   5.101   6.317
 8027SOL     OW24979   3.838   6.339   6.256
 8027SOL    HW124980   3.934   6.310   6.259
 8027SOL    HW224981   3.807   6.360   6.349
 8028SOL     OW24982   3.309   5.642   4.534
 8028SOL    HW124983   3.271   5.599   4.615
 8028SOL    HW224984   3.243   5.634   4.459
 8029SOL     OW24985   6.243   1.121   1.332
 8029SOL    HW124986   6.286   1.073   1.409
 8029SOL    HW224987   6.306   1.122   1.254
 8030SOL     OW24988   6.418   4.643   0.976
 8030SOL    HW124989   6.393   4.644   0.879
 8030SOL    HW224990   6.470   4.726   0.997
 8031SOL     OW24991   6.308   0.626   3.071
 8031SOL    HW124992   6.286   0.587   2.981
 8031SOL    HW224993   6.363   0.560   3.122
 8032SOL     OW24994   5.344   2.701   0.932
 8032SOL    HW124995   5.326   2.707   1.030
 8032SOL    HW224996   5.326   2.789   0.889
 8033SOL     OW24997   3.676   4.525   0.688
 8033SOL    HW124998   3.662   4.504   0.592
 8033SOL    HW224999   3.742   4.600   0.696
 8034SOL     OW25000   5.644   6.759   5.126
 8034SOL    HW125001   5.606   6.819   5.056
 8034SOL    HW225002   5.577   6.747   5.199
 8035SOL     OW25003   4.930   1.636   3.212
 8035SOL    HW125004   4.940   1.722   3.163
 8035SOL    HW225005   5.007   1.624   3.275
 8036SOL     OW25006   6.160   2.928   3.920
 8036SOL    HW125007   6.260   2.923   3.931
 8036SOL    HW225008   6.122   2.836   3.920
 8037SOL     OW25009   1.360   3.068   6.316
 8037SOL    HW125010   1.362   3.123   6.232
 8037SOL    HW225011   1.446   3.020   6.327
 8038SOL     OW25012   5.996   6.514   2.467
 8038SOL    HW125013   6.004   6.515   2.368
 8038SOL    HW225014   6.063   6.576   2.507
 8039SOL     OW25015   1.086   2.102   5.611
 8039SOL    HW125016   1.075   2.197   5.583
 8039SOL    HW225017   1.159   2.096   5.680
 8040SOL     OW25018   1.740   5.677   5.880
 8040SOL    HW125019   1.647   5.684   5.917
 8040SOL    HW225020   1.781   5.591   5.910
 8041SOL     OW25021   3.784   1.818   3.177
 8041SOL    HW125022   3.756   1.911   3.203
 8041SOL    HW225023   3.748   1.796   3.087
 8042SOL     OW25024   4.538   4.367   5.989
 8042SOL    HW125025   4.540   4.268   5.975
 8042SOL    HW225026   4.563   4.388   6.083
 8043SOL     OW25027   5.344   4.204   1.053
 8043SOL    HW125028   5.330   4.293   1.098
 8043SOL    HW225029   5.431   4.166   1.082
 8044SOL     OW25030   3.564   3.674   0.937
 8044SOL    HW125031   3.606   3.758   0.971
 8044SOL    HW225032   3.484   3.652   0.993
 8045SOL     OW25033   0.591   1.058   2.637
 8045SOL    HW125034   0.503   1.098   2.664
 8045SOL    HW225035   0.661   1.083   2.703
 8046SOL     OW25036   0.318   5.244   2.076
 8046SOL    HW125037   0.376   5.256   1.995
 8046SOL    HW225038   0.297   5.147   2.087
 8047SOL     OW25039   3.871   0.119   5.702
 8047SOL    HW125040   3.802   0.047   5.696
 8047SOL    HW225041   3.872   0.157   5.794
 8048SOL     OW25042   3.061   3.711   0.364
 8048SOL    HW125043   3.113   3.793   0.386
 8048SOL    HW225044   2.964   3.727   0.382
 8049SOL     OW25045   1.664   0.124   0.597
 8049SOL    HW125046   1.600   0.112   0.673
 8049SOL    HW225047   1.615   0.163   0.519
 8050SOL     OW25048   1.607   4.200   3.896
 8050SOL    HW125049   1.695   4.225   3.856
 8050SOL    HW225050   1.596   4.101   3.894
 8051SOL     OW25051   3.565   6.294   4.131
 8051SOL    HW125052   3.531   6.209   4.090
 8051SOL    HW225053   3.646   6.325   4.082
 8052SOL     OW25054   2.097   2.009   1.880
 8052SOL    HW125055   2.140   1.940   1.938
 8052SOL    HW225056   1.997   2.005   1.892
 8053SOL     OW25057   2.755   3.434   6.130
 8053SOL    HW125058   2.737   3.518   6.181
 8053SOL    HW225059   2.677   3.413   6.071
 8054SOL     OW25060   5.371   4.071   4.854
 8054SOL    HW125061   5.449   4.008   4.854
 8054SOL    HW225062   5.402   4.162   4.884
 8055SOL     OW25063   0.322   0.304   5.436
 8055SOL    HW125064   0.329   0.213   5.476
 8055SOL    HW225065   0.238   0.348   5.467
 8056SOL     OW25066   2.455   0.688   3.570
 8056SOL    HW125067   2.472   0.632   3.651
 8056SOL    HW225068   2.475   0.784   3.590
 8057SOL     OW25069   2.463   2.698   1.739
 8057SOL    HW125070   2.372   2.657   1.730
 8057SOL    HW225071   2.532   2.625   1.738
 8058SOL     OW25072   2.978   6.817   3.107
 8058SOL    HW125073   2.921   6.789   3.030
 8058SOL    HW225074   2.920   6.844   3.184
 8059SOL     OW25075   2.762   2.970   6.378
 8059SOL    HW125076   2.846   3.018   6.353
 8059SOL    HW225077   2.773   2.929   6.469
 8060SOL     OW25078   6.698   0.079   6.086
 8060SOL    HW125079   6.775   0.027   6.121
 8060SOL    HW225080   6.715   0.105   5.991
 8061SOL     OW25081   0.434   1.052   2.155
 8061SOL    HW125082   0.527   1.031   2.184
 8061SOL    HW225083   0.434   1.076   2.058
 8062SOL     OW25084   4.199   5.842   5.345
 8062SOL    HW125085   4.108   5.833   5.386
 8062SOL    HW225086   4.229   5.937   5.352
 8063SOL     OW25087   3.513   0.830   2.787
 8063SOL    HW125088   3.554   0.837   2.696
 8063SOL    HW225089   3.423   0.787   2.779
 8064SOL     OW25090   6.337   3.342   0.261
 8064SOL    HW125091   6.292   3.255   0.244
 8064SOL    HW225092   6.415   3.328   0.323
 8065SOL     OW25093   3.371   0.070   4.719
 8065SOL    HW125094   3.344   6.992   4.718
 8065SOL    HW225095   3.466   0.077   4.747
 8066SOL     OW25096   6.966   1.002   4.953
 8066SOL    HW125097   6.951   1.026   5.049
 8066SOL    HW225098   6.886   1.027   4.899
 8067SOL     OW25099   4.841   2.900   3.391
 8067SOL    HW125100   4.788   2.892   3.475
 8067SOL    HW225101   4.896   2.983   3.393
 8068SOL     OW25102   6.695   4.318   1.369
 8068SOL    HW125103   6.705   4.379   1.447
 8068SOL    HW225104   6.728   4.364   1.286
 8069SOL     OW25105   2.970   5.088   2.514
 8069SOL    HW125106   3.033   5.017   2.544
 8069SOL    HW225107   2.890   5.047   2.471
 8070SOL     OW25108   5.071   4.458   0.619
 8070SOL    HW125109   5.110   4.438   0.709
 8070SOL    HW225110   5.006   4.386   0.593
 8071SOL     OW25111   3.798   6.827   6.027
 8071SOL    HW125112   3.729   6.895   6.002
 8071SOL    HW225113   3.884   6.874   6.051
 8072SOL     OW25114   2.250   3.307   6.657
 8072SOL    HW125115   2.153   3.284   6.662
 8072SOL    HW225116   2.267   3.362   6.575
 8073SOL     OW25117   2.776   0.167   6.648
 8073SOL    HW125118   2.806   0.180   6.742
 8073SOL    HW225119   2.853   0.183   6.586
 8074SOL     OW25120   2.158   2.006   0.503
 8074SOL    HW125121   2.224   1.939   0.539
 8074SOL    HW225122   2.162   2.007   0.404
 8075SOL     OW25123   0.000   6.597   0.031
 8075SOL    HW125124   7.000   6.529   6.979
 8075SOL    HW225125   6.933   6.640   0.059
 8076SOL     OW25126   6.881   6.995   6.836
 8076SOL    HW125127   6.973   6.960   6.852
 8076SOL    HW225128   6.825   6.981   6.918
 8077SOL     OW25129   4.252   5.658   1.775
 8077SOL    HW125130   4.306   5.605   1.840
 8077SOL    HW225131   4.263   5.619   1.683
 8078SOL     OW25132   1.120   1.217   0.799
 8078SOL    HW125133   1.062   1.186   0.724
 8078SOL    HW225134   1.105   1.315   0.815
 8079SOL     OW25135   1.295   1.223   4.764
 8079SOL    HW125136   1.372   1.279   4.732
 8079SOL    HW225137   1.275   1.246   4.859
 8080SOL     OW25138   1.254   3.273   2.585
 8080SOL    HW125139   1.296   3.358   2.552
 8080SOL    HW225140   1.280   3.198   2.524
 8081SOL     OW25141   5.908   4.904   4.783
 8081SOL    HW125142   5.988   4.874   4.836
 8081SOL    HW225143   5.827   4.904   4.841
 8082SOL     OW25144   2.531   1.695   2.364
 8082SOL    HW125145   2.572   1.605   2.349
 8082SOL    HW225146   2.459   1.688   2.433
 8083SOL     OW25147   5.346   2.373   4.361
 8083SOL    HW125148   5.310   2.369   4.454
 8083SOL    HW225149   5.291   2.314   4.302
 8084SOL     OW25150   2.222   0.084   6.311
 8084SOL    HW125151   2.167   0.001   6.302
 8084SOL    HW225152   2.207   0.125   6.401
 8085SOL     OW25153   0.414   5.137   4.070
 8085SOL    HW125154   0.380   5.224   4.106
 8085SOL    HW225155   0.445   5.149   3.976
 8086SOL     OW25156   0.517   1.141   1.809
 8086SOL    HW125157   0.427   1.159   1.850
 8086SOL    HW225158   0.520   1.181   1.717
 8087SOL     OW25159   1.076   0.451   0.008
 8087SOL    HW125160   1.103   0.502   0.089
 8087SOL    HW225161   1.152   0.394   6.995
 8088SOL     OW25162   5.116   6.831   6.387
 8088SOL    HW125163   5.206   6.873   6.397
 8088SOL    HW225164   5.106   6.795   6.294
 8089SOL     OW25165   5.936   2.654   6.415
 8089SOL    HW125166   5.858   2.601   6.384
 8089SOL    HW225167   5.933   2.745   6.373
 8090SOL     OW25168   3.985   1.671   0.003
 8090SOL    HW125169   3.900   1.624   0.026
 8090SOL    HW225170   4.017   1.643   6.931
 8091SOL     OW25171   1.519   4.194   4.224
 8091SOL    HW125172   1.497   4.096   4.225
 8091SOL    HW225173   1.458   4.241   4.161
 8092SOL     OW25174   4.972   1.906   5.357
 8092SOL    HW125175   5.007   1.824   5.402
 8092SOL    HW225176   4.872   1.906   5.362
 8093SOL     OW25177   2.984   6.360   3.006
 8093SOL    HW125178   3.031   6.273   2.991
 8093SOL    HW225179   3.014   6.400   3.092
 8094SOL     OW25180   1.067   3.466   4.252
 8094SOL    HW125181   1.119   3.421   4.180
 8094SOL    HW225182   1.110   3.449   4.340
 8095SOL     OW25183   1.199   4.091   5.212
 8095SOL    HW125184   1.282   4.122   5.167
 8095SOL    HW225185   1.155   4.168   5.259
 8096SOL     OW25186   1.494   6.814   2.173
 8096SOL    HW125187   1.522   6.859   2.089
 8096SOL    HW225188   1.399   6.836   2.193
 8097SOL     OW25189   3.167   0.056   5.245
 8097SOL    HW125190   3.231   0.003   5.188
 8097SOL    HW225191   3.078   0.059   5.201
 8098SOL     OW25192   0.484   6.127   3.683
 8098SOL    HW125193   0.521   6.034   3.684
 8098SOL    HW225194   0.388   6.124   3.655
 8099SOL     OW25195   3.820   5.610   3.711
 8099SOL    HW125196   3.770   5.657   3.637
 8099SOL    HW225197   3.882   5.543   3.671
 8100SOL     OW25198   6.098   1.155   6.435
 8100SOL    HW125199   6.183   1.107   6.411
 8100SOL    HW225200   6.054   1.188   6.352
 8101SOL     OW25201   2.229   6.103   0.690
 8101SOL    HW125202   2.297   6.154   0.744
 8101SOL    HW225203   2.161   6.167   0.654
 8102SOL     OW25204   1.011   3.158   4.703
 8102SOL    HW125205   1.051   3.132   4.791
 8102SOL    HW225206   0.915   3.132   4.701
 8103SOL     OW25207   3.764   1.228   2.399
 8103SOL    HW125208   3.735   1.209   2.493
 8103SOL    HW225209   3.864   1.236   2.397
 8104SOL     OW25210   1.956   6.373   5.891
 8104SOL    HW125211   2.006   6.294   5.856
 8104SOL    HW225212   1.891   6.343   5.961
 8105SOL     OW25213   6.501   1.797   3.142
 8105SOL    HW125214   6.435   1.756   3.204
 8105SOL    HW225215   6.497   1.751   3.053
 8106SOL     OW25216   2.760   6.204   4.289
 8106SOL    HW125217   2.801   6.283   4.334
 8106SOL    HW225218   2.798   6.120   4.327
 8107SOL     OW25219   1.990   5.963   4.285
 8107SOL    HW125220   1.962   5.892   4.220
 8107SOL    HW225221   1.926   5.966   4.362
 8108SOL     OW25222   0.068   1.187   6.696
 8108SOL    HW125223   0.019   1.274   6.693
 8108SOL    HW225224   0.083   1.160   6.791
 8109SOL     OW25225   6.746   3.558   6.509
 8109SOL    HW125226   6.823   3.523   6.456
 8109SOL    HW225227   6.743   3.512   6.598
 8110SOL     OW25228   4.462   4.492   1.091
 8110SOL    HW125229   4.468   4.547   1.008
 8110SOL    HW225230   4.503   4.541   1.168
 8111SOL     OW25231   5.740   1.133   3.389
 8111SOL    HW125232   5.814   1.072   3.417
 8111SOL    HW225233   5.779   1.216   3.347
 8112SOL     OW25234   0.528   2.869   4.940
 8112SOL    HW125235   0.623   2.897   4.957
 8112SOL    HW225236   0.483   2.851   5.027
 8113SOL     OW25237   6.448   2.913   1.145
 8113SOL    HW125238   6.383   2.863   1.202
 8113SOL    HW225239   6.467   3.002   1.186
 8114SOL     OW25240   1.501   4.523   2.203
 8114SOL    HW125241   1.514   4.511   2.105
 8114SOL    HW225242   1.403   4.522   2.224
 8115SOL     OW25243   3.123   6.827   6.879
 8115SOL    HW125244   3.081   6.900   6.933
 8115SOL    HW225245   3.107   6.739   6.924
 8116SOL     OW25246   3.628   5.344   0.637
 8116SOL    HW125247   3.547   5.369   0.585
 8116SOL    HW225248   3.707   5.339   0.576
 8117SOL     OW25249   2.138   6.736   2.981
 8117SOL    HW125250   2.051   6.770   3.016
 8117SOL    HW225251   2.122   6.688   2.894
 8118SOL     OW25252   6.198   4.055   6.561
 8118SOL    HW125253   6.141   4.042   6.480
 8118SOL    HW225254   6.294   4.051   6.536
 8119SOL     OW25255   5.447   6.209   5.575
 8119SOL    HW125256   5.408   6.158   5.498
 8119SOL    HW225257   5.533   6.168   5.603
 8120SOL     OW25258   2.086   5.797   0.505
 8120SOL    HW125259   2.144   5.761   0.579
 8120SOL    HW225260   2.043   5.722   0.456
 8121SOL     OW25261   1.054   4.346   3.305
 8121SOL    HW125262   1.074   4.389   3.393
 8121SOL    HW225263   0.963   4.305   3.307
 8122SOL     OW25264   1.019   4.742   2.842
 8122SOL    HW125265   1.048   4.657   2.885
 8122SOL    HW225266   1.045   4.820   2.899
 8123SOL     OW25267   0.842   1.933   6.777
 8123SOL    HW125268   0.915   1.872   6.744
 8123SOL    HW225269   0.876   2.027   6.779
 8124SOL     OW25270   5.475   5.812   3.994
 8124SOL    HW125271   5.494   5.885   4.061
 8124SOL    HW225272   5.379   5.787   3.999
 8125SOL     OW25273   0.779   0.654   2.892
 8125SOL    HW125274   0.709   0.627   2.957
 8125SOL    HW225275   0.788   0.584   2.821
 8126SOL     OW25276   3.985   4.974   3.852
 8126SOL    HW125277   4.009   5.067   3.880
 8126SOL    HW225278   3.962   4.920   3.932
 8127SOL     OW25279   2.447   2.517   0.305
 8127SOL    HW125280   2.374   2.453   0.332
 8127SOL    HW225281   2.535   2.471   0.312
 8128SOL     OW25282   3.163   2.900   1.416
 8128SOL    HW125283   3.080   2.844   1.420
 8128SOL    HW225284   3.200   2.912   1.509
 8129SOL     OW25285   1.398   2.223   0.223
 8129SOL    HW125286   1.376   2.127   0.242
 8129SOL    HW225287   1.477   2.228   0.162
 8130SOL     OW25288   1.127   5.557   0.122
 8130SOL    HW125289   1.210   5.607   0.099
 8130SOL    HW225290   1.093   5.589   0.211
 8131SOL     OW25291   2.755   2.733   1.125
 8131SOL    HW125292   2.769   2.704   1.030
 8131SOL    HW225293   2.839   2.774   1.160
 8132SOL     OW25294   6.610   6.955   3.969
 8132SOL    HW125295   6.673   7.008   3.913
 8132SOL    HW225296   6.614   6.987   4.063
 8133SOL     OW25297   3.946   5.272   1.952
 8133SOL    HW125298   3.877   5.338   1.923
 8133SOL    HW225299   3.926   5.242   2.045
 8134SOL     OW25300   6.267   1.114   5.833
 8134SOL    HW125301   6.346   1.143   5.886
 8134SOL    HW225302   6.297   1.071   5.748
 8135SOL     OW25303   2.241   0.313   1.622
 8135SOL    HW125304   2.151   0.319   1.579
 8135SOL    HW225305   2.255   0.222   1.660
 8136SOL     OW25306   5.436   5.632   2.320
 8136SOL    HW125307   5.430   5.588   2.231
 8136SOL    HW225308   5.479   5.570   2.385
 8137SOL     OW25309   3.320   1.261   5.714
 8137SOL    HW125310   3.237   1.289   5.762
 8137SOL    HW225311   3.297   1.229   5.622
 8138SOL     OW25312   5.366   1.250   1.635
 8138SOL    HW125313   5.464   1.252   1.656
 8138SOL    HW225314   5.353   1.217   1.542
 8139SOL     OW25315   0.632   1.563   2.559
 8139SOL    HW125316   0.537   1.591   2.574
 8139SOL    HW225317   0.637   1.463   2.554
 8140SOL     OW25318   4.394   1.174   4.589
 8140SOL    HW125319   4.480   1.143   4.547
 8140SOL    HW225320   4.320   1.170   4.522
 8141SOL     OW25321   3.787   5.217   5.549
 8141SOL    HW125322   3.746   5.271   5.622
 8141SOL    HW225323   3.715   5.182   5.488
 8142SOL     OW25324   6.407   4.608   0.482
 8142SOL    HW125325   6.459   4.653   0.555
 8142SOL    HW225326   6.384   4.674   0.411
 8143SOL     OW25327   5.994   4.414   5.947
 8143SOL    HW125328   5.922   4.419   5.878
 8143SOL    HW225329   5.956   4.436   6.037
 8144SOL     OW25330   5.323   6.817   6.918
 8144SOL    HW125331   5.386   6.870   6.862
 8144SOL    HW225332   5.357   6.812   7.012
 8145SOL     OW25333   5.850   6.082   2.824
 8145SOL    HW125334   5.778   6.096   2.755
 8145SOL    HW225335   5.808   6.058   2.911
 8146SOL     OW25336   3.281   0.847   5.593
 8146SOL    HW125337   3.362   0.898   5.621
 8146SOL    HW225338   3.298   0.804   5.504
 8147SOL     OW25339   4.637   1.767   3.571
 8147SOL    HW125340   4.555   1.734   3.617
 8147SOL    HW225341   4.612   1.806   3.482
 8148SOL     OW25342   5.667   2.955   2.507
 8148SOL    HW125343   5.754   2.924   2.547
 8148SOL    HW225344   5.604   2.979   2.581
 8149SOL     OW25345   3.576   5.881   2.503
 8149SOL    HW125346   3.653   5.848   2.448
 8149SOL    HW225347   3.502   5.814   2.500
 8150SOL     OW25348   0.387   4.775   0.411
 8150SOL    HW125349   0.485   4.763   0.396
 8150SOL    HW225350   0.366   4.872   0.418
 8151SOL     OW25351   0.828   2.482   3.808
 8151SOL    HW125352   0.775   2.480   3.892
 8151SOL    HW225353   0.917   2.525   3.824
 8152SOL     OW25354   2.054   1.509   3.305
 8152SOL    HW125355   2.124   1.543   3.367
 8152SOL    HW225356   2.077   1.533   3.211
 8153SOL     OW25357   3.023   0.472   1.912
 8153SOL    HW125358   2.954   0.410   1.950
 8153SOL    HW225359   2.992   0.507   1.824
 8154SOL     OW25360   2.494   6.255   4.092
 8154SOL    HW125361   2.578   6.231   4.139
 8154SOL    HW225362   2.418   6.255   4.157
 8155SOL     OW25363   3.092   2.998   2.108
 8155SOL    HW125364   3.039   2.931   2.160
 8155SOL    HW225365   3.120   2.957   2.021
 8156SOL     OW25366   5.568   0.921   5.284
 8156SOL    HW125367   5.661   0.937   5.250
 8156SOL    HW225368   5.521   1.008   5.295
 8157SOL     OW25369   6.029   4.379   6.428
 8157SOL    HW125370   5.999   4.334   6.512
 8157SOL    HW225371   6.129   4.374   6.422
 8158SOL     OW25372   1.046   5.851   1.393
 8158SOL    HW125373   0.979   5.840   1.467
 8158SOL    HW225374   1.134   5.878   1.431
 8159SOL     OW25375   2.172   5.264   2.362
 8159SOL    HW125376   2.133   5.245   2.272
 8159SOL    HW225377   2.101   5.256   2.432
 8160SOL     OW25378   4.889   2.540   0.821
 8160SOL    HW125379   4.790   2.521   0.820
 8160SOL    HW225380   4.909   2.609   0.891
 8161SOL     OW25381   4.796   0.985   0.671
 8161SOL    HW125382   4.832   1.046   0.601
 8161SOL    HW225383   4.826   0.891   0.652
 8162SOL     OW25384   6.012   0.093   0.695
 8162SOL    HW125385   6.095   0.047   0.665
 8162SOL    HW225386   6.036   0.183   0.733
 8163SOL     OW25387   2.405   4.080   5.345
 8163SOL    HW125388   2.387   4.014   5.272
 8163SOL    HW225389   2.376   4.171   5.315
 8164SOL     OW25390   5.114   2.236   1.214
 8164SOL    HW125391   5.030   2.183   1.219
 8164SOL    HW225392   5.187   2.178   1.176
 8165SOL     OW25393   1.751   4.397   1.317
 8165SOL    HW125394   1.716   4.489   1.298
 8165SOL    HW225395   1.686   4.329   1.282
 8166SOL     OW25396   2.338   0.412   1.916
 8166SOL    HW125397   2.386   0.419   1.829
 8166SOL    HW225398   2.303   0.319   1.928
 8167SOL     OW25399   5.969   2.598   3.504
 8167SOL    HW125400   5.914   2.559   3.578
 8167SOL    HW225401   5.961   2.541   3.422
 8168SOL     OW25402   3.641   1.292   3.230
 8168SOL    HW125403   3.650   1.217   3.163
 8168SOL    HW225404   3.601   1.372   3.185
 8169SOL     OW25405   4.472   3.841   6.803
 8169SOL    HW125406   4.488   3.921   6.861
 8169SOL    HW225407   4.434   3.767   6.858
 8170SOL     OW25408   0.922   5.748   4.104
 8170SOL    HW125409   0.994   5.684   4.078
 8170SOL    HW225410   0.939   5.782   4.197
 8171SOL     OW25411   0.558   1.564   6.659
 8171SOL    HW125412   0.623   1.633   6.629
 8171SOL    HW225413   0.544   1.496   6.588
 8172SOL     OW25414   0.072   0.140   0.603
 8172SOL    HW125415   0.048   0.122   0.698
 8172SOL    HW225416   7.009   0.166   0.551
 8173SOL     OW25417   3.778   2.383   0.051
 8173SOL    HW125418   3.832   2.299   0.062
 8173SOL    HW225419   3.824   2.458   0.098
 8174SOL     OW25420   5.681   1.298   1.364
 8174SOL    HW125421   5.754   1.265   1.305
 8174SOL    HW225422   5.693   1.396   1.380
 8175SOL     OW25423   0.534   2.398   6.212
 8175SOL    HW125424   0.627   2.432   6.213
 8175SOL    HW225425   0.533   2.304   6.178
 8176SOL     OW25426   2.594   5.506   1.996
 8176SOL    HW125427   2.584   5.467   2.087
 8176SOL    HW225428   2.684   5.548   1.987
 8177SOL     OW25429   0.956   6.657   4.250
 8177SOL    HW125430   0.984   6.716   4.325
 8177SOL    HW225431   1.009   6.679   4.168
 8178SOL     OW25432   1.684   6.563   6.838
 8178SOL    HW125433   1.638   6.636   6.787
 8178SOL    HW225434   1.662   6.475   6.797
 8179SOL     OW25435   3.171   3.044   0.082
 8179SOL    HW125436   3.142   2.948   0.085
 8179SOL    HW225437   3.109   3.099   0.137
 8180SOL     OW25438   0.171   6.869   4.377
 8180SOL    HW125439   0.126   6.955   4.354
 8180SOL    HW225440   0.237   6.884   4.450
 8181SOL     OW25441   2.679   1.946   2.941
 8181SOL    HW125442   2.643   2.039   2.935
 8181SOL    HW225443   2.765   1.941   2.889
 8182SOL     OW25444   3.367   2.291   5.624
 8182SOL    HW125445   3.380   2.301   5.525
 8182SOL    HW225446   3.380   2.380   5.669
 8183SOL     OW25447   0.892   3.442   4.958
 8183SOL    HW125448   0.919   3.537   4.976
 8183SOL    HW225449   0.837   3.408   5.035
 8184SOL     OW25450   0.175   0.374   5.177
 8184SOL    HW125451   0.117   0.445   5.216
 8184SOL    HW225452   0.216   0.320   5.251
 8185SOL     OW25453   3.337   1.469   2.584
 8185SOL    HW125454   3.238   1.462   2.571
 8185SOL    HW225455   3.383   1.397   2.533
 8186SOL     OW25456   3.075   5.928   5.799
 8186SOL    HW125457   2.980   5.955   5.811
 8186SOL    HW225458   3.093   5.911   5.702
 8187SOL     OW25459   1.350   2.122   5.502
 8187SOL    HW125460   1.251   2.113   5.511
 8187SOL    HW225461   1.387   2.036   5.465
 8188SOL     OW25462   5.681   2.189   2.614
 8188SOL    HW125463   5.611   2.211   2.545
 8188SOL    HW225464   5.643   2.201   2.705
 8189SOL     OW25465   5.814   4.641   2.872
 8189SOL    HW125466   5.823   4.654   2.971
 8189SOL    HW225467   5.902   4.656   2.827
 8190SOL     OW25468   4.969   3.131   3.416
 8190SOL    HW125469   4.957   3.211   3.474
 8190SOL    HW225470   5.040   3.149   3.348
 8191SOL     OW25471   0.755   5.057   3.803
 8191SOL    HW125472   0.682   5.115   3.768
 8191SOL    HW225473   0.716   4.985   3.861
 8192SOL     OW25474   2.344   5.469   2.272
 8192SOL    HW125475   2.298   5.382   2.286
 8192SOL    HW225476   2.440   5.453   2.248
 8193SOL     OW25477   4.545   6.716   5.498
 8193SOL    HW125478   4.567   6.642   5.561
 8193SOL    HW225479   4.615   6.721   5.426
 8194SOL     OW25480   6.836   0.877   6.958
 8194SOL    HW125481   6.876   0.810   6.896
 8194SOL    HW225482   6.742   0.898   6.931
 8195SOL     OW25483   6.778   0.149   0.195
 8195SOL    HW125484   6.726   0.093   0.131
 8195SOL    HW225485   6.874   0.124   0.191
 8196SOL     OW25486   3.371   6.755   6.702
 8196SOL    HW125487   3.446   6.715   6.756
 8196SOL    HW225488   3.299   6.786   6.764
 8197SOL     OW25489   6.818   0.529   6.196
 8197SOL    HW125490   6.882   0.472   6.143
 8197SOL    HW225491   6.775   0.595   6.135
 8198SOL     OW25492   2.469   6.681   3.176
 8198SOL    HW125493   2.433   6.768   3.141
 8198SOL    HW225494   2.541   6.648   3.115
 8199SOL     OW25495   0.119   3.659   0.069
 8199SOL    HW125496   0.119   3.735   0.135
 8199SOL    HW225497   0.025   3.625   0.058
 8200SOL     OW25498   4.984   4.264   1.308
 8200SOL    HW125499   5.030   4.281   1.395
 8200SOL    HW225500   5.016   4.178   1.269
 8201SOL     OW25501   5.985   0.052   3.892
 8201SOL    HW125502   5.931   0.090   3.967
 8201SOL    HW225503   5.940   0.073   3.805
 8202SOL     OW25504   1.483   4.512   2.977
 8202SOL    HW125505   1.493   4.444   2.905
 8202SOL    HW225506   1.386   4.529   2.994
 8203SOL     OW25507   5.409   4.132   1.849
 8203SOL    HW125508   5.445   4.039   1.844
 8203SOL    HW225509   5.416   4.175   1.759
 8204SOL     OW25510   3.254   0.138   2.093
 8204SOL    HW125511   3.337   0.095   2.129
 8204SOL    HW225512   3.252   0.130   1.994
 8205SOL     OW25513   5.756   5.339   1.511
 8205SOL    HW125514   5.826   5.273   1.485
 8205SOL    HW225515   5.682   5.337   1.444
 8206SOL     OW25516   4.110   2.072   5.429
 8206SOL    HW125517   4.083   2.167   5.411
 8206SOL    HW225518   4.038   2.027   5.483
 8207SOL     OW25519   3.349   4.885   6.321
 8207SOL    HW125520   3.326   4.935   6.238
 8207SOL    HW225521   3.293   4.919   6.397
 8208SOL     OW25522   1.625   4.657   1.434
 8208SOL    HW125523   1.564   4.581   1.454
 8208SOL    HW225524   1.644   4.707   1.518
 8209SOL     OW25525   1.202   0.409   5.174
 8209SOL    HW125526   1.297   0.439   5.174
 8209SOL    HW225527   1.143   0.483   5.143
 8210SOL     OW25528   2.191   1.589   0.337
 8210SOL    HW125529   2.253   1.520   0.376
 8210SOL    HW225530   2.245   1.661   0.294
 8211SOL     OW25531   3.081   3.033   4.306
 8211SOL    HW125532   3.059   2.973   4.382
 8211SOL    HW225533   3.135   2.983   4.238
 8212SOL     OW25534   2.968   0.125   1.347
 8212SOL    HW125535   3.057   0.095   1.312
 8212SOL    HW225536   2.931   0.056   1.408
 8213SOL     OW25537   4.418   4.286   1.482
 8213SOL    HW125538   4.408   4.225   1.404
 8213SOL    HW225539   4.332   4.290   1.532
 8214SOL     OW25540   3.242   5.765   4.155
 8214SOL    HW125541   3.308   5.840   4.147
 8214SOL    HW225542   3.156   5.801   4.190
 8215SOL     OW25543   4.458   6.725   6.729
 8215SOL    HW125544   4.411   6.810   6.751
 8215SOL    HW225545   4.540   6.717   6.786
 8216SOL     OW25546   4.714   5.745   1.781
 8216SOL    HW125547   4.814   5.738   1.778
 8216SOL    HW225548   4.689   5.828   1.831
 8217SOL     OW25549   2.775   5.460   3.244
 8217SOL    HW125550   2.776   5.433   3.340
 8217SOL    HW225551   2.776   5.378   3.187
 8218SOL     OW25552   1.637   0.509   5.366
 8218SOL    HW125553   1.573   0.554   5.304
 8218SOL    HW225554   1.688   0.439   5.316
 8219SOL     OW25555   3.783   3.863   0.710
 8219SOL    HW125556   3.751   3.867   0.615
 8219SOL    HW225557   3.719   3.911   0.769
 8220SOL     OW25558   3.700   3.647   3.988
 8220SOL    HW125559   3.776   3.590   4.019
 8220SOL    HW225560   3.734   3.715   3.923
 8221SOL     OW25561   6.052   3.013   3.423
 8221SOL    HW125562   6.093   3.102   3.444
 8221SOL    HW225563   6.097   2.942   3.478
 8222SOL     OW25564   6.282   2.761   1.329
 8222SOL    HW125565   6.187   2.789   1.333
 8222SOL    HW225566   6.289   2.663   1.348
 8223SOL     OW25567   0.188   6.185   5.087
 8223SOL    HW125568   0.252   6.209   5.160
 8223SOL    HW225569   0.238   6.172   5.002
 8224SOL     OW25570   5.716   1.602   0.375
 8224SOL    HW125571   5.815   1.614   0.386
 8224SOL    HW225572   5.675   1.581   0.464
 8225SOL     OW25573   5.053   1.951   0.451
 8225SOL    HW125574   5.123   1.987   0.512
 8225SOL    HW225575   5.033   1.856   0.475
 8226SOL     OW25576   3.770   0.184   0.397
 8226SOL    HW125577   3.705   0.261   0.403
 8226SOL    HW225578   3.758   0.138   0.309
 8227SOL     OW25579   4.886   1.926   2.486
 8227SOL    HW125580   4.860   2.011   2.439
 8227SOL    HW225581   4.869   1.936   2.584
 8228SOL     OW25582   1.808   0.576   5.593
 8228SOL    HW125583   1.751   0.592   5.674
 8228SOL    HW225584   1.750   0.554   5.515
 8229SOL     OW25585   3.987   4.655   1.279
 8229SOL    HW125586   4.031   4.729   1.329
 8229SOL    HW225587   4.013   4.567   1.318
 8230SOL     OW25588   4.779   0.893   5.587
 8230SOL    HW125589   4.818   0.815   5.634
 8230SOL    HW225590   4.847   0.934   5.526
 8231SOL     OW25591   2.758   1.491   2.966
 8231SOL    HW125592   2.747   1.586   2.995
 8231SOL    HW225593   2.674   1.461   2.920
 8232SOL     OW25594   3.965   6.537   2.717
 8232SOL    HW125595   3.999   6.630   2.734
 8232SOL    HW225596   3.958   6.521   2.619
 8233SOL     OW25597   0.895   0.633   5.918
 8233SOL    HW125598   0.940   0.625   6.007
 8233SOL    HW225599   0.800   0.659   5.932
 8234SOL     OW25600   1.823   2.350   0.674
 8234SOL    HW125601   1.882   2.337   0.754
 8234SOL    HW225602   1.820   2.265   0.621
 8235SOL     OW25603   0.060   5.378   0.853
 8235SOL    HW125604   0.073   5.295   0.908
 8235SOL    HW225605   6.989   5.417   0.871
 8236SOL     OW25606   0.953   6.650   6.838
 8236SOL    HW125607   0.994   6.642   6.928
 8236SOL    HW225608   0.871   6.707   6.843
 8237SOL     OW25609   4.454   5.365   6.535
 8237SOL    HW125610   4.533   5.343   6.592
 8237SOL    HW225611   4.482   5.368   6.439
 8238SOL     OW25612   1.383   4.612   0.593
 8238SOL    HW125613   1.455   4.545   0.607
 8238SOL    HW225614   1.423   4.698   0.562
 8239SOL     OW25615   0.568   1.302   5.225
 8239SOL    HW125616   0.559   1.344   5.315
 8239SOL    HW225617   0.521   1.359   5.157
 8240SOL     OW25618   3.546   3.504   4.383
 8240SOL    HW125619   3.644   3.489   4.371
 8240SOL    HW225620   3.495   3.451   4.315
 8241SOL     OW25621   1.868   4.151   6.049
 8241SOL    HW125622   1.812   4.226   6.014
 8241SOL    HW225623   1.861   4.072   5.988
 8242SOL     OW25624   0.427   2.893   4.118
 8242SOL    HW125625   0.359   2.904   4.046
 8242SOL    HW225626   0.390   2.929   4.204
 8243SOL     OW25627   0.779   4.471   4.725
 8243SOL    HW125628   0.739   4.471   4.817
 8243SOL    HW225629   0.873   4.438   4.730
 8244SOL     OW25630   1.433   0.278   4.030
 8244SOL    HW125631   1.397   0.195   3.986
 8244SOL    HW225632   1.433   0.265   4.129
 8245SOL     OW25633   5.439   1.453   4.005
 8245SOL    HW125634   5.370   1.383   4.026
 8245SOL    HW225635   5.510   1.451   4.075
 8246SOL     OW25636   1.570   4.795   6.242
 8246SOL    HW125637   1.619   4.733   6.303
 8246SOL    HW225638   1.608   4.788   6.150
 8247SOL     OW25639   3.523   5.368   2.969
 8247SOL    HW125640   3.546   5.349   3.064
 8247SOL    HW225641   3.499   5.282   2.923
 8248SOL     OW25642   0.779   5.259   3.042
 8248SOL    HW125643   0.751   5.329   2.976
 8248SOL    HW225644   0.874   5.233   3.023
 8249SOL     OW25645   2.784   2.084   6.463
 8249SOL    HW125646   2.818   2.146   6.534
 8249SOL    HW225647   2.833   1.997   6.469
 8250SOL     OW25648   2.018   1.397   6.510
 8250SOL    HW125649   2.031   1.314   6.565
 8250SOL    HW225650   1.963   1.374   6.430
 8251SOL     OW25651   0.066   1.964   4.684
 8251SOL    HW125652   0.075   2.059   4.713
 8251SOL    HW225653   0.106   1.953   4.593
 8252SOL     OW25654   1.361   2.262   6.615
 8252SOL    HW125655   1.435   2.204   6.581
 8252SOL    HW225656   1.343   2.241   6.711
 8253SOL     OW25657   4.304   5.850   0.759
 8253SOL    HW125658   4.310   5.773   0.822
 8253SOL    HW225659   4.360   5.926   0.794
 8254SOL     OW25660   5.041   5.240   6.848
 8254SOL    HW125661   5.037   5.271   6.943
 8254SOL    HW225662   4.955   5.193   6.825
 8255SOL     OW25663   1.021   6.271   6.474
 8255SOL    HW125664   0.941   6.217   6.445
 8255SOL    HW225665   1.004   6.307   6.566
 8256SOL     OW25666   1.939   5.691   3.295
 8256SOL    HW125667   2.017   5.630   3.309
 8256SOL    HW225668   1.959   5.754   3.220
 8257SOL     OW25669   4.935   3.710   3.105
 8257SOL    HW125670   4.986   3.713   3.019
 8257SOL    HW225671   4.938   3.617   3.142
 8258SOL     OW25672   6.582   3.088   2.083
 8258SOL    HW125673   6.668   3.096   2.031
 8258SOL    HW225674   6.584   3.152   2.160
 8259SOL     OW25675   4.566   1.646   4.172
 8259SOL    HW125676   4.472   1.626   4.144
 8259SOL    HW225677   4.565   1.708   4.250
 8260SOL     OW25678   4.237   1.521   1.461
 8260SOL    HW125679   4.301   1.596   1.473
 8260SOL    HW225680   4.287   1.436   1.445
 8261SOL     OW25681   5.814   0.386   3.136
 8261SOL    HW125682   5.863   0.308   3.176
 8261SOL    HW225683   5.870   0.428   3.065
 8262SOL     OW25684   6.480   3.976   2.198
 8262SOL    HW125685   6.466   4.042   2.272
 8262SOL    HW225686   6.578   3.957   2.188
 8263SOL     OW25687   0.327   2.204   6.396
 8263SOL    HW125688   0.384   2.179   6.474
 8263SOL    HW225689   0.369   2.281   6.347
 8264SOL     OW25690   2.531   6.796   2.643
 8264SOL    HW125691   2.473   6.776   2.722
 8264SOL    HW225692   2.475   6.827   2.567
 8265SOL     OW25693   5.711   0.399   0.619
 8265SOL    HW125694   5.776   0.325   0.642
 8265SOL    HW225695   5.718   0.420   0.521
 8266SOL     OW25696   2.690   0.611   3.278
 8266SOL    HW125697   2.733   0.622   3.367
 8266SOL    HW225698   2.718   0.687   3.218
 8267SOL     OW25699   1.384   4.030   3.327
 8267SOL    HW125700   1.408   4.127   3.332
 8267SOL    HW225701   1.302   4.019   3.272
 8268SOL     OW25702   3.212   4.694   6.558
 8268SOL    HW125703   3.249   4.661   6.471
 8268SOL    HW225704   3.157   4.622   6.600
 8269SOL     OW25705   5.380   2.304   3.408
 8269SOL    HW125706   5.417   2.296   3.315
 8269SOL    HW225707   5.324   2.223   3.428
 8270SOL     OW25708   3.372   0.544   5.967
 8270SOL    HW125709   3.314   0.557   6.048
 8270SOL    HW225710   3.323   0.491   5.899
 8271SOL     OW25711   3.741   6.501   5.860
 8271SOL    HW125712   3.666   6.566   5.847
 8271SOL    HW225713   3.824   6.550   5.885
 8272SOL     OW25714   1.142   0.252   1.542
 8272SOL    HW125715   1.111   0.282   1.452
 8272SOL    HW225716   1.093   0.303   1.613
 8273SOL     OW25717   2.831   0.194   6.915
 8273SOL    HW125718   2.883   0.121   6.959
 8273SOL    HW225719   2.751   0.216   6.971
 8274SOL     OW25720   5.410   6.250   6.187
 8274SOL    HW125721   5.419   6.348   6.202
 8274SOL    HW225722   5.393   6.232   6.090
 8275SOL     OW25723   5.194   0.663   4.131
 8275SOL    HW125724   5.174   0.761   4.133
 8275SOL    HW225725   5.108   0.611   4.127
 8276SOL     OW25726   0.259   2.697   6.029
 8276SOL    HW125727   0.182   2.703   5.966
 8276SOL    HW225728   0.339   2.661   5.980
 8277SOL     OW25729   1.349   5.956   6.212
 8277SOL    HW125730   1.433   5.999   6.245
 8277SOL    HW225731   1.348   5.956   6.112
 8278SOL     OW25732   3.740   1.362   0.759
 8278SOL    HW125733   3.804   1.384   0.833
 8278SOL    HW225734   3.719   1.445   0.707
 8279SOL     OW25735   5.156   5.221   5.818
 8279SOL    HW125736   5.112   5.136   5.848
 8279SOL    HW225737   5.095   5.298   5.833
 8280SOL     OW25738   5.318   3.028   7.018
 8280SOL    HW125739   5.341   2.934   6.994
 8280SOL    HW225740   5.378   3.090   6.968
 8281SOL     OW25741   2.356   4.952   6.829
 8281SOL    HW125742   2.403   4.874   6.871
 8281SOL    HW225743   2.388   5.037   6.873
 8282SOL     OW25744   3.251   2.665   0.733
 8282SOL    HW125745   3.215   2.665   0.827
 8282SOL    HW225746   3.226   2.751   0.689
 8283SOL     OW25747   0.417   5.325   2.772
 8283SOL    HW125748   0.450   5.384   2.697
 8283SOL    HW225749   0.317   5.320   2.768
 8284SOL     OW25750   2.342   2.277   2.257
 8284SOL    HW125751   2.325   2.178   2.259
 8284SOL    HW225752   2.314   2.313   2.168
 8285SOL     OW25753   3.600   4.489   6.254
 8285SOL    HW125754   3.623   4.576   6.211
 8285SOL    HW225755   3.617   4.414   6.190
 8286SOL     OW25756   5.540   0.901   5.896
 8286SOL    HW125757   5.558   0.829   5.962
 8286SOL    HW225758   5.627   0.944   5.869
 8287SOL     OW25759   2.012   0.633   3.158
 8287SOL    HW125760   1.924   0.661   3.197
 8287SOL    HW225761   2.013   0.653   3.060
 8288SOL     OW25762   1.508   1.366   2.866
 8288SOL    HW125763   1.586   1.353   2.928
 8288SOL    HW225764   1.437   1.300   2.889
 8289SOL     OW25765   6.382   1.682   5.766
 8289SOL    HW125766   6.285   1.691   5.744
 8289SOL    HW225767   6.434   1.751   5.716
 8290SOL     OW25768   4.140   2.290   1.865
 8290SOL    HW125769   4.081   2.355   1.818
 8290SOL    HW225770   4.091   2.204   1.878
 8291SOL     OW25771   5.223   5.191   6.131
 8291SOL    HW125772   5.244   5.240   6.046
 8291SOL    HW225773   5.152   5.240   6.181
 8292SOL     OW25774   0.876   3.944   4.207
 8292SOL    HW125775   0.932   4.000   4.268
 8292SOL    HW225776   0.785   3.931   4.248
 8293SOL     OW25777   3.025   5.322   3.868
 8293SOL    HW125778   2.932   5.359   3.870
 8293SOL    HW225779   3.089   5.391   3.901
 8294SOL     OW25780   5.433   3.712   5.799
 8294SOL    HW125781   5.412   3.647   5.726
 8294SOL    HW225782   5.523   3.752   5.783
 8295SOL     OW25783   4.973   4.183   1.911
 8295SOL    HW125784   4.947   4.160   2.005
 8295SOL    HW225785   5.014   4.103   1.868
 8296SOL     OW25786   3.894   6.606   1.712
 8296SOL    HW125787   3.931   6.647   1.629
 8296SOL    HW225788   3.915   6.508   1.712
 8297SOL     OW25789   5.307   4.306   2.675
 8297SOL    HW125790   5.390   4.293   2.621
 8297SOL    HW225791   5.244   4.230   2.659
 8298SOL     OW25792   6.341   0.432   6.022
 8298SOL    HW125793   6.301   0.512   5.977
 8298SOL    HW225794   6.317   0.350   5.970
 8299SOL     OW25795   1.483   3.294   1.304
 8299SOL    HW125796   1.433   3.380   1.293
 8299SOL    HW225797   1.553   3.287   1.233
 8300SOL     OW25798   5.653   4.992   2.832
 8300SOL    HW125799   5.747   4.970   2.859
 8300SOL    HW225800   5.590   4.937   2.887
 8301SOL     OW25801   4.503   6.445   0.707
 8301SOL    HW125802   4.572   6.465   0.637
 8301SOL    HW225803   4.464   6.531   0.741
 8302SOL     OW25804   3.891   6.662   5.632
 8302SOL    HW125805   3.988   6.689   5.627
 8302SOL    HW225806   3.834   6.742   5.612
 8303SOL     OW25807   0.025   6.058   3.106
 8303SOL    HW125808   0.117   6.044   3.141
 8303SOL    HW225809   0.027   6.065   3.006
 8304SOL     OW25810   5.418   3.591   3.551
 8304SOL    HW125811   5.404   3.620   3.456
 8304SOL    HW225812   5.357   3.644   3.611
 8305SOL     OW25813   4.962   5.830   4.468
 8305SOL    HW125814   4.874   5.851   4.427
 8305SOL    HW225815   5.021   5.784   4.402
 8306SOL     OW25816   6.831   0.766   2.395
 8306SOL    HW125817   6.791   0.857   2.395
 8306SOL    HW225818   6.931   0.773   2.398
 8307SOL     OW25819   1.807   4.271   3.193
 8307SOL    HW125820   1.833   4.290   3.287
 8307SOL    HW225821   1.785   4.174   3.183
 8308SOL     OW25822   1.140   5.576   0.657
 8308SOL    HW125823   1.203   5.501   0.635
 8308SOL    HW225824   1.124   5.578   0.755
 8309SOL     OW25825   5.942   4.381   4.255
 8309SOL    HW125826   5.956   4.287   4.284
 8309SOL    HW225827   5.889   4.382   4.170
 8310SOL     OW25828   1.180   6.885   0.456
 8310SOL    HW125829   1.213   6.825   0.529
 8310SOL    HW225830   1.220   6.856   0.369
 8311SOL     OW25831   5.823   0.140   3.305
 8311SOL    HW125832   5.750   0.079   3.337
 8311SOL    HW225833   5.811   0.230   3.346
 8312SOL     OW25834   5.399   1.619   6.998
 8312SOL    HW125835   5.317   1.675   6.985
 8312SOL    HW225836   5.469   1.672   0.028
 8313SOL     OW25837   4.827   1.917   4.845
 8313SOL    HW125838   4.846   1.986   4.915
 8313SOL    HW225839   4.912   1.868   4.823
 8314SOL     OW25840   4.930   6.218   5.240
 8314SOL    HW125841   4.841   6.209   5.283
 8314SOL    HW225842   4.948   6.139   5.182
 8315SOL     OW25843   3.454   3.835   4.646
 8315SOL    HW125844   3.499   3.801   4.729
 8315SOL    HW225845   3.396   3.913   4.669
 8316SOL     OW25846   1.854   2.818   6.385
 8316SOL    HW125847   1.824   2.725   6.406
 8316SOL    HW225848   1.883   2.864   6.469
 8317SOL     OW25849   2.402   1.125   3.396
 8317SOL    HW125850   2.350   1.170   3.324
 8317SOL    HW225851   2.347   1.052   3.437
 8318SOL     OW25852   4.000   7.018   6.742
 8318SOL    HW125853   4.072   0.047   6.792
 8318SOL    HW225854   4.039   6.975   6.660
 8319SOL     OW25855   1.580   6.890   6.507
 8319SOL    HW125856   1.636   6.891   6.424
 8319SOL    HW225857   1.615   6.959   6.571
 8320SOL     OW25858   2.872   3.561   4.729
 8320SOL    HW125859   2.789   3.599   4.690
 8320SOL    HW225860   2.897   3.611   4.812
 8321SOL     OW25861   6.902   6.726   0.979
 8321SOL    HW125862   6.806   6.737   0.954
 8321SOL    HW225863   6.942   6.651   0.926
 8322SOL     OW25864   1.067   0.119   6.615
 8322SOL    HW125865   1.126   0.047   6.578
 8322SOL    HW225866   1.038   0.180   6.542
 8323SOL     OW25867   5.263   4.291   0.792
 8323SOL    HW125868   5.168   4.260   0.780
 8323SOL    HW225869   5.300   4.250   0.875
 8324SOL     OW25870   4.848   6.127   6.196
 8324SOL    HW125871   4.861   6.212   6.246
 8324SOL    HW225872   4.863   6.049   6.257
 8325SOL     OW25873   1.312   5.885   5.945
 8325SOL    HW125874   1.270   5.889   5.854
 8325SOL    HW225875   1.390   5.823   5.943
 8326SOL     OW25876   1.821   4.021   1.892
 8326SOL    HW125877   1.851   3.957   1.962
 8326SOL    HW225878   1.781   4.102   1.936
 8327SOL     OW25879   0.972   6.870   4.441
 8327SOL    HW125880   1.068   6.895   4.452
 8327SOL    HW225881   0.951   6.791   4.498
 8328SOL     OW25882   1.731   6.822   6.935
 8328SOL    HW125883   1.709   6.740   6.988
 8328SOL    HW225884   1.650   6.881   6.930
 8329SOL     OW25885   1.384   2.693   5.191
 8329SOL    HW125886   1.318   2.740   5.249
 8329SOL    HW225887   1.415   2.609   5.236
 8330SOL     OW25888   3.275   1.466   6.219
 8330SOL    HW125889   3.231   1.437   6.133
 8330SOL    HW225890   3.211   1.522   6.272
 8331SOL     OW25891   1.731   2.384   6.636
 8331SOL    HW125892   1.650   2.325   6.624
 8331SOL    HW225893   1.769   2.368   6.727
 8332SOL     OW25894   5.856   5.559   1.684
 8332SOL    HW125895   5.806   5.495   1.625
 8332SOL    HW225896   5.950   5.527   1.697
 8333SOL     OW25897   2.562   5.048   1.477
 8333SOL    HW125898   2.471   5.035   1.517
 8333SOL    HW225899   2.627   4.986   1.521
 8334SOL     OW25900   3.956   2.162   6.315
 8334SOL    HW125901   3.877   2.224   6.321
 8334SOL    HW225902   3.955   2.099   6.392
 8335SOL     OW25903   5.059   3.713   6.246
 8335SOL    HW125904   5.068   3.638   6.180
 8335SOL    HW225905   4.988   3.776   6.214
 8336SOL     OW25906   1.002   3.912   3.477
 8336SOL    HW125907   1.045   3.974   3.411
 8336SOL    HW225908   1.071   3.849   3.513
 8337SOL     OW25909   1.062   1.431   4.647
 8337SOL    HW125910   1.036   1.397   4.556
 8337SOL    HW225911   1.130   1.370   4.688
 8338SOL     OW25912   4.579   5.382   2.655
 8338SOL    HW125913   4.488   5.342   2.650
 8338SOL    HW225914   4.583   5.464   2.598
 8339SOL     OW25915   6.248   7.002   0.593
 8339SOL    HW125916   6.334   0.023   0.562
 8339SOL    HW225917   6.265   6.948   0.676
 8340SOL     OW25918   6.079   2.501   0.217
 8340SOL    HW125919   6.003   2.562   0.194
 8340SOL    HW225920   6.137   2.489   0.136
 8341SOL     OW25921   3.528   1.133   0.524
 8341SOL    HW125922   3.449   1.078   0.498
 8341SOL    HW225923   3.603   1.073   0.553
 8342SOL     OW25924   4.999   0.445   0.193
 8342SOL    HW125925   4.904   0.413   0.192
 8342SOL    HW225926   5.060   0.368   0.176
 8343SOL     OW25927   6.319   3.661   3.679
 8343SOL    HW125928   6.258   3.724   3.728
 8343SOL    HW225929   6.291   3.657   3.583
 8344SOL     OW25930   1.033   5.028   4.913
 8344SOL    HW125931   1.056   5.064   5.003
 8344SOL    HW225932   1.058   5.096   4.843
 8345SOL     OW25933   4.609   0.689   3.425
 8345SOL    HW125934   4.659   0.652   3.346
 8345SOL    HW225935   4.600   0.789   3.415
 8346SOL     OW25936   5.254   3.072   5.116
 8346SOL    HW125937   5.289   3.024   5.197
 8346SOL    HW225938   5.160   3.044   5.098
 8347SOL     OW25939   2.584   0.311   6.370
 8347SOL    HW125940   2.596   0.347   6.463
 8347SOL    HW225941   2.663   0.336   6.314
 8348SOL     OW25942   3.468   6.552   2.074
 8348SOL    HW125943   3.432   6.459   2.079
 8348SOL    HW225944   3.547   6.553   2.014
 8349SOL     OW25945   1.026   6.386   1.943
 8349SOL    HW125946   0.928   6.383   1.961
 8349SOL    HW225947   1.057   6.295   1.915
 8350SOL     OW25948   2.469   0.199   0.351
 8350SOL    HW125949   2.539   0.129   0.335
 8350SOL    HW225950   2.509   0.275   0.402
 8351SOL     OW25951   6.242   3.751   2.600
 8351SOL    HW125952   6.292   3.678   2.646
 8351SOL    HW225953   6.285   3.839   2.621
 8352SOL     OW25954   2.568   5.738   1.337
 8352SOL    HW125955   2.618   5.651   1.338
 8352SOL    HW225956   2.562   5.772   1.243
 8353SOL     OW25957   1.364   4.402   1.969
 8353SOL    HW125958   1.335   4.307   1.986
 8353SOL    HW225959   1.454   4.402   1.927
 8354SOL     OW25960   3.293   0.318   3.437
 8354SOL    HW125961   3.199   0.302   3.468
 8354SOL    HW225962   3.355   0.310   3.515
 8355SOL     OW25963   2.283   5.590   6.148
 8355SOL    HW125964   2.376   5.556   6.160
 8355SOL    HW225965   2.271   5.673   6.203
 8356SOL     OW25966   1.778   5.298   1.005
 8356SOL    HW125967   1.853   5.356   0.973
 8356SOL    HW225968   1.712   5.353   1.057
 8357SOL     OW25969   4.314   6.120   5.973
 8357SOL    HW125970   4.400   6.106   6.021
 8357SOL    HW225971   4.316   6.073   5.885
 8358SOL     OW25972   1.120   1.794   5.000
 8358SOL    HW125973   1.061   1.872   5.022
 8358SOL    HW225974   1.122   1.781   4.901
 8359SOL     OW25975   2.878   2.022   5.461
 8359SOL    HW125976   2.884   1.972   5.374
 8359SOL    HW225977   2.968   2.027   5.503
 8360SOL     OW25978   4.947   0.368   0.822
 8360SOL    HW125979   4.941   0.356   0.921
 8360SOL    HW225980   5.020   0.311   0.785
 8361SOL     OW25981   3.457   0.373   6.915
 8361SOL    HW125982   3.486   0.469   6.913
 8361SOL    HW225983   3.525   0.320   6.966
 8362SOL     OW25984   6.772   3.920   1.882
 8362SOL    HW125985   6.813   3.833   1.909
 8362SOL    HW225986   6.786   3.934   1.784
 8363SOL     OW25987   2.544   3.049   6.662
 8363SOL    HW125988   2.616   3.109   6.697
 8363SOL    HW225989   2.533   3.065   6.564
 8364SOL     OW25990   6.739   3.039   4.564
 8364SOL    HW125991   6.743   2.966   4.633
 8364SOL    HW225992   6.651   3.035   4.517
 8365SOL     OW25993   1.770   2.672   2.717
 8365SOL    HW125994   1.724   2.745   2.667
 8365SOL    HW225995   1.751   2.681   2.815
 8366SOL     OW25996   5.105   5.669   2.007
 8366SOL    HW125997   5.197   5.707   2.009
 8366SOL    HW225998   5.056   5.694   2.090
 8367SOL     OW25999   3.945   4.912   4.420
 8367SOL    HW126000   3.948   4.879   4.515
 8367SOL    HW226001   4.018   4.869   4.367
 8368SOL     OW26002   7.003   6.813   0.659
 8368SOL    HW126003   0.016   6.806   0.565
 8368SOL    HW226004   0.037   6.752   0.718
 8369SOL     OW26005   2.251   0.630   0.330
 8369SOL    HW126006   2.167   0.664   0.374
 8369SOL    HW226007   2.329   0.682   0.365
 8370SOL     OW26008   2.812   3.059   0.604
 8370SOL    HW126009   2.832   2.968   0.641
 8370SOL    HW226010   2.897   3.110   0.597
 8371SOL     OW26011   2.022   4.429   6.309
 8371SOL    HW126012   1.966   4.511   6.313
 8371SOL    HW226013   2.014   4.379   6.395
 8372SOL     OW26014   2.355   5.610   2.500
 8372SOL    HW126015   2.385   5.703   2.477
 8372SOL    HW226016   2.349   5.556   2.417
 8373SOL     OW26017   7.009   0.853   4.520
 8373SOL    HW126018   0.024   0.928   4.578
 8373SOL    HW226019   7.001   0.885   4.426
 8374SOL     OW26020   1.760   0.297   4.308
 8374SOL    HW126021   1.843   0.329   4.262
 8374SOL    HW226022   1.700   0.375   4.326
 8375SOL     OW26023   3.997   1.353   4.358
 8375SOL    HW126024   3.958   1.297   4.431
 8375SOL    HW226025   3.923   1.401   4.311
 8376SOL     OW26026   2.203   0.969   3.039
 8376SOL    HW126027   2.176   0.990   3.133
 8376SOL    HW226028   2.200   0.870   3.025
 8377SOL     OW26029   4.812   5.791   6.998
 8377SOL    HW126030   4.879   5.727   6.961
 8377SOL    HW226031   4.745   5.742   0.035
 8378SOL     OW26032   6.009   5.825   3.506
 8378SOL    HW126033   5.952   5.764   3.562
 8378SOL    HW226034   6.002   5.918   3.542
 8379SOL     OW26035   5.972   1.153   1.886
 8379SOL    HW126036   5.946   1.237   1.837
 8379SOL    HW226037   5.908   1.137   1.960
 8380SOL     OW26038   6.301   5.630   0.317
 8380SOL    HW126039   6.301   5.612   0.218
 8380SOL    HW226040   6.280   5.726   0.333
 8381SOL     OW26041   6.947   1.805   2.187
 8381SOL    HW126042   6.911   1.897   2.172
 8381SOL    HW226043   0.026   1.804   2.164
 8382SOL     OW26044   2.475   0.662   0.693
 8382SOL    HW126045   2.492   0.746   0.744
 8382SOL    HW226046   2.448   0.589   0.756
 8383SOL     OW26047   2.473   5.889   6.065
 8383SOL    HW126048   2.479   5.984   6.034
 8383SOL    HW226049   2.482   5.885   6.164
 8384SOL     OW26050   0.944   2.787   0.747
 8384SOL    HW126051   1.000   2.765   0.667
 8384SOL    HW226052   0.932   2.705   0.803
 8385SOL     OW26053   3.815   4.075   0.981
 8385SOL    HW126054   3.733   4.030   0.944
 8385SOL    HW226055   3.874   4.103   0.905
 8386SOL     OW26056   2.060   5.759   1.562
 8386SOL    HW126057   1.969   5.741   1.524
 8386SOL    HW226058   2.093   5.848   1.531
 8387SOL     OW26059   1.339   1.403   2.350
 8387SOL    HW126060   1.316   1.323   2.404
 8387SOL    HW226061   1.314   1.387   2.254
 8388SOL     OW26062   3.528   6.912   1.163
 8388SOL    HW126063   3.538   6.818   1.195
 8388SOL    HW226064   3.468   6.962   1.226
 8389SOL     OW26065   0.845   2.502   4.223
 8389SOL    HW126066   0.782   2.531   4.295
 8389SOL    HW226067   0.888   2.416   4.251
 8390SOL     OW26068   2.180   0.926   5.675
 8390SOL    HW126069   2.221   0.835   5.672
 8390SOL    HW226070   2.081   0.918   5.665
 8391SOL     OW26071   5.122   5.845   1.550
 8391SOL    HW126072   5.150   5.756   1.516
 8391SOL    HW226073   5.079   5.834   1.640
 8392SOL     OW26074   5.675   6.006   5.437
 8392SOL    HW126075   5.767   5.997   5.399
 8392SOL    HW226076   5.609   5.965   5.374
 8393SOL     OW26077   0.326   5.972   3.077
 8393SOL    HW126078   0.345   6.056   3.127
 8393SOL    HW226079   0.337   5.894   3.138
 8394SOL     OW26080   0.866   1.764   3.025
 8394SOL    HW126081   0.778   1.723   3.001
 8394SOL    HW226082   0.855   1.863   3.034
 8395SOL     OW26083   6.985   6.012   5.108
 8395SOL    HW126084   6.982   6.016   5.208
 8395SOL    HW226085   0.036   6.076   5.075
 8396SOL     OW26086   4.792   4.136   2.554
 8396SOL    HW126087   4.796   4.230   2.520
 8396SOL    HW226088   4.741   4.079   2.489
 8397SOL     OW26089   2.076   6.056   2.906
 8397SOL    HW126090   2.032   6.121   2.967
 8397SOL    HW226091   2.015   6.038   2.828
 8398SOL     OW26092   4.161   1.276   0.335
 8398SOL    HW126093   4.097   1.264   0.259
 8398SOL    HW226094   4.176   1.373   0.352
 8399SOL     OW26095   5.791   6.202   0.522
 8399SOL    HW126096   5.835   6.159   0.600
 8399SOL    HW226097   5.832   6.292   0.505
 8400SOL     OW26098   0.084   0.189   2.707
 8400SOL    HW126099   0.066   0.232   2.796
 8400SOL    HW226100   0.054   0.094   2.710
 8401SOL     OW26101   3.624   4.247   6.536
 8401SOL    HW126102   3.706   4.279   6.489
 8401SOL    HW226103   3.559   4.323   6.543
 8402SOL     OW26104   4.421   1.730   6.846
 8402SOL    HW126105   4.401   1.722   6.748
 8402SOL    HW226106   4.489   1.661   6.871
 8403SOL     OW26107   1.537   1.404   4.662
 8403SOL    HW126108   1.591   1.484   4.686
 8403SOL    HW226109   1.593   1.322   4.671
 8404SOL     OW26110   4.698   5.584   5.739
 8404SOL    HW126111   4.779   5.598   5.796
 8404SOL    HW226112   4.691   5.488   5.714
 8405SOL     OW26113   0.462   2.060   5.830
 8405SOL    HW126114   0.467   2.139   5.769
 8405SOL    HW226115   0.541   2.001   5.814
 8406SOL     OW26116   5.415   1.911   1.606
 8406SOL    HW126117   5.417   1.870   1.697
 8406SOL    HW226118   5.337   1.973   1.599
 8407SOL     OW26119   4.805   3.939   3.193
 8407SOL    HW126120   4.853   3.852   3.183
 8407SOL    HW226121   4.867   4.008   3.230
 8408SOL     OW26122   4.714   2.016   4.041
 8408SOL    HW126123   4.687   2.110   4.063
 8408SOL    HW226124   4.689   1.955   4.116
 8409SOL     OW26125   1.253   1.648   4.143
 8409SOL    HW126126   1.221   1.589   4.069
 8409SOL    HW226127   1.203   1.626   4.227
 8410SOL     OW26128   4.189   6.956   1.445
 8410SOL    HW126129   4.160   7.007   1.525
 8410SOL    HW226130   4.285   6.929   1.456
 8411SOL     OW26131   1.915   4.231   4.372
 8411SOL    HW126132   1.953   4.215   4.463
 8411SOL    HW226133   1.817   4.250   4.380
 8412SOL     OW26134   4.985   2.676   2.816
 8412SOL    HW126135   5.001   2.638   2.907
 8412SOL    HW226136   4.969   2.774   2.823
 8413SOL     OW26137   3.815   4.752   0.683
 8413SOL    HW126138   3.832   4.771   0.780
 8413SOL    HW226139   3.885   4.795   0.627
 8414SOL     OW26140   4.113   6.566   3.128
 8414SOL    HW126141   4.081   6.551   3.222
 8414SOL    HW226142   4.076   6.653   3.095
 8415SOL     OW26143   6.078   4.279   3.217
 8415SOL    HW126144   6.034   4.291   3.128
 8415SOL    HW226145   6.116   4.186   3.223
 8416SOL     OW26146   5.241   3.812   2.494
 8416SOL    HW126147   5.164   3.752   2.514
 8416SOL    HW226148   5.322   3.781   2.543
 8417SOL     OW26149   2.125   6.022   6.152
 8417SOL    HW126150   2.052   6.085   6.180
 8417SOL    HW226151   2.195   6.018   6.224
 8418SOL     OW26152   6.494   5.466   2.583
 8418SOL    HW126153   6.593   5.462   2.595
 8418SOL    HW226154   6.472   5.505   2.494
 8419SOL     OW26155   4.449   0.662   3.062
 8419SOL    HW126156   4.415   0.663   2.968
 8419SOL    HW226157   4.485   0.571   3.084
 8420SOL     OW26158   3.612   0.518   5.850
 8420SOL    HW126159   3.642   0.611   5.872
 8420SOL    HW226160   3.516   0.507   5.878
 8421SOL     OW26161   1.803   6.496   2.237
 8421SOL    HW126162   1.841   6.588   2.250
 8421SOL    HW226163   1.821   6.441   2.318
 8422SOL     OW26164   4.691   6.788   0.989
 8422SOL    HW126165   4.747   6.756   1.066
 8422SOL    HW226166   4.677   6.887   0.997
 8423SOL     OW26167   3.307   4.536   0.658
 8423SOL    HW126168   3.259   4.457   0.620
 8423SOL    HW226169   3.375   4.569   0.592
 8424SOL     OW26170   3.495   1.554   3.188
 8424SOL    HW126171   3.520   1.632   3.246
 8424SOL    HW226172   3.395   1.547   3.183
 8425SOL     OW26173   6.243   5.240   1.188
 8425SOL    HW126174   6.148   5.266   1.204
 8425SOL    HW226175   6.246   5.166   1.120
 8426SOL     OW26176   3.768   3.134   3.281
 8426SOL    HW126177   3.768   3.035   3.269
 8426SOL    HW226178   3.751   3.155   3.378
 8427SOL     OW26179   2.275   3.774   6.304
 8427SOL    HW126180   2.303   3.720   6.383
 8427SOL    HW226181   2.291   3.871   6.323
 8428SOL     OW26182   0.298   4.049   2.175
 8428SOL    HW126183   0.362   4.038   2.251
 8428SOL    HW226184   0.340   4.016   2.091
 8429SOL     OW26185   1.783   5.955   3.717
 8429SOL    HW126186   1.838   6.039   3.719
 8429SOL    HW226187   1.790   5.913   3.627
 8430SOL     OW26188   4.274   4.769   2.715
 8430SOL    HW126189   4.295   4.726   2.803
 8430SOL    HW226190   4.338   4.843   2.698
 8431SOL     OW26191   3.163   4.925   1.379
 8431SOL    HW126192   3.184   4.850   1.441
 8431SOL    HW226193   3.106   4.892   1.305
 8432SOL     OW26194   3.766   6.369   6.572
 8432SOL    HW126195   3.680   6.410   6.539
 8432SOL    HW226196   3.758   6.270   6.571
 8433SOL     OW26197   1.433   2.558   5.908
 8433SOL    HW126198   1.473   2.630   5.852
 8433SOL    HW226199   1.500   2.486   5.923
 8434SOL     OW26200   4.624   5.992   5.465
 8434SOL    HW126201   4.586   5.964   5.377
 8434SOL    HW226202   4.660   5.911   5.513
 8435SOL     OW26203   4.418   2.144   1.777
 8435SOL    HW126204   4.347   2.197   1.822
 8435SOL    HW226205   4.501   2.146   1.833
 8436SOL     OW26206   4.405   4.501   1.826
 8436SOL    HW126207   4.443   4.409   1.822
 8436SOL    HW226208   4.427   4.543   1.914
 8437SOL     OW26209   0.997   1.832   0.521
 8437SOL    HW126210   0.960   1.792   0.606
 8437SOL    HW226211   1.095   1.845   0.531
 8438SOL     OW26212   1.810   4.938   2.357
 8438SOL    HW126213   1.839   4.899   2.445
 8438SOL    HW226214   1.766   4.867   2.302
 8439SOL     OW26215   6.747   5.398   2.336
 8439SOL    HW126216   6.668   5.455   2.315
 8439SOL    HW226217   6.764   5.399   2.434
 8440SOL     OW26218   0.791   1.029   1.669
 8440SOL    HW126219   0.851   1.096   1.714
 8440SOL    HW226220   0.706   1.074   1.641
 8441SOL     OW26221   4.742   5.494   6.323
 8441SOL    HW126222   4.825   5.526   6.277
 8441SOL    HW226223   4.683   5.448   6.257
 8442SOL     OW26224   2.025   4.696   6.804
 8442SOL    HW126225   1.930   4.666   6.789
 8442SOL    HW226226   2.033   4.793   6.781
 8443SOL     OW26227   1.443   0.546   2.958
 8443SOL    HW126228   1.355   0.575   2.920
 8443SOL    HW226229   1.444   0.564   3.056
 8444SOL     OW26230   3.900   6.095   3.579
 8444SOL    HW126231   3.932   6.108   3.485
 8444SOL    HW226232   3.811   6.049   3.578
 8445SOL     OW26233   3.667   4.865   2.879
 8445SOL    HW126234   3.715   4.777   2.875
 8445SOL    HW226235   3.679   4.913   2.792
 8446SOL     OW26236   5.332   4.821   2.550
 8446SOL    HW126237   5.308   4.867   2.465
 8446SOL    HW226238   5.249   4.798   2.600
 8447SOL     OW26239   4.901   2.108   1.852
 8447SOL    HW126240   4.997   2.105   1.881
 8447SOL    HW226241   4.882   2.031   1.792
 8448SOL     OW26242   0.408   3.478   6.421
 8448SOL    HW126243   0.390   3.575   6.403
 8448SOL    HW226244   0.411   3.462   6.519
 8449SOL     OW26245   0.796   2.896   4.943
 8449SOL    HW126246   0.810   2.797   4.951
 8449SOL    HW226247   0.822   2.940   5.029
 8450SOL     OW26248   2.251   6.186   2.738
 8450SOL    HW126249   2.313   6.244   2.791
 8450SOL    HW226250   2.199   6.128   2.800
 8451SOL     OW26251   3.837   3.043   1.346
 8451SOL    HW126252   3.886   3.096   1.415
 8451SOL    HW226253   3.757   3.001   1.389
 8452SOL     OW26254   6.940   0.323   1.207
 8452SOL    HW126255   6.991   0.366   1.282
 8452SOL    HW226256   7.000   0.263   1.155
 8453SOL     OW26257   6.430   4.130   5.958
 8453SOL    HW126258   6.374   4.180   5.892
 8453SOL    HW226259   6.372   4.064   6.006
 8454SOL     OW26260   1.584   6.839   3.851
 8454SOL    HW126261   1.499   6.874   3.889
 8454SOL    HW226262   1.598   6.876   3.760
 8455SOL     OW26263   4.684   1.745   0.937
 8455SOL    HW126264   4.585   1.732   0.935
 8455SOL    HW226265   4.729   1.658   0.958
 8456SOL     OW26266   5.720   5.179   3.379
 8456SOL    HW126267   5.663   5.255   3.409
 8456SOL    HW226268   5.808   5.214   3.346
 8457SOL     OW26269   0.009   6.637   5.892
 8457SOL    HW126270   0.095   6.596   5.861
 8457SOL    HW226271   0.017   6.661   5.989
 8458SOL     OW26272   1.975   1.998   0.141
 8458SOL    HW126273   2.060   1.946   0.155
 8458SOL    HW226274   1.996   2.095   0.139
 8459SOL     OW26275   3.509   5.634   2.294
 8459SOL    HW126276   3.469   5.635   2.202
 8459SOL    HW226277   3.440   5.660   2.361
 8460SOL     OW26278   4.278   1.942   0.450
 8460SOL    HW126279   4.302   1.923   0.545
 8460SOL    HW226280   4.183   1.971   0.444
 8461SOL     OW26281   0.110   3.956   1.381
 8461SOL    HW126282   0.169   3.881   1.353
 8461SOL    HW226283   0.080   4.006   1.300
 8462SOL     OW26284   3.574   4.011   6.374
 8462SOL    HW126285   3.611   4.083   6.433
 8462SOL    HW226286   3.520   3.948   6.429
 8463SOL     OW26287   0.307   1.795   6.975
 8463SOL    HW126288   0.274   1.840   6.893
 8463SOL    HW226289   0.231   1.780   0.020
 8464SOL     OW26290   0.257   2.869   0.121
 8464SOL    HW126291   0.277   2.858   0.218
 8464SOL    HW226292   0.179   2.930   0.110
 8465SOL     OW26293   3.783   2.762   1.095
 8465SOL    HW126294   3.784   2.699   1.172
 8465SOL    HW226295   3.810   2.714   1.012
 8466SOL     OW26296   5.659   0.705   5.096
 8466SOL    HW126297   5.739   0.662   5.139
 8466SOL    HW226298   5.612   0.761   5.163
 8467SOL     OW26299   3.240   1.359   0.885
 8467SOL    HW126300   3.179   1.357   0.805
 8467SOL    HW226301   3.321   1.305   0.867
 8468SOL     OW26302   6.350   3.365   6.954
 8468SOL    HW126303   6.401   3.437   6.905
 8468SOL    HW226304   6.368   3.373   0.033
 8469SOL     OW26305   3.703   2.400   5.633
 8469SOL    HW126306   3.717   2.440   5.724
 8469SOL    HW226307   3.658   2.310   5.643
 8470SOL     OW26308   0.807   4.781   1.143
 8470SOL    HW126309   0.845   4.873   1.136
 8470SOL    HW226310   0.739   4.779   1.216
 8471SOL     OW26311   3.225   1.170   5.119
 8471SOL    HW126312   3.155   1.101   5.133
 8471SOL    HW226313   3.253   1.206   5.208
 8472SOL     OW26314   5.517   1.244   6.401
 8472SOL    HW126315   5.615   1.227   6.398
 8472SOL    HW226316   5.485   1.273   6.311
 8473SOL     OW26317   5.003   4.533   6.773
 8473SOL    HW126318   5.048   4.578   6.695
 8473SOL    HW226319   5.071   4.512   6.843
 8474SOL     OW26320   3.117   3.728   2.234
 8474SOL    HW126321   3.123   3.824   2.259
 8474SOL    HW226322   3.203   3.699   2.190
 8475SOL     OW26323   6.837   3.174   1.568
 8475SOL    HW126324   6.785   3.143   1.488
 8475SOL    HW226325   6.826   3.273   1.579
 8476SOL     OW26326   6.257   0.148   1.692
 8476SOL    HW126327   6.330   0.180   1.752
 8476SOL    HW226328   6.292   0.072   1.636
 8477SOL     OW26329   5.478   6.697   1.222
 8477SOL    HW126330   5.513   6.739   1.138
 8477SOL    HW226331   5.430   6.765   1.276
 8478SOL     OW26332   0.346   6.970   5.396
 8478SOL    HW126333   0.296   7.017   5.323
 8478SOL    HW226334   0.403   6.898   5.357
 8479SOL     OW26335   1.722   2.285   1.419
 8479SOL    HW126336   1.816   2.275   1.386
 8479SOL    HW226337   1.713   2.239   1.507
 8480SOL     OW26338   4.768   3.691   7.018
 8480SOL    HW126339   4.697   3.638   0.045
 8480SOL    HW226340   4.817   3.747   0.067
 8481SOL     OW26341   3.821   2.134   3.897
 8481SOL    HW126342   3.902   2.077   3.883
 8481SOL    HW226343   3.848   2.220   3.940
 8482SOL     OW26344   4.691   1.165   0.311
 8482SOL    HW126345   4.591   1.176   0.310
 8482SOL    HW226346   4.714   1.071   0.334
 8483SOL     OW26347   3.222   5.898   3.707
 8483SOL    HW126348   3.305   5.862   3.749
 8483SOL    HW226349   3.236   5.995   3.683
 8484SOL     OW26350   6.568   5.820   4.614
 8484SOL    HW126351   6.587   5.722   4.620
 8484SOL    HW226352   6.491   5.834   4.552
 8485SOL     OW26353   3.194   2.454   0.111
 8485SOL    HW126354   3.117   2.415   0.161
 8485SOL    HW226355   3.279   2.408   0.140
 8486SOL     OW26356   1.242   1.217   2.518
 8486SOL    HW126357   1.248   1.206   2.618
 8486SOL    HW226358   1.146   1.226   2.492
 8487SOL     OW26359   5.659   2.166   5.794
 8487SOL    HW126360   5.639   2.071   5.768
 8487SOL    HW226361   5.607   2.189   5.876
 8488SOL     OW26362   5.136   5.975   2.216
 8488SOL    HW126363   5.232   5.953   2.196
 8488SOL    HW226364   5.119   6.072   2.198
 8489SOL     OW26365   5.380   0.955   1.309
 8489SOL    HW126366   5.306   0.955   1.377
 8489SOL    HW226367   5.346   0.915   1.224
 8490SOL     OW26368   2.172   6.849   0.041
 8490SOL    HW126369   2.119   6.766   0.023
 8490SOL    HW226370   2.263   6.824   0.072
 8491SOL     OW26371   2.723   6.251   2.247
 8491SOL    HW126372   2.687   6.343   2.231
 8491SOL    HW226373   2.718   6.197   2.163
 8492SOL     OW26374   5.878   4.053   4.750
 8492SOL    HW126375   5.918   4.057   4.659
 8492SOL    HW226376   5.930   3.990   4.807
 8493SOL     OW26377   3.613   0.933   0.274
 8493SOL    HW126378   3.617   0.930   0.174
 8493SOL    HW226379   3.519   0.950   0.302
 8494SOL     OW26380   5.748   5.147   2.015
 8494SOL    HW126381   5.759   5.049   1.998
 8494SOL    HW226382   5.693   5.187   1.942
 8495SOL     OW26383   6.372   5.888   0.555
 8495SOL    HW126384   6.372   5.923   0.461
 8495SOL    HW226385   6.400   5.792   0.554
 8496SOL     OW26386   4.912   1.534   2.018
 8496SOL    HW126387   4.925   1.468   1.944
 8496SOL    HW226388   4.970   1.614   2.002
 8497SOL     OW26389   6.644   0.771   3.937
 8497SOL    HW126390   6.638   0.765   4.037
 8497SOL    HW226391   6.740   0.779   3.910
 8498SOL     OW26392   4.833   6.940   4.333
 8498SOL    HW126393   4.848   6.875   4.258
 8498SOL    HW226394   4.735   6.947   4.351
 8499SOL     OW26395   6.932   5.792   6.910
 8499SOL    HW126396   6.915   5.845   6.993
 8499SOL    HW226397   0.011   5.795   6.888
 8500SOL     OW26398   1.639   0.641   5.801
 8500SOL    HW126399   1.544   0.617   5.822
 8500SOL    HW226400   1.695   0.633   5.883
 8501SOL     OW26401   0.595   1.397   0.294
 8501SOL    HW126402   0.650   1.317   0.314
 8501SOL    HW226403   0.617   1.470   0.359
 8502SOL     OW26404   0.620   3.075   6.771
 8502SOL    HW126405   0.568   3.063   6.855
 8502SOL    HW226406   0.687   3.001   6.762
 8503SOL     OW26407   6.243   6.093   4.305
 8503SOL    HW126408   6.154   6.058   4.276
 8503SOL    HW226409   6.301   6.108   4.225
 8504SOL     OW26410   2.366   5.262   2.557
 8504SOL    HW126411   2.456   5.286   2.522
 8504SOL    HW226412   2.296   5.283   2.488
 8505SOL     OW26413   5.173   3.303   2.567
 8505SOL    HW126414   5.207   3.219   2.526
 8505SOL    HW226415   5.232   3.379   2.540
 8506SOL     OW26416   2.380   0.700   0.023
 8506SOL    HW126417   2.306   0.671   0.084
 8506SOL    HW226418   2.439   0.622   0.002
 8507SOL     OW26419   4.752   6.726   5.832
 8507SOL    HW126420   4.778   6.666   5.757
 8507SOL    HW226421   4.795   6.816   5.819
 8508SOL     OW26422   4.375   1.765   0.242
 8508SOL    HW126423   4.334   1.796   0.156
 8508SOL    HW226424   4.362   1.835   0.312
 8509SOL     OW26425   5.958   0.325   3.573
 8509SOL    HW126426   5.929   0.236   3.609
 8509SOL    HW226427   6.053   0.342   3.599
 8510SOL     OW26428   5.564   2.530   4.376
 8510SOL    HW126429   5.488   2.466   4.369
 8510SOL    HW226430   5.542   2.602   4.442
 8511SOL     OW26431   5.642   2.947   1.969
 8511SOL    HW126432   5.627   2.887   1.891
 8511SOL    HW226433   5.654   2.893   2.052
 8512SOL     OW26434   2.202   0.003   4.269
 8512SOL    HW126435   2.291   0.021   4.226
 8512SOL    HW226436   2.129   0.027   4.205
 8513SOL     OW26437   6.390   6.281   0.316
 8513SOL    HW126438   6.315   6.278   0.382
 8513SOL    HW226439   6.409   6.377   0.292
 8514SOL     OW26440   2.838   6.331   4.032
 8514SOL    HW126441   2.906   6.400   4.056
 8514SOL    HW226442   2.804   6.288   4.116
 8515SOL     OW26443   5.697   1.581   1.324
 8515SOL    HW126444   5.738   1.556   1.237
 8515SOL    HW226445   5.646   1.667   1.314
 8516SOL     OW26446   6.204   2.429   2.306
 8516SOL    HW126447   6.279   2.421   2.371
 8516SOL    HW226448   6.228   2.498   2.237
 8517SOL     OW26449   1.492   2.682   6.162
 8517SOL    HW126450   1.428   2.606   6.154
 8517SOL    HW226451   1.580   2.649   6.197
 8518SOL     OW26452   3.452   5.426   0.057
 8518SOL    HW126453   3.513   5.475   7.012
 8518SOL    HW226454   3.464   5.328   0.045
 8519SOL     OW26455   1.103   5.385   2.110
 8519SOL    HW126456   1.053   5.305   2.144
 8519SOL    HW226457   1.180   5.356   2.055
 8520SOL     OW26458   4.253   0.948   0.169
 8520SOL    HW126459   4.242   0.958   0.070
 8520SOL    HW226460   4.293   0.858   0.189
 8521SOL     OW26461   1.082   5.900   5.753
 8521SOL    HW126462   1.063   5.973   5.688
 8521SOL    HW226463   1.008   5.895   5.821
 8522SOL     OW26464   1.303   6.018   4.995
 8522SOL    HW126465   1.390   6.066   4.984
 8522SOL    HW226466   1.279   5.972   4.910
 8523SOL     OW26467   1.288   6.885   6.807
 8523SOL    HW126468   1.318   6.823   6.879
 8523SOL    HW226469   1.308   6.844   6.718
 8524SOL     OW26470   1.281   3.149   5.881
 8524SOL    HW126471   1.248   3.243   5.874
 8524SOL    HW226472   1.380   3.147   5.868
 8525SOL     OW26473   6.192   3.345   2.780
 8525SOL    HW126474   6.131   3.294   2.719
 8525SOL    HW226475   6.249   3.281   2.832
 8526SOL     OW26476   2.378   2.763   2.775
 8526SOL    HW126477   2.395   2.700   2.699
 8526SOL    HW226478   2.344   2.850   2.740
 8527SOL     OW26479   4.493   0.893   4.414
 8527SOL    HW126480   4.394   0.907   4.403
 8527SOL    HW226481   4.509   0.804   4.458
 8528SOL     OW26482   4.474   2.793   6.117
 8528SOL    HW126483   4.522   2.845   6.046
 8528SOL    HW226484   4.525   2.709   6.136
 8529SOL     OW26485   1.422   5.225   6.728
 8529SOL    HW126486   1.420   5.212   6.629
 8529SOL    HW226487   1.356   5.295   6.754
 8530SOL     OW26488   1.627   3.867   4.689
 8530SOL    HW126489   1.557   3.798   4.675
 8530SOL    HW226490   1.716   3.830   4.664
 8531SOL     OW26491   5.199   4.917   2.318
 8531SOL    HW126492   5.140   4.857   2.372
 8531SOL    HW226493   5.151   4.946   2.235
 8532SOL     OW26494   3.157   4.407   5.700
 8532SOL    HW126495   3.247   4.383   5.662
 8532SOL    HW226496   3.098   4.326   5.700
 8533SOL     OW26497   3.438   1.189   4.941
 8533SOL    HW126498   3.364   1.186   5.008
 8533SOL    HW226499   3.521   1.223   4.984
 8534SOL     OW26500   1.439   2.872   2.747
 8534SOL    HW126501   1.507   2.882   2.675
 8534SOL    HW226502   1.417   2.962   2.785
 8535SOL     OW26503   0.224   2.061   4.313
 8535SOL    HW126504   0.306   2.104   4.274
 8535SOL    HW226505   0.233   1.961   4.306
 8536SOL     OW26506   0.096   1.506   5.714
 8536SOL    HW126507   0.124   1.563   5.637
 8536SOL    HW226508   0.058   1.564   5.786
 8537SOL     OW26509   5.585   0.547   1.766
 8537SOL    HW126510   5.544   0.626   1.812
 8537SOL    HW226511   5.574   0.466   1.824
 8538SOL     OW26512   6.300   0.526   5.085
 8538SOL    HW126513   6.298   0.426   5.083
 8538SOL    HW226514   6.240   0.561   5.014
 8539SOL     OW26515   0.493   2.612   1.689
 8539SOL    HW126516   0.498   2.672   1.609
 8539SOL    HW226517   0.584   2.578   1.711
 8540SOL     OW26518   3.623   0.429   0.391
 8540SOL    HW126519   3.523   0.421   0.382
 8540SOL    HW226520   3.651   0.522   0.367
 8541SOL     OW26521   2.728   1.032   4.492
 8541SOL    HW126522   2.738   1.092   4.412
 8541SOL    HW226523   2.757   1.081   4.574
 8542SOL     OW26524   2.191   4.741   6.438
 8542SOL    HW126525   2.178   4.678   6.515
 8542SOL    HW226526   2.109   4.740   6.380
 8543SOL     OW26527   2.184   1.947   5.722
 8543SOL    HW126528   2.241   2.020   5.759
 8543SOL    HW226529   2.236   1.895   5.654
 8544SOL     OW26530   5.205   4.234   5.194
 8544SOL    HW126531   5.302   4.255   5.181
 8544SOL    HW226532   5.173   4.277   5.278
 8545SOL     OW26533   3.102   0.234   5.892
 8545SOL    HW126534   3.060   0.321   5.867
 8545SOL    HW226535   3.031   0.165   5.906
 8546SOL     OW26536   5.811   0.447   1.619
 8546SOL    HW126537   5.753   0.518   1.659
 8546SOL    HW226538   5.815   0.459   1.520
 8547SOL     OW26539   6.099   6.122   6.091
 8547SOL    HW126540   6.091   6.183   6.012
 8547SOL    HW226541   6.085   6.028   6.062
 8548SOL     OW26542   0.589   3.010   5.839
 8548SOL    HW126543   0.594   2.951   5.919
 8548SOL    HW226544   0.494   3.033   5.819
 8549SOL     OW26545   1.685   0.871   3.029
 8549SOL    HW126546   1.721   0.808   3.098
 8549SOL    HW226547   1.662   0.820   2.946
 8550SOL     OW26548   0.962   4.216   6.763
 8550SOL    HW126549   1.018   4.297   6.784
 8550SOL    HW226550   0.920   4.183   6.847
 8551SOL     OW26551   2.086   1.717   5.856
 8551SOL    HW126552   2.104   1.655   5.780
 8551SOL    HW226553   2.118   1.809   5.832
 8552SOL     OW26554   2.407   1.641   3.184
 8552SOL    HW126555   2.500   1.606   3.198
 8552SOL    HW226556   2.370   1.670   3.272
 8553SOL     OW26557   5.109   2.860   0.679
 8553SOL    HW126558   5.076   2.786   0.620
 8553SOL    HW226559   5.046   2.937   0.675
 8554SOL     OW26560   1.187   0.066   0.638
 8554SOL    HW126561   1.192   7.014   0.568
 8554SOL    HW226562   1.114   0.044   0.703
 8555SOL     OW26563   4.592   1.111   4.155
 8555SOL    HW126564   4.621   1.125   4.250
 8555SOL    HW226565   4.570   1.015   4.141
 8556SOL     OW26566   1.842   6.464   0.585
 8556SOL    HW126567   1.772   6.395   0.604
 8556SOL    HW226568   1.799   6.553   0.569
 8557SOL     OW26569   0.607   0.681   0.047
 8557SOL    HW126570   0.591   0.778   0.034
 8557SOL    HW226571   0.534   0.629   0.002
 8558SOL     OW26572   2.965   4.922   3.513
 8558SOL    HW126573   3.047   4.903   3.567
 8558SOL    HW226574   2.986   4.915   3.416
 8559SOL     OW26575   0.798   5.396   2.623
 8559SOL    HW126576   0.737   5.322   2.593
 8559SOL    HW226577   0.770   5.427   2.714
 8560SOL     OW26578   2.942   4.168   1.777
 8560SOL    HW126579   3.016   4.127   1.829
 8560SOL    HW226580   2.937   4.266   1.798
 8561SOL     OW26581   4.653   6.940   2.147
 8561SOL    HW126582   4.702   6.898   2.070
 8561SOL    HW226583   4.702   0.002   2.178
 8562SOL     OW26584   4.213   0.913   6.928
 8562SOL    HW126585   4.236   0.999   6.883
 8562SOL    HW226586   4.281   0.844   6.903
 8563SOL     OW26587   1.717   5.543   2.437
 8563SOL    HW126588   1.693   5.602   2.515
 8563SOL    HW226589   1.816   5.539   2.429
 8564SOL     OW26590   4.517   0.612   6.836
 8564SOL    HW126591   4.583   0.571   6.774
 8564SOL    HW226592   4.432   0.631   6.786
 8565SOL     OW26593   3.137   5.494   1.251
 8565SOL    HW126594   3.226   5.450   1.245
 8565SOL    HW226595   3.069   5.438   1.204
 8566SOL     OW26596   3.444   1.201   2.573
 8566SOL    HW126597   3.535   1.230   2.602
 8566SOL    HW226598   3.401   1.149   2.647
 8567SOL     OW26599   2.074   2.207   2.104
 8567SOL    HW126600   2.067   2.205   2.004
 8567SOL    HW226601   2.130   2.130   2.135
 8568SOL     OW26602   0.183   1.066   6.920
 8568SOL    HW126603   0.187   0.966   6.925
 8568SOL    HW226604   0.113   1.099   6.983
 8569SOL     OW26605   4.589   2.137   6.582
 8569SOL    HW126606   4.547   2.225   6.605
 8569SOL    HW226607   4.656   2.113   6.652
 8570SOL     OW26608   1.629   3.162   3.807
 8570SOL    HW126609   1.660   3.072   3.777
 8570SOL    HW226610   1.665   3.232   3.745
 8571SOL     OW26611   1.643   0.610   3.486
 8571SOL    HW126612   1.616   0.528   3.436
 8571SOL    HW226613   1.562   0.666   3.505
 8572SOL     OW26614   3.025   3.875   5.591
 8572SOL    HW126615   3.023   3.952   5.526
 8572SOL    HW226616   3.005   3.909   5.683
 8573SOL     OW26617   3.555   6.236   0.913
 8573SOL    HW126618   3.531   6.294   0.835
 8573SOL    HW226619   3.530   6.142   0.893
 8574SOL     OW26620   6.152   6.592   5.546
 8574SOL    HW126621   6.173   6.576   5.449
 8574SOL    HW226622   6.177   6.686   5.569
 8575SOL     OW26623   3.350   6.249   2.903
 8575SOL    HW126624   3.261   6.204   2.913
 8575SOL    HW226625   3.375   6.253   2.807
 8576SOL     OW26626   0.829   4.137   3.327
 8576SOL    HW126627   0.770   4.098   3.397
 8576SOL    HW226628   0.789   4.121   3.236
 8577SOL     OW26629   1.964   1.720   6.775
 8577SOL    HW126630   2.047   1.710   6.829
 8577SOL    HW226631   1.949   1.816   6.754
 8578SOL     OW26632   6.030   0.035   5.434
 8578SOL    HW126633   6.038   0.081   5.345
 8578SOL    HW226634   6.021   0.103   5.506
 8579SOL     OW26635   3.050   5.853   2.551
 8579SOL    HW126636   3.044   5.789   2.628
 8579SOL    HW226637   3.074   5.944   2.585
 8580SOL     OW26638   1.679   0.416   1.223
 8580SOL    HW126639   1.747   0.350   1.255
 8580SOL    HW226640   1.617   0.439   1.298
 8581SOL     OW26641   3.419   4.733   1.077
 8581SOL    HW126642   3.491   4.702   1.140
 8581SOL    HW226643   3.405   4.664   1.006
 8582SOL     OW26644   3.785   4.354   5.275
 8582SOL    HW126645   3.814   4.281   5.337
 8582SOL    HW226646   3.757   4.314   5.188
 8583SOL     OW26647   4.369   0.711   2.796
 8583SOL    HW126648   4.398   0.788   2.741
 8583SOL    HW226649   4.295   0.662   2.750
 8584SOL     OW26650   6.574   1.031   4.387
 8584SOL    HW126651   6.534   1.106   4.333
 8584SOL    HW226652   6.608   0.961   4.325
 8585SOL     OW26653   5.436   1.905   1.890
 8585SOL    HW126654   5.522   1.950   1.868
 8585SOL    HW226655   5.444   1.857   1.977
 8586SOL     OW26656   5.870   5.834   1.064
 8586SOL    HW126657   5.861   5.931   1.040
 8586SOL    HW226658   5.882   5.825   1.163
 8587SOL     OW26659   1.607   1.092   5.816
 8587SOL    HW126660   1.605   1.112   5.718
 8587SOL    HW226661   1.689   1.133   5.857
 8588SOL     OW26662   3.016   1.583   6.751
 8588SOL    HW126663   3.034   1.511   6.818
 8588SOL    HW226664   3.099   1.636   6.734
 8589SOL     OW26665   0.084   2.952   6.071
 8589SOL    HW126666   0.113   2.892   6.146
 8589SOL    HW226667   0.041   3.034   6.109
 8590SOL     OW26668   1.018   1.550   2.442
 8590SOL    HW126669   0.937   1.610   2.442
 8590SOL    HW226670   1.080   1.579   2.515
 8591SOL     OW26671   6.474   5.289   0.296
 8591SOL    HW126672   6.483   5.293   0.395
 8591SOL    HW226673   6.541   5.350   0.254
 8592SOL     OW26674   1.805   1.912   6.578
 8592SOL    HW126675   1.829   1.849   6.504
 8592SOL    HW226676   1.818   2.006   6.547
 8593SOL     OW26677   3.403   0.765   6.345
 8593SOL    HW126678   3.477   0.776   6.412
 8593SOL    HW226679   3.441   0.760   6.253
 8594SOL     OW26680   6.448   2.805   5.792
 8594SOL    HW126681   6.524   2.796   5.728
 8594SOL    HW226682   6.481   2.790   5.885
 8595SOL     OW26683   5.088   6.518   2.504
 8595SOL    HW126684   4.994   6.546   2.523
 8595SOL    HW226685   5.142   6.598   2.478
 8596SOL     OW26686   0.502   2.755   3.486
 8596SOL    HW126687   0.571   2.691   3.520
 8596SOL    HW226688   0.522   2.847   3.522
 8597SOL     OW26689   5.882   3.256   1.037
 8597SOL    HW126690   5.968   3.220   1.074
 8597SOL    HW226691   5.807   3.194   1.059
 8598SOL     OW26692   5.230   0.333   4.453
 8598SOL    HW126693   5.152   0.330   4.516
 8598SOL    HW226694   5.196   0.334   4.359
 8599SOL     OW26695   1.503   2.790   3.872
 8599SOL    HW126696   1.587   2.814   3.920
 8599SOL    HW226697   1.524   2.722   3.802
 8600SOL     OW26698   4.084   2.834   1.435
 8600SOL    HW126699   4.045   2.923   1.458
 8600SOL    HW226700   4.120   2.792   1.519
 8601SOL     OW26701   0.994   0.174   3.466
 8601SOL    HW126702   1.015   0.077   3.479
 8601SOL    HW226703   0.898   0.183   3.440
 8602SOL     OW26704   2.307   6.542   4.194
 8602SOL    HW126705   2.276   6.471   4.130
 8602SOL    HW226706   2.402   6.526   4.218
 8603SOL     OW26707   6.972   0.900   0.509
 8603SOL    HW126708   6.988   0.806   0.479
 8603SOL    HW226709   6.877   0.910   0.536
 8604SOL     OW26710   0.265   4.179   6.300
 8604SOL    HW126711   0.327   4.127   6.241
 8604SOL    HW226712   0.265   4.137   6.391
 8605SOL     OW26713   0.043   4.972   4.274
 8605SOL    HW126714   0.092   4.887   4.253
 8605SOL    HW226715   0.074   5.006   4.363
 8606SOL     OW26716   2.114   2.504   6.758
 8606SOL    HW126717   2.018   2.530   6.762
 8606SOL    HW226718   2.157   2.520   6.847
 8607SOL     OW26719   2.456   4.543   1.406
 8607SOL    HW126720   2.537   4.592   1.375
 8607SOL    HW226721   2.436   4.469   1.341
 8608SOL     OW26722   2.358   4.986   3.507
 8608SOL    HW126723   2.328   4.958   3.416
 8608SOL    HW226724   2.371   4.905   3.565
 8609SOL     OW26725   4.316   1.020   3.751
 8609SOL    HW126726   4.386   1.078   3.791
 8609SOL    HW226727   4.313   1.035   3.652
 8610SOL     OW26728   0.560   6.828   2.969
 8610SOL    HW126729   0.624   6.806   2.896
 8610SOL    HW226730   0.474   6.860   2.930
 8611SOL     OW26731   2.759   1.666   4.106
 8611SOL    HW126732   2.799   1.676   4.197
 8611SOL    HW226733   2.694   1.739   4.089
 8612SOL     OW26734   4.021   3.139   3.183
 8612SOL    HW126735   3.932   3.116   3.221
 8612SOL    HW226736   4.028   3.238   3.171
 8613SOL     OW26737   3.181   2.847   0.997
 8613SOL    HW126738   3.193   2.881   1.090
 8613SOL    HW226739   3.153   2.751   1.000
 8614SOL     OW26740   1.533   2.555   1.964
 8614SOL    HW126741   1.505   2.578   2.058
 8614SOL    HW226742   1.524   2.636   1.906
 8615SOL     OW26743   4.124   1.317   3.705
 8615SOL    HW126744   4.083   1.264   3.779
 8615SOL    HW226745   4.074   1.300   3.620
 8616SOL     OW26746   4.219   4.652   2.476
 8616SOL    HW126747   4.126   4.688   2.467
 8616SOL    HW226748   4.262   4.690   2.558
 8617SOL     OW26749   4.244   0.420   4.321
 8617SOL    HW126750   4.281   0.447   4.232
 8617SOL    HW226751   4.318   0.382   4.377
 8618SOL     OW26752   5.431   3.695   1.430
 8618SOL    HW126753   5.390   3.739   1.350
 8618SOL    HW226754   5.529   3.686   1.417
 8619SOL     OW26755   5.771   4.342   1.288
 8619SOL    HW126756   5.807   4.388   1.369
 8619SOL    HW226757   5.763   4.244   1.307
 8620SOL     OW26758   1.904   0.796   4.365
 8620SOL    HW126759   1.841   0.787   4.288
 8620SOL    HW226760   1.977   0.860   4.342
 8621SOL     OW26761   5.233   2.450   1.873
 8621SOL    HW126762   5.285   2.512   1.814
 8621SOL    HW226763   5.140   2.484   1.884
 8622SOL     OW26764   6.579   5.122   3.000
 8622SOL    HW126765   6.626   5.087   3.082
 8622SOL    HW226766   6.556   5.218   3.014
 8623SOL     OW26767   6.297   3.180   4.916
 8623SOL    HW126768   6.383   3.138   4.943
 8623SOL    HW226769   6.226   3.155   4.982
 8624SOL     OW26770   2.843   3.810   5.903
 8624SOL    HW126771   2.876   3.774   5.990
 8624SOL    HW226772   2.875   3.904   5.891
 8625SOL     OW26773   4.273   1.827   5.527
 8625SOL    HW126774   4.252   1.914   5.484
 8625SOL    HW226775   4.205   1.807   5.598
 8626SOL     OW26776   4.403   4.074   0.580
 8626SOL    HW126777   4.467   4.110   0.647
 8626SOL    HW226778   4.314   4.062   0.622
 8627SOL     OW26779   1.723   0.796   2.651
 8627SOL    HW126780   1.709   0.699   2.672
 8627SOL    HW226781   1.816   0.822   2.676
 8628SOL     OW26782   0.626   6.441   0.438
 8628SOL    HW126783   0.680   6.406   0.515
 8628SOL    HW226784   0.646   6.539   0.425
 8629SOL     OW26785   0.288   0.184   4.725
 8629SOL    HW126786   0.299   0.099   4.674
 8629SOL    HW226787   0.349   0.254   4.687
 8630SOL     OW26788   5.164   2.883   2.538
 8630SOL    HW126789   5.066   2.898   2.550
 8630SOL    HW226790   5.214   2.930   2.611
 8631SOL     OW26791   2.892   5.876   6.903
 8631SOL    HW126792   2.931   5.845   6.990
 8631SOL    HW226793   2.923   5.969   6.884
 8632SOL     OW26794   4.699   4.520   5.218
 8632SOL    HW126795   4.785   4.562   5.247
 8632SOL    HW226796   4.708   4.420   5.222
 8633SOL     OW26797   5.678   3.855   5.512
 8633SOL    HW126798   5.586   3.892   5.528
 8633SOL    HW226799   5.675   3.792   5.434
 8634SOL     OW26800   5.320   4.591   0.834
 8634SOL    HW126801   5.284   4.498   0.834
 8634SOL    HW226802   5.336   4.621   0.928
 8635SOL     OW26803   6.070   2.519   6.620
 8635SOL    HW126804   6.052   2.553   6.713
 8635SOL    HW226805   6.017   2.571   6.554
 8636SOL     OW26806   5.058   6.472   1.144
 8636SOL    HW126807   5.126   6.508   1.208
 8636SOL    HW226808   4.971   6.520   1.156
 8637SOL     OW26809   2.416   2.158   6.538
 8637SOL    HW126810   2.436   2.256   6.537
 8637SOL    HW226811   2.462   2.115   6.461
 8638SOL     OW26812   4.559   2.876   5.301
 8638SOL    HW126813   4.577   2.886   5.204
 8638SOL    HW226814   4.465   2.906   5.321
 8639SOL     OW26815   4.133   3.124   6.431
 8639SOL    HW126816   4.159   3.038   6.386
 8639SOL    HW226817   4.196   3.196   6.404
 8640SOL     OW26818   2.971   3.576   1.659
 8640SOL    HW126819   2.913   3.548   1.582
 8640SOL    HW226820   2.914   3.621   1.728
 8641SOL     OW26821   4.505   5.946   2.569
 8641SOL    HW126822   4.604   5.952   2.584
 8641SOL    HW226823   4.486   5.873   2.504
 8642SOL     OW26824   1.467   6.618   4.732
 8642SOL    HW126825   1.373   6.614   4.767
 8642SOL    HW226826   1.479   6.701   4.678
 8643SOL     OW26827   3.484   0.049   0.769
 8643SOL    HW126828   3.479   0.108   0.689
 8643SOL    HW226829   3.451   0.099   0.849
 8644SOL     OW26830   5.918   1.457   6.753
 8644SOL    HW126831   5.966   1.379   6.794
 8644SOL    HW226832   5.838   1.480   6.809
 8645SOL     OW26833   5.934   4.236   2.217
 8645SOL    HW126834   5.911   4.323   2.261
 8645SOL    HW226835   6.007   4.252   2.149
 8646SOL     OW26836   0.276   1.796   5.822
 8646SOL    HW126837   0.336   1.800   5.742
 8646SOL    HW226838   0.188   1.838   5.800
 8647SOL     OW26839   2.357   4.595   1.659
 8647SOL    HW126840   2.383   4.555   1.572
 8647SOL    HW226841   2.276   4.549   1.695
 8648SOL     OW26842   5.742   5.292   0.981
 8648SOL    HW126843   5.738   5.220   0.913
 8648SOL    HW226844   5.714   5.379   0.940
 8649SOL     OW26845   4.492   6.732   0.796
 8649SOL    HW126846   4.551   6.760   0.720
 8649SOL    HW226847   4.539   6.749   0.882
 8650SOL     OW26848   2.037   6.696   4.161
 8650SOL    HW126849   2.119   6.641   4.175
 8650SOL    HW226850   2.023   6.756   4.240
 8651SOL     OW26851   3.138   1.781   1.074
 8651SOL    HW126852   3.143   1.712   1.146
 8651SOL    HW226853   3.174   1.742   0.989
 8652SOL     OW26854   1.890   3.962   3.758
 8652SOL    HW126855   1.868   4.002   3.847
 8652SOL    HW226856   1.811   3.911   3.723
 8653SOL     OW26857   0.162   1.415   6.003
 8653SOL    HW126858   0.092   1.482   5.981
 8653SOL    HW226859   0.251   1.460   6.008
 8654SOL     OW26860   0.828   4.712   1.642
 8654SOL    HW126861   0.830   4.773   1.720
 8654SOL    HW226862   0.780   4.756   1.566
 8655SOL     OW26863   6.858   0.871   5.474
 8655SOL    HW126864   6.886   0.776   5.463
 8655SOL    HW226865   6.937   0.927   5.497
 8656SOL     OW26866   5.253   0.272   1.425
 8656SOL    HW126867   5.188   0.315   1.363
 8656SOL    HW226868   5.322   0.338   1.453
 8657SOL     OW26869   5.467   0.750   2.500
 8657SOL    HW126870   5.406   0.684   2.545
 8657SOL    HW226871   5.417   0.798   2.429
 8658SOL     OW26872   6.745   5.040   0.836
 8658SOL    HW126873   6.816   5.014   0.901
 8658SOL    HW226874   6.787   5.076   0.752
 8659SOL     OW26875   4.929   1.266   2.196
 8659SOL    HW126876   4.963   1.296   2.107
 8659SOL    HW226877   4.848   1.319   2.221
 8660SOL     OW26878   0.644   3.310   1.209
 8660SOL    HW126879   0.554   3.273   1.190
 8660SOL    HW226880   0.700   3.306   1.126
 8661SOL     OW26881   6.020   3.651   2.720
 8661SOL    HW126882   5.997   3.658   2.623
 8661SOL    HW226883   6.115   3.677   2.734
 8662SOL     OW26884   3.090   5.246   2.986
 8662SOL    HW126885   3.084   5.154   2.947
 8662SOL    HW226886   3.171   5.253   3.045
 8663SOL     OW26887   3.543   5.707   3.141
 8663SOL    HW126888   3.553   5.783   3.206
 8663SOL    HW226889   3.634   5.675   3.113
 8664SOL     OW26890   2.691   5.670   3.137
 8664SOL    HW126891   2.661   5.734   3.208
 8664SOL    HW226892   2.730   5.588   3.179
 8665SOL     OW26893   5.745   3.660   6.163
 8665SOL    HW126894   5.739   3.712   6.248
 8665SOL    HW226895   5.841   3.653   6.135
 8666SOL     OW26896   4.789   7.007   3.250
 8666SOL    HW126897   4.845   6.970   3.324
 8666SOL    HW226898   4.806   6.956   3.166
 8667SOL     OW26899   4.912   1.670   4.060
 8667SOL    HW126900   4.999   1.714   4.041
 8667SOL    HW226901   4.877   1.702   4.148
 8668SOL     OW26902   4.810   3.002   4.994
 8668SOL    HW126903   4.733   2.937   4.991
 8668SOL    HW226904   4.840   3.014   5.088
 8669SOL     OW26905   6.072   6.424   6.351
 8669SOL    HW126906   6.152   6.384   6.307
 8669SOL    HW226907   6.007   6.455   6.281
 8670SOL     OW26908   6.360   4.526   5.963
 8670SOL    HW126909   6.375   4.501   5.867
 8670SOL    HW226910   6.358   4.626   5.972
 8671SOL     OW26911   0.200   1.914   2.876
 8671SOL    HW126912   0.135   1.974   2.830
 8671SOL    HW226913   0.169   1.819   2.871
 8672SOL     OW26914   6.925   1.068   3.896
 8672SOL    HW126915   6.919   0.970   3.912
 8672SOL    HW226916   6.878   1.117   3.970
 8673SOL     OW26917   0.852   2.102   0.842
 8673SOL    HW126918   0.778   2.056   0.794
 8673SOL    HW226919   0.940   2.071   0.807
 8674SOL     OW26920   6.884   4.671   2.765
 8674SOL    HW126921   6.874   4.720   2.678
 8674SOL    HW226922   6.858   4.575   2.752
 8675SOL     OW26923   4.108   2.121   5.795
 8675SOL    HW126924   4.037   2.083   5.735
 8675SOL    HW226925   4.071   2.134   5.886
 8676SOL     OW26926   5.867   0.789   0.935
 8676SOL    HW126927   5.925   0.849   0.880
 8676SOL    HW226928   5.924   0.737   0.998
 8677SOL     OW26929   1.553   6.570   5.832
 8677SOL    HW126930   1.469   6.546   5.782
 8677SOL    HW226931   1.572   6.667   5.820
 8678SOL     OW26932   2.075   1.017   1.197
 8678SOL    HW126933   2.173   0.996   1.198
 8678SOL    HW226934   2.027   0.952   1.139
 8679SOL     OW26935   2.347   1.599   4.634
 8679SOL    HW126936   2.434   1.647   4.640
 8679SOL    HW226937   2.287   1.647   4.570
 8680SOL     OW26938   6.921   2.207   6.245
 8680SOL    HW126939   6.952   2.298   6.217
 8680SOL    HW226940   6.886   2.157   6.166
 8681SOL     OW26941   5.613   5.716   0.976
 8681SOL    HW126942   5.524   5.749   1.009
 8681SOL    HW226943   5.675   5.705   1.054
 8682SOL     OW26944   0.600   0.486   0.978
 8682SOL    HW126945   0.598   0.576   0.934
 8682SOL    HW226946   0.557   0.419   0.918
 8683SOL     OW26947   2.413   4.511   4.793
 8683SOL    HW126948   2.464   4.494   4.877
 8683SOL    HW226949   2.390   4.424   4.750
 8684SOL     OW26950   0.331   3.660   4.697
 8684SOL    HW126951   0.237   3.687   4.717
 8684SOL    HW226952   0.373   3.622   4.779
 8685SOL     OW26953   4.952   2.465   5.624
 8685SOL    HW126954   4.861   2.425   5.639
 8685SOL    HW226955   5.003   2.407   5.560
 8686SOL     OW26956   6.838   5.851   2.819
 8686SOL    HW126957   6.807   5.832   2.726
 8686SOL    HW226958   6.859   5.948   2.828
 8687SOL     OW26959   6.101   3.260   3.542
 8687SOL    HW126960   6.166   3.321   3.587
 8687SOL    HW226961   6.049   3.209   3.611
 8688SOL     OW26962   1.289   3.986   6.347
 8688SOL    HW126963   1.358   3.942   6.404
 8688SOL    HW226964   1.237   4.052   6.401
 8689SOL     OW26965   4.795   3.892   6.844
 8689SOL    HW126966   4.779   3.817   6.907
 8689SOL    HW226967   4.739   3.880   6.762
 8690SOL     OW26968   2.049   2.028   3.387
 8690SOL    HW126969   2.038   2.089   3.308
 8690SOL    HW226970   1.960   1.989   3.411
 8691SOL     OW26971   2.839   2.243   5.178
 8691SOL    HW126972   2.900   2.263   5.101
 8691SOL    HW226973   2.799   2.329   5.211
 8692SOL     OW26974   4.375   2.104   5.822
 8692SOL    HW126975   4.408   2.195   5.850
 8692SOL    HW226976   4.277   2.108   5.806
 8693SOL     OW26977   6.362   0.841   6.181
 8693SOL    HW126978   6.426   0.906   6.138
 8693SOL    HW226979   6.414   0.778   6.239
 8694SOL     OW26980   5.754   3.415   4.042
 8694SOL    HW126981   5.756   3.412   3.942
 8694SOL    HW226982   5.835   3.465   4.075
 8695SOL     OW26983   3.913   4.201   6.373
 8695SOL    HW126984   3.963   4.237   6.452
 8695SOL    HW226985   3.942   4.249   6.290
 8696SOL     OW26986   3.019   5.701   5.914
 8696SOL    HW126987   3.042   5.662   6.003
 8696SOL    HW226988   3.077   5.780   5.897
 8697SOL     OW26989   1.383   4.017   5.731
 8697SOL    HW126990   1.401   3.983   5.639
 8697SOL    HW226991   1.288   4.046   5.738
 8698SOL     OW26992   5.505   5.963   5.193
 8698SOL    HW126993   5.523   5.993   5.099
 8698SOL    HW226994   5.473   5.868   5.191
 8699SOL     OW26995   2.064   3.329   0.178
 8699SOL    HW126996   1.983   3.342   0.121
 8699SOL    HW226997   2.045   3.359   0.272
 8700SOL     OW26998   0.863   0.186   4.899
 8700SOL    HW126999   0.882   0.187   4.997
 8700SOL    HW227000   0.874   0.093   4.864
 8701SOL     OW27001   1.189   1.915   6.574
 8701SOL    HW127002   1.118   1.846   6.583
 8701SOL    HW227003   1.185   1.978   6.651
 8702SOL     OW27004   5.866   4.098   1.413
 8702SOL    HW127005   5.770   4.108   1.436
 8702SOL    HW227006   5.923   4.137   1.485
 8703SOL     OW27007   2.736   4.683   1.405
 8703SOL    HW127008   2.781   4.624   1.471
 8703SOL    HW227009   2.761   4.778   1.424
 8704SOL     OW27010   0.943   2.052   3.669
 8704SOL    HW127011   0.952   2.134   3.612
 8704SOL    HW227012   1.026   2.040   3.724
 8705SOL     OW27013   4.241   2.612   7.013
 8705SOL    HW127014   4.285   2.671   0.063
 8705SOL    HW227015   4.290   2.619   6.927
 8706SOL     OW27016   4.767   3.137   6.439
 8706SOL    HW127017   4.761   3.082   6.356
 8706SOL    HW227018   4.781   3.233   6.414
 8707SOL     OW27019   1.488   2.030   4.182
 8707SOL    HW127020   1.533   2.112   4.216
 8707SOL    HW227021   1.403   2.015   4.233
 8708SOL     OW27022   5.802   2.244   2.237
 8708SOL    HW127023   5.806   2.145   2.253
 8708SOL    HW227024   5.726   2.264   2.174
 8709SOL     OW27025   6.497   0.364   5.357
 8709SOL    HW127026   6.526   0.389   5.449
 8709SOL    HW227027   6.421   0.299   5.361
 8710SOL     OW27028   2.069   1.311   3.794
 8710SOL    HW127029   2.132   1.238   3.819
 8710SOL    HW227030   2.004   1.325   3.869
 8711SOL     OW27031   1.419   0.317   1.698
 8711SOL    HW127032   1.486   0.355   1.762
 8711SOL    HW227033   1.453   0.325   1.605
 8712SOL     OW27034   1.834   2.863   5.474
 8712SOL    HW127035   1.913   2.841   5.532
 8712SOL    HW227036   1.815   2.785   5.414
 8713SOL     OW27037   0.511   4.814   1.599
 8713SOL    HW127038   0.492   4.876   1.523
 8713SOL    HW227039   0.480   4.855   1.685
 8714SOL     OW27040   6.617   6.785   6.784
 8714SOL    HW127041   6.712   6.764   6.761
 8714SOL    HW227042   6.593   6.874   6.744
 8715SOL     OW27043   2.622   2.392   0.559
 8715SOL    HW127044   2.697   2.447   0.597
 8715SOL    HW227045   2.542   2.400   0.618
 8716SOL     OW27046   6.832   6.588   1.578
 8716SOL    HW127047   6.849   6.646   1.498
 8716SOL    HW227048   6.918   6.553   1.613
 8717SOL     OW27049   2.658   4.789   0.350
 8717SOL    HW127050   2.640   4.829   0.440
 8717SOL    HW227051   2.657   4.862   0.281
 8718SOL     OW27052   2.146   4.572   5.978
 8718SOL    HW127053   2.185   4.481   5.987
 8718SOL    HW227054   2.171   4.627   6.058
 8719SOL     OW27055   3.689   1.023   5.457
 8719SOL    HW127056   3.745   1.071   5.524
 8719SOL    HW227057   3.673   1.082   5.378
 8720SOL     OW27058   6.588   4.197   5.021
 8720SOL    HW127059   6.524   4.139   5.071
 8720SOL    HW227060   6.614   4.275   5.079
 8721SOL     OW27061   6.859   6.832   6.488
 8721SOL    HW127062   6.884   6.793   6.577
 8721SOL    HW227063   6.821   6.760   6.430
 8722SOL     OW27064   3.978   1.056   1.712
 8722SOL    HW127065   3.906   1.091   1.772
 8722SOL    HW227066   3.997   1.123   1.640
 8723SOL     OW27067   5.027   6.809   2.297
 8723SOL    HW127068   5.107   6.803   2.357
 8723SOL    HW227069   4.980   6.896   2.315
 8724SOL     OW27070   3.837   0.882   5.063
 8724SOL    HW127071   3.871   0.853   4.974
 8724SOL    HW227072   3.742   0.854   5.073
 8725SOL     OW27073   0.374   6.338   4.210
 8725SOL    HW127074   0.365   6.384   4.122
 8725SOL    HW227075   0.470   6.316   4.226
 8726SOL     OW27076   0.947   1.209   0.531
 8726SOL    HW127077   0.968   1.173   0.440
 8726SOL    HW227078   0.964   1.307   0.533
 8727SOL     OW27079   5.179   5.560   5.948
 8727SOL    HW127080   5.241   5.544   5.872
 8727SOL    HW227081   5.230   5.556   6.034
 8728SOL     OW27082   6.319   0.894   3.073
 8728SOL    HW127083   6.395   0.913   3.010
 8728SOL    HW227084   6.309   0.795   3.085
 8729SOL     OW27085   3.350   5.367   6.432
 8729SOL    HW127086   3.408   5.424   6.490
 8729SOL    HW227087   3.402   5.287   6.401
 8730SOL     OW27088   4.861   5.016   1.699
 8730SOL    HW127089   4.791   4.956   1.660
 8730SOL    HW227090   4.925   5.043   1.627
 8731SOL     OW27091   0.323   1.976   3.439
 8731SOL    HW127092   0.242   2.029   3.464
 8731SOL    HW227093   0.401   2.004   3.495
 8732SOL     OW27094   5.036   5.597   0.847
 8732SOL    HW127095   4.995   5.507   0.836
 8732SOL    HW227096   5.036   5.645   0.759
 8733SOL     OW27097   6.852   4.876   2.150
 8733SOL    HW127098   6.851   4.778   2.132
 8733SOL    HW227099   6.929   4.919   2.101
 8734SOL     OW27100   0.268   3.276   2.179
 8734SOL    HW127101   0.181   3.311   2.214
 8734SOL    HW227102   0.252   3.233   2.090
 8735SOL     OW27103   1.564   3.620   5.725
 8735SOL    HW127104   1.611   3.587   5.644
 8735SOL    HW227105   1.573   3.719   5.733
 8736SOL     OW27106   0.712   5.833   2.380
 8736SOL    HW127107   0.769   5.844   2.462
 8736SOL    HW227108   0.616   5.842   2.405
 8737SOL     OW27109   1.387   5.478   6.548
 8737SOL    HW127110   1.372   5.386   6.514
 8737SOL    HW227111   1.304   5.532   6.537
 8738SOL     OW27112   1.118   3.651   3.489
 8738SOL    HW127113   1.108   3.587   3.565
 8738SOL    HW227114   1.211   3.686   3.486
 8739SOL     OW27115   5.429   4.382   5.078
 8739SOL    HW127116   5.443   4.447   5.154
 8739SOL    HW227117   5.494   4.307   5.087
 8740SOL     OW27118   3.221   1.536   3.943
 8740SOL    HW127119   3.287   1.600   3.904
 8740SOL    HW227120   3.134   1.583   3.959
 8741SOL     OW27121   0.965   6.960   2.479
 8741SOL    HW127122   0.979   7.018   2.399
 8741SOL    HW227123   0.922   6.874   2.450
 8742SOL     OW27124   3.344   1.405   2.838
 8742SOL    HW127125   3.267   1.438   2.893
 8742SOL    HW227126   3.331   1.433   2.743
 8743SOL     OW27127   1.741   0.922   1.736
 8743SOL    HW127128   1.687   0.861   1.794
 8743SOL    HW227129   1.751   1.010   1.782
 8744SOL     OW27130   4.115   4.205   6.762
 8744SOL    HW127131   4.087   4.151   6.841
 8744SOL    HW227132   4.062   4.290   6.759
 8745SOL     OW27133   6.384   1.582   6.231
 8745SOL    HW127134   6.376   1.583   6.132
 8745SOL    HW227135   6.420   1.494   6.262
 8746SOL     OW27136   4.808   5.030   4.593
 8746SOL    HW127137   4.855   5.012   4.507
 8746SOL    HW227138   4.734   5.095   4.578
 8747SOL     OW27139   0.056   0.612   1.684
 8747SOL    HW127140   0.140   0.558   1.679
 8747SOL    HW227141   0.027   0.637   1.591
 8748SOL     OW27142   0.946   2.313   3.579
 8748SOL    HW127143   1.002   2.395   3.562
 8748SOL    HW227144   0.866   2.338   3.633
 8749SOL     OW27145   2.520   1.221   5.295
 8749SOL    HW127146   2.559   1.184   5.380
 8749SOL    HW227147   2.555   1.314   5.281
 8750SOL     OW27148   4.296   2.582   6.058
 8750SOL    HW127149   4.297   2.507   6.125
 8750SOL    HW227150   4.312   2.669   6.106
 8751SOL     OW27151   0.530   6.420   2.415
 8751SOL    HW127152   0.493   6.338   2.459
 8751SOL    HW227153   0.512   6.500   2.473
 8752SOL     OW27154   4.742   3.248   6.704
 8752SOL    HW127155   4.750   3.235   6.605
 8752SOL    HW227156   4.828   3.225   6.748
 8753SOL     OW27157   1.634   3.254   0.316
 8753SOL    HW127158   1.690   3.260   0.234
 8753SOL    HW227159   1.560   3.189   0.302
 8754SOL     OW27160   3.023   5.342   6.811
 8754SOL    HW127161   3.097   5.399   6.775
 8754SOL    HW227162   3.011   5.262   6.752
 8755SOL     OW27163   0.182   1.992   2.352
 8755SOL    HW127164   0.214   1.943   2.433
 8755SOL    HW227165   0.194   1.934   2.271
 8756SOL     OW27166   2.208   2.594   3.733
 8756SOL    HW127167   2.274   2.530   3.694
 8756SOL    HW227168   2.241   2.625   3.822
 8757SOL     OW27169   5.015   6.283   5.568
 8757SOL    HW127170   5.080   6.262   5.496
 8757SOL    HW227171   4.923   6.292   5.529
 8758SOL     OW27172   3.401   6.489   3.932
 8758SOL    HW127173   3.498   6.465   3.934
 8758SOL    HW227174   3.364   6.470   3.841
 8759SOL     OW27175   6.377   1.363   0.214
 8759SOL    HW127176   6.323   1.447   0.224
 8759SOL    HW227177   6.318   1.284   0.229
 8760SOL     OW27178   2.388   2.279   4.524
 8760SOL    HW127179   2.358   2.277   4.619
 8760SOL    HW227180   2.310   2.260   4.464
 8761SOL     OW27181   4.699   0.989   2.276
 8761SOL    HW127182   4.784   1.002   2.327
 8761SOL    HW227183   4.708   1.030   2.185
 8762SOL     OW27184   1.370   5.118   3.212
 8762SOL    HW127185   1.381   5.019   3.205
 8762SOL    HW227186   1.291   5.138   3.270
 8763SOL     OW27187   0.481   1.025   5.737
 8763SOL    HW127188   0.519   0.975   5.659
 8763SOL    HW227189   0.553   1.080   5.780
 8764SOL     OW27190   3.627   4.934   5.513
 8764SOL    HW127191   3.535   4.897   5.519
 8764SOL    HW227192   3.632   4.998   5.437
 8765SOL     OW27193   5.110   6.584   4.929
 8765SOL    HW127194   5.145   6.670   4.965
 8765SOL    HW227195   5.024   6.600   4.880
 8766SOL     OW27196   4.980   4.403   5.748
 8766SOL    HW127197   4.987   4.411   5.847
 8766SOL    HW227198   5.055   4.346   5.714
 8767SOL     OW27199   3.168   0.601   3.602
 8767SOL    HW127200   3.147   0.504   3.609
 8767SOL    HW227201   3.266   0.613   3.583
 8768SOL     OW27202   6.406   2.380   0.358
 8768SOL    HW127203   6.479   2.396   0.291
 8768SOL    HW227204   6.428   2.428   0.443
 8769SOL     OW27205   0.035   1.173   0.530
 8769SOL    HW127206   0.127   1.174   0.492
 8769SOL    HW227207   6.998   1.107   0.480
 8770SOL     OW27208   4.890   3.544   2.253
 8770SOL    HW127209   4.906   3.547   2.154
 8770SOL    HW227210   4.792   3.539   2.271
 8771SOL     OW27211   0.066   3.286   6.591
 8771SOL    HW127212   0.089   3.338   6.673
 8771SOL    HW227213   0.145   3.230   6.564
 8772SOL     OW27214   5.494   0.245   4.196
 8772SOL    HW127215   5.552   0.215   4.119
 8772SOL    HW227216   5.552   0.260   4.276
 8773SOL     OW27217   0.311   1.549   4.151
 8773SOL    HW127218   0.380   1.570   4.082
 8773SOL    HW227219   0.243   1.487   4.112
 8774SOL     OW27220   1.699   0.424   0.718
 8774SOL    HW127221   1.697   0.520   0.687
 8774SOL    HW227222   1.774   0.376   0.672
 8775SOL     OW27223   5.213   2.011   4.310
 8775SOL    HW127224   5.225   2.108   4.287
 8775SOL    HW227225   5.134   2.000   4.370
 8776SOL     OW27226   4.474   3.103   0.105
 8776SOL    HW127227   4.391   3.157   0.101
 8776SOL    HW227228   4.540   3.137   0.038
 8777SOL     OW27229   1.087   1.926   3.296
 8777SOL    HW127230   1.123   1.912   3.389
 8777SOL    HW227231   0.997   1.968   3.302
 8778SOL     OW27232   3.994   4.508   5.688
 8778SOL    HW127233   3.928   4.573   5.648
 8778SOL    HW227234   4.023   4.541   5.778
 8779SOL     OW27235   3.527   4.978   3.267
 8779SOL    HW127236   3.482   4.939   3.186
 8779SOL    HW227237   3.516   4.916   3.344
 8780SOL     OW27238   6.262   5.514   3.308
 8780SOL    HW127239   6.255   5.435   3.248
 8780SOL    HW227240   6.203   5.587   3.274
 8781SOL     OW27241   3.817   6.112   2.264
 8781SOL    HW127242   3.849   6.041   2.201
 8781SOL    HW227243   3.753   6.072   2.329
 8782SOL     OW27244   4.611   0.886   1.717
 8782SOL    HW127245   4.624   0.808   1.656
 8782SOL    HW227246   4.541   0.865   1.785
 8783SOL     OW27247   4.992   3.407   4.909
 8783SOL    HW127248   4.940   3.491   4.927
 8783SOL    HW227249   4.990   3.387   4.811
 8784SOL     OW27250   5.734   6.573   0.719
 8784SOL    HW127251   5.656   6.634   0.736
 8784SOL    HW227252   5.739   6.504   0.791
 8785SOL     OW27253   0.856   5.789   5.905
 8785SOL    HW127254   0.784   5.721   5.920
 8785SOL    HW227255   0.925   5.781   5.976
 8786SOL     OW27256   3.901   1.873   2.123
 8786SOL    HW127257   3.808   1.839   2.141
 8786SOL    HW227258   3.908   1.904   2.029
 8787SOL     OW27259   3.607   0.202   1.545
 8787SOL    HW127260   3.600   0.193   1.446
 8787SOL    HW227261   3.682   0.265   1.567
 8788SOL     OW27262   0.601   0.145   4.657
 8788SOL    HW127263   0.699   0.130   4.672
 8788SOL    HW227264   0.584   0.168   4.561
 8789SOL     OW27265   0.320   3.075   4.836
 8789SOL    HW127266   0.364   3.141   4.775
 8789SOL    HW227267   0.387   3.008   4.868
 8790SOL     OW27268   5.427   2.623   6.432
 8790SOL    HW127269   5.481   2.691   6.383
 8790SOL    HW227270   5.484   2.581   6.504
 8791SOL     OW27271   4.044   5.362   5.651
 8791SOL    HW127272   4.130   5.350   5.602
 8791SOL    HW227273   3.968   5.333   5.592
 8792SOL     OW27274   5.307   5.569   1.140
 8792SOL    HW127275   5.301   5.633   1.063
 8792SOL    HW227276   5.385   5.509   1.128
 8793SOL     OW27277   0.344   4.572   4.411
 8793SOL    HW127278   0.264   4.575   4.472
 8793SOL    HW227279   0.425   4.602   4.461
 8794SOL     OW27280   0.459   0.576   1.684
 8794SOL    HW127281   0.407   0.592   1.767
 8794SOL    HW227282   0.428   0.639   1.612
 8795SOL     OW27283   1.616   5.383   5.341
 8795SOL    HW127284   1.680   5.418   5.410
 8795SOL    HW227285   1.539   5.445   5.332
 8796SOL     OW27286   6.857   3.736   3.280
 8796SOL    HW127287   6.820   3.746   3.188
 8796SOL    HW227288   6.894   3.644   3.291
 8797SOL     OW27289   5.794   6.750   3.999
 8797SOL    HW127290   5.866   6.818   4.018
 8797SOL    HW227291   5.750   6.772   3.912
 8798SOL     OW27292   4.005   6.657   5.904
 8798SOL    HW127293   3.954   6.712   5.970
 8798SOL    HW227294   4.022   6.711   5.822
 8799SOL     OW27295   1.996   5.257   2.129
 8799SOL    HW127296   2.009   5.321   2.053
 8799SOL    HW227297   1.954   5.173   2.095
 8800SOL     OW27298   0.067   5.866   5.570
 8800SOL    HW127299   0.071   5.965   5.557
 8800SOL    HW227300   0.159   5.830   5.584
 8801SOL     OW27301   6.089   2.799   5.352
 8801SOL    HW127302   6.033   2.874   5.388
 8801SOL    HW227303   6.140   2.830   5.272
 8802SOL     OW27304   1.735   6.340   5.551
 8802SOL    HW127305   1.782   6.425   5.575
 8802SOL    HW227306   1.661   6.323   5.616
 8803SOL     OW27307   6.125   0.091   6.269
 8803SOL    HW127308   6.185   0.033   6.324
 8803SOL    HW227309   6.123   0.183   6.307
 8804SOL     OW27310   1.276   5.819   2.179
 8804SOL    HW127311   1.197   5.879   2.166
 8804SOL    HW227312   1.331   5.817   2.096
 8805SOL     OW27313   4.998   5.131   2.445
 8805SOL    HW127314   5.040   5.118   2.355
 8805SOL    HW227315   5.015   5.050   2.501
 8806SOL     OW27316   1.986   6.882   0.441
 8806SOL    HW127317   2.055   6.814   0.464
 8806SOL    HW227318   2.029   6.962   0.400
 8807SOL     OW27319   4.955   2.559   1.229
 8807SOL    HW127320   4.861   2.592   1.217
 8807SOL    HW227321   4.957   2.460   1.214
 8808SOL     OW27322   2.528   2.176   0.880
 8808SOL    HW127323   2.436   2.146   0.905
 8808SOL    HW227324   2.595   2.129   0.937
 8809SOL     OW27325   1.373   3.824   3.489
 8809SOL    HW127326   1.385   3.910   3.438
 8809SOL    HW227327   1.406   3.748   3.434
 8810SOL     OW27328   0.210   1.000   5.770
 8810SOL    HW127329   0.306   1.010   5.744
 8810SOL    HW227330   0.192   1.056   5.851
 8811SOL     OW27331   4.195   5.937   2.156
 8811SOL    HW127332   4.265   6.000   2.190
 8811SOL    HW227333   4.165   5.877   2.230
 8812SOL     OW27334   4.074   1.623   6.788
 8812SOL    HW127335   4.104   1.689   6.720
 8812SOL    HW227336   4.138   1.546   6.789
 8813SOL     OW27337   2.313   4.687   3.415
 8813SOL    HW127338   2.335   4.597   3.377
 8813SOL    HW227339   2.366   4.701   3.499
 8814SOL     OW27340   5.520   6.872   6.750
 8814SOL    HW127341   5.547   6.792   6.697
 8814SOL    HW227342   5.547   6.956   6.702
 8815SOL     OW27343   5.316   0.798   0.500
 8815SOL    HW127344   5.415   0.786   0.495
 8815SOL    HW227345   5.291   0.882   0.453
 8816SOL     OW27346   0.461   6.336   5.367
 8816SOL    HW127347   0.549   6.353   5.324
 8816SOL    HW227348   0.398   6.411   5.345
 8817SOL     OW27349   1.690   2.882   4.407
 8817SOL    HW127350   1.653   2.970   4.439
 8817SOL    HW227351   1.634   2.847   4.332
 8818SOL     OW27352   2.005   6.861   4.378
 8818SOL    HW127353   2.037   6.801   4.451
 8818SOL    HW227354   2.061   6.944   4.375
 8819SOL     OW27355   5.402   4.567   6.078
 8819SOL    HW127356   5.469   4.635   6.108
 8819SOL    HW227357   5.428   4.532   5.988
 8820SOL     OW27358   3.241   0.654   4.550
 8820SOL    HW127359   3.243   0.622   4.456
 8820SOL    HW227360   3.328   0.698   4.573
 8821SOL     OW27361   0.906   4.640   0.495
 8821SOL    HW127362   0.861   4.729   0.490
 8821SOL    HW227363   0.885   4.587   0.413
 8822SOL     OW27364   6.788   6.483   3.726
 8822SOL    HW127365   6.742   6.570   3.747
 8822SOL    HW227366   6.781   6.465   3.628
 8823SOL     OW27367   3.710   1.062   3.082
 8823SOL    HW127368   3.721   0.972   3.041
 8823SOL    HW227369   3.792   1.117   3.065
 8824SOL     OW27370   2.199   0.976   1.771
 8824SOL    HW127371   2.121   0.919   1.745
 8824SOL    HW227372   2.216   1.045   1.701
 8825SOL     OW27373   0.131   6.885   6.946
 8825SOL    HW127374   0.126   6.794   6.904
 8825SOL    HW227375   0.225   6.906   6.972
 8826SOL     OW27376   0.400   3.281   0.723
 8826SOL    HW127377   0.454   3.335   0.787
 8826SOL    HW227378   0.460   3.233   0.660
 8827SOL     OW27379   4.414   0.183   2.387
 8827SOL    HW127380   4.377   0.152   2.299
 8827SOL    HW227381   4.384   0.120   2.459
 8828SOL     OW27382   4.219   3.138   6.047
 8828SOL    HW127383   4.248   3.086   5.966
 8828SOL    HW227384   4.232   3.081   6.128
 8829SOL     OW27385   0.206   1.838   2.122
 8829SOL    HW127386   0.193   1.867   2.027
 8829SOL    HW227387   0.299   1.803   2.134
 8830SOL     OW27388   2.928   1.923   3.299
 8830SOL    HW127389   2.878   1.848   3.256
 8830SOL    HW227390   2.864   1.986   3.343
 8831SOL     OW27391   0.304   2.422   1.678
 8831SOL    HW127392   0.380   2.486   1.687
 8831SOL    HW227393   0.223   2.459   1.724
 8832SOL     OW27394   6.782   0.173   4.342
 8832SOL    HW127395   6.774   0.238   4.266
 8832SOL    HW227396   6.778   0.080   4.307
 8833SOL     OW27397   3.550   2.867   0.525
 8833SOL    HW127398   3.528   2.889   0.620
 8833SOL    HW227399   3.573   2.770   0.519
 8834SOL     OW27400   5.201   3.894   5.670
 8834SOL    HW127401   5.233   3.802   5.693
 8834SOL    HW227402   5.155   3.892   5.581
 8835SOL     OW27403   6.003   0.897   5.455
 8835SOL    HW127404   5.952   0.905   5.369
 8835SOL    HW227405   6.080   0.961   5.454
 8836SOL     OW27406   5.134   1.711   6.983
 8836SOL    HW127407   5.163   1.805   6.966
 8836SOL    HW227408   5.064   1.710   0.036
 8837SOL     OW27409   5.690   6.987   1.511
 8837SOL    HW127410   5.735   6.901   1.485
 8837SOL    HW227411   5.746   0.015   1.579
 8838SOL     OW27412   0.326   4.315   2.965
 8838SOL    HW127413   0.293   4.301   3.059
 8838SOL    HW227414   0.313   4.410   2.939
 8839SOL     OW27415   5.085   5.999   2.998
 8839SOL    HW127416   5.017   6.011   2.925
 8839SOL    HW227417   5.043   6.019   3.086
 8840SOL     OW27418   0.049   0.942   1.654
 8840SOL    HW127419   6.969   0.930   1.642
 8840SOL    HW227420   0.093   0.949   1.564
 8841SOL     OW27421   3.403   1.565   1.962
 8841SOL    HW127422   3.407   1.636   2.032
 8841SOL    HW227423   3.489   1.562   1.911
 8842SOL     OW27424   3.747   3.098   4.082
 8842SOL    HW127425   3.697   3.024   4.127
 8842SOL    HW227426   3.688   3.179   4.074
 8843SOL     OW27427   1.891   4.199   5.329
 8843SOL    HW127428   1.946   4.127   5.286
 8843SOL    HW227429   1.870   4.173   5.423
 8844SOL     OW27430   5.220   1.806   5.140
 8844SOL    HW127431   5.191   1.901   5.150
 8844SOL    HW227432   5.140   1.746   5.140
 8845SOL     OW27433   1.050   5.128   1.774
 8845SOL    HW127434   1.089   5.218   1.795
 8845SOL    HW227435   1.123   5.067   1.742
 8846SOL     OW27436   5.405   4.674   3.166
 8846SOL    HW127437   5.476   4.615   3.206
 8846SOL    HW227438   5.394   4.755   3.223
 8847SOL     OW27439   2.289   2.176   2.831
 8847SOL    HW127440   2.219   2.185   2.902
 8847SOL    HW227441   2.380   2.172   2.873
 8848SOL     OW27442   3.462   1.921   1.153
 8848SOL    HW127443   3.501   1.880   1.236
 8848SOL    HW227444   3.508   2.008   1.134
 8849SOL     OW27445   3.125   5.496   4.399
 8849SOL    HW127446   3.116   5.396   4.400
 8849SOL    HW227447   3.036   5.537   4.418
 8850SOL     OW27448   3.321   1.888   0.603
 8850SOL    HW127449   3.340   1.963   0.539
 8850SOL    HW227450   3.302   1.926   0.693
 8851SOL     OW27451   0.389   5.077   3.383
 8851SOL    HW127452   0.441   5.022   3.318
 8851SOL    HW227453   0.403   5.174   3.364
 8852SOL     OW27454   5.538   2.586   5.939
 8852SOL    HW127455   5.539   2.539   5.850
 8852SOL    HW227456   5.471   2.660   5.936
 8853SOL     OW27457   4.371   0.718   5.437
 8853SOL    HW127458   4.397   0.623   5.452
 8853SOL    HW227459   4.416   0.776   5.505
 8854SOL     OW27460   1.920   1.716   6.121
 8854SOL    HW127461   1.994   1.753   6.178
 8854SOL    HW227462   1.957   1.691   6.032
 8855SOL     OW27463   5.993   5.839   6.655
 8855SOL    HW127464   5.989   5.922   6.710
 8855SOL    HW227465   6.045   5.769   6.703
 8856SOL     OW27466   6.158   1.027   4.946
 8856SOL    HW127467   6.129   1.120   4.925
 8856SOL    HW227468   6.122   0.964   4.879
 8857SOL     OW27469   6.361   1.972   3.842
 8857SOL    HW127470   6.369   2.002   3.938
 8857SOL    HW227471   6.304   2.036   3.792
 8858SOL     OW27472   0.697   3.644   5.978
 8858SOL    HW127473   0.773   3.672   5.920
 8858SOL    HW227474   0.730   3.581   6.049
 8859SOL     OW27475   1.213   5.892   5.497
 8859SOL    HW127476   1.155   5.812   5.502
 8859SOL    HW227477   1.157   5.975   5.495
 8860SOL     OW27478   0.936   2.084   2.819
 8860SOL    HW127479   1.029   2.055   2.841
 8860SOL    HW227480   0.880   2.082   2.902
 8861SOL     OW27481   4.177   3.645   0.630
 8861SOL    HW127482   4.103   3.675   0.690
 8861SOL    HW227483   4.155   3.555   0.592
 8862SOL     OW27484   5.871   1.329   4.620
 8862SOL    HW127485   5.864   1.354   4.524
 8862SOL    HW227486   5.886   1.412   4.675
 8863SOL     OW27487   2.031   5.777   4.974
 8863SOL    HW127488   2.088   5.835   5.032
 8863SOL    HW227489   2.053   5.681   4.991
 8864SOL     OW27490   1.626   2.981   6.363
 8864SOL    HW127491   1.714   2.932   6.365
 8864SOL    HW227492   1.572   2.955   6.443
 8865SOL     OW27493   2.644   2.277   5.850
 8865SOL    HW127494   2.697   2.298   5.932
 8865SOL    HW227495   2.706   2.250   5.776
 8866SOL     OW27496   3.626   6.458   3.497
 8866SOL    HW127497   3.599   6.372   3.452
 8866SOL    HW227498   3.560   6.529   3.474
 8867SOL     OW27499   5.885   2.171   3.495
 8867SOL    HW127500   5.787   2.186   3.485
 8867SOL    HW227501   5.903   2.121   3.579
 8868SOL     OW27502   4.994   4.189   0.776
 8868SOL    HW127503   4.948   4.197   0.864
 8868SOL    HW227504   4.925   4.180   0.704
 8869SOL     OW27505   4.835   3.115   3.165
 8869SOL    HW127506   4.751   3.129   3.114
 8869SOL    HW227507   4.813   3.108   3.263
 8870SOL     OW27508   4.224   1.442   0.709
 8870SOL    HW127509   4.190   1.440   0.804
 8870SOL    HW227510   4.255   1.351   0.684
 8871SOL     OW27511   2.311   2.020   3.543
 8871SOL    HW127512   2.242   2.003   3.473
 8871SOL    HW227513   2.291   1.965   3.624
 8872SOL     OW27514   1.808   3.933   4.432
 8872SOL    HW127515   1.711   3.920   4.413
 8872SOL    HW227516   1.828   4.030   4.441
 8873SOL     OW27517   0.475   5.305   4.434
 8873SOL    HW127518   0.563   5.329   4.393
 8873SOL    HW227519   0.486   5.227   4.496
 8874SOL     OW27520   2.785   0.656   0.693
 8874SOL    HW127521   2.851   0.667   0.618
 8874SOL    HW227522   2.739   0.568   0.684
 8875SOL     OW27523   1.462   2.501   4.461
 8875SOL    HW127524   1.507   2.526   4.547
 8875SOL    HW227525   1.497   2.559   4.387
 8876SOL     OW27526   0.654   0.874   5.003
 8876SOL    HW127527   0.635   0.886   4.905
 8876SOL    HW227528   0.589   0.928   5.057
 8877SOL     OW27529   2.859   0.564   4.576
 8877SOL    HW127530   2.889   0.474   4.609
 8877SOL    HW227531   2.870   0.632   4.648
 8878SOL     OW27532   0.063   4.211   6.893
 8878SOL    HW127533   0.115   4.288   6.856
 8878SOL    HW227534   0.017   4.163   6.818
 8879SOL     OW27535   5.464   6.397   6.961
 8879SOL    HW127536   5.522   6.350   6.894
 8879SOL    HW227537   5.500   6.489   6.977
 8880SOL     OW27538   6.862   4.525   4.318
 8880SOL    HW127539   6.946   4.554   4.363
 8880SOL    HW227540   6.816   4.605   4.280
 8881SOL     OW27541   0.166   1.375   1.590
 8881SOL    HW127542   0.181   1.397   1.686
 8881SOL    HW227543   0.069   1.362   1.573
 8882SOL     OW27544   5.336   1.941   6.626
 8882SOL    HW127545   5.317   2.005   6.701
 8882SOL    HW227546   5.291   1.854   6.646
 8883SOL     OW27547   6.247   0.409   5.644
 8883SOL    HW127548   6.255   0.344   5.720
 8883SOL    HW227549   6.247   0.358   5.557
 8884SOL     OW27550   5.672   0.169   6.208
 8884SOL    HW127551   5.715   0.176   6.118
 8884SOL    HW227552   5.734   0.205   6.278
 8885SOL     OW27553   5.443   3.833   1.844
 8885SOL    HW127554   5.486   3.778   1.773
 8885SOL    HW227555   5.350   3.799   1.860
 8886SOL     OW27556   2.671   6.709   6.012
 8886SOL    HW127557   2.626   6.623   6.039
 8886SOL    HW227558   2.761   6.688   5.975
 8887SOL     OW27559   2.822   1.017   1.255
 8887SOL    HW127560   2.888   0.976   1.319
 8887SOL    HW227561   2.869   1.085   1.199
 8888SOL     OW27562   2.516   1.459   1.976
 8888SOL    HW127563   2.565   1.529   1.925
 8888SOL    HW227564   2.542   1.368   1.943
 8889SOL     OW27565   4.661   0.075   4.755
 8889SOL    HW127566   4.591   0.027   4.701
 8889SOL    HW227567   4.752   0.046   4.726
 8890SOL     OW27568   0.488   5.447   4.911
 8890SOL    HW127569   0.467   5.444   5.009
 8890SOL    HW227570   0.453   5.366   4.866
 8891SOL     OW27571   5.099   2.942   6.628
 8891SOL    HW127572   5.004   2.943   6.658
 8891SOL    HW227573   5.122   2.852   6.590
 8892SOL     OW27574   1.742   0.653   3.203
 8892SOL    HW127575   1.749   0.570   3.149
 8892SOL    HW227576   1.696   0.634   3.289
 8893SOL     OW27577   0.470   1.527   0.817
 8893SOL    HW127578   0.374   1.521   0.790
 8893SOL    HW227579   0.477   1.544   0.915
 8894SOL     OW27580   4.272   2.366   6.255
 8894SOL    HW127581   4.181   2.365   6.296
 8894SOL    HW227582   4.315   2.277   6.265
 8895SOL     OW27583   0.826   6.740   1.857
 8895SOL    HW127584   0.752   6.673   1.862
 8895SOL    HW227585   0.887   6.729   1.936
 8896SOL     OW27586   2.057   4.173   4.607
 8896SOL    HW127587   1.987   4.199   4.674
 8896SOL    HW227588   2.102   4.089   4.638
 8897SOL     OW27589   1.823   1.509   1.611
 8897SOL    HW127590   1.839   1.607   1.616
 8897SOL    HW227591   1.893   1.466   1.553
 8898SOL     OW27592   6.218   3.540   4.229
 8898SOL    HW127593   6.265   3.494   4.154
 8898SOL    HW227594   6.281   3.602   4.276
 8899SOL     OW27595   1.982   4.784   0.644
 8899SOL    HW127596   2.042   4.861   0.623
 8899SOL    HW227597   1.894   4.818   0.675
 8900SOL     OW27598   4.810   2.443   2.953
 8900SOL    HW127599   4.802   2.419   2.857
 8900SOL    HW227600   4.731   2.499   2.980
 8901SOL     OW27601   1.345   0.245   2.487
 8901SOL    HW127602   1.278   0.252   2.413
 8901SOL    HW227603   1.299   0.212   2.570
 8902SOL     OW27604   1.469   5.638   5.974
 8902SOL    HW127605   1.440   5.651   6.069
 8902SOL    HW227606   1.472   5.541   5.952
 8903SOL     OW27607   1.957   1.682   3.830
 8903SOL    HW127608   1.903   1.664   3.913
 8903SOL    HW227609   1.968   1.597   3.779
 8904SOL     OW27610   0.213   5.863   3.805
 8904SOL    HW127611   0.218   5.933   3.734
 8904SOL    HW227612   0.185   5.777   3.764
 8905SOL     OW27613   2.543   3.306   5.716
 8905SOL    HW127614   2.469   3.305   5.782
 8905SOL    HW227615   2.622   3.257   5.753
 8906SOL     OW27616   6.781   6.261   6.073
 8906SOL    HW127617   6.720   6.270   5.994
 8906SOL    HW227618   6.751   6.185   6.130
 8907SOL     OW27619   3.344   2.653   5.326
 8907SOL    HW127620   3.278   2.580   5.306
 8907SOL    HW227621   3.420   2.617   5.379
 8908SOL     OW27622   1.519   1.998   1.393
 8908SOL    HW127623   1.485   2.067   1.329
 8908SOL    HW227624   1.479   2.014   1.484
 8909SOL     OW27625   2.273   0.791   6.313
 8909SOL    HW127626   2.226   0.708   6.283
 8909SOL    HW227627   2.272   0.857   6.238
 8910SOL     OW27628   2.811   3.125   6.611
 8910SOL    HW127629   2.867   3.069   6.671
 8910SOL    HW227630   2.830   3.102   6.516
 8911SOL     OW27631   3.447   2.093   4.510
 8911SOL    HW127632   3.540   2.105   4.476
 8911SOL    HW227633   3.414   2.001   4.488
 8912SOL     OW27634   4.806   1.874   6.038
 8912SOL    HW127635   4.770   1.884   6.131
 8912SOL    HW227636   4.731   1.856   5.975
 8913SOL     OW27637   4.849   4.084   1.568
 8913SOL    HW127638   4.823   4.037   1.484
 8913SOL    HW227639   4.767   4.110   1.619
 8914SOL     OW27640   3.538   1.856   5.052
 8914SOL    HW127641   3.521   1.951   5.026
 8914SOL    HW227642   3.623   1.824   5.010
 8915SOL     OW27643   1.700   3.589   2.818
 8915SOL    HW127644   1.682   3.626   2.727
 8915SOL    HW227645   1.692   3.490   2.816
 8916SOL     OW27646   6.575   4.497   2.903
 8916SOL    HW127647   6.529   4.436   2.966
 8916SOL    HW227648   6.575   4.590   2.940
 8917SOL     OW27649   6.011   6.210   0.006
 8917SOL    HW127650   6.094   6.215   0.061
 8917SOL    HW227651   5.949   6.284   0.031
 8918SOL     OW27652   5.145   5.886   6.118
 8918SOL    HW127653   5.176   5.957   6.181
 8918SOL    HW227654   5.223   5.832   6.086
 8919SOL     OW27655   3.435   4.969   1.277
 8919SOL    HW127656   3.349   4.993   1.322
 8919SOL    HW227657   3.417   4.916   1.195
 8920SOL     OW27658   6.203   5.012   5.830
 8920SOL    HW127659   6.222   4.998   5.733
 8920SOL    HW227660   6.234   5.103   5.857
 8921SOL     OW27661   1.080   0.901   3.884
 8921SOL    HW127662   1.050   0.949   3.802
 8921SOL    HW227663   1.072   0.802   3.870
 8922SOL     OW27664   1.576   4.705   1.011
 8922SOL    HW127665   1.543   4.757   0.932
 8922SOL    HW227666   1.500   4.654   1.051
 8923SOL     OW27667   1.690   4.101   6.261
 8923SOL    HW127668   1.719   4.178   6.319
 8923SOL    HW227669   1.764   4.078   6.197
 8924SOL     OW27670   3.234   5.044   5.123
 8924SOL    HW127671   3.194   5.043   5.031
 8924SOL    HW227672   3.191   5.117   5.177
 8925SOL     OW27673   6.941   0.204   2.225
 8925SOL    HW127674   6.980   0.196   2.133
 8925SOL    HW227675   6.860   0.263   2.222
 8926SOL     OW27676   5.428   2.278   1.566
 8926SOL    HW127677   5.359   2.221   1.521
 8926SOL    HW227678   5.513   2.228   1.575
 8927SOL     OW27679   2.184   2.591   4.861
 8927SOL    HW127680   2.220   2.683   4.849
 8927SOL    HW227681   2.185   2.543   4.773
 8928SOL     OW27682   0.668   0.400   5.952
 8928SOL    HW127683   0.644   0.330   5.885
 8928SOL    HW227684   0.760   0.435   5.931
 8929SOL     OW27685   0.177   3.590   3.800
 8929SOL    HW127686   0.219   3.584   3.891
 8929SOL    HW227687   0.100   3.652   3.802
 8930SOL     OW27688   1.493   4.941   4.631
 8930SOL    HW127689   1.495   5.040   4.617
 8930SOL    HW227690   1.470   4.896   4.545
 8931SOL     OW27691   4.675   1.398   1.288
 8931SOL    HW127692   4.689   1.299   1.283
 8931SOL    HW227693   4.722   1.443   1.212
 8932SOL     OW27694   6.240   0.552   6.276
 8932SOL    HW127695   6.304   0.605   6.332
 8932SOL    HW227696   6.282   0.530   6.188
 8933SOL     OW27697   1.740   0.385   4.796
 8933SOL    HW127698   1.662   0.373   4.735
 8933SOL    HW227699   1.824   0.391   4.742
 8934SOL     OW27700   3.406   5.568   2.818
 8934SOL    HW127701   3.323   5.533   2.775
 8934SOL    HW227702   3.445   5.499   2.879
 8935SOL     OW27703   4.345   2.298   2.786
 8935SOL    HW127704   4.329   2.337   2.695
 8935SOL    HW227705   4.272   2.233   2.808
 8936SOL     OW27706   0.542   5.040   1.442
 8936SOL    HW127707   0.567   5.109   1.374
 8936SOL    HW227708   0.540   4.950   1.398
 8937SOL     OW27709   0.015   6.533   3.864
 8937SOL    HW127710   0.061   6.449   3.892
 8937SOL    HW227711   6.944   6.510   3.827
 8938SOL     OW27712   6.717   1.346   0.502
 8938SOL    HW127713   6.735   1.250   0.520
 8938SOL    HW227714   6.792   1.384   0.448
 8939SOL     OW27715   0.123   2.671   3.803
 8939SOL    HW127716   0.214   2.636   3.824
 8939SOL    HW227717   0.111   2.675   3.704
 8940SOL     OW27718   6.520   2.765   0.706
 8940SOL    HW127719   6.449   2.806   0.762
 8940SOL    HW227720   6.605   2.761   0.759
 8941SOL     OW27721   5.348   2.209   1.914
 8941SOL    HW127722   5.400   2.145   1.858
 8941SOL    HW227723   5.297   2.271   1.853
 8942SOL     OW27724   6.406   4.474   3.586
 8942SOL    HW127725   6.470   4.403   3.556
 8942SOL    HW227726   6.413   4.487   3.685
 8943SOL     OW27727   4.982   3.489   6.928
 8943SOL    HW127728   4.967   3.587   6.945
 8943SOL    HW227729   4.924   3.436   6.991
 8944SOL     OW27730   4.826   5.548   3.886
 8944SOL    HW127731   4.782   5.591   3.807
 8944SOL    HW227732   4.756   5.511   3.947
 8945SOL     OW27733   5.824   4.428   5.164
 8945SOL    HW127734   5.854   4.379   5.245
 8945SOL    HW227735   5.793   4.363   5.095
 8946SOL     OW27736   5.417   1.142   4.462
 8946SOL    HW127737   5.391   1.231   4.498
 8946SOL    HW227738   5.378   1.070   4.520
 8947SOL     OW27739   1.537   5.036   5.975
 8947SOL    HW127740   1.553   5.040   6.074
 8947SOL    HW227741   1.443   5.064   5.956
 8948SOL     OW27742   6.592   0.725   3.530
 8948SOL    HW127743   6.604   0.757   3.624
 8948SOL    HW227744   6.542   0.794   3.478
 8949SOL     OW27745   3.114   6.134   6.992
 8949SOL    HW127746   3.036   6.153   0.033
 8949SOL    HW227747   3.083   6.132   6.897
 8950SOL     OW27748   4.715   3.957   1.344
 8950SOL    HW127749   4.651   4.019   1.298
 8950SOL    HW227750   4.769   3.909   1.275
 8951SOL     OW27751   1.919   1.473   4.554
 8951SOL    HW127752   1.929   1.549   4.619
 8951SOL    HW227753   1.822   1.453   4.540
 8952SOL     OW27754   2.136   4.855   3.886
 8952SOL    HW127755   2.120   4.758   3.905
 8952SOL    HW227756   2.223   4.883   3.926
 8953SOL     OW27757   1.801   5.208   2.312
 8953SOL    HW127758   1.863   5.251   2.246
 8953SOL    HW227759   1.812   5.109   2.308
 8954SOL     OW27760   1.085   5.315   4.946
 8954SOL    HW127761   1.181   5.306   4.973
 8954SOL    HW227762   1.027   5.270   5.013
 8955SOL     OW27763   5.437   2.563   3.568
 8955SOL    HW127764   5.440   2.532   3.473
 8955SOL    HW227765   5.514   2.625   3.585
 8956SOL     OW27766   1.115   5.624   5.735
 8956SOL    HW127767   1.109   5.723   5.721
 8956SOL    HW227768   1.193   5.604   5.795
 8957SOL     OW27769   0.818   5.426   2.300
 8957SOL    HW127770   0.808   5.438   2.399
 8957SOL    HW227771   0.886   5.490   2.265
 8958SOL     OW27772   1.596   3.887   4.971
 8958SOL    HW127773   1.584   3.897   4.872
 8958SOL    HW227774   1.533   3.818   5.005
 8959SOL     OW27775   0.310   3.139   2.600
 8959SOL    HW127776   0.396   3.156   2.553
 8959SOL    HW227777   0.304   3.195   2.682
 8960SOL     OW27778   5.698   4.124   4.240
 8960SOL    HW127779   5.703   4.214   4.196
 8960SOL    HW227780   5.619   4.122   4.302
 8961SOL     OW27781   3.310   6.920   5.056
 8961SOL    HW127782   3.410   6.916   5.052
 8961SOL    HW227783   3.274   6.829   5.076
 8962SOL     OW27784   0.895   5.512   1.443
 8962SOL    HW127785   0.945   5.426   1.454
 8962SOL    HW227786   0.848   5.534   1.529
 8963SOL     OW27787   3.467   6.081   4.433
 8963SOL    HW127788   3.426   6.089   4.343
 8963SOL    HW227789   3.406   6.030   4.494
 8964SOL     OW27790   6.979   3.014   4.444
 8964SOL    HW127791   6.970   3.084   4.373
 8964SOL    HW227792   6.906   3.026   4.512
 8965SOL     OW27793   4.639   5.351   0.266
 8965SOL    HW127794   4.727   5.306   0.285
 8965SOL    HW227795   4.639   5.443   0.303
 8966SOL     OW27796   5.057   5.310   6.296
 8966SOL    HW127797   4.970   5.280   6.334
 8966SOL    HW227798   5.047   5.402   6.258
 8967SOL     OW27799   3.288   0.378   2.986
 8967SOL    HW127800   3.234   0.296   3.006
 8967SOL    HW227801   3.236   0.439   2.927
 8968SOL     OW27802   3.617   4.989   2.220
 8968SOL    HW127803   3.603   4.904   2.169
 8968SOL    HW227804   3.584   4.977   2.314
 8969SOL     OW27805   6.993   0.993   3.457
 8969SOL    HW127806   6.976   1.078   3.407
 8969SOL    HW227807   0.021   1.014   3.543
 8970SOL     OW27808   1.586   0.871   6.120
 8970SOL    HW127809   1.640   0.825   6.049
 8970SOL    HW227810   1.618   0.842   6.210
 8971SOL     OW27811   4.428   5.648   0.632
 8971SOL    HW127812   4.523   5.644   0.663
 8971SOL    HW227813   4.386   5.732   0.665
 8972SOL     OW27814   6.574   4.221   0.772
 8972SOL    HW127815   6.498   4.190   0.715
 8972SOL    HW227816   6.537   4.270   0.852
 8973SOL     OW27817   0.550   2.389   1.977
 8973SOL    HW127818   0.504   2.343   1.901
 8973SOL    HW227819   0.514   2.482   1.987
 8974SOL     OW27820   2.241   4.034   4.329
 8974SOL    HW127821   2.248   4.123   4.283
 8974SOL    HW227822   2.268   4.044   4.424
 8975SOL     OW27823   0.546   6.938   6.536
 8975SOL    HW127824   0.592   6.876   6.473
 8975SOL    HW227825   0.468   6.981   6.489
 8976SOL     OW27826   6.408   6.708   1.856
 8976SOL    HW127827   6.481   6.710   1.788
 8976SOL    HW227828   6.426   6.777   1.926
 8977SOL     OW27829   0.374   4.948   5.910
 8977SOL    HW127830   0.413   4.988   5.827
 8977SOL    HW227831   0.448   4.916   5.969
 8978SOL     OW27832   5.698   5.442   5.470
 8978SOL    HW127833   5.779   5.402   5.513
 8978SOL    HW227834   5.707   5.542   5.470
 8979SOL     OW27835   0.993   5.212   5.470
 8979SOL    HW127836   0.911   5.157   5.489
 8979SOL    HW227837   1.028   5.249   5.556
 8980SOL     OW27838   3.545   0.888   5.015
 8980SOL    HW127839   3.486   0.926   5.086
 8980SOL    HW227840   3.505   0.907   4.925
 8981SOL     OW27841   4.063   3.124   6.886
 8981SOL    HW127842   4.005   3.147   6.964
 8981SOL    HW227843   4.099   3.031   6.897
 8982SOL     OW27844   0.724   1.336   1.301
 8982SOL    HW127845   0.657   1.313   1.230
 8982SOL    HW227846   0.739   1.435   1.301
 8983SOL     OW27847   0.982   6.836   2.973
 8983SOL    HW127848   0.924   6.764   2.933
 8983SOL    HW227849   1.066   6.795   3.008
 8984SOL     OW27850   5.868   0.018   4.139
 8984SOL    HW127851   5.780   0.030   4.185
 8984SOL    HW227852   5.934   6.997   4.202
 8985SOL     OW27853   4.652   2.939   0.777
 8985SOL    HW127854   4.610   3.025   0.806
 8985SOL    HW227855   4.638   2.870   0.848
 8986SOL     OW27856   0.271   5.025   0.392
 8986SOL    HW127857   0.194   5.077   0.357
 8986SOL    HW227858   0.297   5.061   0.482
 8987SOL     OW27859   2.210   0.066   1.272
 8987SOL    HW127860   2.156   0.039   1.193
 8987SOL    HW227861   2.177   0.154   1.306
 8988SOL     OW27862   0.932   5.564   1.183
 8988SOL    HW127863   0.938   5.570   1.283
 8988SOL    HW227864   0.963   5.474   1.153
 8989SOL     OW27865   5.499   1.436   1.949
 8989SOL    HW127866   5.500   1.502   1.874
 8989SOL    HW227867   5.536   1.349   1.918
 8990SOL     OW27868   3.631   0.735   1.787
 8990SOL    HW127869   3.697   0.810   1.795
 8990SOL    HW227870   3.548   0.759   1.838
 8991SOL     OW27871   2.192   2.426   0.415
 8991SOL    HW127872   2.187   2.339   0.463
 8991SOL    HW227873   2.121   2.488   0.449
 8992SOL     OW27874   0.418   3.423   0.095
 8992SOL    HW127875   0.356   3.350   0.125
 8992SOL    HW227876   0.510   3.405   0.131
 8993SOL     OW27877   5.616   2.741   3.921
 8993SOL    HW127878   5.630   2.839   3.935
 8993SOL    HW227879   5.524   2.716   3.954
 8994SOL     OW27880   0.703   5.080   3.249
 8994SOL    HW127881   0.793   5.055   3.285
 8994SOL    HW227882   0.713   5.151   3.179
 8995SOL     OW27883   1.915   3.860   4.670
 8995SOL    HW127884   1.900   3.894   4.577
 8995SOL    HW227885   2.013   3.864   4.691
 8996SOL     OW27886   0.271   3.963   2.731
 8996SOL    HW127887   0.360   3.951   2.687
 8996SOL    HW227888   0.266   3.906   2.813
 8997SOL     OW27889   4.573   1.710   5.203
 8997SOL    HW127890   4.490   1.690   5.256
 8997SOL    HW227891   4.547   1.753   5.116
 8998SOL     OW27892   1.562   2.181   5.643
 8998SOL    HW127893   1.633   2.144   5.584
 8998SOL    HW227894   1.472   2.166   5.602
 8999SOL     OW27895   6.373   1.218   4.577
 8999SOL    HW127896   6.353   1.315   4.560
 8999SOL    HW227897   6.444   1.187   4.515
 9000SOL     OW27898   2.974   4.265   0.213
 9000SOL    HW127899   3.042   4.323   0.168
 9000SOL    HW227900   2.999   4.169   0.202
 9001SOL     OW27901   1.600   5.422   3.834
 9001SOL    HW127902   1.675   5.416   3.901
 9001SOL    HW227903   1.634   5.463   3.750
 9002SOL     OW27904   5.711   4.381   6.025
 9002SOL    HW127905   5.621   4.424   6.028
 9002SOL    HW227906   5.772   4.425   6.092
 9003SOL     OW27907   5.643   2.694   6.799
 9003SOL    HW127908   5.716   2.743   6.750
 9003SOL    HW227909   5.684   2.624   6.857
 9004SOL     OW27910   4.532   6.381   1.120
 9004SOL    HW127911   4.615   6.423   1.084
 9004SOL    HW227912   4.470   6.453   1.152
 9005SOL     OW27913   5.131   1.840   3.438
 9005SOL    HW127914   5.031   1.843   3.434
 9005SOL    HW227915   5.161   1.745   3.423
 9006SOL     OW27916   1.064   5.322   1.081
 9006SOL    HW127917   1.139   5.282   1.027
 9006SOL    HW227918   1.080   5.303   1.178
 9007SOL     OW27919   3.247   6.557   4.131
 9007SOL    HW127920   3.280   6.517   4.045
 9007SOL    HW227921   3.155   6.524   4.150
 9008SOL     OW27922   0.006   4.611   2.357
 9008SOL    HW127923   6.990   4.682   2.418
 9008SOL    HW227924   0.008   4.523   2.405
 9009SOL     OW27925   3.076   6.350   0.357
 9009SOL    HW127926   3.037   6.277   0.301
 9009SOL    HW227927   3.044   6.340   0.451
 9010SOL     OW27928   1.082   6.065   5.140
 9010SOL    HW127929   1.179   6.059   5.116
 9010SOL    HW227930   1.047   5.974   5.161
 9011SOL     OW27931   4.473   1.950   0.729
 9011SOL    HW127932   4.432   1.873   0.779
 9011SOL    HW227933   4.529   1.915   0.654
 9012SOL     OW27934   0.146   4.831   1.459
 9012SOL    HW127935   0.055   4.853   1.493
 9012SOL    HW227936   0.190   4.766   1.522
 9013SOL     OW27937   6.295   5.928   2.904
 9013SOL    HW127938   6.335   5.985   2.976
 9013SOL    HW227939   6.206   5.894   2.933
 9014SOL     OW27940   2.650   1.106   1.024
 9014SOL    HW127941   2.670   1.133   1.118
 9014SOL    HW227942   2.725   1.051   0.988
 9015SOL     OW27943   0.220   0.985   6.210
 9015SOL    HW127944   0.157   0.929   6.156
 9015SOL    HW227945   0.269   0.926   6.275
 9016SOL     OW27946   6.162   6.109   6.538
 9016SOL    HW127947   6.211   6.050   6.602
 9016SOL    HW227948   6.143   6.058   6.454
 9017SOL     OW27949   6.497   2.315   3.568
 9017SOL    HW127950   6.553   2.252   3.622
 9017SOL    HW227951   6.493   2.284   3.473
 9018SOL     OW27952   3.815   2.343   5.394
 9018SOL    HW127953   3.794   2.364   5.490
 9018SOL    HW227954   3.750   2.275   5.361
 9019SOL     OW27955   2.254   0.365   0.269
 9019SOL    HW127956   2.327   0.336   0.332
 9019SOL    HW227957   2.235   0.462   0.282
 9020SOL     OW27958   1.076   4.506   2.976
 9020SOL    HW127959   1.150   4.441   2.959
 9020SOL    HW227960   0.996   4.456   3.011
 9021SOL     OW27961   6.585   5.659   5.124
 9021SOL    HW127962   6.504   5.687   5.072
 9021SOL    HW227963   6.667   5.693   5.079
 9022SOL     OW27964   2.852   0.910   0.078
 9022SOL    HW127965   2.811   0.961   0.003
 9022SOL    HW227966   2.780   0.882   0.142
 9023SOL     OW27967   3.904   3.033   3.543
 9023SOL    HW127968   3.860   3.036   3.633
 9023SOL    HW227969   3.915   2.937   3.515
 9024SOL     OW27970   1.898   6.603   6.561
 9024SOL    HW127971   1.897   6.630   6.464
 9024SOL    HW227972   1.879   6.683   6.618
 9025SOL     OW27973   5.944   5.103   1.170
 9025SOL    HW127974   5.946   5.121   1.269
 9025SOL    HW227975   5.884   5.169   1.125
 9026SOL     OW27976   3.566   2.865   5.076
 9026SOL    HW127977   3.622   2.837   5.154
 9026SOL    HW227978   3.469   2.858   5.100
 9027SOL     OW27979   2.806   2.300   3.640
 9027SOL    HW127980   2.765   2.350   3.564
 9027SOL    HW227981   2.769   2.334   3.726
 9028SOL     OW27982   2.981   4.897   5.210
 9028SOL    HW127983   3.074   4.919   5.179
 9028SOL    HW227984   2.947   4.817   5.161
 9029SOL     OW27985   4.925   6.384   3.253
 9029SOL    HW127986   4.872   6.315   3.204
 9029SOL    HW227987   5.020   6.382   3.222
 9030SOL     OW27988   2.238   0.672   2.372
 9030SOL    HW127989   2.306   0.717   2.429
 9030SOL    HW227990   2.178   0.742   2.332
 9031SOL     OW27991   2.632   5.901   6.298
 9031SOL    HW127992   2.623   5.806   6.328
 9031SOL    HW227993   2.717   5.911   6.246
 9032SOL     OW27994   2.454   1.860   1.654
 9032SOL    HW127995   2.472   1.902   1.743
 9032SOL    HW227996   2.498   1.914   1.583
 9033SOL     OW27997   1.779   3.660   3.082
 9033SOL    HW127998   1.857   3.600   3.101
 9033SOL    HW227999   1.740   3.636   2.993
 9034SOL     OW28000   3.190   6.382   5.676
 9034SOL    HW128001   3.115   6.400   5.612
 9034SOL    HW228002   3.276   6.413   5.637
 9035SOL     OW28003   0.238   1.166   4.419
 9035SOL    HW128004   0.309   1.117   4.369
 9035SOL    HW228005   0.249   1.151   4.517
 9036SOL     OW28006   0.717   2.854   5.620
 9036SOL    HW128007   0.685   2.912   5.694
 9036SOL    HW228008   0.815   2.866   5.608
 9037SOL     OW28009   2.271   4.056   6.356
 9037SOL    HW128010   2.199   4.093   6.298
 9037SOL    HW228011   2.264   4.097   6.447
 9038SOL     OW28012   4.497   6.332   5.424
 9038SOL    HW128013   4.481   6.258   5.359
 9038SOL    HW228014   4.411   6.380   5.441
 9039SOL     OW28015   2.017   5.503   5.042
 9039SOL    HW128016   1.978   5.423   5.089
 9039SOL    HW228017   2.038   5.478   4.947
 9040SOL     OW28018   1.765   1.530   2.493
 9040SOL    HW128019   1.814   1.499   2.411
 9040SOL    HW228020   1.727   1.450   2.541
 9041SOL     OW28021   1.338   3.239   0.942
 9041SOL    HW128022   1.394   3.161   0.969
 9041SOL    HW228023   1.355   3.316   1.004
 9042SOL     OW28024   2.762   4.712   3.241
 9042SOL    HW128025   2.751   4.616   3.215
 9042SOL    HW228026   2.736   4.724   3.337
 9043SOL     OW28027   0.759   2.671   5.886
 9043SOL    HW128028   0.818   2.702   5.960
 9043SOL    HW228029   0.811   2.614   5.823
 9044SOL     OW28030   6.316   0.491   1.016
 9044SOL    HW128031   6.377   0.424   1.059
 9044SOL    HW228032   6.363   0.535   0.940
 9045SOL     OW28033   2.757   6.854   3.287
 9045SOL    HW128034   2.671   6.885   3.247
 9045SOL    HW228035   2.750   6.854   3.387
 9046SOL     OW28036   3.475   4.038   4.849
 9046SOL    HW128037   3.387   4.084   4.837
 9046SOL    HW228038   3.536   4.063   4.773
 9047SOL     OW28039   1.132   4.497   4.403
 9047SOL    HW128040   1.075   4.415   4.408
 9047SOL    HW228041   1.095   4.567   4.464
 9048SOL     OW28042   0.526   3.803   4.519
 9048SOL    HW128043   0.507   3.778   4.614
 9048SOL    HW228044   0.441   3.801   4.466
 9049SOL     OW28045   5.415   6.530   6.255
 9049SOL    HW128046   5.326   6.572   6.234
 9049SOL    HW228047   5.488   6.594   6.231
 9050SOL     OW28048   0.183   4.793   6.464
 9050SOL    HW128049   0.195   4.761   6.558
 9050SOL    HW228050   0.174   4.714   6.403
 9051SOL     OW28051   5.666   6.297   6.769
 9051SOL    HW128052   5.648   6.321   6.673
 9051SOL    HW228053   5.661   6.198   6.779
 9052SOL     OW28054   2.294   5.033   4.385
 9052SOL    HW128055   2.391   5.011   4.375
 9052SOL    HW228056   2.262   5.081   4.303
 9053SOL     OW28057   2.560   2.573   4.059
 9053SOL    HW128058   2.596   2.489   4.099
 9053SOL    HW228059   2.593   2.652   4.111
 9054SOL     OW28060   2.276   0.363   1.315
 9054SOL    HW128061   2.251   0.334   1.407
 9054SOL    HW228062   2.211   0.434   1.284
 9055SOL     OW28063   0.663   2.498   4.012
 9055SOL    HW128064   0.585   2.555   4.038
 9055SOL    HW228065   0.730   2.496   4.086
 9056SOL     OW28066   5.333   0.322   3.134
 9056SOL    HW128067   5.349   0.255   3.206
 9056SOL    HW228068   5.408   0.387   3.131
 9057SOL     OW28069   6.419   6.280   6.496
 9057SOL    HW128070   6.411   6.379   6.486
 9057SOL    HW228071   6.337   6.235   6.461
 9058SOL     OW28072   1.722   3.041   5.153
 9058SOL    HW128073   1.797   3.021   5.089
 9058SOL    HW228074   1.636   3.008   5.115
 9059SOL     OW28075   6.447   2.065   3.031
 9059SOL    HW128076   6.543   2.093   3.038
 9059SOL    HW228077   6.442   1.965   3.030
 9060SOL     OW28078   0.401   3.401   1.848
 9060SOL    HW128079   0.435   3.396   1.754
 9060SOL    HW228080   0.410   3.494   1.882
 9061SOL     OW28081   5.320   5.668   1.677
 9061SOL    HW128082   5.375   5.603   1.729
 9061SOL    HW228083   5.295   5.628   1.589
 9062SOL     OW28084   0.559   4.800   3.550
 9062SOL    HW128085   0.520   4.881   3.593
 9062SOL    HW228086   0.486   4.744   3.512
 9063SOL     OW28087   2.887   0.879   2.485
 9063SOL    HW128088   2.981   0.912   2.490
 9063SOL    HW228089   2.838   0.928   2.413
 9064SOL     OW28090   0.483   4.043   3.516
 9064SOL    HW128091   0.478   4.122   3.578
 9064SOL    HW228092   0.579   4.023   3.496
 9065SOL     OW28093   2.666   5.496   4.747
 9065SOL    HW128094   2.743   5.496   4.683
 9065SOL    HW228095   2.674   5.419   4.809
 9066SOL     OW28096   5.353   4.855   5.703
 9066SOL    HW128097   5.444   4.895   5.713
 9066SOL    HW228098   5.297   4.883   5.782
 9067SOL     OW28099   6.368   0.090   4.699
 9067SOL    HW128100   6.460   0.128   4.704
 9067SOL    HW228101   6.370   0.004   4.647
 9068SOL     OW28102   5.045   0.053   4.412
 9068SOL    HW128103   5.122   7.009   4.402
 9068SOL    HW228104   4.962   0.009   4.380
 9069SOL     OW28105   4.645   2.130   1.936
 9069SOL    HW128106   4.743   2.132   1.919
 9069SOL    HW228107   4.618   2.037   1.961
 9070SOL     OW28108   1.371   1.795   5.785
 9070SOL    HW128109   1.446   1.827   5.727
 9070SOL    HW228110   1.355   1.698   5.767
 9071SOL     OW28111   5.198   1.259   5.831
 9071SOL    HW128112   5.157   1.318   5.902
 9071SOL    HW228113   5.204   1.310   5.746
 9072SOL     OW28114   5.392   0.440   2.351
 9072SOL    HW128115   5.368   0.491   2.434
 9072SOL    HW228116   5.461   0.491   2.300
 9073SOL     OW28117   4.040   1.176   6.662
 9073SOL    HW128118   3.968   1.107   6.662
 9073SOL    HW228119   4.010   1.254   6.718
 9074SOL     OW28120   1.323   6.999   1.338
 9074SOL    HW128121   1.322   6.906   1.373
 9074SOL    HW228122   1.285   7.000   1.245
 9075SOL     OW28123   6.847   0.889   1.455
 9075SOL    HW128124   6.759   0.848   1.478
 9075SOL    HW228125   6.836   0.950   1.376
 9076SOL     OW28126   6.209   0.251   2.287
 9076SOL    HW128127   6.229   0.244   2.385
 9076SOL    HW228128   6.130   0.193   2.266
 9077SOL     OW28129   5.922   1.330   5.948
 9077SOL    HW128130   5.916   1.282   5.860
 9077SOL    HW228131   5.834   1.370   5.970
 9078SOL     OW28132   5.221   5.670   0.051
 9078SOL    HW128133   5.308   5.632   0.020
 9078SOL    HW228134   5.233   5.768   0.070
 9079SOL     OW28135   1.184   0.344   5.903
 9079SOL    HW128136   1.175   0.404   5.983
 9079SOL    HW228137   1.161   0.250   5.929
 9080SOL     OW28138   6.758   3.748   0.849
 9080SOL    HW128139   6.682   3.733   0.914
 9080SOL    HW228140   6.724   3.799   0.770
 9081SOL     OW28141   3.871   2.124   1.221
 9081SOL    HW128142   3.898   2.087   1.132
 9081SOL    HW228143   3.869   2.224   1.216
 9082SOL     OW28144   3.259   5.975   5.963
 9082SOL    HW128145   3.181   5.959   5.902
 9082SOL    HW228146   3.291   6.069   5.952
 9083SOL     OW28147   4.610   4.693   6.217
 9083SOL    HW128148   4.576   4.601   6.196
 9083SOL    HW228149   4.552   4.761   6.171
 9084SOL     OW28150   0.612   2.941   5.393
 9084SOL    HW128151   0.671   2.909   5.468
 9084SOL    HW228152   0.539   2.998   5.430
 9085SOL     OW28153   3.141   5.233   0.266
 9085SOL    HW128154   3.059   5.217   0.321
 9085SOL    HW228155   3.131   5.318   0.215
 9086SOL     OW28156   6.971   4.983   0.350
 9086SOL    HW128157   6.899   4.930   0.306
 9086SOL    HW228158   0.040   4.961   0.307
 9087SOL     OW28159   6.043   1.842   1.814
 9087SOL    HW128160   6.070   1.885   1.728
 9087SOL    HW228161   6.038   1.743   1.802
 9088SOL     OW28162   6.074   0.623   1.820
 9088SOL    HW128163   6.150   0.595   1.879
 9088SOL    HW228164   6.055   0.720   1.836
 9089SOL     OW28165   4.431   5.359   3.385
 9089SOL    HW128166   4.370   5.291   3.344
 9089SOL    HW228167   4.437   5.439   3.326
 9090SOL     OW28168   6.017   6.210   4.930
 9090SOL    HW128169   6.009   6.206   4.831
 9090SOL    HW228170   5.950   6.148   4.971
 9091SOL     OW28171   3.182   2.168   0.326
 9091SOL    HW128172   3.179   2.100   0.253
 9091SOL    HW228173   3.114   2.239   0.309
 9092SOL     OW28174   1.306   6.490   5.701
 9092SOL    HW128175   1.231   6.536   5.750
 9092SOL    HW228176   1.300   6.392   5.716
 9093SOL     OW28177   1.543   5.677   0.399
 9093SOL    HW128178   1.454   5.633   0.389
 9093SOL    HW228179   1.596   5.665   0.316
 9094SOL     OW28180   6.971   5.715   2.322
 9094SOL    HW128181   6.953   5.617   2.323
 9094SOL    HW228182   0.036   5.733   2.375
 9095SOL     OW28183   4.808   3.433   6.397
 9095SOL    HW128184   4.834   3.479   6.482
 9095SOL    HW228185   4.870   3.462   6.324
 9096SOL     OW28186   5.913   2.895   2.667
 9096SOL    HW128187   5.838   2.930   2.724
 9096SOL    HW228188   5.970   2.833   2.722
 9097SOL     OW28189   0.480   3.970   6.862
 9097SOL    HW128190   0.567   3.923   6.872
 9097SOL    HW228191   0.417   3.912   6.810
 9098SOL     OW28192   3.866   3.890   2.247
 9098SOL    HW128193   3.919   3.901   2.163
 9098SOL    HW228194   3.929   3.878   2.324
 9099SOL     OW28195   2.741   3.333   0.645
 9099SOL    HW128196   2.772   3.239   0.637
 9099SOL    HW228197   2.800   3.392   0.590
 9100SOL     OW28198   1.085   3.601   1.554
 9100SOL    HW128199   1.132   3.556   1.479
 9100SOL    HW228200   1.020   3.538   1.596
 9101SOL     OW28201   1.331   2.392   2.773
 9101SOL    HW128202   1.373   2.363   2.859
 9101SOL    HW228203   1.385   2.359   2.696
 9102SOL     OW28204   3.818   5.704   1.993
 9102SOL    HW128205   3.863   5.673   2.076
 9102SOL    HW228206   3.837   5.640   1.919
 9103SOL     OW28207   0.262   3.975   0.819
 9103SOL    HW128208   0.319   4.051   0.850
 9103SOL    HW228209   0.214   4.001   0.736
 9104SOL     OW28210   4.348   6.106   1.819
 9104SOL    HW128211   4.287   6.033   1.788
 9104SOL    HW228212   4.316   6.142   1.906
 9105SOL     OW28213   1.574   0.185   6.480
 9105SOL    HW128214   1.612   0.122   6.548
 9105SOL    HW228215   1.588   0.279   6.510
 9106SOL     OW28216   5.830   4.592   0.247
 9106SOL    HW128217   5.869   4.680   0.218
 9106SOL    HW228218   5.901   4.538   0.293
 9107SOL     OW28219   3.915   6.819   6.913
 9107SOL    HW128220   3.939   6.893   6.850
 9107SOL    HW228221   3.985   6.748   6.909
 9108SOL     OW28222   5.141   4.465   5.367
 9108SOL    HW128223   5.043   4.481   5.364
 9108SOL    HW228224   5.178   4.505   5.451
 9109SOL     OW28225   2.495   2.144   3.229
 9109SOL    HW128226   2.586   2.113   3.257
 9109SOL    HW228227   2.434   2.065   3.221
 9110SOL     OW28228   2.110   5.141   3.529
 9110SOL    HW128229   2.081   5.157   3.435
 9110SOL    HW228230   2.205   5.112   3.531
 9111SOL     OW28231   3.537   4.230   1.306
 9111SOL    HW128232   3.596   4.302   1.269
 9111SOL    HW228233   3.481   4.191   1.232
 9112SOL     OW28234   0.763   3.426   3.524
 9112SOL    HW128235   0.720   3.516   3.529
 9112SOL    HW228236   0.693   3.355   3.529
 9113SOL     OW28237   5.154   0.928   0.069
 9113SOL    HW128238   5.242   0.887   0.092
 9113SOL    HW228239   5.083   0.858   0.071
 9114SOL     OW28240   2.389   4.351   2.019
 9114SOL    HW128241   2.450   4.405   1.962
 9114SOL    HW228242   2.351   4.408   2.092
 9115SOL     OW28243   0.908   4.931   4.148
 9115SOL    HW128244   0.837   4.861   4.137
 9115SOL    HW228245   0.998   4.891   4.129
 9116SOL     OW28246   0.067   1.826   6.380
 9116SOL    HW128247   0.125   1.907   6.379
 9116SOL    HW228248   0.073   1.781   6.468
 9117SOL     OW28249   6.415   3.054   6.473
 9117SOL    HW128250   6.443   3.004   6.555
 9117SOL    HW228251   6.397   3.149   6.496
 9118SOL     OW28252   6.369   0.182   1.337
 9118SOL    HW128253   6.315   0.241   1.397
 9118SOL    HW228254   6.437   0.133   1.392
 9119SOL     OW28255   5.469   1.097   2.451
 9119SOL    HW128256   5.419   1.055   2.375
 9119SOL    HW228257   5.413   1.093   2.534
 9120SOL     OW28258   5.505   2.441   6.165
 9120SOL    HW128259   5.410   2.439   6.197
 9120SOL    HW228260   5.510   2.497   6.082
 9121SOL     OW28261   0.473   3.411   5.333
 9121SOL    HW128262   0.491   3.391   5.237
 9121SOL    HW228263   0.542   3.474   5.367
 9122SOL     OW28264   1.472   2.505   2.260
 9122SOL    HW128265   1.532   2.494   2.339
 9122SOL    HW228266   1.432   2.417   2.236
 9123SOL     OW28267   3.358   6.294   5.088
 9123SOL    HW128268   3.358   6.360   5.013
 9123SOL    HW228269   3.418   6.326   5.161
 9124SOL     OW28270   6.224   5.213   5.429
 9124SOL    HW128271   6.284   5.251   5.359
 9124SOL    HW228272   6.249   5.249   5.518
 9125SOL     OW28273   4.728   4.147   3.406
 9125SOL    HW128274   4.689   4.073   3.350
 9125SOL    HW228275   4.797   4.109   3.468
 9126SOL     OW28276   6.283   1.358   2.157
 9126SOL    HW128277   6.220   1.354   2.234
 9126SOL    HW228278   6.348   1.432   2.170
 9127SOL     OW28279   5.831   6.946   5.728
 9127SOL    HW128280   5.852   0.019   5.693
 9127SOL    HW228281   5.759   6.905   5.672
 9128SOL     OW28282   4.179   1.654   5.159
 9128SOL    HW128283   4.203   1.572   5.108
 9128SOL    HW228284   4.250   1.674   5.227
 9129SOL     OW28285   1.914   3.688   0.352
 9129SOL    HW128286   2.012   3.682   0.332
 9129SOL    HW228287   1.887   3.608   0.406
 9130SOL     OW28288   0.251   4.380   6.687
 9130SOL    HW128289   0.249   4.455   6.753
 9130SOL    HW228290   0.269   4.417   6.596
 9131SOL     OW28291   6.983   3.932   4.839
 9131SOL    HW128292   0.038   3.976   4.891
 9131SOL    HW228293   6.896   3.972   4.865
 9132SOL     OW28294   6.976   3.993   3.682
 9132SOL    HW128295   6.978   4.063   3.611
 9132SOL    HW228296   0.050   3.973   3.712
 9133SOL     OW28297   3.037   4.904   0.935
 9133SOL    HW128298   2.987   4.955   0.864
 9133SOL    HW228299   3.119   4.955   0.961
 9134SOL     OW28300   3.283   6.863   0.548
 9134SOL    HW128301   3.322   6.848   0.456
 9134SOL    HW228302   3.331   6.804   0.613
 9135SOL     OW28303   0.233   6.978   2.139
 9135SOL    HW128304   0.294   6.931   2.075
 9135SOL    HW228305   0.270   0.050   2.160
 9136SOL     OW28306   4.686   5.018   5.581
 9136SOL    HW128307   4.659   4.955   5.507
 9136SOL    HW228308   4.721   4.965   5.658
 9137SOL     OW28309   5.952   1.227   0.881
 9137SOL    HW128310   6.024   1.287   0.916
 9137SOL    HW228311   5.993   1.144   0.843
 9138SOL     OW28312   6.598   4.965   5.809
 9138SOL    HW128313   6.575   5.063   5.805
 9138SOL    HW228314   6.672   4.946   5.745
 9139SOL     OW28315   2.328   1.339   5.008
 9139SOL    HW128316   2.422   1.330   5.038
 9139SOL    HW228317   2.296   1.251   4.971
 9140SOL     OW28318   6.452   2.503   2.435
 9140SOL    HW128319   6.477   2.588   2.389
 9140SOL    HW228320   6.521   2.433   2.417
 9141SOL     OW28321   5.602   6.627   6.659
 9141SOL    HW128322   5.551   6.575   6.591
 9141SOL    HW228323   5.696   6.592   6.664
 9142SOL     OW28324   0.244   2.596   5.226
 9142SOL    HW128325   0.334   2.637   5.239
 9142SOL    HW228326   0.173   2.659   5.258
 9143SOL     OW28327   4.897   3.853   0.189
 9143SOL    HW128328   4.851   3.847   0.277
 9143SOL    HW228329   4.890   3.946   0.153
 9144SOL     OW28330   2.173   5.219   6.130
 9144SOL    HW128331   2.255   5.259   6.172
 9144SOL    HW228332   2.157   5.261   6.041
 9145SOL     OW28333   0.343   5.066   0.919
 9145SOL    HW128334   0.323   5.153   0.965
 9145SOL    HW228335   0.410   5.015   0.972
 9146SOL     OW28336   5.119   1.636   1.516
 9146SOL    HW128337   5.151   1.571   1.585
 9146SOL    HW228338   5.019   1.638   1.516
 9147SOL     OW28339   5.696   6.719   4.514
 9147SOL    HW128340   5.772   6.778   4.539
 9147SOL    HW228341   5.615   6.745   4.567
 9148SOL     OW28342   5.775   6.754   1.427
 9148SOL    HW128343   5.861   6.743   1.377
 9148SOL    HW228344   5.751   6.667   1.471
 9149SOL     OW28345   5.050   2.625   4.327
 9149SOL    HW128346   5.032   2.701   4.390
 9149SOL    HW228347   5.146   2.598   4.334
 9150SOL     OW28348   3.651   5.676   3.505
 9150SOL    HW128349   3.703   5.721   3.433
 9150SOL    HW228350   3.608   5.593   3.469
 9151SOL     OW28351   1.112   4.111   2.777
 9151SOL    HW128352   1.023   4.098   2.821
 9151SOL    HW228353   1.161   4.023   2.774
 9152SOL     OW28354   2.356   5.611   4.302
 9152SOL    HW128355   2.343   5.710   4.305
 9152SOL    HW228356   2.452   5.591   4.285
 9153SOL     OW28357   1.712   3.287   0.580
 9153SOL    HW128358   1.697   3.268   0.483
 9153SOL    HW228359   1.636   3.251   0.633
 9154SOL     OW28360   2.759   4.986   6.769
 9154SOL    HW128361   2.822   5.001   6.846
 9154SOL    HW228362   2.782   4.900   6.724
 9155SOL     OW28363   1.986   3.964   0.417
 9155SOL    HW128364   1.937   3.884   0.382
 9155SOL    HW228365   2.050   3.997   0.348
 9156SOL     OW28366   2.927   2.962   1.182
 9156SOL    HW128367   2.861   2.992   1.113
 9156SOL    HW228368   3.017   3.000   1.162
 9157SOL     OW28369   6.177   4.638   5.716
 9157SOL    HW128370   6.118   4.711   5.750
 9157SOL    HW228371   6.267   4.645   5.760
 9158SOL     OW28372   6.362   3.461   4.964
 9158SOL    HW128373   6.324   3.510   5.042
 9158SOL    HW228374   6.331   3.366   4.965
 9159SOL     OW28375   0.994   6.314   3.889
 9159SOL    HW128376   0.934   6.362   3.953
 9159SOL    HW228377   1.034   6.234   3.933
 9160SOL     OW28378   6.606   0.607   5.098
 9160SOL    HW128379   6.666   0.553   5.039
 9160SOL    HW228380   6.511   0.579   5.084
 9161SOL     OW28381   4.758   4.227   4.139
 9161SOL    HW128382   4.836   4.196   4.085
 9161SOL    HW228383   4.677   4.236   4.080
 9162SOL     OW28384   4.870   1.870   3.510
 9162SOL    HW128385   4.900   1.932   3.583
 9162SOL    HW228386   4.780   1.832   3.533
 9163SOL     OW28387   1.949   3.210   3.696
 9163SOL    HW128388   1.909   3.119   3.686
 9163SOL    HW228389   1.914   3.270   3.624
 9164SOL     OW28390   2.761   1.085   6.867
 9164SOL    HW128391   2.674   1.076   6.819
 9164SOL    HW228392   2.832   1.113   6.803
 9165SOL     OW28393   6.319   1.514   5.958
 9165SOL    HW128394   6.226   1.546   5.976
 9165SOL    HW228395   6.354   1.556   5.875
 9166SOL     OW28396   4.805   6.000   0.931
 9166SOL    HW128397   4.842   5.925   0.984
 9166SOL    HW228398   4.764   6.068   0.992
 9167SOL     OW28399   1.846   3.429   6.552
 9167SOL    HW128400   1.868   3.519   6.516
 9167SOL    HW228401   1.830   3.366   6.476
 9168SOL     OW28402   0.898   6.671   5.473
 9168SOL    HW128403   0.906   6.755   5.527
 9168SOL    HW228404   0.961   6.675   5.395
 9169SOL     OW28405   6.972   1.408   4.828
 9169SOL    HW128406   6.934   1.315   4.826
 9169SOL    HW228407   0.049   1.406   4.799
 9170SOL     OW28408   0.478   4.855   0.044
 9170SOL    HW128409   0.476   4.772   0.100
 9170SOL    HW228410   0.572   4.879   0.024
 9171SOL     OW28411   3.261   5.510   0.228
 9171SOL    HW128412   3.184   5.484   0.171
 9171SOL    HW228413   3.346   5.499   0.177
 9172SOL     OW28414   3.068   0.969   5.187
 9172SOL    HW128415   2.980   0.966   5.139
 9172SOL    HW228416   3.072   0.895   5.254
 9173SOL     OW28417   6.287   4.122   4.880
 9173SOL    HW128418   6.265   4.194   4.947
 9173SOL    HW228419   6.337   4.162   4.804
 9174SOL     OW28420   6.535   4.362   1.030
 9174SOL    HW128421   6.620   4.405   1.057
 9174SOL    HW228422   6.468   4.432   1.003
 9175SOL     OW28423   1.802   6.887   5.048
 9175SOL    HW128424   1.891   6.885   5.003
 9175SOL    HW228425   1.806   6.946   5.129
 9176SOL     OW28426   2.729   0.982   5.376
 9176SOL    HW128427   2.720   0.882   5.378
 9176SOL    HW228428   2.693   1.020   5.461
 9177SOL     OW28429   1.519   5.221   4.632
 9177SOL    HW128430   1.542   5.213   4.535
 9177SOL    HW228431   1.546   5.311   4.666
 9178SOL     OW28432   1.681   5.583   0.822
 9178SOL    HW128433   1.604   5.520   0.819
 9178SOL    HW228434   1.675   5.639   0.905
 9179SOL     OW28435   3.493   5.780   3.753
 9179SOL    HW128436   3.529   5.746   3.667
 9179SOL    HW228437   3.545   5.740   3.829
 9180SOL     OW28438   5.753   2.348   3.041
 9180SOL    HW128439   5.833   2.334   2.983
 9180SOL    HW228440   5.749   2.275   3.110
 9181SOL     OW28441   4.061   2.159   3.580
 9181SOL    HW128442   3.969   2.177   3.547
 9181SOL    HW228443   4.057   2.103   3.663
 9182SOL     OW28444   2.196   6.733   2.387
 9182SOL    HW128445   2.231   6.669   2.455
 9182SOL    HW228446   2.248   6.818   2.391
 9183SOL     OW28447   5.100   6.524   0.356
 9183SOL    HW128448   5.180   6.466   0.343
 9183SOL    HW228449   5.032   6.503   0.286
 9184SOL     OW28450   4.956   1.637   0.158
 9184SOL    HW128451   4.929   1.543   0.181
 9184SOL    HW228452   5.044   1.657   0.199
 9185SOL     OW28453   4.550   6.538   4.952
 9185SOL    HW128454   4.509   6.604   5.015
 9185SOL    HW228455   4.496   6.454   4.951
 9186SOL     OW28456   5.978   0.566   4.120
 9186SOL    HW128457   6.074   0.555   4.146
 9186SOL    HW228458   5.927   0.603   4.197
 9187SOL     OW28459   2.486   0.982   1.424
 9187SOL    HW128460   2.575   0.939   1.440
 9187SOL    HW228461   2.470   1.053   1.492
 9188SOL     OW28462   2.302   6.672   2.132
 9188SOL    HW128463   2.310   6.577   2.100
 9188SOL    HW228464   2.319   6.675   2.230
 9189SOL     OW28465   5.692   6.040   1.692
 9189SOL    HW128466   5.644   6.101   1.753
 9189SOL    HW228467   5.781   6.016   1.731
 9190SOL     OW28468   1.780   4.876   0.102
 9190SOL    HW128469   1.844   4.816   0.151
 9190SOL    HW228470   1.826   4.917   0.023
 9191SOL     OW28471   5.813   0.568   5.938
 9191SOL    HW128472   5.746   0.628   5.982
 9191SOL    HW228473   5.867   0.521   6.008
 9192SOL     OW28474   0.589   4.406   5.700
 9192SOL    HW128475   0.568   4.503   5.716
 9192SOL    HW228476   0.576   4.355   5.784
 9193SOL     OW28477   4.617   4.955   0.364
 9193SOL    HW128478   4.547   4.989   0.302
 9193SOL    HW228479   4.586   4.869   0.406
 9194SOL     OW28480   3.006   0.794   3.091
 9194SOL    HW128481   2.910   0.798   3.119
 9194SOL    HW228482   3.058   0.863   3.141
 9195SOL     OW28483   1.609   2.269   4.286
 9195SOL    HW128484   1.686   2.245   4.346
 9195SOL    HW228485   1.639   2.335   4.218
 9196SOL     OW28486   3.985   0.511   3.926
 9196SOL    HW128487   4.057   0.448   3.958
 9196SOL    HW228488   4.028   0.588   3.877
 9197SOL     OW28489   1.850   4.671   1.856
 9197SOL    HW128490   1.867   4.759   1.811
 9197SOL    HW228491   1.902   4.599   1.811
 9198SOL     OW28492   6.544   4.957   6.096
 9198SOL    HW128493   6.499   4.899   6.164
 9198SOL    HW228494   6.524   4.924   6.004
 9199SOL     OW28495   1.111   3.268   6.279
 9199SOL    HW128496   1.204   3.307   6.283
 9199SOL    HW228497   1.067   3.280   6.368
 9200SOL     OW28498   3.072   0.327   0.563
 9200SOL    HW128499   3.039   0.418   0.587
 9200SOL    HW228500   3.113   0.329   0.472
 9201SOL     OW28501   0.500   2.862   0.651
 9201SOL    HW128502   0.406   2.834   0.632
 9201SOL    HW228503   0.499   2.951   0.696
 9202SOL     OW28504   1.565   6.540   3.092
 9202SOL    HW128505   1.563   6.640   3.094
 9202SOL    HW228506   1.630   6.507   3.160
 9203SOL     OW28507   0.730   5.194   6.846
 9203SOL    HW128508   0.633   5.191   6.821
 9203SOL    HW228509   0.739   5.189   6.946
 9204SOL     OW28510   3.989   2.411   6.857
 9204SOL    HW128511   3.927   2.451   6.924
 9204SOL    HW228512   4.034   2.484   6.805
 9205SOL     OW28513   5.566   4.666   2.750
 9205SOL    HW128514   5.648   4.656   2.808
 9205SOL    HW228515   5.500   4.723   2.798
 9206SOL     OW28516   4.107   5.190   1.746
 9206SOL    HW128517   4.061   5.214   1.832
 9206SOL    HW228518   4.042   5.196   1.671
 9207SOL     OW28519   4.330   4.859   6.746
 9207SOL    HW128520   4.360   4.918   6.671
 9207SOL    HW228521   4.321   4.914   6.829
 9208SOL     OW28522   5.850   4.106   4.003
 9208SOL    HW128523   5.774   4.114   4.067
 9208SOL    HW228524   5.857   4.011   3.972
 9209SOL     OW28525   3.102   0.843   0.164
 9209SOL    HW128526   3.184   0.846   0.108
 9209SOL    HW228527   3.028   0.892   0.117
 9210SOL     OW28528   6.756   1.219   3.008
 9210SOL    HW128529   6.797   1.261   3.089
 9210SOL    HW228530   6.669   1.177   3.033
 9211SOL     OW28531   6.205   3.281   4.540
 9211SOL    HW128532   6.157   3.278   4.452
 9211SOL    HW228533   6.163   3.215   4.603
 9212SOL     OW28534   4.232   5.393   4.253
 9212SOL    HW128535   4.233   5.406   4.353
 9212SOL    HW228536   4.139   5.406   4.219
 9213SOL     OW28537   5.448   3.279   6.087
 9213SOL    HW128538   5.534   3.327   6.105
 9213SOL    HW228539   5.386   3.340   6.038
 9214SOL     OW28540   0.050   5.926   5.999
 9214SOL    HW128541   0.095   5.883   5.920
 9214SOL    HW228542   6.991   5.870   6.027
 9215SOL     OW28543   1.423   2.479   6.928
 9215SOL    HW128544   1.409   2.534   6.846
 9215SOL    HW228545   1.402   2.384   6.908
 9216SOL     OW28546   2.725   0.443   2.816
 9216SOL    HW128547   2.797   0.511   2.823
 9216SOL    HW228548   2.643   0.475   2.863
 9217SOL     OW28549   0.271   0.584   6.255
 9217SOL    HW128550   0.359   0.603   6.213
 9217SOL    HW228551   0.231   0.502   6.215
 9218SOL     OW28552   3.666   6.434   0.593
 9218SOL    HW128553   3.590   6.426   0.658
 9218SOL    HW228554   3.646   6.507   0.528
 9219SOL     OW28555   6.924   2.625   0.375
 9219SOL    HW128556   6.868   2.551   0.413
 9219SOL    HW228557   7.018   2.591   0.361
 9220SOL     OW28558   2.190   6.787   1.124
 9220SOL    HW128559   2.267   6.846   1.101
 9220SOL    HW228560   2.106   6.827   1.089
 9221SOL     OW28561   3.131   0.798   4.170
 9221SOL    HW128562   3.047   0.837   4.209
 9221SOL    HW228563   3.119   0.782   4.073
 9222SOL     OW28564   2.444   6.886   6.846
 9222SOL    HW128565   2.390   6.963   6.879
 9222SOL    HW228566   2.514   6.919   6.783
 9223SOL     OW28567   1.668   1.821   4.216
 9223SOL    HW128568   1.593   1.888   4.216
 9223SOL    HW228569   1.737   1.849   4.149
 9224SOL     OW28570   2.438   5.352   5.375
 9224SOL    HW128571   2.381   5.400   5.309
 9224SOL    HW228572   2.493   5.417   5.427
 9225SOL     OW28573   3.610   0.094   6.003
 9225SOL    HW128574   3.686   0.156   5.988
 9225SOL    HW228575   3.607   0.067   6.099
 9226SOL     OW28576   5.816   0.154   1.986
 9226SOL    HW128577   5.880   0.080   1.968
 9226SOL    HW228578   5.754   0.129   2.060
 9227SOL     OW28579   0.863   5.171   1.498
 9227SOL    HW128580   0.917   5.102   1.450
 9227SOL    HW228581   0.879   5.163   1.597
 9228SOL     OW28582   1.651   0.524   6.267
 9228SOL    HW128583   1.695   0.517   6.177
 9228SOL    HW228584   1.553   0.509   6.257
 9229SOL     OW28585   1.408   5.642   4.565
 9229SOL    HW128586   1.340   5.584   4.609
 9229SOL    HW228587   1.365   5.728   4.537
 9230SOL     OW28588   5.981   1.076   3.191
 9230SOL    HW128589   6.010   1.021   3.269
 9230SOL    HW228590   5.955   1.167   3.222
 9231SOL     OW28591   1.471   4.579   4.603
 9231SOL    HW128592   1.466   4.623   4.513
 9231SOL    HW228593   1.442   4.643   4.673
 9232SOL     OW28594   2.968   5.496   0.943
 9232SOL    HW128595   2.943   5.402   0.919
 9232SOL    HW228596   3.068   5.505   0.944
 9233SOL     OW28597   5.237   5.600   1.408
 9233SOL    HW128598   5.275   5.613   1.317
 9233SOL    HW228599   5.260   5.509   1.441
 9234SOL     OW28600   3.541   5.293   4.988
 9234SOL    HW128601   3.639   5.302   4.970
 9234SOL    HW228602   3.504   5.216   4.936
 9235SOL     OW28603   1.299   2.492   3.821
 9235SOL    HW128604   1.233   2.524   3.752
 9235SOL    HW228605   1.272   2.401   3.853
 9236SOL     OW28606   2.668   4.259   5.681
 9236SOL    HW128607   2.713   4.268   5.770
 9236SOL    HW228608   2.734   4.226   5.614
 9237SOL     OW28609   2.211   4.943   5.088
 9237SOL    HW128610   2.308   4.929   5.069
 9237SOL    HW228611   2.158   4.865   5.056
 9238SOL     OW28612   4.239   1.713   6.039
 9238SOL    HW128613   4.252   1.807   6.006
 9238SOL    HW228614   4.169   1.668   5.983
 9239SOL     OW28615   0.417   3.823   1.461
 9239SOL    HW128616   0.376   3.783   1.379
 9239SOL    HW228617   0.490   3.763   1.494
 9240SOL     OW28618   5.716   1.587   0.718
 9240SOL    HW128619   5.726   1.488   0.708
 9240SOL    HW228620   5.620   1.609   0.740
 9241SOL     OW28621   0.573   5.976   6.430
 9241SOL    HW128622   0.620   5.937   6.350
 9241SOL    HW228623   0.503   5.913   6.462
 9242SOL     OW28624   6.473   5.675   1.033
 9242SOL    HW128625   6.490   5.600   0.969
 9242SOL    HW228626   6.499   5.645   1.125
 9243SOL     OW28627   5.791   6.344   2.698
 9243SOL    HW128628   5.783   6.423   2.760
 9243SOL    HW228629   5.882   6.344   2.656
 9244SOL     OW28630   4.933   5.657   5.856
 9244SOL    HW128631   4.978   5.571   5.832
 9244SOL    HW228632   4.995   5.714   5.910
 9245SOL     OW28633   1.544   5.524   3.072
 9245SOL    HW128634   1.504   5.610   3.039
 9245SOL    HW228635   1.571   5.468   2.994
 9246SOL     OW28636   6.968   4.743   3.041
 9246SOL    HW128637   0.044   4.714   3.053
 9246SOL    HW228638   6.942   4.733   2.945
 9247SOL     OW28639   1.228   7.001   3.365
 9247SOL    HW128640   1.246   0.059   3.303
 9247SOL    HW228641   1.190   0.017   3.450
 9248SOL     OW28642   1.712   2.583   6.379
 9248SOL    HW128643   1.621   2.547   6.401
 9248SOL    HW228644   1.758   2.519   6.317
 9249SOL     OW28645   5.379   3.132   6.311
 9249SOL    HW128646   5.386   3.193   6.232
 9249SOL    HW228647   5.296   3.154   6.363
 9250SOL     OW28648   5.209   3.347   5.085
 9250SOL    HW128649   5.128   3.369   5.031
 9250SOL    HW228650   5.236   3.252   5.070
 9251SOL     OW28651   3.514   2.125   3.064
 9251SOL    HW128652   3.598   2.115   3.117
 9251SOL    HW228653   3.537   2.142   2.968
 9252SOL     OW28654   6.267   0.008   4.332
 9252SOL    HW128655   6.340   0.074   4.350
 9252SOL    HW228656   6.233   0.022   4.238
 9253SOL     OW28657   4.712   5.821   5.960
 9253SOL    HW128658   4.645   5.768   6.013
 9253SOL    HW228659   4.797   5.769   5.952
 9254SOL     OW28660   6.240   4.457   1.825
 9254SOL    HW128661   6.175   4.473   1.899
 9254SOL    HW228662   6.190   4.438   1.740
 9255SOL     OW28663   5.454   2.962   0.232
 9255SOL    HW128664   5.427   2.948   0.328
 9255SOL    HW228665   5.373   2.985   0.178
 9256SOL     OW28666   3.995   4.737   3.029
 9256SOL    HW128667   3.950   4.821   3.060
 9256SOL    HW228668   4.084   4.728   3.074
 9257SOL     OW28669   0.809   3.791   2.718
 9257SOL    HW128670   0.897   3.755   2.750
 9257SOL    HW228671   0.794   3.765   2.623
 9258SOL     OW28672   4.086   3.374   3.822
 9258SOL    HW128673   4.106   3.368   3.724
 9258SOL    HW228674   4.064   3.282   3.857
 9259SOL     OW28675   1.819   2.380   1.078
 9259SOL    HW128676   1.721   2.390   1.096
 9259SOL    HW228677   1.855   2.304   1.133
 9260SOL     OW28678   5.201   1.470   5.662
 9260SOL    HW128679   5.279   1.508   5.711
 9260SOL    HW228680   5.218   1.473   5.564
 9261SOL     OW28681   4.804   0.480   6.287
 9261SOL    HW128682   4.898   0.445   6.282
 9261SOL    HW228683   4.792   0.531   6.372
 9262SOL     OW28684   6.306   3.149   5.695
 9262SOL    HW128685   6.246   3.228   5.708
 9262SOL    HW228686   6.320   3.134   5.597
 9263SOL     OW28687   6.466   3.921   0.793
 9263SOL    HW128688   6.450   3.953   0.887
 9263SOL    HW228689   6.380   3.891   0.753
 9264SOL     OW28690   5.653   4.011   0.315
 9264SOL    HW128691   5.591   4.013   0.237
 9264SOL    HW228692   5.602   3.983   0.397
 9265SOL     OW28693   3.356   1.398   0.472
 9265SOL    HW128694   3.417   1.334   0.519
 9265SOL    HW228695   3.338   1.476   0.531
 9266SOL     OW28696   1.549   5.813   2.079
 9266SOL    HW128697   1.614   5.781   2.148
 9266SOL    HW228698   1.579   5.901   2.044
 9267SOL     OW28699   6.789   3.835   5.608
 9267SOL    HW128700   6.761   3.756   5.555
 9267SOL    HW228701   6.715   3.903   5.608
 9268SOL     OW28702   0.859   6.182   1.534
 9268SOL    HW128703   0.850   6.112   1.605
 9268SOL    HW228704   0.770   6.226   1.519
 9269SOL     OW28705   3.389   2.608   6.666
 9269SOL    HW128706   3.398   2.587   6.763
 9269SOL    HW228707   3.479   2.609   6.623
 9270SOL     OW28708   4.904   6.954   5.703
 9270SOL    HW128709   4.938   6.955   5.609
 9270SOL    HW228710   4.824   7.014   5.711
 9271SOL     OW28711   1.490   5.953   0.402
 9271SOL    HW128712   1.569   6.003   0.436
 9271SOL    HW228713   1.518   5.861   0.375
 9272SOL     OW28714   3.253   4.985   5.612
 9272SOL    HW128715   3.172   4.984   5.553
 9272SOL    HW228716   3.226   4.960   5.705
 9273SOL     OW28717   5.146   5.908   3.802
 9273SOL    HW128718   5.217   5.890   3.734
 9273SOL    HW228719   5.175   5.984   3.861
 9274SOL     OW28720   6.365   2.666   0.091
 9274SOL    HW128721   6.360   2.661   7.010
 9274SOL    HW228722   6.305   2.740   0.123
 9275SOL     OW28723   0.695   1.818   6.979
 9275SOL    HW128724   0.741   1.850   6.897
 9275SOL    HW228725   0.620   1.881   7.002
 9276SOL     OW28726   2.783   4.748   4.260
 9276SOL    HW128727   2.737   4.664   4.288
 9276SOL    HW228728   2.795   4.748   4.160
 9277SOL     OW28729   3.713   3.533   6.850
 9277SOL    HW128730   3.628   3.482   6.832
 9277SOL    HW228731   3.772   3.478   6.910
 9278SOL     OW28732   1.903   1.382   3.986
 9278SOL    HW128733   1.839   1.320   4.031
 9278SOL    HW228734   1.865   1.475   3.987
 9279SOL     OW28735   4.606   0.701   1.517
 9279SOL    HW128736   4.519   0.678   1.474
 9279SOL    HW228737   4.681   0.680   1.453
 9280SOL     OW28738   1.947   0.264   3.455
 9280SOL    HW128739   1.969   0.288   3.550
 9280SOL    HW228740   2.017   0.301   3.394
 9281SOL     OW28741   3.240   3.894   1.115
 9281SOL    HW128742   3.272   3.887   1.021
 9281SOL    HW228743   3.314   3.870   1.178
 9282SOL     OW28744   4.335   1.999   4.525
 9282SOL    HW128745   4.286   1.936   4.465
 9282SOL    HW228746   4.284   2.084   4.533
 9283SOL     OW28747   5.871   0.948   2.790
 9283SOL    HW128748   5.891   0.991   2.879
 9283SOL    HW228749   5.776   0.917   2.789
 9284SOL     OW28750   3.682   5.204   6.986
 9284SOL    HW128751   3.618   5.179   0.040
 9284SOL    HW228752   3.772   5.219   0.006
 9285SOL     OW28753   5.302   3.423   0.027
 9285SOL    HW128754   5.214   3.466   0.047
 9285SOL    HW228755   5.304   3.331   0.064
 9286SOL     OW28756   5.267   0.271   5.535
 9286SOL    HW128757   5.324   0.257   5.617
 9286SOL    HW228758   5.303   0.214   5.460
 9287SOL     OW28759   2.994   5.851   0.555
 9287SOL    HW128760   3.072   5.891   0.507
 9287SOL    HW228761   2.909   5.890   0.519
 9288SOL     OW28762   2.794   1.645   5.469
 9288SOL    HW128763   2.844   1.711   5.527
 9288SOL    HW228764   2.848   1.561   5.461
 9289SOL     OW28765   3.652   1.776   2.187
 9289SOL    HW128766   3.663   1.732   2.276
 9289SOL    HW228767   3.564   1.749   2.147
 9290SOL     OW28768   4.584   1.950   4.264
 9290SOL    HW128769   4.565   2.048   4.267
 9290SOL    HW228770   4.539   1.905   4.341
 9291SOL     OW28771   2.370   0.406   5.033
 9291SOL    HW128772   2.280   0.390   4.992
 9291SOL    HW228773   2.379   0.503   5.055
 9292SOL     OW28774   6.415   3.319   6.143
 9292SOL    HW128775   6.332   3.269   6.169
 9292SOL    HW228776   6.450   3.369   6.222
 9293SOL     OW28777   6.454   3.992   1.066
 9293SOL    HW128778   6.546   4.010   1.031
 9293SOL    HW228779   6.415   4.075   1.105
 9294SOL     OW28780   3.323   6.224   5.878
 9294SOL    HW128781   3.261   6.280   5.823
 9294SOL    HW228782   3.347   6.274   5.962
 9295SOL     OW28783   5.126   2.226   3.784
 9295SOL    HW128784   5.213   2.177   3.782
 9295SOL    HW228785   5.065   2.184   3.851
 9296SOL     OW28786   0.260   6.019   6.663
 9296SOL    HW128787   0.292   5.935   6.620
 9296SOL    HW228788   0.332   6.056   6.722
 9297SOL     OW28789   0.259   0.749   1.249
 9297SOL    HW128790   0.189   0.766   1.180
 9297SOL    HW228791   0.306   0.663   1.228
 9298SOL     OW28792   2.121   6.385   5.449
 9298SOL    HW128793   2.141   6.350   5.541
 9298SOL    HW228794   2.194   6.447   5.420
 9299SOL     OW28795   0.955   2.873   4.505
 9299SOL    HW128796   0.885   2.833   4.564
 9299SOL    HW228797   0.937   2.971   4.494
 9300SOL     OW28798   0.371   4.984   4.609
 9300SOL    HW128799   0.292   5.037   4.578
 9300SOL    HW228800   0.391   4.912   4.541
 9301SOL     OW28801   4.643   4.731   3.760
 9301SOL    HW128802   4.703   4.657   3.730
 9301SOL    HW228803   4.657   4.746   3.858
 9302SOL     OW28804   2.077   3.084   4.376
 9302SOL    HW128805   2.018   3.123   4.447
 9302SOL    HW228806   2.119   3.159   4.323
 9303SOL     OW28807   3.865   6.224   0.964
 9303SOL    HW128808   3.944   6.237   0.903
 9303SOL    HW228809   3.781   6.253   0.917
 9304SOL     OW28810   4.321   4.022   0.983
 9304SOL    HW128811   4.300   4.109   1.028
 9304SOL    HW228812   4.339   3.952   1.053
 9305SOL     OW28813   4.039   1.457   1.683
 9305SOL    HW128814   4.072   1.518   1.611
 9305SOL    HW228815   3.942   1.439   1.669
 9306SOL     OW28816   0.418   4.741   4.813
 9306SOL    HW128817   0.375   4.790   4.737
 9306SOL    HW228818   0.499   4.792   4.843
 9307SOL     OW28819   1.442   3.412   1.582
 9307SOL    HW128820   1.473   3.355   1.506
 9307SOL    HW228821   1.493   3.498   1.582
 9308SOL     OW28822   0.906   3.875   1.218
 9308SOL    HW128823   0.888   3.789   1.170
 9308SOL    HW228824   1.003   3.897   1.214
 9309SOL     OW28825   3.405   5.099   5.370
 9309SOL    HW128826   3.360   5.057   5.290
 9309SOL    HW228827   3.352   5.078   5.452
 9310SOL     OW28828   4.633   5.727   6.397
 9310SOL    HW128829   4.542   5.740   6.359
 9310SOL    HW228830   4.673   5.643   6.360
 9311SOL     OW28831   6.090   4.862   1.609
 9311SOL    HW128832   5.992   4.885   1.612
 9311SOL    HW228833   6.138   4.917   1.677
 9312SOL     OW28834   1.709   4.107   1.461
 9312SOL    HW128835   1.764   4.030   1.494
 9312SOL    HW228836   1.769   4.186   1.444
 9313SOL     OW28837   0.424   0.971   1.140
 9313SOL    HW128838   0.436   0.896   1.205
 9313SOL    HW228839   0.481   1.048   1.167
 9314SOL     OW28840   3.933   5.264   6.076
 9314SOL    HW128841   3.939   5.352   6.122
 9314SOL    HW228842   3.845   5.256   6.030
 9315SOL     OW28843   6.390   0.968   5.623
 9315SOL    HW128844   6.339   0.883   5.634
 9315SOL    HW228845   6.440   0.966   5.536
 9316SOL     OW28846   4.105   5.285   5.278
 9316SOL    HW128847   4.098   5.205   5.218
 9316SOL    HW228848   4.198   5.292   5.314
 9317SOL     OW28849   6.496   5.724   3.045
 9317SOL    HW128850   6.425   5.789   3.074
 9317SOL    HW228851   6.481   5.701   2.948
 9318SOL     OW28852   6.706   1.043   4.877
 9318SOL    HW128853   6.682   0.996   4.792
 9318SOL    HW228854   6.622   1.066   4.927
 9319SOL     OW28855   0.472   2.728   5.607
 9319SOL    HW128856   0.390   2.784   5.619
 9319SOL    HW228857   0.553   2.786   5.613
 9320SOL     OW28858   4.494   2.031   6.916
 9320SOL    HW128859   4.570   2.064   6.859
 9320SOL    HW228860   4.495   1.931   6.918
 9321SOL     OW28861   5.747   6.926   2.605
 9321SOL    HW128862   5.664   6.964   2.645
 9321SOL    HW228863   5.824   6.942   2.667
 9322SOL     OW28864   6.833   6.112   6.436
 9322SOL    HW128865   6.895   6.131   6.359
 9322SOL    HW228866   6.884   6.075   6.512
 9323SOL     OW28867   2.153   6.950   5.703
 9323SOL    HW128868   2.221   6.996   5.645
 9323SOL    HW228869   2.071   7.007   5.711
 9324SOL     OW28870   1.507   5.135   0.554
 9324SOL    HW128871   1.572   5.132   0.630
 9324SOL    HW228872   1.483   5.230   0.533
 9325SOL     OW28873   5.169   1.696   0.305
 9325SOL    HW128874   5.188   1.787   0.342
 9325SOL    HW228875   5.226   1.628   0.351
 9326SOL     OW28876   2.412   6.925   1.042
 9326SOL    HW128877   2.501   6.904   1.003
 9326SOL    HW228878   2.417   7.013   1.091
 9327SOL     OW28879   4.813   6.561   2.506
 9327SOL    HW128880   4.810   6.646   2.560
 9327SOL    HW228881   4.726   6.512   2.517
 9328SOL     OW28882   3.871   1.016   5.877
 9328SOL    HW128883   3.943   1.059   5.931
 9328SOL    HW228884   3.847   1.075   5.800
 9329SOL     OW28885   6.996   4.082   2.106
 9329SOL    HW128886   0.019   3.992   2.099
 9329SOL    HW228887   0.044   4.146   2.145
 9330SOL     OW28888   0.421   6.240   0.041
 9330SOL    HW128889   0.396   6.330   0.078
 9330SOL    HW228890   0.519   6.226   0.053
 9331SOL     OW28891   1.068   1.280   5.868
 9331SOL    HW128892   1.084   1.361   5.924
 9331SOL    HW228893   1.084   1.198   5.922
 9332SOL     OW28894   3.897   3.968   2.964
 9332SOL    HW128895   3.840   3.892   2.934
 9332SOL    HW228896   3.849   4.019   3.035
 9333SOL     OW28897   4.712   3.767   1.547
 9333SOL    HW128898   4.706   3.837   1.476
 9333SOL    HW228899   4.683   3.806   1.634
 9334SOL     OW28900   3.886   0.035   3.757
 9334SOL    HW128901   3.917   6.997   3.834
 9334SOL    HW228902   3.852   0.122   3.792
 9335SOL     OW28903   1.058   0.941   6.048
 9335SOL    HW128904   1.075   1.027   6.095
 9335SOL    HW228905   0.983   0.954   5.982
 9336SOL     OW28906   3.826   5.526   6.768
 9336SOL    HW128907   3.869   5.598   6.715
 9336SOL    HW228908   3.896   5.464   6.804
 9337SOL     OW28909   5.161   0.808   3.519
 9337SOL    HW128910   5.064   0.831   3.521
 9337SOL    HW228911   5.201   0.841   3.434
 9338SOL     OW28912   4.424   0.811   1.893
 9338SOL    HW128913   4.405   0.723   1.936
 9338SOL    HW228914   4.355   0.878   1.921
 9339SOL     OW28915   5.449   6.697   0.637
 9339SOL    HW128916   5.483   6.783   0.599
 9339SOL    HW228917   5.425   6.635   0.563
 9340SOL     OW28918   5.066   3.655   5.112
 9340SOL    HW128919   4.981   3.634   5.064
 9340SOL    HW228920   5.117   3.570   5.127
 9341SOL     OW28921   0.697   5.549   6.327
 9341SOL    HW128922   0.788   5.512   6.345
 9341SOL    HW228923   0.692   5.579   6.231
 9342SOL     OW28924   2.185   0.865   4.000
 9342SOL    HW128925   2.273   0.911   3.990
 9342SOL    HW228926   2.122   0.896   3.929
 9343SOL     OW28927   6.277   4.613   3.037
 9343SOL    HW128928   6.266   4.542   3.107
 9343SOL    HW228929   6.247   4.577   2.949
 9344SOL     OW28930   4.515   5.668   1.602
 9344SOL    HW128931   4.501   5.750   1.547
 9344SOL    HW228932   4.567   5.691   1.685
 9345SOL     OW28933   6.307   3.821   1.791
 9345SOL    HW128934   6.227   3.764   1.773
 9345SOL    HW228935   6.298   3.864   1.880
 9346SOL     OW28936   6.404   1.201   1.093
 9346SOL    HW128937   6.430   1.285   1.141
 9346SOL    HW228938   6.432   1.207   0.997
 9347SOL     OW28939   1.445   5.395   0.842
 9347SOL    HW128940   1.372   5.385   0.774
 9347SOL    HW228941   1.509   5.319   0.833
 9348SOL     OW28942   4.176   5.484   1.436
 9348SOL    HW128943   4.122   5.434   1.369
 9348SOL    HW228944   4.179   5.581   1.410
 9349SOL     OW28945   0.592   0.144   2.450
 9349SOL    HW128946   0.562   0.060   2.495
 9349SOL    HW228947   0.597   0.130   2.351
 9350SOL     OW28948   0.718   3.261   5.574
 9350SOL    HW128949   0.807   3.253   5.528
 9350SOL    HW228950   0.648   3.215   5.518
 9351SOL     OW28951   3.254   1.111   6.328
 9351SOL    HW128952   3.191   1.038   6.302
 9351SOL    HW228953   3.348   1.080   6.312
 9352SOL     OW28954   2.637   3.299   0.368
 9352SOL    HW128955   2.694   3.379   0.348
 9352SOL    HW228956   2.652   3.229   0.299
 9353SOL     OW28957   0.817   5.317   1.849
 9353SOL    HW128958   0.837   5.336   1.946
 9353SOL    HW228959   0.831   5.220   1.831
 9354SOL     OW28960   6.758   2.175   6.490
 9354SOL    HW128961   6.781   2.091   6.540
 9354SOL    HW228962   6.810   2.178   6.405
 9355SOL     OW28963   0.730   2.605   4.982
 9355SOL    HW128964   0.709   2.507   4.984
 9355SOL    HW228965   0.648   2.656   4.955
 9356SOL     OW28966   3.649   0.126   1.228
 9356SOL    HW128967   3.581   0.057   1.203
 9356SOL    HW228968   3.739   0.083   1.231
 9357SOL     OW28969   1.147   2.754   6.424
 9357SOL    HW128970   1.095   2.815   6.364
 9357SOL    HW228971   1.098   2.742   6.510
 9358SOL     OW28972   0.600   4.324   2.429
 9358SOL    HW128973   0.540   4.403   2.444
 9358SOL    HW228974   0.626   4.320   2.333
 9359SOL     OW28975   1.843   5.349   6.210
 9359SOL    HW128976   1.935   5.386   6.215
 9359SOL    HW228977   1.804   5.368   6.119
 9360SOL     OW28978   1.579   6.129   6.329
 9360SOL    HW128979   1.644   6.201   6.353
 9360SOL    HW228980   1.551   6.082   6.413
 9361SOL     OW28981   2.152   5.900   3.381
 9361SOL    HW128982   2.224   5.838   3.412
 9361SOL    HW228983   2.190   5.992   3.370
 9362SOL     OW28984   1.637   1.675   2.059
 9362SOL    HW128985   1.570   1.647   1.989
 9362SOL    HW228986   1.590   1.687   2.146
 9363SOL     OW28987   3.326   5.120   1.823
 9363SOL    HW128988   3.383   5.130   1.905
 9363SOL    HW228989   3.232   5.146   1.844
 9364SOL     OW28990   2.468   2.969   1.735
 9364SOL    HW128991   2.471   2.869   1.735
 9364SOL    HW228992   2.373   2.999   1.729
 9365SOL     OW28993   2.731   2.017   4.251
 9365SOL    HW128994   2.736   1.987   4.156
 9365SOL    HW228995   2.782   2.103   4.261
 9366SOL     OW28996   3.263   5.753   0.326
 9366SOL    HW128997   3.342   5.783   0.380
 9366SOL    HW228998   3.274   5.656   0.303
 9367SOL     OW28999   5.567   0.664   1.263
 9367SOL    HW129000   5.489   0.663   1.325
 9367SOL    HW229001   5.552   0.597   1.190
 9368SOL     OW29002   3.645   0.095   2.450
 9368SOL    HW129003   3.557   0.082   2.497
 9368SOL    HW229004   3.669   0.192   2.451
 9369SOL     OW29005   0.490   5.853   4.808
 9369SOL    HW129006   0.516   5.838   4.903
 9369SOL    HW229007   0.399   5.894   4.804
 9370SOL     OW29008   4.517   1.147   3.909
 9370SOL    HW129009   4.516   1.246   3.897
 9370SOL    HW229010   4.555   1.124   3.998
 9371SOL     OW29011   3.619   5.151   1.159
 9371SOL    HW129012   3.565   5.090   1.217
 9371SOL    HW229013   3.596   5.134   1.063
 9372SOL     OW29014   4.478   0.060   1.492
 9372SOL    HW129015   4.460   0.155   1.464
 9372SOL    HW229016   4.522   0.011   1.417
 9373SOL     OW29017   6.244   2.659   0.373
 9373SOL    HW129018   6.178   2.605   0.321
 9373SOL    HW229019   6.220   2.658   0.470
 9374SOL     OW29020   0.782   4.356   5.488
 9374SOL    HW129021   0.687   4.368   5.517
 9374SOL    HW229022   0.841   4.418   5.540
 9375SOL     OW29023   0.258   2.236   0.242
 9375SOL    HW129024   0.317   2.275   0.171
 9375SOL    HW229025   0.166   2.223   0.204
 9376SOL     OW29026   2.120   3.647   2.117
 9376SOL    HW129027   2.172   3.573   2.074
 9376SOL    HW229028   2.136   3.647   2.216
 9377SOL     OW29029   2.126   4.934   2.305
 9377SOL    HW129030   2.158   4.990   2.382
 9377SOL    HW229031   2.027   4.922   2.312
 9378SOL     OW29032   3.434   0.650   3.553
 9378SOL    HW129033   3.439   0.748   3.532
 9378SOL    HW229034   3.487   0.599   3.486
 9379SOL     OW29035   4.621   6.730   4.774
 9379SOL    HW129036   4.556   6.727   4.699
 9379SOL    HW229037   4.600   6.657   4.840
 9380SOL     OW29038   3.613   5.313   5.812
 9380SOL    HW129039   3.611   5.387   5.745
 9380SOL    HW229040   3.533   5.254   5.797
 9381SOL     OW29041   4.850   1.838   4.282
 9381SOL    HW129042   4.753   1.859   4.299
 9381SOL    HW229043   4.906   1.880   4.353
 9382SOL     OW29044   3.493   0.648   4.129
 9382SOL    HW129045   3.483   0.730   4.185
 9382SOL    HW229046   3.577   0.600   4.156
 9383SOL     OW29047   4.932   3.998   3.572
 9383SOL    HW129048   5.000   3.948   3.518
 9383SOL    HW229049   4.978   4.064   3.631
 9384SOL     OW29050   2.133   6.918   2.026
 9384SOL    HW129051   2.127   6.830   2.073
 9384SOL    HW229052   2.090   6.912   1.937
 9385SOL     OW29053   3.935   1.376   3.982
 9385SOL    HW129054   3.873   1.421   3.918
 9385SOL    HW229055   3.959   1.286   3.947
 9386SOL     OW29056   3.820   6.010   5.214
 9386SOL    HW129057   3.804   6.030   5.117
 9386SOL    HW229058   3.759   5.936   5.242
 9387SOL     OW29059   4.122   2.046   0.136
 9387SOL    HW129060   4.149   2.132   0.093
 9387SOL    HW229061   4.158   1.970   0.083
 9388SOL     OW29062   1.788   6.947   3.988
 9388SOL    HW129063   1.718   6.898   3.937
 9388SOL    HW229064   1.827   6.888   4.059
 9389SOL     OW29065   3.303   5.355   2.428
 9389SOL    HW129066   3.219   5.382   2.475
 9389SOL    HW229067   3.375   5.337   2.495
 9390SOL     OW29068   5.474   4.801   5.213
 9390SOL    HW129069   5.460   4.703   5.205
 9390SOL    HW229070   5.425   4.835   5.293
 9391SOL     OW29071   1.169   6.650   4.787
 9391SOL    HW129072   1.170   6.750   4.795
 9391SOL    HW229073   1.111   6.624   4.710
 9392SOL     OW29074   5.309   4.033   3.441
 9392SOL    HW129075   5.315   4.023   3.341
 9392SOL    HW229076   5.364   4.112   3.470
 9393SOL     OW29077   3.205   6.206   6.305
 9393SOL    HW129078   3.120   6.245   6.271
 9393SOL    HW229079   3.194   6.107   6.315
 9394SOL     OW29080   5.776   0.373   1.315
 9394SOL    HW129081   5.686   0.330   1.306
 9394SOL    HW229082   5.840   0.330   1.252
 9395SOL     OW29083   3.016   1.606   0.689
 9395SOL    HW129084   3.085   1.624   0.758
 9395SOL    HW229085   3.009   1.684   0.627
 9396SOL     OW29086   1.696   5.756   6.443
 9396SOL    HW129087   1.679   5.660   6.420
 9396SOL    HW229088   1.668   5.814   6.367
 9397SOL     OW29089   3.628   0.336   6.197
 9397SOL    HW129090   3.569   0.329   6.278
 9397SOL    HW229091   3.712   0.284   6.213
 9398SOL     OW29092   6.562   1.096   6.468
 9398SOL    HW129093   6.610   1.022   6.421
 9398SOL    HW229094   6.623   1.141   6.533
 9399SOL     OW29095   1.745   2.915   3.951
 9399SOL    HW129096   1.768   2.979   4.024
 9399SOL    HW229097   1.829   2.879   3.910
 9400SOL     OW29098   5.133   1.449   0.588
 9400SOL    HW129099   5.182   1.445   0.501
 9400SOL    HW229100   5.197   1.433   0.663
 9401SOL     OW29101   0.655   2.457   2.791
 9401SOL    HW129102   0.664   2.451   2.890
 9401SOL    HW229103   0.559   2.460   2.765
 9402SOL     OW29104   1.819   5.730   2.914
 9402SOL    HW129105   1.891   5.778   2.964
 9402SOL    HW229106   1.846   5.634   2.900
 9403SOL     OW29107   6.716   1.418   2.216
 9403SOL    HW129108   6.771   1.443   2.136
 9403SOL    HW229109   6.645   1.353   2.190
 9404SOL     OW29110   1.803   3.330   0.886
 9404SOL    HW129111   1.761   3.322   0.796
 9404SOL    HW229112   1.794   3.424   0.918
 9405SOL     OW29113   0.210   4.584   4.868
 9405SOL    HW129114   0.234   4.507   4.926
 9405SOL    HW229115   0.293   4.633   4.842
 9406SOL     OW29116   0.323   3.143   6.527
 9406SOL    HW129117   0.290   3.049   6.528
 9406SOL    HW229118   0.395   3.154   6.595
 9407SOL     OW29119   2.338   5.260   4.958
 9407SOL    HW129120   2.289   5.291   4.877
 9407SOL    HW229121   2.319   5.164   4.974
 9408SOL     OW29122   6.769   4.029   5.388
 9408SOL    HW129123   6.722   4.040   5.476
 9408SOL    HW229124   6.866   4.009   5.404
 9409SOL     OW29125   6.453   5.346   2.104
 9409SOL    HW129126   6.498   5.425   2.061
 9409SOL    HW229127   6.474   5.264   2.051
 9410SOL     OW29128   4.399   0.527   2.134
 9410SOL    HW129129   4.399   0.603   2.199
 9410SOL    HW229130   4.333   0.546   2.061
 9411SOL     OW29131   3.952   3.308   3.510
 9411SOL    HW129132   4.018   3.234   3.522
 9411SOL    HW229133   3.866   3.284   3.556
 9412SOL     OW29134   0.214   1.005   1.397
 9412SOL    HW129135   0.161   1.072   1.345
 9412SOL    HW229136   0.250   0.936   1.335
 9413SOL     OW29137   4.343   5.275   4.017
 9413SOL    HW129138   4.393   5.359   3.998
 9413SOL    HW229139   4.316   5.273   4.113
 9414SOL     OW29140   2.306   2.346   5.275
 9414SOL    HW129141   2.232   2.312   5.333
 9414SOL    HW229142   2.281   2.437   5.240
 9415SOL     OW29143   3.727   0.466   2.185
 9415SOL    HW129144   3.649   0.406   2.165
 9415SOL    HW229145   3.718   0.550   2.133
 9416SOL     OW29146   0.171   6.150   6.426
 9416SOL    HW129147   0.163   6.247   6.445
 9416SOL    HW229148   0.200   6.102   6.509
 9417SOL     OW29149   2.726   6.400   0.778
 9417SOL    HW129150   2.742   6.360   0.869
 9417SOL    HW229151   2.783   6.481   0.768
 9418SOL     OW29152   2.985   1.961   4.125
 9418SOL    HW129153   2.986   2.053   4.165
 9418SOL    HW229154   2.938   1.898   4.186
 9419SOL     OW29155   3.108   2.210   6.881
 9419SOL    HW129156   3.067   2.165   6.960
 9419SOL    HW229157   3.204   2.232   6.902
 9420SOL     OW29158   5.733   3.352   0.066
 9420SOL    HW129159   5.690   3.264   0.085
 9420SOL    HW229160   5.693   3.392   7.002
 9421SOL     OW29161   3.767   6.162   5.674
 9421SOL    HW129162   3.860   6.134   5.700
 9421SOL    HW229163   3.704   6.142   5.749
 9422SOL     OW29164   2.711   5.917   4.308
 9422SOL    HW129165   2.627   5.970   4.305
 9422SOL    HW229166   2.730   5.889   4.402
 9423SOL     OW29167   3.869   5.772   3.379
 9423SOL    HW129168   3.900   5.853   3.329
 9423SOL    HW229169   3.931   5.695   3.360
 9424SOL     OW29170   5.286   0.944   4.601
 9424SOL    HW129171   5.189   0.947   4.624
 9424SOL    HW229172   5.330   0.871   4.653
 9425SOL     OW29173   6.680   4.858   0.397
 9425SOL    HW129174   6.707   4.932   0.458
 9425SOL    HW229175   6.717   4.771   0.429
 9426SOL     OW29176   0.569   1.855   6.156
 9426SOL    HW129177   0.574   1.950   6.123
 9426SOL    HW229178   0.661   1.817   6.163
 9427SOL     OW29179   3.733   5.920   2.892
 9427SOL    HW129180   3.650   5.865   2.894
 9427SOL    HW229181   3.809   5.868   2.931
 9428SOL     OW29182   6.652   0.021   6.713
 9428SOL    HW129183   6.667   0.055   6.620
 9428SOL    HW229184   6.735   0.034   6.767
 9429SOL     OW29185   1.164   2.193   4.049
 9429SOL    HW129186   1.214   2.188   3.963
 9429SOL    HW229187   1.117   2.106   4.066
 9430SOL     OW29188   0.436   2.176   4.127
 9430SOL    HW129189   0.489   2.193   4.210
 9430SOL    HW229190   0.490   2.199   4.047
 9431SOL     OW29191   6.874   4.650   6.853
 9431SOL    HW129192   6.823   4.565   6.870
 9431SOL    HW229193   6.810   4.724   6.835
 9432SOL     OW29194   6.718   1.677   3.318
 9432SOL    HW129195   6.745   1.660   3.223
 9432SOL    HW229196   6.717   1.776   3.335
 9433SOL     OW29197   3.971   6.360   2.990
 9433SOL    HW129198   3.914   6.413   2.927
 9433SOL    HW229199   4.010   6.421   3.059
 9434SOL     OW29200   5.188   5.724   4.024
 9434SOL    HW129201   5.149   5.816   4.030
 9434SOL    HW229202   5.178   5.689   3.931
 9435SOL     OW29203   0.757   2.600   1.772
 9435SOL    HW129204   0.792   2.692   1.788
 9435SOL    HW229205   0.799   2.537   1.837
 9436SOL     OW29206   0.739   0.530   2.636
 9436SOL    HW129207   0.646   0.499   2.615
 9436SOL    HW229208   0.748   0.626   2.609
 9437SOL     OW29209   0.149   5.121   4.509
 9437SOL    HW129210   0.188   5.202   4.466
 9437SOL    HW229211   0.063   5.145   4.553
 9438SOL     OW29212   2.346   6.458   1.938
 9438SOL    HW129213   2.288   6.381   1.967
 9438SOL    HW229214   2.380   6.441   1.845
 9439SOL     OW29215   0.761   2.876   0.027
 9439SOL    HW129216   0.746   2.964   0.073
 9439SOL    HW229217   0.673   2.830   0.013
 9440SOL     OW29218   3.174   4.924   3.680
 9440SOL    HW129219   3.170   5.022   3.658
 9440SOL    HW229220   3.256   4.906   3.735
 9441SOL     OW29221   6.857   5.863   4.105
 9441SOL    HW129222   6.786   5.893   4.169
 9441SOL    HW229223   6.944   5.854   4.153
 9442SOL     OW29224   4.558   3.781   0.559
 9442SOL    HW129225   4.534   3.684   0.556
 9442SOL    HW229226   4.496   3.829   0.621
 9443SOL     OW29227   2.462   4.553   2.573
 9443SOL    HW129228   2.405   4.635   2.563
 9443SOL    HW229229   2.532   4.552   2.501
 9444SOL     OW29230   2.247   4.284   0.455
 9444SOL    HW129231   2.282   4.327   0.372
 9444SOL    HW229232   2.211   4.193   0.432
 9445SOL     OW29233   0.570   1.250   3.948
 9445SOL    HW129234   0.618   1.204   4.023
 9445SOL    HW229235   0.632   1.260   3.870
 9446SOL     OW29236   6.494   5.107   3.473
 9446SOL    HW129237   6.437   5.096   3.555
 9446SOL    HW229238   6.588   5.127   3.500
 9447SOL     OW29239   5.505   5.426   2.562
 9447SOL    HW129240   5.416   5.390   2.536
 9447SOL    HW229241   5.548   5.364   2.628
 9448SOL     OW29242   5.759   0.376   5.760
 9448SOL    HW129243   5.764   0.458   5.817
 9448SOL    HW229244   5.769   0.402   5.664
 9449SOL     OW29245   6.047   6.672   1.258
 9449SOL    HW129246   6.114   6.609   1.297
 9449SOL    HW229247   6.071   6.766   1.282
 9450SOL     OW29248   1.593   6.033   4.247
 9450SOL    HW129249   1.636   5.979   4.319
 9450SOL    HW229250   1.514   5.983   4.211
 9451SOL     OW29251   3.573   5.521   6.490
 9451SOL    HW129252   3.589   5.599   6.551
 9451SOL    HW229253   3.594   5.548   6.396
 9452SOL     OW29254   0.112   4.250   0.988
 9452SOL    HW129255   0.027   4.278   0.944
 9452SOL    HW229256   0.175   4.213   0.918
 9453SOL     OW29257   3.813   4.973   3.105
 9453SOL    HW129258   3.848   5.055   3.059
 9453SOL    HW229259   3.743   4.930   3.047
 9454SOL     OW29260   4.419   4.406   0.767
 9454SOL    HW129261   4.395   4.494   0.809
 9454SOL    HW229262   4.354   4.386   0.694
 9455SOL     OW29263   2.743   2.275   2.238
 9455SOL    HW129264   2.699   2.186   2.237
 9455SOL    HW229265   2.790   2.290   2.151
 9456SOL     OW29266   5.921   3.270   2.380
 9456SOL    HW129267   5.961   3.253   2.290
 9456SOL    HW229268   5.825   3.244   2.380
 9457SOL     OW29269   0.956   4.710   3.837
 9457SOL    HW129270   0.863   4.680   3.860
 9457SOL    HW229271   1.002   4.640   3.783
 9458SOL     OW29272   6.761   3.992   0.401
 9458SOL    HW129273   6.671   4.011   0.361
 9458SOL    HW229274   6.832   4.013   0.334
 9459SOL     OW29275   5.100   4.774   4.976
 9459SOL    HW129276   5.081   4.829   4.895
 9459SOL    HW229277   5.178   4.812   5.025
 9460SOL     OW29278   1.005   2.806   3.135
 9460SOL    HW129279   0.914   2.839   3.163
 9460SOL    HW229280   0.994   2.738   3.063
 9461SOL     OW29281   1.700   2.148   1.682
 9461SOL    HW129282   1.682   2.052   1.702
 9461SOL    HW229283   1.678   2.204   1.763
 9462SOL     OW29284   2.202   1.804   4.484
 9462SOL    HW129285   2.118   1.817   4.537
 9462SOL    HW229286   2.190   1.840   4.392
 9463SOL     OW29287   5.762   6.381   0.921
 9463SOL    HW129288   5.746   6.283   0.919
 9463SOL    HW229289   5.739   6.417   1.011
 9464SOL     OW29290   0.245   1.112   1.909
 9464SOL    HW129291   0.216   1.017   1.902
 9464SOL    HW229292   0.173   1.171   1.872
 9465SOL     OW29293   0.297   4.074   1.882
 9465SOL    HW129294   0.298   4.058   1.784
 9465SOL    HW229295   0.208   4.111   1.910
 9466SOL     OW29296   3.830   5.018   6.688
 9466SOL    HW129297   3.843   4.977   6.778
 9466SOL    HW229298   3.771   5.099   6.697
 9467SOL     OW29299   2.021   3.363   0.688
 9467SOL    HW129300   2.098   3.307   0.717
 9467SOL    HW229301   1.943   3.347   0.748
 9468SOL     OW29302   6.378   3.002   0.558
 9468SOL    HW129303   6.416   2.915   0.590
 9468SOL    HW229304   6.289   3.017   0.602
 9469SOL     OW29305   0.122   6.060   0.697
 9469SOL    HW129306   0.023   6.051   0.683
 9469SOL    HW229307   0.169   6.063   0.609
 9470SOL     OW29308   4.810   3.852   0.512
 9470SOL    HW129309   4.737   3.794   0.549
 9470SOL    HW229310   4.769   3.933   0.469
 9471SOL     OW29311   6.033   2.089   5.108
 9471SOL    HW129312   6.106   2.151   5.080
 9471SOL    HW229313   6.052   1.997   5.074
 9472SOL     OW29314   1.483   3.964   6.108
 9472SOL    HW129315   1.531   3.997   6.189
 9472SOL    HW229316   1.386   3.986   6.116
 9473SOL     OW29317   2.570   4.538   0.381
 9473SOL    HW129318   2.568   4.487   0.296
 9473SOL    HW229319   2.617   4.625   0.367
 9474SOL     OW29320   5.546   3.627   1.685
 9474SOL    HW129321   5.640   3.641   1.655
 9474SOL    HW229322   5.498   3.569   1.620
 9475SOL     OW29323   4.912   3.557   5.744
 9475SOL    HW129324   4.877   3.466   5.765
 9475SOL    HW229325   4.925   3.566   5.646
 9476SOL     OW29326   3.642   4.212   6.159
 9476SOL    HW129327   3.579   4.144   6.196
 9476SOL    HW229328   3.732   4.170   6.145
 9477SOL     OW29329   2.140   4.013   1.574
 9477SOL    HW129330   2.124   3.956   1.655
 9477SOL    HW229331   2.063   4.075   1.561
 9478SOL     OW29332   5.380   2.584   0.321
 9478SOL    HW129333   5.446   2.608   0.392
 9478SOL    HW229334   5.428   2.537   0.247
 9479SOL     OW29335   4.232   1.007   1.918
 9479SOL    HW129336   4.180   0.952   1.853
 9479SOL    HW229337   4.181   1.014   2.004
 9480SOL     OW29338   6.219   6.474   6.908
 9480SOL    HW129339   6.240   6.379   6.929
 9480SOL    HW229340   6.296   6.515   6.859
 9481SOL     OW29341   4.646   1.845   3.279
 9481SOL    HW129342   4.709   1.923   3.272
 9481SOL    HW229343   4.555   1.874   3.249
 9482SOL     OW29344   5.995   0.937   0.770
 9482SOL    HW129345   5.982   0.973   0.677
 9482SOL    HW229346   6.080   0.975   0.807
 9483SOL     OW29347   0.712   0.586   0.571
 9483SOL    HW129348   0.709   0.641   0.488
 9483SOL    HW229349   0.803   0.591   0.612
 9484SOL     OW29350   2.942   6.118   4.557
 9484SOL    HW129351   3.001   6.132   4.637
 9484SOL    HW229352   2.925   6.021   4.545
 9485SOL     OW29353   6.732   1.638   6.833
 9485SOL    HW129354   6.732   1.738   6.835
 9485SOL    HW229355   6.824   1.604   6.851
 9486SOL     OW29356   4.613   5.686   0.134
 9486SOL    HW129357   4.639   5.686   0.230
 9486SOL    HW229358   4.523   5.644   0.123
 9487SOL     OW29359   2.957   3.251   4.201
 9487SOL    HW129360   2.977   3.292   4.112
 9487SOL    HW229361   3.004   3.163   4.208
 9488SOL     OW29362   1.650   1.615   1.150
 9488SOL    HW129363   1.614   1.706   1.128
 9488SOL    HW229364   1.587   1.568   1.212
 9489SOL     OW29365   5.085   3.824   0.520
 9489SOL    HW129366   4.986   3.832   0.514
 9489SOL    HW229367   5.124   3.821   0.428
 9490SOL     OW29368   6.032   4.191   3.690
 9490SOL    HW129369   5.969   4.114   3.701
 9490SOL    HW229370   6.126   4.157   3.690
 9491SOL     OW29371   4.936   6.873   3.483
 9491SOL    HW129372   4.851   6.888   3.534
 9491SOL    HW229373   4.952   6.775   3.472
 9492SOL     OW29374   4.862   3.136   4.528
 9492SOL    HW129375   4.838   3.233   4.525
 9492SOL    HW229376   4.889   3.112   4.621
 9493SOL     OW29377   4.355   6.375   3.862
 9493SOL    HW129378   4.288   6.426   3.915
 9493SOL    HW229379   4.311   6.336   3.781
 9494SOL     OW29380   5.302   2.845   2.021
 9494SOL    HW129381   5.337   2.761   2.063
 9494SOL    HW229382   5.203   2.839   2.012
 9495SOL     OW29383   0.664   0.700   2.098
 9495SOL    HW129384   0.616   0.757   2.032
 9495SOL    HW229385   0.599   0.665   2.165
 9496SOL     OW29386   4.100   1.965   2.397
 9496SOL    HW129387   4.122   1.938   2.303
 9496SOL    HW229388   4.036   2.042   2.395
 9497SOL     OW29389   5.943   5.161   4.722
 9497SOL    HW129390   5.909   5.076   4.762
 9497SOL    HW229391   5.890   5.238   4.757
 9498SOL     OW29392   6.933   5.201   4.608
 9498SOL    HW129393   6.872   5.235   4.537
 9498SOL    HW229394   6.879   5.177   4.689
 9499SOL     OW29395   6.227   5.308   5.707
 9499SOL    HW129396   6.311   5.362   5.721
 9499SOL    HW229397   6.177   5.302   5.793
 9500SOL     OW29398   4.328   0.186   0.975
 9500SOL    HW129399   4.278   0.236   0.903
 9500SOL    HW229400   4.409   0.239   1.001
 9501SOL     OW29401   1.667   1.639   4.708
 9501SOL    HW129402   1.674   1.689   4.794
 9501SOL    HW229403   1.707   1.694   4.634
 9502SOL     OW29404   5.499   4.522   5.816
 9502SOL    HW129405   5.469   4.615   5.796
 9502SOL    HW229406   5.484   4.464   5.736
 9503SOL     OW29407   0.394   2.157   6.857
 9503SOL    HW129408   0.428   2.090   6.923
 9503SOL    HW229409   0.294   2.159   6.862
 9504SOL     OW29410   6.361   5.073   1.716
 9504SOL    HW129411   6.395   4.979   1.727
 9504SOL    HW229412   6.337   5.089   1.620
 9505SOL     OW29413   4.358   4.677   5.384
 9505SOL    HW129414   4.385   4.687   5.480
 9505SOL    HW229415   4.312   4.760   5.353
 9506SOL     OW29416   2.942   2.320   1.214
 9506SOL    HW129417   2.928   2.356   1.122
 9506SOL    HW229418   2.956   2.221   1.210
 9507SOL     OW29419   6.195   0.030   2.015
 9507SOL    HW129420   6.185   0.130   2.012
 9507SOL    HW229421   6.125   7.007   1.956
 9508SOL     OW29422   4.878   1.502   2.918
 9508SOL    HW129423   4.860   1.517   3.015
 9508SOL    HW229424   4.824   1.565   2.863
 9509SOL     OW29425   6.502   0.535   2.756
 9509SOL    HW129426   6.534   0.547   2.850
 9509SOL    HW229427   6.566   0.579   2.693
 9510SOL     OW29428   0.256   2.962   3.934
 9510SOL    HW129429   0.257   2.971   3.835
 9510SOL    HW229430   0.179   2.904   3.962
 9511SOL     OW29431   1.373   1.199   0.663
 9511SOL    HW129432   1.302   1.230   0.727
 9511SOL    HW229433   1.386   1.101   0.673
 9512SOL     OW29434   6.360   2.884   0.892
 9512SOL    HW129435   6.323   2.977   0.891
 9512SOL    HW229436   6.407   2.868   0.979
 9513SOL     OW29437   4.181   4.782   6.504
 9513SOL    HW129438   4.246   4.798   6.578
 9513SOL    HW229439   4.112   4.854   6.504
 9514SOL     OW29440   3.182   2.894   6.638
 9514SOL    HW129441   3.194   2.989   6.666
 9514SOL    HW229442   3.271   2.854   6.617
 9515SOL     OW29443   2.640   5.022   3.868
 9515SOL    HW129444   2.636   5.042   3.771
 9515SOL    HW229445   2.651   5.107   3.920
 9516SOL     OW29446   6.679   3.704   0.247
 9516SOL    HW129447   6.609   3.764   0.209
 9516SOL    HW229448   6.647   3.665   0.333
 9517SOL     OW29449   0.850   4.110   1.071
 9517SOL    HW129450   0.871   4.037   1.136
 9517SOL    HW229451   0.914   4.186   1.085
 9518SOL     OW29452   2.399   1.446   0.427
 9518SOL    HW129453   2.476   1.508   0.412
 9518SOL    HW229454   2.431   1.352   0.430
 9519SOL     OW29455   0.944   3.197   5.325
 9519SOL    HW129456   0.904   3.109   5.297
 9519SOL    HW229457   0.979   3.189   5.418
 9520SOL     OW29458   2.449   0.043   2.858
 9520SOL    HW129459   2.541   0.071   2.884
 9520SOL    HW229460   2.430   6.971   2.896
 9521SOL     OW29461   5.640   5.609   4.117
 9521SOL    HW129462   5.597   5.688   4.075
 9521SOL    HW229463   5.667   5.632   4.211
 9522SOL     OW29464   3.491   5.892   1.196
 9522SOL    HW129465   3.463   5.914   1.103
 9522SOL    HW229466   3.562   5.956   1.226
 9523SOL     OW29467   3.475   5.086   4.793
 9523SOL    HW129468   3.481   5.096   4.694
 9523SOL    HW229469   3.381   5.067   4.819
 9524SOL     OW29470   3.556   3.351   1.172
 9524SOL    HW129471   3.642   3.302   1.181
 9524SOL    HW229472   3.564   3.441   1.216
 9525SOL     OW29473   1.819   0.697   6.009
 9525SOL    HW129474   1.837   0.600   6.029
 9525SOL    HW229475   1.905   0.748   6.015
 9526SOL     OW29476   4.795   6.174   3.081
 9526SOL    HW129477   4.702   6.145   3.103
 9526SOL    HW229478   4.861   6.120   3.135
 9527SOL     OW29479   1.071   1.089   2.187
 9527SOL    HW129480   1.134   1.037   2.130
 9527SOL    HW229481   1.041   1.033   2.264
 9528SOL     OW29482   6.663   0.580   1.837
 9528SOL    HW129483   6.699   0.489   1.855
 9528SOL    HW229484   6.567   0.585   1.865
 9529SOL     OW29485   1.034   2.978   6.342
 9529SOL    HW129486   0.943   3.015   6.362
 9529SOL    HW229487   1.104   3.041   6.375
 9530SOL     OW29488   1.522   2.486   3.245
 9530SOL    HW129489   1.433   2.494   3.291
 9530SOL    HW229490   1.569   2.573   3.248
 9531SOL     OW29491   3.144   0.087   3.212
 9531SOL    HW129492   3.144   0.032   3.129
 9531SOL    HW229493   3.191   0.037   3.285
 9532SOL     OW29494   1.893   0.199   1.263
 9532SOL    HW129495   1.821   0.137   1.293
 9532SOL    HW229496   1.870   0.234   1.172
 9533SOL     OW29497   1.186   1.002   5.694
 9533SOL    HW129498   1.121   0.926   5.690
 9533SOL    HW229499   1.279   0.965   5.702
 9534SOL     OW29500   5.147   2.064   4.677
 9534SOL    HW129501   5.172   2.149   4.630
 9534SOL    HW229502   5.145   2.081   4.776
 9535SOL     OW29503   2.243   1.183   5.341
 9535SOL    HW129504   2.321   1.246   5.340
 9535SOL    HW229505   2.187   1.198   5.260
 9536SOL     OW29506   1.883   5.739   5.644
 9536SOL    HW129507   1.950   5.672   5.613
 9536SOL    HW229508   1.813   5.694   5.699
 9537SOL     OW29509   3.084   0.495   2.215
 9537SOL    HW129510   2.991   0.530   2.216
 9537SOL    HW229511   3.133   0.531   2.135
 9538SOL     OW29512   6.782   2.364   4.655
 9538SOL    HW129513   6.713   2.312   4.706
 9538SOL    HW229514   6.867   2.312   4.652
 9539SOL     OW29515   0.549   5.981   0.195
 9539SOL    HW129516   0.633   6.011   0.150
 9539SOL    HW229517   0.520   6.050   0.261
 9540SOL     OW29518   4.149   5.224   4.615
 9540SOL    HW129519   4.059   5.197   4.648
 9540SOL    HW229520   4.202   5.142   4.593
 9541SOL     OW29521   2.015   2.812   4.343
 9541SOL    HW129522   1.977   2.777   4.428
 9541SOL    HW229523   2.027   2.911   4.350
 9542SOL     OW29524   4.865   3.422   4.535
 9542SOL    HW129525   4.837   3.510   4.574
 9542SOL    HW229526   4.965   3.417   4.534
 9543SOL     OW29527   5.024   1.344   3.218
 9543SOL    HW129528   4.995   1.439   3.210
 9543SOL    HW229529   4.964   1.286   3.162
 9544SOL     OW29530   5.165   1.281   2.495
 9544SOL    HW129531   5.218   1.290   2.411
 9544SOL    HW229532   5.217   1.228   2.562
 9545SOL     OW29533   6.829   0.642   3.439
 9545SOL    HW129534   6.741   0.662   3.484
 9545SOL    HW229535   6.847   0.710   3.369
 9546SOL     OW29536   2.701   5.366   0.005
 9546SOL    HW129537   2.734   5.460   7.015
 9546SOL    HW229538   2.775   5.308   0.039
 9547SOL     OW29539   0.920   6.348   4.693
 9547SOL    HW129540   0.821   6.352   4.701
 9547SOL    HW229541   0.957   6.284   4.761
 9548SOL     OW29542   5.142   5.703   4.323
 9548SOL    HW129543   5.180   5.686   4.232
 9548SOL    HW229544   5.193   5.650   4.391
 9549SOL     OW29545   2.360   5.961   0.524
 9549SOL    HW129546   2.432   5.909   0.571
 9549SOL    HW229547   2.293   5.992   0.591
 9550SOL     OW29548   1.269   1.891   0.542
 9550SOL    HW129549   1.325   1.921   0.619
 9550SOL    HW229550   1.302   1.934   0.458
 9551SOL     OW29551   0.715   6.818   4.790
 9551SOL    HW129552   0.710   6.747   4.860
 9551SOL    HW229553   0.670   6.901   4.824
 9552SOL     OW29554   2.040   6.147   3.165
 9552SOL    HW129555   2.110   6.079   3.188
 9552SOL    HW229556   1.954   6.123   3.209
 9553SOL     OW29557   6.225   4.316   5.783
 9553SOL    HW129558   6.287   4.347   5.711
 9553SOL    HW229559   6.198   4.394   5.840
 9554SOL     OW29560   2.388   1.273   2.151
 9554SOL    HW129561   2.450   1.323   2.090
 9554SOL    HW229562   2.294   1.286   2.120
 9555SOL     OW29563   6.987   2.382   0.825
 9555SOL    HW129564   6.970   2.454   0.758
 9555SOL    HW229565   0.065   2.359   0.827
 9556SOL     OW29566   2.390   1.392   1.619
 9556SOL    HW129567   2.385   1.440   1.707
 9556SOL    HW229568   2.408   1.459   1.547
 9557SOL     OW29569   5.419   6.968   2.474
 9557SOL    HW129570   5.403   0.014   2.400
 9557SOL    HW229571   5.479   7.011   2.543
 9558SOL     OW29572   6.617   4.876   2.825
 9558SOL    HW129573   6.653   4.813   2.756
 9558SOL    HW229574   6.591   4.824   2.907
 9559SOL     OW29575   6.551   3.147   1.519
 9559SOL    HW129576   6.517   3.071   1.574
 9559SOL    HW229577   6.564   3.227   1.577
 9560SOL     OW29578   3.017   1.392   3.382
 9560SOL    HW129579   2.991   1.433   3.469
 9560SOL    HW229580   3.106   1.426   3.354
 9561SOL     OW29581   4.251   6.837   0.849
 9561SOL    HW129582   4.191   6.756   0.849
 9561SOL    HW229583   4.341   6.812   0.815
 9562SOL     OW29584   4.809   4.989   2.881
 9562SOL    HW129585   4.821   5.048   2.801
 9562SOL    HW229586   4.894   4.986   2.933
 9563SOL     OW29587   6.822   5.624   6.708
 9563SOL    HW129588   6.758   5.681   6.656
 9563SOL    HW229589   6.844   5.670   6.794
 9564SOL     OW29590   2.941   6.642   0.292
 9564SOL    HW129591   2.955   6.551   0.331
 9564SOL    HW229592   2.950   6.637   0.192
 9565SOL     OW29593   3.660   5.842   4.477
 9565SOL    HW129594   3.587   5.776   4.497
 9565SOL    HW229595   3.628   5.934   4.496
 9566SOL     OW29596   2.755   4.445   5.437
 9566SOL    HW129597   2.752   4.349   5.408
 9566SOL    HW229598   2.813   4.497   5.373
 9567SOL     OW29599   6.050   5.856   5.972
 9567SOL    HW129600   5.954   5.841   5.995
 9567SOL    HW229601   6.068   5.821   5.880
 9568SOL     OW29602   4.852   3.618   6.599
 9568SOL    HW129603   4.760   3.648   6.570
 9568SOL    HW229604   4.858   3.620   6.699
 9569SOL     OW29605   6.487   0.769   0.069
 9569SOL    HW129606   6.493   0.736   6.994
 9569SOL    HW229607   6.530   0.703   0.131
 9570SOL     OW29608   1.292   1.101   0.090
 9570SOL    HW129609   1.347   1.080   0.171
 9570SOL    HW229610   1.289   1.021   0.030
 9571SOL     OW29611   2.243   3.801   0.084
 9571SOL    HW129612   2.259   3.815   0.182
 9571SOL    HW229613   2.236   3.702   0.066
 9572SOL     OW29614   1.275   4.118   2.069
 9572SOL    HW129615   1.312   4.049   2.008
 9572SOL    HW229616   1.191   4.084   2.112
 9573SOL     OW29617   1.880   1.592   0.436
 9573SOL    HW129618   1.971   1.633   0.441
 9573SOL    HW229619   1.828   1.638   0.364
 9574SOL     OW29620   2.846   2.923   5.711
 9574SOL    HW129621   2.789   2.853   5.668
 9574SOL    HW229622   2.882   2.887   5.797
 9575SOL     OW29623   5.280   0.565   2.579
 9575SOL    HW129624   5.342   0.514   2.639
 9575SOL    HW229625   5.204   0.602   2.633
 9576SOL     OW29626   2.864   1.271   5.137
 9576SOL    HW129627   2.897   1.180   5.111
 9576SOL    HW229628   2.766   1.278   5.120
 9577SOL     OW29629   0.599   6.276   3.132
 9577SOL    HW129630   0.589   6.375   3.126
 9577SOL    HW229631   0.613   6.238   3.041
 9578SOL     OW29632   6.093   2.876   2.055
 9578SOL    HW129633   6.038   2.795   2.035
 9578SOL    HW229634   6.062   2.918   2.140
 9579SOL     OW29635   0.814   6.670   2.831
 9579SOL    HW129636   0.766   6.701   2.749
 9579SOL    HW229637   0.821   6.570   2.831
 9580SOL     OW29638   4.334   3.781   5.921
 9580SOL    HW129639   4.248   3.824   5.894
 9580SOL    HW229640   4.394   3.772   5.841
 9581SOL     OW29641   1.088   4.292   6.166
 9581SOL    HW129642   1.101   4.338   6.078
 9581SOL    HW229643   1.116   4.197   6.158
 9582SOL     OW29644   4.165   4.766   4.281
 9582SOL    HW129645   4.248   4.731   4.324
 9582SOL    HW229646   4.154   4.725   4.191
 9583SOL     OW29647   1.920   4.339   2.356
 9583SOL    HW129648   1.983   4.358   2.431
 9583SOL    HW229649   1.900   4.424   2.307
 9584SOL     OW29650   6.235   5.569   6.542
 9584SOL    HW129651   6.244   5.472   6.519
 9584SOL    HW229652   6.282   5.624   6.473
 9585SOL     OW29653   5.897   0.589   4.406
 9585SOL    HW129654   5.878   0.493   4.387
 9585SOL    HW229655   5.858   0.614   4.494
 9586SOL     OW29656   5.639   3.150   3.038
 9586SOL    HW129657   5.562   3.096   3.072
 9586SOL    HW229658   5.607   3.242   3.015
 9587SOL     OW29659   5.248   0.095   2.687
 9587SOL    HW129660   5.297   0.028   2.631
 9587SOL    HW229661   5.173   0.135   2.634
 9588SOL     OW29662   0.979   0.585   1.677
 9588SOL    HW129663   0.930   0.659   1.722
 9588SOL    HW229664   1.046   0.545   1.740
 9589SOL     OW29665   2.780   1.200   6.437
 9589SOL    HW129666   2.823   1.175   6.350
 9589SOL    HW229667   2.848   1.197   6.510
 9590SOL     OW29668   7.002   4.194   3.476
 9590SOL    HW129669   6.962   4.282   3.501
 9590SOL    HW229670   6.957   4.159   3.394
 9591SOL     OW29671   1.412   5.283   1.325
 9591SOL    HW129672   1.454   5.197   1.355
 9591SOL    HW229673   1.322   5.293   1.367
 9592SOL     OW29674   4.947   5.432   2.040
 9592SOL    HW129675   4.987   5.518   2.008
 9592SOL    HW229676   5.020   5.365   2.055
 9593SOL     OW29677   6.874   2.611   4.728
 9593SOL    HW129678   6.970   2.637   4.728
 9593SOL    HW229679   6.863   2.524   4.679
 9594SOL     OW29680   6.209   0.070   2.698
 9594SOL    HW129681   6.209   0.012   2.617
 9594SOL    HW229682   6.197   0.166   2.670
 9595SOL     OW29683   1.573   5.758   4.066
 9595SOL    HW129684   1.492   5.786   4.117
 9595SOL    HW229685   1.551   5.678   4.010
 9596SOL     OW29686   5.833   6.054   5.088
 9596SOL    HW129687   5.854   5.957   5.074
 9596SOL    HW229688   5.735   6.069   5.078
 9597SOL     OW29689   2.011   4.188   1.340
 9597SOL    HW129690   2.104   4.196   1.374
 9597SOL    HW229691   2.002   4.237   1.254
 9598SOL     OW29692   6.868   5.437   6.045
 9598SOL    HW129693   6.947   5.446   5.985
 9598SOL    HW229694   6.876   5.502   6.121
 9599SOL     OW29695   4.771   1.611   5.548
 9599SOL    HW129696   4.684   1.661   5.552
 9599SOL    HW229697   4.820   1.622   5.635
 9600SOL     OW29698   1.393   0.380   6.755
 9600SOL    HW129699   1.355   0.289   6.772
 9600SOL    HW229700   1.491   0.372   6.733
 9601SOL     OW29701   0.240   5.373   5.417
 9601SOL    HW129702   0.140   5.376   5.425
 9601SOL    HW229703   0.266   5.323   5.335
 9602SOL     OW29704   1.391   5.598   0.063
 9602SOL    HW129705   1.485   5.581   0.035
 9602SOL    HW229706   1.335   5.620   7.001
 9603SOL     OW29707   1.772   6.080   4.672
 9603SOL    HW129708   1.854   6.030   4.702
 9603SOL    HW229709   1.710   6.091   4.749
 9604SOL     OW29710   5.959   1.431   0.056
 9604SOL    HW129711   5.888   1.491   0.019
 9604SOL    HW229712   5.926   1.391   0.142
 9605SOL     OW29713   1.960   5.806   6.446
 9605SOL    HW129714   1.977   5.845   6.537
 9605SOL    HW229715   1.863   5.784   6.436
 9606SOL     OW29716   6.565   6.331   4.147
 9606SOL    HW129717   6.523   6.241   4.151
 9606SOL    HW229718   6.622   6.338   4.065
 9607SOL     OW29719   1.054   2.068   1.844
 9607SOL    HW129720   1.150   2.078   1.871
 9607SOL    HW229721   0.996   2.120   1.906
 9608SOL     OW29722   0.678   6.839   2.327
 9608SOL    HW129723   0.663   6.898   2.248
 9608SOL    HW229724   0.770   6.800   2.323
 9609SOL     OW29725   1.296   4.029   4.533
 9609SOL    HW129726   1.249   4.045   4.620
 9609SOL    HW229727   1.365   4.100   4.519
 9610SOL     OW29728   2.359   1.735   6.045
 9610SOL    HW129729   2.357   1.814   6.106
 9610SOL    HW229730   2.265   1.705   6.026
 9611SOL     OW29731   6.313   0.173   0.880
 9611SOL    HW129732   6.355   0.171   0.971
 9611SOL    HW229733   6.306   0.080   0.844
 9612SOL     OW29734   5.787   2.913   1.701
 9612SOL    HW129735   5.865   2.973   1.718
 9612SOL    HW229736   5.803   2.824   1.743
 9613SOL     OW29737   6.195   6.422   5.272
 9613SOL    HW129738   6.156   6.507   5.238
 9613SOL    HW229739   6.129   6.348   5.259
 9614SOL     OW29740   3.803   3.536   2.349
 9614SOL    HW129741   3.707   3.512   2.336
 9614SOL    HW229742   3.818   3.563   2.444
 9615SOL     OW29743   1.220   5.670   3.003
 9615SOL    HW129744   1.211   5.732   2.925
 9615SOL    HW229745   1.237   5.577   2.971
 9616SOL     OW29746   3.637   3.348   0.498
 9616SOL    HW129747   3.680   3.336   0.588
 9616SOL    HW229748   3.547   3.390   0.509
 9617SOL     OW29749   0.557   3.679   3.996
 9617SOL    HW129750   0.560   3.776   3.969
 9617SOL    HW229751   0.648   3.649   4.023
 9618SOL     OW29752   4.297   6.561   6.833
 9618SOL    HW129753   4.356   6.635   6.803
 9618SOL    HW229754   4.216   6.598   6.878
 9619SOL     OW29755   2.565   6.777   0.420
 9619SOL    HW129756   2.628   6.701   0.430
 9619SOL    HW229757   2.602   6.858   0.467
 9620SOL     OW29758   3.118   1.253   6.109
 9620SOL    HW129759   3.166   1.233   6.195
 9620SOL    HW229760   3.023   1.224   6.117
 9621SOL     OW29761   0.682   0.525   1.243
 9621SOL    HW129762   0.753   0.567   1.300
 9621SOL    HW229763   0.716   0.513   1.150
 9622SOL     OW29764   5.864   0.217   5.968
 9622SOL    HW129765   5.911   0.285   6.026
 9622SOL    HW229766   5.810   0.265   5.899
 9623SOL     OW29767   4.154   6.269   6.339
 9623SOL    HW129768   4.122   6.237   6.429
 9623SOL    HW229769   4.253   6.261   6.334
 9624SOL     OW29770   3.724   5.002   4.924
 9624SOL    HW129771   3.637   5.022   4.878
 9624SOL    HW229772   3.705   4.955   5.010
 9625SOL     OW29773   4.991   4.541   5.993
 9625SOL    HW129774   4.920   4.609   6.013
 9625SOL    HW229775   5.051   4.532   6.073
 9626SOL     OW29776   2.450   4.152   5.888
 9626SOL    HW129777   2.439   4.144   5.789
 9626SOL    HW229778   2.523   4.218   5.907
 9627SOL     OW29779   0.922   5.371   0.261
 9627SOL    HW129780   1.013   5.414   0.265
 9627SOL    HW229781   0.891   5.351   0.354
 9628SOL     OW29782   5.676   2.862   6.536
 9628SOL    HW129783   5.690   2.898   6.444
 9628SOL    HW229784   5.731   2.779   6.548
 9629SOL     OW29785   0.175   5.608   3.712
 9629SOL    HW129786   0.234   5.534   3.743
 9629SOL    HW229787   0.080   5.589   3.737
 9630SOL     OW29788   6.619   5.809   6.661
 9630SOL    HW129789   6.613   5.882   6.730
 9630SOL    HW229790   6.553   5.826   6.588
 9631SOL     OW29791   4.088   0.932   0.378
 9631SOL    HW129792   4.151   0.975   0.313
 9631SOL    HW229793   4.133   0.853   0.421
 9632SOL     OW29794   3.704   6.335   1.549
 9632SOL    HW129795   3.776   6.338   1.618
 9632SOL    HW229796   3.615   6.324   1.595
 9633SOL     OW29797   2.912   3.236   2.612
 9633SOL    HW129798   2.960   3.318   2.644
 9633SOL    HW229799   2.901   3.172   2.688
 9634SOL     OW29800   5.111   4.379   2.192
 9634SOL    HW129801   5.185   4.446   2.183
 9634SOL    HW229802   5.028   4.425   2.221
 9635SOL     OW29803   0.747   3.963   3.556
 9635SOL    HW129804   0.736   3.928   3.649
 9635SOL    HW229805   0.841   3.947   3.526
 9636SOL     OW29806   4.839   2.321   4.784
 9636SOL    HW129807   4.880   2.373   4.709
 9636SOL    HW229808   4.757   2.275   4.751
 9637SOL     OW29809   2.527   3.111   0.559
 9637SOL    HW129810   2.522   3.190   0.499
 9637SOL    HW229811   2.617   3.108   0.604
 9638SOL     OW29812   0.188   4.302   5.486
 9638SOL    HW129813   0.164   4.229   5.421
 9638SOL    HW229814   0.167   4.391   5.445
 9639SOL     OW29815   4.014   1.817   2.667
 9639SOL    HW129816   4.084   1.882   2.637
 9639SOL    HW229817   3.926   1.864   2.676
 9640SOL     OW29818   3.600   0.812   2.549
 9640SOL    HW129819   3.682   0.844   2.503
 9640SOL    HW229820   3.562   0.735   2.497
 9641SOL     OW29821   6.055   4.704   2.762
 9641SOL    HW129822   6.084   4.616   2.799
 9641SOL    HW229823   6.118   4.732   2.689
 9642SOL     OW29824   1.997   0.338   3.703
 9642SOL    HW129825   1.942   0.275   3.758
 9642SOL    HW229826   2.060   0.388   3.762
 9643SOL     OW29827   5.403   4.484   4.209
 9643SOL    HW129828   5.318   4.435   4.229
 9643SOL    HW229829   5.413   4.561   4.272
 9644SOL     OW29830   1.248   5.491   4.710
 9644SOL    HW129831   1.258   5.433   4.790
 9644SOL    HW229832   1.171   5.553   4.722
 9645SOL     OW29833   0.834   5.663   0.158
 9645SOL    HW129834   0.736   5.647   0.144
 9645SOL    HW229835   0.882   5.576   0.161
 9646SOL     OW29836   3.583   6.130   5.879
 9646SOL    HW129837   3.489   6.164   5.870
 9646SOL    HW229838   3.623   6.166   5.964
 9647SOL     OW29839   5.971   6.862   3.412
 9647SOL    HW129840   5.958   6.873   3.314
 9647SOL    HW229841   6.066   6.837   3.431
 9648SOL     OW29842   4.623   2.289   1.165
 9648SOL    HW129843   4.546   2.244   1.210
 9648SOL    HW229844   4.627   2.261   1.068
 9649SOL     OW29845   2.064   4.351   6.965
 9649SOL    HW129846   1.992   4.410   6.930
 9649SOL    HW229847   2.024   4.279   0.003
 9650SOL     OW29848   0.083   4.754   4.664
 9650SOL    HW129849   0.063   4.843   4.706
 9650SOL    HW229850   0.109   4.688   4.735
 9651SOL     OW29851   3.758   1.083   0.681
 9651SOL    HW129852   3.809   1.061   0.597
 9651SOL    HW229853   3.771   1.179   0.704
 9652SOL     OW29854   7.006   3.801   0.461
 9652SOL    HW129855   7.000   3.783   0.560
 9652SOL    HW229856   6.924   3.850   0.432
 9653SOL     OW29857   4.292   3.760   6.308
 9653SOL    HW129858   4.295   3.737   6.405
 9653SOL    HW229859   4.237   3.692   6.260
 9654SOL     OW29860   3.685   3.265   3.535
 9654SOL    HW129861   3.694   3.234   3.629
 9654SOL    HW229862   3.594   3.304   3.521
 9655SOL     OW29863   4.274   1.342   1.728
 9655SOL    HW129864   4.326   1.363   1.645
 9655SOL    HW229865   4.178   1.362   1.713
 9656SOL     OW29866   5.620   3.933   1.157
 9656SOL    HW129867   5.611   3.985   1.073
 9656SOL    HW229868   5.592   3.989   1.235
 9657SOL     OW29869   5.642   3.259   3.407
 9657SOL    HW129870   5.705   3.321   3.361
 9657SOL    HW229871   5.691   3.203   3.472
 9658SOL     OW29872   5.091   1.981   2.299
 9658SOL    HW129873   5.007   1.950   2.344
 9658SOL    HW229874   5.143   1.901   2.269
 9659SOL     OW29875   3.006   3.251   0.573
 9659SOL    HW129876   2.987   3.343   0.540
 9659SOL    HW229877   3.090   3.217   0.530
 9660SOL     OW29878   0.333   5.853   1.272
 9660SOL    HW129879   0.368   5.857   1.179
 9660SOL    HW229880   0.286   5.939   1.294
 9661SOL     OW29881   4.715   4.650   0.692
 9661SOL    HW129882   4.713   4.567   0.748
 9661SOL    HW229883   4.698   4.729   0.749
 9662SOL     OW29884   5.279   4.194   6.524
 9662SOL    HW129885   5.375   4.216   6.541
 9662SOL    HW229886   5.222   4.245   6.588
 9663SOL     OW29887   0.818   4.810   3.469
 9663SOL    HW129888   0.720   4.793   3.468
 9663SOL    HW229889   0.837   4.890   3.526
 9664SOL     OW29890   5.571   3.854   3.362
 9664SOL    HW129891   5.550   3.928   3.298
 9664SOL    HW229892   5.667   3.827   3.351
 9665SOL     OW29893   5.243   6.076   6.299
 9665SOL    HW129894   5.303   6.022   6.359
 9665SOL    HW229895   5.297   6.146   6.252
 9666SOL     OW29896   5.855   3.569   0.508
 9666SOL    HW129897   5.858   3.472   0.531
 9666SOL    HW229898   5.791   3.583   0.433
 9667SOL     OW29899   5.640   5.705   0.076
 9667SOL    HW129900   5.720   5.705   0.016
 9667SOL    HW229901   5.670   5.715   0.171
 9668SOL     OW29902   0.588   6.974   5.535
 9668SOL    HW129903   0.525   6.989   5.459
 9668SOL    HW229904   0.541   6.927   5.609
 9669SOL     OW29905   3.582   6.918   0.477
 9669SOL    HW129906   3.659   6.879   0.529
 9669SOL    HW229907   3.517   6.959   0.540
 9670SOL     OW29908   0.432   0.384   6.691
 9670SOL    HW129909   0.487   0.464   6.714
 9670SOL    HW229910   0.474   0.302   6.730
 9671SOL     OW29911   1.317   5.185   5.777
 9671SOL    HW129912   1.366   5.140   5.702
 9671SOL    HW229913   1.277   5.116   5.837
 9672SOL     OW29914   0.061   3.705   4.723
 9672SOL    HW129915   0.017   3.788   4.757
 9672SOL    HW229916   0.051   3.632   4.790
 9673SOL     OW29917   2.385   4.163   1.048
 9673SOL    HW129918   2.358   4.137   1.141
 9673SOL    HW229919   2.312   4.140   0.984
 9674SOL     OW29920   3.138   6.385   3.853
 9674SOL    HW129921   3.076   6.350   3.783
 9674SOL    HW229922   3.161   6.312   3.918
 9675SOL     OW29923   4.598   3.907   1.754
 9675SOL    HW129924   4.657   3.898   1.835
 9675SOL    HW229925   4.596   4.002   1.724
 9676SOL     OW29926   1.358   3.026   5.506
 9676SOL    HW129927   1.441   3.036   5.450
 9676SOL    HW229928   1.313   3.115   5.514
 9677SOL     OW29929   6.530   5.315   0.553
 9677SOL    HW129930   6.604   5.367   0.510
 9677SOL    HW229931   6.537   5.323   0.653
 9678SOL     OW29932   3.587   3.655   4.837
 9678SOL    HW129933   3.513   3.608   4.886
 9678SOL    HW229934   3.628   3.724   4.897
 9679SOL     OW29935   1.789   1.275   5.096
 9679SOL    HW129936   1.749   1.315   5.179
 9679SOL    HW229937   1.716   1.248   5.034
 9680SOL     OW29938   4.122   6.156   2.993
 9680SOL    HW129939   4.062   6.236   2.989
 9680SOL    HW229940   4.157   6.137   2.901
 9681SOL     OW29941   1.842   1.785   2.435
 9681SOL    HW129942   1.810   1.690   2.434
 9681SOL    HW229943   1.903   1.800   2.513
 9682SOL     OW29944   5.363   5.726   5.126
 9682SOL    HW129945   5.307   5.707   5.045
 9682SOL    HW229946   5.422   5.648   5.146
 9683SOL     OW29947   2.936   6.666   1.378
 9683SOL    HW129948   2.935   6.580   1.327
 9683SOL    HW229949   2.851   6.674   1.431
 9684SOL     OW29950   1.123   4.091   5.731
 9684SOL    HW129951   1.023   4.092   5.717
 9684SOL    HW229952   1.155   4.185   5.743
 9685SOL     OW29953   3.736   4.896   1.536
 9685SOL    HW129954   3.704   4.815   1.488
 9685SOL    HW229955   3.704   4.978   1.488
 9686SOL     OW29956   0.036   1.887   5.709
 9686SOL    HW129957   0.010   1.940   5.790
 9686SOL    HW229958   6.975   1.837   5.675
 9687SOL     OW29959   5.780   0.404   2.184
 9687SOL    HW129960   5.798   0.319   2.234
 9687SOL    HW229961   5.853   0.470   2.204
 9688SOL     OW29962   0.987   4.429   1.395
 9688SOL    HW129963   0.904   4.409   1.446
 9688SOL    HW229964   0.994   4.367   1.317
 9689SOL     OW29965   1.222   6.350   0.931
 9689SOL    HW129966   1.208   6.268   0.875
 9689SOL    HW229967   1.141   6.366   0.987
 9690SOL     OW29968   5.785   5.374   5.104
 9690SOL    HW129969   5.771   5.281   5.138
 9690SOL    HW229970   5.872   5.409   5.139
 9691SOL     OW29971   3.222   3.213   1.993
 9691SOL    HW129972   3.161   3.172   2.061
 9691SOL    HW229973   3.260   3.141   1.935
 9692SOL     OW29974   4.621   5.134   0.578
 9692SOL    HW129975   4.661   5.059   0.525
 9692SOL    HW229976   4.529   5.153   0.544
 9693SOL     OW29977   5.391   4.148   4.063
 9693SOL    HW129978   5.456   4.180   4.132
 9693SOL    HW229979   5.438   4.090   3.997
 9694SOL     OW29980   3.329   6.308   2.023
 9694SOL    HW129981   3.281   6.325   2.109
 9694SOL    HW229982   3.290   6.226   1.979
 9695SOL     OW29983   0.328   2.454   3.956
 9695SOL    HW129984   0.252   2.405   3.998
 9695SOL    HW229985   0.369   2.396   3.885
 9696SOL     OW29986   5.818   1.932   2.682
 9696SOL    HW129987   5.761   2.010   2.656
 9696SOL    HW229988   5.891   1.963   2.743
 9697SOL     OW29989   6.991   5.969   0.093
 9697SOL    HW129990   0.069   5.984   0.113
 9697SOL    HW229991   6.936   6.031   0.149
 9698SOL     OW29992   5.497   3.732   0.004
 9698SOL    HW129993   5.565   3.801   6.999
 9698SOL    HW229994   5.530   3.641   6.994
 9699SOL     OW29995   0.972   5.141   0.441
 9699SOL    HW129996   1.045   5.090   0.486
 9699SOL    HW229997   1.004   5.170   0.350
 9700SOL     OW29998   5.623   6.359   4.812
 9700SOL    HW129999   5.633   6.380   4.715
 9700SOL    HW230000   5.680   6.421   4.866
 9701SOL     OW30001   4.450   3.116   6.432
 9701SOL    HW130002   4.445   3.205   6.386
 9701SOL    HW230003   4.536   3.108   6.482
 9702SOL     OW30004   3.218   3.080   1.230
 9702SOL    HW130005   3.255   3.165   1.266
 9702SOL    HW230006   3.213   3.012   1.304
 9703SOL     OW30007   6.044   3.814   5.120
 9703SOL    HW130008   6.054   3.867   5.036
 9703SOL    HW230009   6.015   3.721   5.098
 9704SOL     OW30010   2.263   4.440   2.744
 9704SOL    HW130011   2.266   4.347   2.779
 9704SOL    HW230012   2.352   4.464   2.706
 9705SOL     OW30013   6.005   4.191   5.685
 9705SOL    HW130014   5.919   4.199   5.734
 9705SOL    HW230015   6.075   4.245   5.732
 9706SOL     OW30016   1.329   1.794   1.915
 9706SOL    HW130017   1.308   1.726   1.845
 9706SOL    HW230018   1.267   1.781   1.993
 9707SOL     OW30019   6.251   4.731   2.333
 9707SOL    HW130020   6.250   4.742   2.432
 9707SOL    HW230021   6.319   4.662   2.308
 9708SOL     OW30022   2.076   0.624   1.869
 9708SOL    HW130023   2.031   0.673   1.794
 9708SOL    HW230024   2.156   0.576   1.835
 9709SOL     OW30025   5.607   2.510   2.222
 9709SOL    HW130026   5.588   2.447   2.146
 9709SOL    HW230027   5.706   2.519   2.233
 9710SOL     OW30028   6.395   5.621   4.882
 9710SOL    HW130029   6.360   5.715   4.883
 9710SOL    HW230030   6.326   5.560   4.844
 9711SOL     OW30031   4.014   6.558   6.979
 9711SOL    HW130032   3.973   6.523   0.045
 9711SOL    HW230033   3.990   6.497   6.903
 9712SOL     OW30034   6.208   2.347   0.586
 9712SOL    HW130035   6.271   2.271   0.569
 9712SOL    HW230036   6.208   2.408   0.507
 9713SOL     OW30037   2.068   6.747   3.836
 9713SOL    HW130038   2.022   6.710   3.755
 9713SOL    HW230039   2.028   6.706   3.918
 9714SOL     OW30040   3.199   5.055   4.686
 9714SOL    HW130041   3.126   5.043   4.619
 9714SOL    HW230042   3.175   5.009   4.771
 9715SOL     OW30043   6.166   4.181   0.828
 9715SOL    HW130044   6.169   4.082   0.812
 9715SOL    HW230045   6.071   4.211   0.828
 9716SOL     OW30046   2.924   4.746   6.955
 9716SOL    HW130047   2.862   4.718   6.881
 9716SOL    HW230048   2.947   4.842   6.944
 9717SOL     OW30049   4.129   1.092   5.677
 9717SOL    HW130050   4.199   1.101   5.747
 9717SOL    HW230051   4.147   1.009   5.623
 9718SOL     OW30052   3.276   1.564   0.193
 9718SOL    HW130053   3.372   1.538   0.186
 9718SOL    HW230054   3.234   1.514   0.269
 9719SOL     OW30055   4.487   6.168   5.138
 9719SOL    HW130056   4.557   6.114   5.093
 9719SOL    HW230057   4.423   6.204   5.070
 9720SOL     OW30058   1.947   4.438   3.054
 9720SOL    HW130059   1.945   4.419   2.956
 9720SOL    HW230060   1.872   4.390   3.099
 9721SOL     OW30061   0.996   2.310   0.389
 9721SOL    HW130062   1.089   2.311   0.425
 9721SOL    HW230063   0.938   2.369   0.445
 9722SOL     OW30064   3.843   3.010   5.193
 9722SOL    HW130065   3.902   3.003   5.274
 9722SOL    HW230066   3.775   2.937   5.196
 9723SOL     OW30067   6.284   5.081   4.332
 9723SOL    HW130068   6.384   5.089   4.336
 9723SOL    HW230069   6.259   4.986   4.313
 9724SOL     OW30070   0.832   5.783   0.411
 9724SOL    HW130071   0.904   5.825   0.466
 9724SOL    HW230072   0.857   5.788   0.314
 9725SOL     OW30073   3.033   5.396   5.454
 9725SOL    HW130074   2.941   5.378   5.488
 9725SOL    HW230075   3.055   5.493   5.468
 9726SOL     OW30076   6.027   1.049   4.385
 9726SOL    HW130077   5.963   1.072   4.459
 9726SOL    HW230078   6.077   1.132   4.358
 9727SOL     OW30079   1.002   1.513   6.812
 9727SOL    HW130080   1.079   1.452   6.792
 9727SOL    HW230081   0.916   1.462   6.802
 9728SOL     OW30082   5.125   0.230   5.994
 9728SOL    HW130083   5.182   0.311   6.010
 9728SOL    HW230084   5.124   0.174   6.077
 9729SOL     OW30085   0.509   4.910   3.155
 9729SOL    HW130086   0.509   4.815   3.186
 9729SOL    HW230087   0.591   4.956   3.188
 9730SOL     OW30088   0.572   4.445   3.054
 9730SOL    HW130089   0.596   4.532   3.010
 9730SOL    HW230090   0.580   4.371   2.987
 9731SOL     OW30091   5.254   3.868   2.988
 9731SOL    HW130092   5.206   3.955   2.973
 9731SOL    HW230093   5.198   3.792   2.955
 9732SOL     OW30094   1.390   3.009   2.471
 9732SOL    HW130095   1.290   3.011   2.481
 9732SOL    HW230096   1.417   3.071   2.398
 9733SOL     OW30097   6.418   5.287   2.754
 9733SOL    HW130098   6.323   5.261   2.741
 9733SOL    HW230099   6.445   5.353   2.683
 9734SOL     OW30100   6.104   0.006   6.664
 9734SOL    HW130101   6.144   6.971   6.590
 9734SOL    HW230102   6.159   0.089   6.679
 9735SOL     OW30103   0.871   1.715   2.208
 9735SOL    HW130104   0.863   1.727   2.307
 9735SOL    HW230105   0.852   1.801   2.162
 9736SOL     OW30106   4.522   2.371   5.228
 9736SOL    HW130107   4.517   2.444   5.295
 9736SOL    HW230108   4.614   2.330   5.229
 9737SOL     OW30109   6.375   2.029   2.286
 9737SOL    HW130110   6.342   1.934   2.290
 9737SOL    HW230111   6.432   2.040   2.204
 9738SOL     OW30112   2.092   5.611   1.193
 9738SOL    HW130113   2.146   5.598   1.109
 9738SOL    HW230114   2.141   5.571   1.271
 9739SOL     OW30115   5.371   0.092   0.305
 9739SOL    HW130116   5.290   0.122   0.255
 9739SOL    HW230117   5.449   0.150   0.281
 9740SOL     OW30118   6.901   0.503   2.952
 9740SOL    HW130119   6.945   0.506   2.862
 9740SOL    HW230120   6.818   0.560   2.950
 9741SOL     OW30121   3.089   1.414   4.578
 9741SOL    HW130122   3.114   1.408   4.675
 9741SOL    HW230123   3.090   1.322   4.538
 9742SOL     OW30124   3.895   1.869   6.184
 9742SOL    HW130125   3.916   1.966   6.173
 9742SOL    HW230126   3.817   1.859   6.246
 9743SOL     OW30127   6.318   2.889   3.487
 9743SOL    HW130128   6.353   2.853   3.401
 9743SOL    HW230129   6.283   2.814   3.543
 9744SOL     OW30130   1.918   6.946   3.461
 9744SOL    HW130131   1.994   6.886   3.439
 9744SOL    HW230132   1.943   7.006   3.537
 9745SOL     OW30133   6.033   0.981   5.927
 9745SOL    HW130134   6.046   0.900   5.870
 9745SOL    HW230135   6.114   1.040   5.921
 9746SOL     OW30136   4.962   5.579   6.191
 9746SOL    HW130137   5.031   5.641   6.228
 9746SOL    HW230138   4.956   5.591   6.092
 9747SOL     OW30139   2.400   2.573   2.231
 9747SOL    HW130140   2.475   2.529   2.282
 9747SOL    HW230141   2.376   2.516   2.153
 9748SOL     OW30142   1.130   0.777   3.131
 9748SOL    HW130143   1.169   0.702   3.078
 9748SOL    HW230144   1.054   0.742   3.187
 9749SOL     OW30145   0.165   1.655   2.835
 9749SOL    HW130146   0.152   1.576   2.895
 9749SOL    HW230147   0.183   1.624   2.742
 9750SOL     OW30148   6.385   4.821   3.857
 9750SOL    HW130149   6.452   4.778   3.918
 9750SOL    HW230150   6.300   4.836   3.907
 9751SOL     OW30151   2.586   1.199   1.877
 9751SOL    HW130152   2.584   1.102   1.902
 9751SOL    HW230153   2.615   1.208   1.782
 9752SOL     OW30154   4.276   2.920   0.747
 9752SOL    HW130155   4.201   2.887   0.689
 9752SOL    HW230156   4.238   2.977   0.821
 9753SOL     OW30157   6.118   6.096   5.710
 9753SOL    HW130158   6.174   6.138   5.638
 9753SOL    HW230159   6.116   6.157   5.789
 9754SOL     OW30160   3.855   0.353   1.389
 9754SOL    HW130161   3.758   0.354   1.365
 9754SOL    HW230162   3.903   0.423   1.335
 9755SOL     OW30163   3.382   3.915   5.880
 9755SOL    HW130164   3.407   3.979   5.953
 9755SOL    HW230165   3.396   3.821   5.912
 9756SOL     OW30166   5.649   0.869   6.540
 9756SOL    HW130167   5.732   0.922   6.562
 9756SOL    HW230168   5.632   0.876   6.442
 9757SOL     OW30169   5.108   4.051   4.084
 9757SOL    HW130170   5.192   4.105   4.087
 9757SOL    HW230171   5.051   4.082   4.008
 9758SOL     OW30172   2.158   0.831   0.761
 9758SOL    HW130173   2.224   0.764   0.795
 9758SOL    HW230174   2.066   0.806   0.791
 9759SOL     OW30175   1.703   1.974   0.829
 9759SOL    HW130176   1.634   1.907   0.802
 9759SOL    HW230177   1.785   1.962   0.773
 9760SOL     OW30178   4.878   2.179   0.117
 9760SOL    HW130179   4.793   2.130   0.136
 9760SOL    HW230180   4.895   2.245   0.191
 9761SOL     OW30181   1.686   1.138   1.885
 9761SOL    HW130182   1.691   1.237   1.880
 9761SOL    HW230183   1.605   1.111   1.936
 9762SOL     OW30184   2.962   1.788   5.671
 9762SOL    HW130185   2.920   1.799   5.762
 9762SOL    HW230186   3.057   1.819   5.675
 9763SOL     OW30187   6.375   0.972   1.558
 9763SOL    HW130188   6.379   0.886   1.608
 9763SOL    HW230189   6.448   1.033   1.589
 9764SOL     OW30190   5.552   1.909   2.385
 9764SOL    HW130191   5.480   1.842   2.367
 9764SOL    HW230192   5.512   1.992   2.423
 9765SOL     OW30193   6.923   1.370   2.040
 9765SOL    HW130194   6.982   1.329   2.109
 9765SOL    HW230195   6.931   1.319   1.955
 9766SOL     OW30196   2.008   0.976   3.826
 9766SOL    HW130197   1.935   1.045   3.824
 9766SOL    HW230198   1.979   0.895   3.776
 9767SOL     OW30199   2.012   2.960   5.890
 9767SOL    HW130200   2.017   3.053   5.926
 9767SOL    HW230201   1.974   2.899   5.959
 9768SOL     OW30202   6.104   2.145   0.994
 9768SOL    HW130203   6.180   2.192   1.039
 9768SOL    HW230204   6.034   2.120   1.062
 9769SOL     OW30205   2.832   1.751   4.935
 9769SOL    HW130206   2.858   1.727   4.842
 9769SOL    HW230207   2.867   1.842   4.957
 9770SOL     OW30208   3.345   2.349   6.445
 9770SOL    HW130209   3.262   2.321   6.494
 9770SOL    HW230210   3.326   2.431   6.391
 9771SOL     OW30211   2.500   6.326   2.524
 9771SOL    HW130212   2.536   6.238   2.556
 9771SOL    HW230213   2.569   6.397   2.539
 9772SOL     OW30214   1.158   6.109   1.601
 9772SOL    HW130215   1.109   6.157   1.528
 9772SOL    HW230216   1.206   6.030   1.563
 9773SOL     OW30217   5.193   5.289   2.094
 9773SOL    HW130218   5.211   5.192   2.108
 9773SOL    HW230219   5.280   5.338   2.087
 9774SOL     OW30220   0.485   5.659   4.197
 9774SOL    HW130221   0.585   5.661   4.199
 9774SOL    HW230222   0.452   5.721   4.127
 9775SOL     OW30223   2.469   0.963   3.657
 9775SOL    HW130224   2.510   1.038   3.605
 9775SOL    HW230225   2.441   0.997   3.747
 9776SOL     OW30226   1.674   5.492   6.379
 9776SOL    HW130227   1.586   5.444   6.377
 9776SOL    HW230228   1.727   5.466   6.299
 9777SOL     OW30229   5.300   7.010   6.490
 9777SOL    HW130230   5.395   6.980   6.480
 9777SOL    HW230231   5.288   0.039   6.577
 9778SOL     OW30232   0.634   1.863   4.518
 9778SOL    HW130233   0.654   1.950   4.472
 9778SOL    HW230234   0.715   1.834   4.570
 9779SOL     OW30235   0.805   1.622   3.768
 9779SOL    HW130236   0.714   1.645   3.735
 9779SOL    HW230237   0.814   1.522   3.773
 9780SOL     OW30238   1.894   1.681   1.325
 9780SOL    HW130239   1.887   1.775   1.357
 9780SOL    HW230240   1.827   1.666   1.252
 9781SOL     OW30241   1.409   3.356   3.230
 9781SOL    HW130242   1.490   3.331   3.177
 9781SOL    HW230243   1.352   3.419   3.177
 9782SOL     OW30244   0.637   2.449   0.700
 9782SOL    HW130245   0.634   2.387   0.779
 9782SOL    HW230246   0.545   2.483   0.680
 9783SOL     OW30247   3.507   1.203   3.457
 9783SOL    HW130248   3.504   1.285   3.514
 9783SOL    HW230249   3.545   1.225   3.368
 9784SOL     OW30250   2.408   1.771   0.291
 9784SOL    HW130251   2.465   1.780   0.373
 9784SOL    HW230252   2.467   1.765   0.210
 9785SOL     OW30253   0.038   2.251   4.689
 9785SOL    HW130254   0.050   2.280   4.784
 9785SOL    HW230255   0.080   2.319   4.628
 9786SOL     OW30256   2.349   4.578   0.943
 9786SOL    HW130257   2.272   4.584   0.879
 9786SOL    HW230258   2.423   4.526   0.900
 9787SOL     OW30259   3.524   3.351   2.639
 9787SOL    HW130260   3.464   3.275   2.664
 9787SOL    HW230261   3.523   3.363   2.539
 9788SOL     OW30262   0.667   5.642   1.925
 9788SOL    HW130263   0.683   5.638   2.023
 9788SOL    HW230264   0.595   5.708   1.905
 9789SOL     OW30265   3.035   6.838   6.601
 9789SOL    HW130266   3.072   6.913   6.546
 9789SOL    HW230267   3.077   6.839   6.692
 9790SOL     OW30268   0.067   3.886   4.283
 9790SOL    HW130269   0.063   3.841   4.193
 9790SOL    HW230270   6.997   3.876   4.329
 9791SOL     OW30271   0.780   6.368   0.687
 9791SOL    HW130272   0.781   6.355   0.786
 9791SOL    HW230273   0.864   6.329   0.648
 9792SOL     OW30274   3.782   5.376   1.145
 9792SOL    HW130275   3.782   5.422   1.234
 9792SOL    HW230276   3.721   5.297   1.149
 9793SOL     OW30277   4.762   1.458   2.290
 9793SOL    HW130278   4.781   1.548   2.330
 9793SOL    HW230279   4.680   1.463   2.233
 9794SOL     OW30280   4.669   4.860   4.761
 9794SOL    HW130281   4.738   4.893   4.696
 9794SOL    HW230282   4.622   4.937   4.802
 9795SOL     OW30283   0.803   2.886   3.483
 9795SOL    HW130284   0.837   2.941   3.407
 9795SOL    HW230285   0.839   2.793   3.475
 9796SOL     OW30286   3.455   4.158   3.494
 9796SOL    HW130287   3.426   4.244   3.452
 9796SOL    HW230288   3.551   4.163   3.520
 9797SOL     OW30289   3.129   6.363   6.688
 9797SOL    HW130290   3.182   6.383   6.606
 9797SOL    HW230291   3.034   6.390   6.674
 9798SOL     OW30292   1.468   2.606   1.249
 9798SOL    HW130293   1.546   2.585   1.309
 9798SOL    HW230294   1.497   2.594   1.154
 9799SOL     OW30295   3.169   5.936   6.299
 9799SOL    HW130296   3.096   5.882   6.340
 9799SOL    HW230297   3.193   5.899   6.209
 9800SOL     OW30298   5.376   2.921   3.993
 9800SOL    HW130299   5.290   2.893   3.951
 9800SOL    HW230300   5.369   2.910   4.093
 9801SOL     OW30301   6.026   4.790   6.381
 9801SOL    HW130302   5.937   4.757   6.414
 9801SOL    HW230303   6.091   4.715   6.379
 9802SOL     OW30304   4.244   5.047   1.402
 9802SOL    HW130305   4.308   5.072   1.330
 9802SOL    HW230306   4.176   5.120   1.413
 9803SOL     OW30307   1.269   3.650   6.449
 9803SOL    HW130308   1.268   3.657   6.349
 9803SOL    HW230309   1.324   3.723   6.487
 9804SOL     OW30310   6.521   5.399   3.139
 9804SOL    HW130311   6.511   5.497   3.155
 9804SOL    HW230312   6.431   5.358   3.128
 9805SOL     OW30313   0.378   6.588   3.821
 9805SOL    HW130314   0.314   6.531   3.770
 9805SOL    HW230315   0.333   6.672   3.849
 9806SOL     OW30316   3.974   2.602   5.943
 9806SOL    HW130317   4.058   2.591   5.996
 9806SOL    HW230318   3.976   2.689   5.894
 9807SOL     OW30319   2.838   3.434   2.266
 9807SOL    HW130320   2.738   3.433   2.275
 9807SOL    HW230321   2.876   3.352   2.309
 9808SOL     OW30322   4.768   6.338   3.855
 9808SOL    HW130323   4.772   6.390   3.770
 9808SOL    HW230324   4.675   6.305   3.870
 9809SOL     OW30325   0.180   3.135   0.693
 9809SOL    HW130326   0.098   3.141   0.750
 9809SOL    HW230327   0.232   3.220   0.702
 9810SOL     OW30328   2.169   1.635   5.607
 9810SOL    HW130329   2.196   1.626   5.511
 9810SOL    HW230330   2.248   1.620   5.665
 9811SOL     OW30331   6.594   3.901   4.263
 9811SOL    HW130332   6.614   3.973   4.329
 9811SOL    HW230333   6.650   3.915   4.181
 9812SOL     OW30334   2.377   6.864   4.607
 9812SOL    HW130335   2.295   6.896   4.655
 9812SOL    HW230336   2.354   6.849   4.510
 9813SOL     OW30337   5.507   2.301   0.494
 9813SOL    HW130338   5.594   2.348   0.476
 9813SOL    HW230339   5.473   2.260   0.409
 9814SOL     OW30340   5.963   1.799   0.035
 9814SOL    HW130341   5.909   1.820   0.116
 9814SOL    HW230342   6.021   1.878   0.013
 9815SOL     OW30343   4.767   2.886   4.641
 9815SOL    HW130344   4.669   2.898   4.624
 9815SOL    HW230345   4.820   2.946   4.581
 9816SOL     OW30346   1.122   0.457   0.548
 9816SOL    HW130347   1.203   0.453   0.607
 9816SOL    HW230348   1.049   0.506   0.595
 9817SOL     OW30349   0.464   0.319   3.200
 9817SOL    HW130350   0.400   0.381   3.246
 9817SOL    HW230351   0.554   0.325   3.242
 9818SOL     OW30352   6.090   1.669   4.749
 9818SOL    HW130353   6.176   1.692   4.795
 9818SOL    HW230354   6.059   1.749   4.696
 9819SOL     OW30355   3.894   1.692   3.432
 9819SOL    HW130356   3.953   1.770   3.413
 9819SOL    HW230357   3.894   1.630   3.353
 9820SOL     OW30358   3.303   4.072   5.638
 9820SOL    HW130359   3.308   4.026   5.549
 9820SOL    HW230360   3.343   4.013   5.708
 9821SOL     OW30361   5.452   5.893   6.969
 9821SOL    HW130362   5.517   5.845   0.009
 9821SOL    HW230363   5.388   5.944   0.008
 9822SOL     OW30364   0.308   7.002   3.046
 9822SOL    HW130365   0.320   0.005   3.143
 9822SOL    HW230366   0.247   0.050   3.004
 9823SOL     OW30367   3.409   0.787   1.941
 9823SOL    HW130368   3.372   0.694   1.936
 9823SOL    HW230369   3.343   0.851   1.903
 9824SOL     OW30370   0.850   4.002   5.189
 9824SOL    HW130371   0.785   3.927   5.200
 9824SOL    HW230372   0.908   4.008   5.271
 9825SOL     OW30373   3.660   5.127   5.330
 9825SOL    HW130374   3.687   5.214   5.289
 9825SOL    HW230375   3.560   5.123   5.337
 9826SOL     OW30376   4.506   5.695   6.080
 9826SOL    HW130377   4.449   5.717   6.160
 9826SOL    HW230378   4.453   5.642   6.014
 9827SOL     OW30379   1.870   4.248   4.793
 9827SOL    HW130380   1.881   4.339   4.834
 9827SOL    HW230381   1.899   4.178   4.858
 9828SOL     OW30382   3.505   3.044   6.163
 9828SOL    HW130383   3.413   3.062   6.198
 9828SOL    HW230384   3.571   3.099   6.214
 9829SOL     OW30385   3.364   6.280   0.448
 9829SOL    HW130386   3.410   6.191   0.446
 9829SOL    HW230387   3.274   6.272   0.406
 9830SOL     OW30388   6.154   1.666   0.979
 9830SOL    HW130389   6.168   1.714   1.065
 9830SOL    HW230390   6.192   1.721   0.904
 9831SOL     OW30391   0.969   6.134   1.244
 9831SOL    HW130392   0.944   6.038   1.237
 9831SOL    HW230393   0.931   6.173   1.327
 9832SOL     OW30394   4.414   5.021   2.700
 9832SOL    HW130395   4.355   5.043   2.778
 9832SOL    HW230396   4.381   5.071   2.619
 9833SOL     OW30397   3.394   3.504   4.951
 9833SOL    HW130398   3.328   3.565   4.993
 9833SOL    HW230399   3.390   3.414   4.994
 9834SOL     OW30400   2.678   3.541   5.617
 9834SOL    HW130401   2.624   3.457   5.620
 9834SOL    HW230402   2.660   3.588   5.531
 9835SOL     OW30403   4.730   1.629   3.849
 9835SOL    HW130404   4.782   1.681   3.917
 9835SOL    HW230405   4.723   1.682   3.764
 9836SOL     OW30406   5.773   3.436   3.252
 9836SOL    HW130407   5.732   3.498   3.186
 9836SOL    HW230408   5.868   3.419   3.227
 9837SOL     OW30409   2.045   0.035   3.800
 9837SOL    HW130410   2.134   0.064   3.764
 9837SOL    HW230411   2.047   6.956   3.820
 9838SOL     OW30412   1.098   6.572   5.851
 9838SOL    HW130413   1.008   6.616   5.847
 9838SOL    HW230414   1.108   6.525   5.939
 9839SOL     OW30415   6.832   1.417   2.606
 9839SOL    HW130416   6.802   1.344   2.545
 9839SOL    HW230417   6.907   1.467   2.564
 9840SOL     OW30418   0.466   0.517   0.689
 9840SOL    HW130419   0.435   0.423   0.676
 9840SOL    HW230420   0.548   0.533   0.635
 9841SOL     OW30421   1.667   4.293   4.433
 9841SOL    HW130422   1.625   4.260   4.518
 9841SOL    HW230423   1.607   4.270   4.356
 9842SOL     OW30424   3.402   2.963   3.513
 9842SOL    HW130425   3.475   3.015   3.559
 9842SOL    HW230426   3.318   2.972   3.566
 9843SOL     OW30427   6.531   2.325   1.291
 9843SOL    HW130428   6.559   2.232   1.316
 9843SOL    HW230429   6.531   2.383   1.372
 9844SOL     OW30430   4.032   6.997   2.809
 9844SOL    HW130431   4.105   0.045   2.827
 9844SOL    HW230432   3.947   0.027   2.791
 9845SOL     OW30433   2.204   1.588   4.934
 9845SOL    HW130434   2.258   1.672   4.932
 9845SOL    HW230435   2.263   1.510   4.955
 9846SOL     OW30436   3.019   3.727   3.494
 9846SOL    HW130437   3.028   3.782   3.577
 9846SOL    HW230438   3.023   3.630   3.517
 9847SOL     OW30439   2.586   3.070   6.006
 9847SOL    HW130440   2.509   3.047   5.946
 9847SOL    HW230441   2.617   2.988   6.053
 9848SOL     OW30442   3.885   2.180   6.859
 9848SOL    HW130443   3.929   2.267   6.840
 9848SOL    HW230444   3.939   2.106   6.820
 9849SOL     OW30445   5.656   0.412   6.493
 9849SOL    HW130446   5.710   0.334   6.462
 9849SOL    HW230447   5.694   0.497   6.455
 9850SOL     OW30448   4.717   5.989   2.291
 9850SOL    HW130449   4.657   5.916   2.323
 9850SOL    HW230450   4.776   6.019   2.365
 9851SOL     OW30451   4.365   2.020   4.963
 9851SOL    HW130452   4.356   2.120   4.965
 9851SOL    HW230453   4.306   1.982   4.892
 9852SOL     OW30454   4.524   1.596   3.182
 9852SOL    HW130455   4.600   1.661   3.169
 9852SOL    HW230456   4.513   1.579   3.280
 9853SOL     OW30457   4.787   4.049   2.936
 9853SOL    HW130458   4.883   4.077   2.940
 9853SOL    HW230459   4.765   3.995   3.017
 9854SOL     OW30460   6.033   4.904   5.380
 9854SOL    HW130461   5.943   4.933   5.348
 9854SOL    HW230462   6.101   4.919   5.308
 9855SOL     OW30463   0.699   4.297   1.314
 9855SOL    HW130464   0.600   4.283   1.315
 9855SOL    HW230465   0.723   4.363   1.243
 9856SOL     OW30466   4.234   4.482   6.919
 9856SOL    HW130467   4.287   4.438   6.847
 9856SOL    HW230468   4.180   4.556   6.880
 9857SOL     OW30469   5.205   2.016   2.914
 9857SOL    HW130470   5.202   2.098   2.972
 9857SOL    HW230471   5.237   1.938   2.967
 9858SOL     OW30472   5.107   0.940   1.463
 9858SOL    HW130473   5.054   0.979   1.538
 9858SOL    HW230474   5.044   0.894   1.400
 9859SOL     OW30475   6.601   7.011   1.356
 9859SOL    HW130476   6.676   0.055   1.375
 9859SOL    HW230477   6.637   6.926   1.317
 9860SOL     OW30478   0.600   1.296   1.540
 9860SOL    HW130479   0.513   1.247   1.529
 9860SOL    HW230480   0.635   1.322   1.451
 9861SOL     OW30481   3.908   6.732   4.466
 9861SOL    HW130482   3.856   6.776   4.539
 9861SOL    HW230483   3.900   6.633   4.475
 9862SOL     OW30484   2.617   3.801   0.564
 9862SOL    HW130485   2.692   3.758   0.615
 9862SOL    HW230486   2.544   3.826   0.628
 9863SOL     OW30487   2.745   6.867   2.960
 9863SOL    HW130488   2.776   6.887   2.867
 9863SOL    HW230489   2.701   6.948   2.999
 9864SOL     OW30490   4.140   5.917   3.511
 9864SOL    HW130491   4.042   5.899   3.522
 9864SOL    HW230492   4.154   6.012   3.484
 9865SOL     OW30493   0.718   1.175   3.728
 9865SOL    HW130494   0.756   1.083   3.735
 9865SOL    HW230495   0.645   1.176   3.660
 9866SOL     OW30496   5.076   4.296   4.761
 9866SOL    HW130497   4.987   4.251   4.750
 9866SOL    HW230498   5.070   4.361   4.837
 9867SOL     OW30499   4.343   0.732   1.038
 9867SOL    HW130500   4.411   0.778   1.095
 9867SOL    HW230501   4.348   0.766   0.945
 9868SOL     OW30502   1.630   4.735   6.006
 9868SOL    HW130503   1.702   4.791   5.966
 9868SOL    HW230504   1.595   4.671   5.937
 9869SOL     OW30505   2.132   3.572   2.924
 9869SOL    HW130506   2.090   3.538   3.008
 9869SOL    HW230507   2.100   3.518   2.847
 9870SOL     OW30508   4.280   5.622   2.179
 9870SOL    HW130509   4.256   5.709   2.135
 9870SOL    HW230510   4.212   5.553   2.155
 9871SOL     OW30511   0.912   6.663   6.139
 9871SOL    HW130512   0.856   6.614   6.206
 9871SOL    HW230513   0.853   6.695   6.065
 9872SOL     OW30514   2.584   5.178   2.984
 9872SOL    HW130515   2.571   5.081   3.005
 9872SOL    HW230516   2.495   5.221   2.970
 9873SOL     OW30517   2.017   2.442   1.370
 9873SOL    HW130518   1.957   2.521   1.375
 9873SOL    HW230519   2.006   2.386   1.452
 9874SOL     OW30520   0.653   2.218   4.286
 9874SOL    HW130521   0.648   2.317   4.272
 9874SOL    HW230522   0.665   2.200   4.384
 9875SOL     OW30523   0.040   6.907   2.343
 9875SOL    HW130524   0.108   6.929   2.273
 9875SOL    HW230525   0.066   6.952   2.429
 9876SOL     OW30526   0.101   0.769   2.359
 9876SOL    HW130527   0.146   0.701   2.418
 9876SOL    HW230528   0.159   0.788   2.280
 9877SOL     OW30529   1.496   5.855   2.394
 9877SOL    HW130530   1.581   5.906   2.390
 9877SOL    HW230531   1.448   5.864   2.307
 9878SOL     OW30532   2.249   5.421   5.192
 9878SOL    HW130533   2.155   5.446   5.214
 9878SOL    HW230534   2.249   5.343   5.130
 9879SOL     OW30535   5.502   5.167   4.941
 9879SOL    HW130536   5.446   5.139   4.863
 9879SOL    HW230537   5.481   5.262   4.963
 9880SOL     OW30538   1.808   2.577   5.302
 9880SOL    HW130539   1.825   2.487   5.262
 9880SOL    HW230540   1.741   2.569   5.375
 9881SOL     OW30541   2.043   2.068   5.003
 9881SOL    HW130542   2.133   2.085   4.962
 9881SOL    HW230543   2.021   1.971   4.997
 9882SOL     OW30544   1.176   1.997   3.802
 9882SOL    HW130545   1.233   2.075   3.779
 9882SOL    HW230546   1.216   1.948   3.880
 9883SOL     OW30547   1.058   5.828   0.731
 9883SOL    HW130548   1.145   5.876   0.717
 9883SOL    HW230549   1.069   5.732   0.708
 9884SOL     OW30550   3.958   1.533   2.976
 9884SOL    HW130551   3.947   1.520   2.878
 9884SOL    HW230552   3.955   1.631   2.997
 9885SOL     OW30553   0.168   3.532   5.421
 9885SOL    HW130554   0.201   3.612   5.470
 9885SOL    HW230555   0.246   3.476   5.392
 9886SOL     OW30556   0.691   4.641   2.196
 9886SOL    HW130557   0.732   4.555   2.167
 9886SOL    HW230558   0.726   4.716   2.139
 9887SOL     OW30559   3.509   1.600   6.258
 9887SOL    HW130560   3.443   1.536   6.218
 9887SOL    HW230561   3.509   1.590   6.358
 9888SOL     OW30562   6.966   4.541   0.827
 9888SOL    HW130563   6.965   4.506   0.733
 9888SOL    HW230564   0.041   4.563   0.853
 9889SOL     OW30565   6.455   4.900   1.068
 9889SOL    HW130566   6.365   4.936   1.046
 9889SOL    HW230567   6.521   4.975   1.074
 9890SOL     OW30568   1.834   2.326   6.888
 9890SOL    HW130569   1.903   2.292   6.951
 9890SOL    HW230570   1.775   2.392   6.935
 9891SOL     OW30571   5.612   2.794   1.160
 9891SOL    HW130572   5.642   2.779   1.066
 9891SOL    HW230573   5.556   2.876   1.164
 9892SOL     OW30574   6.455   5.629   0.519
 9892SOL    HW130575   6.377   5.619   0.458
 9892SOL    HW230576   6.526   5.562   0.495
 9893SOL     OW30577   1.367   0.439   0.687
 9893SOL    HW130578   1.354   0.477   0.778
 9893SOL    HW230579   1.399   0.344   0.694
 9894SOL     OW30580   2.029   1.941   1.616
 9894SOL    HW130581   2.108   1.909   1.564
 9894SOL    HW230582   2.054   1.950   1.712
 9895SOL     OW30583   5.280   3.616   5.599
 9895SOL    HW130584   5.200   3.562   5.626
 9895SOL    HW230585   5.332   3.565   5.531
 9896SOL     OW30586   6.100   6.869   5.816
 9896SOL    HW130587   6.009   6.873   5.773
 9896SOL    HW230588   6.102   6.929   5.895
 9897SOL     OW30589   5.782   5.503   3.491
 9897SOL    HW130590   5.684   5.489   3.476
 9897SOL    HW230591   5.818   5.430   3.548
 9898SOL     OW30592   2.527   5.483   6.168
 9898SOL    HW130593   2.576   5.508   6.085
 9898SOL    HW230594   2.539   5.385   6.185
 9899SOL     OW30595   0.099   5.713   0.147
 9899SOL    HW130596   0.168   5.721   0.075
 9899SOL    HW230597   0.034   5.789   0.140
 9900SOL     OW30598   1.664   3.640   3.538
 9900SOL    HW130599   1.565   3.626   3.541
 9900SOL    HW230600   1.685   3.738   3.547
 9901SOL     OW30601   2.966   1.585   6.080
 9901SOL    HW130602   2.932   1.648   6.010
 9901SOL    HW230603   2.992   1.637   6.162
 9902SOL     OW30604   3.029   5.016   6.901
 9902SOL    HW130605   3.034   5.075   6.820
 9902SOL    HW230606   3.119   5.012   6.944
 9903SOL     OW30607   4.901   0.905   1.661
 9903SOL    HW130608   4.943   0.823   1.622
 9903SOL    HW230609   4.816   0.881   1.707
 9904SOL     OW30610   0.770   3.218   6.586
 9904SOL    HW130611   0.717   3.172   6.657
 9904SOL    HW230612   0.709   3.264   6.522
 9905SOL     OW30613   2.813   0.551   6.772
 9905SOL    HW130614   2.814   0.638   6.723
 9905SOL    HW230615   2.894   0.498   6.746
 9906SOL     OW30616   2.877   3.447   1.993
 9906SOL    HW130617   2.918   3.357   1.980
 9906SOL    HW230618   2.857   3.461   2.090
 9907SOL     OW30619   6.500   0.923   0.432
 9907SOL    HW130620   6.564   0.985   0.386
 9907SOL    HW230621   6.420   0.908   0.374
 9908SOL     OW30622   5.761   1.536   3.999
 9908SOL    HW130623   5.840   1.501   3.947
 9908SOL    HW230624   5.794   1.598   4.070
 9909SOL     OW30625   3.590   0.438   3.749
 9909SOL    HW130626   3.602   0.535   3.731
 9909SOL    HW230627   3.677   0.397   3.775
 9910SOL     OW30628   1.048   3.648   2.809
 9910SOL    HW130629   1.010   3.564   2.848
 9910SOL    HW230630   1.122   3.681   2.867
 9911SOL     OW30631   3.473   6.631   2.337
 9911SOL    HW130632   3.463   6.606   2.241
 9911SOL    HW230633   3.566   6.662   2.354
 9912SOL     OW30634   3.661   1.770   1.861
 9912SOL    HW130635   3.734   1.782   1.793
 9912SOL    HW230636   3.684   1.693   1.921
 9913SOL     OW30637   6.427   4.320   0.543
 9913SOL    HW130638   6.424   4.413   0.507
 9913SOL    HW230639   6.501   4.270   0.498
 9914SOL     OW30640   5.181   2.521   5.089
 9914SOL    HW130641   5.095   2.500   5.137
 9914SOL    HW230642   5.230   2.593   5.139
 9915SOL     OW30643   5.658   0.929   3.725
 9915SOL    HW130644   5.580   0.878   3.687
 9915SOL    HW230645   5.724   0.865   3.764
 9916SOL     OW30646   1.984   2.738   3.304
 9916SOL    HW130647   1.960   2.681   3.383
 9916SOL    HW230648   2.075   2.713   3.272
 9917SOL     OW30649   5.864   3.914   0.191
 9917SOL    HW130650   5.942   3.959   0.234
 9917SOL    HW230651   5.784   3.920   0.251
 9918SOL     OW30652   3.176   1.512   3.012
 9918SOL    HW130653   3.102   1.551   2.958
 9918SOL    HW230654   3.212   1.582   3.074
 9919SOL     OW30655   6.212   4.975   1.117
 9919SOL    HW130656   6.198   4.881   1.149
 9919SOL    HW230657   6.132   5.004   1.064
 9920SOL     OW30658   4.661   1.845   1.623
 9920SOL    HW130659   4.621   1.773   1.680
 9920SOL    HW230660   4.597   1.872   1.552
 9921SOL     OW30661   4.751   6.354   6.512
 9921SOL    HW130662   4.772   6.269   6.560
 9921SOL    HW230663   4.819   6.370   6.440
 9922SOL     OW30664   2.115   4.600   0.792
 9922SOL    HW130665   2.060   4.664   0.738
 9922SOL    HW230666   2.060   4.562   0.866
 9923SOL     OW30667   4.917   4.533   0.241
 9923SOL    HW130668   4.884   4.538   0.335
 9923SOL    HW230669   4.990   4.465   0.234
 9924SOL     OW30670   6.193   2.295   5.041
 9924SOL    HW130671   6.236   2.333   5.123
 9924SOL    HW230672   6.130   2.362   5.002
 9925SOL     OW30673   6.905   3.429   3.595
 9925SOL    HW130674   6.968   3.470   3.530
 9925SOL    HW230675   6.825   3.393   3.547
 9926SOL     OW30676   3.274   3.140   0.525
 9926SOL    HW130677   3.359   3.137   0.473
 9926SOL    HW230678   3.277   3.217   0.589
 9927SOL     OW30679   0.261   0.324   1.252
 9927SOL    HW130680   0.347   0.273   1.242
 9927SOL    HW230681   0.281   0.420   1.271
 9928SOL     OW30682   5.043   6.374   1.778
 9928SOL    HW130683   5.080   6.299   1.834
 9928SOL    HW230684   5.069   6.361   1.683
 9929SOL     OW30685   2.635   5.330   4.946
 9929SOL    HW130686   2.549   5.289   4.915
 9929SOL    HW230687   2.646   5.313   5.044
 9930SOL     OW30688   6.394   6.758   4.722
 9930SOL    HW130689   6.448   6.803   4.651
 9930SOL    HW230690   6.436   6.670   4.744
 9931SOL     OW30691   1.107   4.687   4.631
 9931SOL    HW130692   1.015   4.727   4.624
 9931SOL    HW230693   1.172   4.758   4.657
 9932SOL     OW30694   2.121   5.029   6.495
 9932SOL    HW130695   2.098   5.105   6.434
 9932SOL    HW230696   2.106   4.942   6.447
 9933SOL     OW30697   1.177   5.167   3.376
 9933SOL    HW130698   1.167   5.133   3.470
 9933SOL    HW230699   1.095   5.147   3.324
 9934SOL     OW30700   5.701   1.442   5.587
 9934SOL    HW130701   5.642   1.460   5.508
 9934SOL    HW230702   5.651   1.390   5.656
 9935SOL     OW30703   3.273   6.915   0.163
 9935SOL    HW130704   3.214   6.850   0.117
 9935SOL    HW230705   3.317   6.974   0.096
 9936SOL     OW30706   6.965   5.006   6.064
 9936SOL    HW130707   6.948   5.012   5.966
 9936SOL    HW230708   0.006   4.927   6.083
 9937SOL     OW30709   6.694   1.544   6.400
 9937SOL    HW130710   6.655   1.572   6.488
 9937SOL    HW230711   6.726   1.626   6.351
 9938SOL     OW30712   7.007   5.159   2.999
 9938SOL    HW130713   6.933   5.218   3.031
 9938SOL    HW230714   0.058   5.152   3.070
 9939SOL     OW30715   4.018   2.039   0.401
 9939SOL    HW130716   3.944   1.974   0.413
 9939SOL    HW230717   4.070   2.015   0.319
 9940SOL     OW30718   1.166   0.923   1.167
 9940SOL    HW130719   1.159   1.010   1.119
 9940SOL    HW230720   1.094   0.918   1.237
 9941SOL     OW30721   3.250   3.801   5.013
 9941SOL    HW130722   3.282   3.867   5.080
 9941SOL    HW230723   3.249   3.842   4.922
 9942SOL     OW30724   2.408   5.391   2.814
 9942SOL    HW130725   2.395   5.489   2.799
 9942SOL    HW230726   2.407   5.343   2.727
 9943SOL     OW30727   6.867   5.707   5.594
 9943SOL    HW130728   6.790   5.758   5.632
 9943SOL    HW230729   6.947   5.767   5.587
 9944SOL     OW30730   1.931   5.076   6.194
 9944SOL    HW130731   2.018   5.117   6.169
 9944SOL    HW230732   1.894   5.024   6.116
 9945SOL     OW30733   6.288   5.983   6.777
 9945SOL    HW130734   6.207   6.033   6.808
 9945SOL    HW230735   6.286   5.891   6.816
 9946SOL     OW30736   4.887   1.049   4.914
 9946SOL    HW130737   4.969   1.019   4.866
 9946SOL    HW230738   4.836   1.113   4.856
 9947SOL     OW30739   1.412   3.710   5.096
 9947SOL    HW130740   1.470   3.644   5.143
 9947SOL    HW230741   1.348   3.662   5.036
 9948SOL     OW30742   5.685   4.537   4.323
 9948SOL    HW130743   5.707   4.491   4.237
 9948SOL    HW230744   5.742   4.499   4.396
 9949SOL     OW30745   5.149   5.021   3.641
 9949SOL    HW130746   5.119   4.927   3.660
 9949SOL    HW230747   5.230   5.042   3.695
 9950SOL     OW30748   5.939   5.597   5.207
 9950SOL    HW130749   5.859   5.604   5.148
 9950SOL    HW230750   5.945   5.678   5.264
 9951SOL     OW30751   5.868   1.554   4.796
 9951SOL    HW130752   5.809   1.626   4.758
 9951SOL    HW230753   5.964   1.581   4.786
 9952SOL     OW30754   0.166   3.586   0.867
 9952SOL    HW130755   0.096   3.552   0.930
 9952SOL    HW230756   0.242   3.624   0.919
 9953SOL     OW30757   6.117   2.386   4.279
 9953SOL    HW130758   6.161   2.468   4.314
 9953SOL    HW230759   6.026   2.409   4.246
 9954SOL     OW30760   5.693   6.903   6.008
 9954SOL    HW130761   5.694   6.898   5.908
 9954SOL    HW230762   5.779   6.941   6.040
 9955SOL     OW30763   5.956   3.568   5.479
 9955SOL    HW130764   5.872   3.616   5.505
 9955SOL    HW230765   5.933   3.486   5.427
 9956SOL     OW30766   1.900   6.955   1.526
 9956SOL    HW130767   1.969   6.917   1.465
 9956SOL    HW230768   1.830   7.003   1.473
 9957SOL     OW30769   5.809   5.735   2.741
 9957SOL    HW130770   5.908   5.721   2.741
 9957SOL    HW230771   5.790   5.829   2.770
 9958SOL     OW30772   2.914   5.545   0.412
 9958SOL    HW130773   2.882   5.467   0.465
 9958SOL    HW230774   3.009   5.566   0.435
 9959SOL     OW30775   4.143   3.685   5.505
 9959SOL    HW130776   4.170   3.717   5.414
 9959SOL    HW230777   4.223   3.652   5.554
 9960SOL     OW30778   6.827   6.955   2.183
 9960SOL    HW130779   6.915   6.967   2.227
 9960SOL    HW230780   6.814   6.858   2.160
 9961SOL     OW30781   1.787   6.013   3.972
 9961SOL    HW130782   1.769   5.939   4.038
 9961SOL    HW230783   1.778   5.977   3.879
 9962SOL     OW30784   6.823   6.855   2.773
 9962SOL    HW130785   6.749   6.920   2.794
 9962SOL    HW230786   6.785   6.775   2.728
 9963SOL     OW30787   3.392   2.811   6.893
 9963SOL    HW130788   3.419   2.900   6.928
 9963SOL    HW230789   3.302   2.786   6.928
 9964SOL     OW30790   4.532   5.402   5.131
 9964SOL    HW130791   4.451   5.418   5.075
 9964SOL    HW230792   4.608   5.373   5.073
 9965SOL     OW30793   3.649   6.902   6.988
 9965SOL    HW130794   3.634   6.970   6.916
 9965SOL    HW230795   3.747   6.894   7.005
 9966SOL     OW30796   1.674   5.074   1.617
 9966SOL    HW130797   1.637   5.163   1.646
 9966SOL    HW230798   1.631   5.046   1.532
 9967SOL     OW30799   0.193   5.785   2.420
 9967SOL    HW130800   0.250   5.861   2.453
 9967SOL    HW230801   0.222   5.759   2.328
 9968SOL     OW30802   3.602   3.975   1.361
 9968SOL    HW130803   3.568   4.069   1.359
 9968SOL    HW230804   3.552   3.922   1.429
 9969SOL     OW30805   1.635   3.424   2.225
 9969SOL    HW130806   1.732   3.426   2.203
 9969SOL    HW230807   1.595   3.514   2.208
 9970SOL     OW30808   5.107   4.099   2.893
 9970SOL    HW130809   5.108   4.199   2.900
 9970SOL    HW230810   5.107   4.073   2.796
 9971SOL     OW30811   2.219   5.010   1.180
 9971SOL    HW130812   2.275   4.957   1.117
 9971SOL    HW230813   2.124   4.978   1.175
 9972SOL     OW30814   5.612   4.947   0.920
 9972SOL    HW130815   5.704   4.987   0.923
 9972SOL    HW230816   5.608   4.879   0.847
 9973SOL     OW30817   5.896   1.593   3.176
 9973SOL    HW130818   5.892   1.559   3.082
 9973SOL    HW230819   5.805   1.623   3.205
 9974SOL     OW30820   0.817   2.292   2.331
 9974SOL    HW130821   0.818   2.230   2.410
 9974SOL    HW230822   0.725   2.297   2.293
 9975SOL     OW30823   6.148   3.158   0.658
 9975SOL    HW130824   6.094   3.078   0.630
 9975SOL    HW230825   6.140   3.229   0.589
 9976SOL     OW30826   1.036   5.816   5.235
 9976SOL    HW130827   1.054   5.759   5.315
 9976SOL    HW230828   1.069   5.770   5.152
 9977SOL     OW30829   6.443   5.801   5.572
 9977SOL    HW130830   6.348   5.779   5.589
 9977SOL    HW230831   6.448   5.877   5.507
 9978SOL     OW30832   1.247   2.974   5.104
 9978SOL    HW130833   1.194   2.943   5.184
 9978SOL    HW230834   1.279   2.895   5.052
 9979SOL     OW30835   6.426   4.728   5.478
 9979SOL    HW130836   6.395   4.823   5.490
 9979SOL    HW230837   6.406   4.698   5.385
 9980SOL     OW30838   2.634   7.002   0.117
 9980SOL    HW130839   2.585   6.944   0.051
 9980SOL    HW230840   2.697   6.946   0.170
 9981SOL     OW30841   2.443   1.783   2.943
 9981SOL    HW130842   2.438   1.720   3.020
 9981SOL    HW230843   2.530   1.832   2.945
 9982SOL     OW30844   6.263   5.798   4.136
 9982SOL    HW130845   6.214   5.717   4.168
 9982SOL    HW230846   6.199   5.859   4.089
 9983SOL     OW30847   0.582   2.097   3.286
 9983SOL    HW130848   0.576   2.151   3.203
 9983SOL    HW230849   0.569   2.000   3.264
 9984SOL     OW30850   2.557   1.739   6.727
 9984SOL    HW130851   2.617   1.660   6.708
 9984SOL    HW230852   2.528   1.736   6.822
 9985SOL     OW30853   2.088   0.780   0.488
 9985SOL    HW130854   1.995   0.744   0.491
 9985SOL    HW230855   2.116   0.808   0.580
 9986SOL     OW30856   6.396   3.979   5.707
 9986SOL    HW130857   6.358   3.896   5.666
 9986SOL    HW230858   6.434   3.958   5.797
 9987SOL     OW30859   5.943   3.299   5.338
 9987SOL    HW130860   6.041   3.314   5.326
 9987SOL    HW230861   5.906   3.253   5.258
 9988SOL     OW30862   0.103   5.796   4.595
 9988SOL    HW130863   0.013   5.802   4.551
 9988SOL    HW230864   0.167   5.750   4.534
 9989SOL     OW30865   6.760   3.160   3.535
 9989SOL    HW130866   6.666   3.161   3.569
 9989SOL    HW230867   6.823   3.150   3.612
 9990SOL     OW30868   1.915   5.367   3.460
 9990SOL    HW130869   1.881   5.283   3.503
 9990SOL    HW230870   1.841   5.408   3.406
 9991SOL     OW30871   3.026   2.220   4.683
 9991SOL    HW130872   3.086   2.161   4.628
 9991SOL    HW230873   3.064   2.231   4.774
 9992SOL     OW30874   5.554   4.929   6.907
 9992SOL    HW130875   5.473   4.894   6.859
 9992SOL    HW230876   5.530   4.953   7.000
 9993SOL     OW30877   2.986   1.203   1.070
 9993SOL    HW130878   3.075   1.219   1.027
 9993SOL    HW230879   2.914   1.243   1.014
 9994SOL     OW30880   5.893   4.375   2.997
 9994SOL    HW130881   5.869   4.455   2.942
 9994SOL    HW230882   5.831   4.368   3.074
 9995SOL     OW30883   4.681   1.268   3.379
 9995SOL    HW130884   4.592   1.306   3.407
 9995SOL    HW230885   4.749   1.341   3.380
 9996SOL     OW30886   2.911   3.852   6.771
 9996SOL    HW130887   2.843   3.810   6.710
 9996SOL    HW230888   2.903   3.811   6.862
 9997SOL     OW30889   2.650   1.560   5.729
 9997SOL    HW130890   2.706   1.561   5.812
 9997SOL    HW230891   2.671   1.642   5.675
 9998SOL     OW30892   5.801   5.053   5.351
 9998SOL    HW130893   5.878   5.114   5.333
 9998SOL    HW230894   5.731   5.067   5.281
 9999SOL     OW30895   6.221   2.991   5.981
 9999SOL    HW130896   6.313   2.953   5.973
 9999SOL    HW230897   6.221   3.064   6.050
10000SOL     OW30898   6.628   3.352   0.009
10000SOL    HW130899   6.671   3.279   0.062
10000SOL    HW230900   6.586   3.313   6.946
10001SOL     OW30901   4.920   0.050   2.361
10001SOL    HW130902   4.840   0.065   2.303
10001SOL    HW230903   4.923   0.119   2.433
10002SOL     OW30904   1.524   6.525   2.072
10002SOL    HW130905   1.528   6.623   2.055
10002SOL    HW230906   1.567   6.505   2.160
10003SOL     OW30907   3.295   2.067   3.767
10003SOL    HW130908   3.251   2.001   3.828
10003SOL    HW230909   3.394   2.056   3.772
10004SOL     OW30910   6.739   2.820   4.788
10004SOL    HW130911   6.656   2.810   4.842
10004SOL    HW230912   6.766   2.732   4.750
10005SOL     OW30913   5.778   0.732   3.838
10005SOL    HW130914   5.727   0.660   3.885
10005SOL    HW230915   5.863   0.751   3.886
10006SOL     OW30916   4.656   6.858   4.014
10006SOL    HW130917   4.629   6.793   3.943
10006SOL    HW230918   4.751   6.886   3.999
10007SOL     OW30919   0.016   3.665   5.009
10007SOL    HW130920   0.077   3.728   5.058
10007SOL    HW230921   6.939   3.690   5.028
10008SOL     OW30922   3.739   1.220   4.492
10008SOL    HW130923   3.734   1.176   4.402
10008SOL    HW230924   3.725   1.152   4.564
10009SOL     OW30925   1.953   3.863   2.061
10009SOL    HW130926   2.016   3.786   2.054
10009SOL    HW230927   1.907   3.861   2.149
10010SOL     OW30928   2.238   0.846   6.597
10010SOL    HW130929   2.138   0.842   6.593
10010SOL    HW230930   2.276   0.826   6.507
10011SOL     OW30931   6.613   0.633   5.357
10011SOL    HW130932   6.643   0.666   5.268
10011SOL    HW230933   6.584   0.538   5.350
10012SOL     OW30934   6.240   0.428   2.877
10012SOL    HW130935   6.322   0.376   2.903
10012SOL    HW230936   6.234   0.433   2.778
10013SOL     OW30937   0.493   1.151   2.959
10013SOL    HW130938   0.438   1.078   2.999
10013SOL    HW230939   0.585   1.117   2.938
10014SOL     OW30940   0.792   4.302   6.492
10014SOL    HW130941   0.886   4.320   6.522
10014SOL    HW230942   0.793   4.235   6.417
10015SOL     OW30943   2.202   5.523   0.678
10015SOL    HW130944   2.298   5.516   0.652
10015SOL    HW230945   2.148   5.455   0.628
10016SOL     OW30946   1.890   1.365   6.249
10016SOL    HW130947   1.862   1.281   6.203
10016SOL    HW230948   1.824   1.437   6.227
10017SOL     OW30949   2.860   2.182   4.432
10017SOL    HW130950   2.779   2.233   4.459
10017SOL    HW230951   2.941   2.223   4.474
10018SOL     OW30952   5.392   0.104   6.754
10018SOL    HW130953   5.346   0.192   6.759
10018SOL    HW230954   5.456   0.096   6.830
10019SOL     OW30955   0.994   1.516   3.109
10019SOL    HW130956   0.955   1.605   3.086
10019SOL    HW230957   1.086   1.509   3.070
10020SOL     OW30958   1.086   2.830   1.290
10020SOL    HW130959   1.012   2.764   1.304
10020SOL    HW230960   1.081   2.866   1.197
10021SOL     OW30961   6.989   3.698   0.705
10021SOL    HW130962   0.051   3.684   0.763
10021SOL    HW230963   6.918   3.746   0.757
10022SOL     OW30964   2.596   1.390   6.167
10022SOL    HW130965   2.528   1.402   6.239
10022SOL    HW230966   2.612   1.477   6.122
10023SOL     OW30967   6.497   3.984   0.348
10023SOL    HW130968   6.471   4.048   0.421
10023SOL    HW230969   6.437   3.904   0.351
10024SOL     OW30970   1.227   5.961   3.775
10024SOL    HW130971   1.312   6.014   3.770
10024SOL    HW230972   1.203   5.930   3.683
10025SOL     OW30973   1.972   0.532   1.480
10025SOL    HW130974   2.054   0.561   1.529
10025SOL    HW230975   1.891   0.566   1.527
10026SOL     OW30976   5.498   0.513   3.581
10026SOL    HW130977   5.478   0.611   3.579
10026SOL    HW230978   5.592   0.497   3.551
10027SOL     OW30979   5.301   3.257   4.209
10027SOL    HW130980   5.256   3.169   4.222
10027SOL    HW230981   5.346   3.259   4.120
10028SOL     OW30982   1.712   0.914   0.865
10028SOL    HW130983   1.687   0.992   0.808
10028SOL    HW230984   1.722   0.833   0.807
10029SOL     OW30985   5.463   1.895   3.371
10029SOL    HW130986   5.400   1.969   3.395
10029SOL    HW230987   5.449   1.818   3.433
10030SOL     OW30988   2.174   0.819   3.508
10030SOL    HW130989   2.083   0.790   3.540
10030SOL    HW230990   2.244   0.777   3.565
10031SOL     OW30991   5.380   4.641   3.978
10031SOL    HW130992   5.286   4.656   3.948
10031SOL    HW230993   5.380   4.580   4.058
10032SOL     OW30994   2.463   1.943   5.360
10032SOL    HW130995   2.538   1.992   5.315
10032SOL    HW230996   2.376   1.985   5.334
10033SOL     OW30997   6.127   2.823   4.192
10033SOL    HW130998   6.158   2.882   4.117
10033SOL    HW230999   6.199   2.817   4.261
10034SOL     OW31000   3.488   0.804   4.586
10034SOL    HW131001   3.456   0.837   4.674
10034SOL    HW231002   3.588   0.811   4.582
10035SOL     OW31003   6.779   5.089   1.881
10035SOL    HW131004   6.786   5.025   1.805
10035SOL    HW231005   6.848   5.067   1.950
10036SOL     OW31006   6.944   2.038   0.309
10036SOL    HW131007   6.985   2.081   0.389
10036SOL    HW231008   6.881   2.102   0.265
10037SOL     OW31009   6.819   0.800   6.019
10037SOL    HW131010   6.727   0.759   6.019
10037SOL    HW231011   6.815   0.891   6.061
10038SOL     OW31012   6.522   0.300   1.120
10038SOL    HW131013   6.590   0.242   1.076
10038SOL    HW231014   6.466   0.244   1.182
10039SOL     OW31015   2.866   0.373   3.215
10039SOL    HW131016   2.944   0.436   3.213
10039SOL    HW231017   2.781   0.425   3.212
10040SOL     OW31018   6.252   3.820   0.343
10040SOL    HW131019   6.195   3.776   0.413
10040SOL    HW231020   6.294   3.750   0.286
10041SOL     OW31021   3.375   6.562   0.085
10041SOL    HW131022   3.370   6.609   0.173
10041SOL    HW231023   3.369   6.463   0.100
10042SOL     OW31024   6.729   2.117   3.055
10042SOL    HW131025   6.770   2.199   3.016
10042SOL    HW231026   6.785   2.037   3.032
10043SOL     OW31027   0.098   1.773   6.093
10043SOL    HW131028   0.112   1.776   6.192
10043SOL    HW231029   0.137   1.855   6.052
10044SOL     OW31030   2.549   2.521   5.748
10044SOL    HW131031   2.451   2.524   5.727
10044SOL    HW231032   2.574   2.428   5.774
10045SOL     OW31033   4.390   0.820   0.769
10045SOL    HW131034   4.418   0.749   0.705
10045SOL    HW231035   4.323   0.880   0.725
10046SOL     OW31036   0.573   4.788   1.293
10046SOL    HW131037   0.538   4.709   1.343
10046SOL    HW231038   0.515   4.806   1.214
10047SOL     OW31039   0.777   3.056   6.353
10047SOL    HW131040   0.768   2.971   6.405
10047SOL    HW231041   0.707   3.121   6.382
10048SOL     OW31042   6.178   6.679   2.594
10048SOL    HW131043   6.245   6.752   2.579
10048SOL    HW231044   6.153   6.677   2.691
10049SOL     OW31045   0.246   2.475   5.596
10049SOL    HW131046   0.287   2.384   5.600
10049SOL    HW231047   0.318   2.544   5.603
10050SOL     OW31048   5.533   3.325   5.158
10050SOL    HW131049   5.448   3.290   5.119
10050SOL    HW231050   5.537   3.302   5.255
10051SOL     OW31051   0.579   4.087   4.442
10051SOL    HW131052   0.551   4.076   4.347
10051SOL    HW231053   0.561   4.003   4.492
10052SOL     OW31054   1.005   0.449   3.590
10052SOL    HW131055   0.925   0.456   3.650
10052SOL    HW231056   1.012   0.356   3.554
10053SOL     OW31057   4.851   5.371   4.448
10053SOL    HW131058   4.828   5.379   4.545
10053SOL    HW231059   4.789   5.427   4.394
10054SOL     OW31060   5.326   3.860   4.611
10054SOL    HW131061   5.323   3.948   4.659
10054SOL    HW231062   5.399   3.861   4.542
10055SOL     OW31063   6.846   1.917   6.603
10055SOL    HW131064   6.851   1.823   6.568
10055SOL    HW231065   6.812   1.915   6.697
10056SOL     OW31066   5.250   2.962   2.811
10056SOL    HW131067   5.221   3.019   2.888
10056SOL    HW231068   5.212   2.870   2.820
10057SOL     OW31069   5.171   4.555   6.211
10057SOL    HW131070   5.181   4.565   6.310
10057SOL    HW231071   5.260   4.537   6.170
10058SOL     OW31072   5.886   3.272   4.742
10058SOL    HW131073   5.864   3.176   4.724
10058SOL    HW231074   5.856   3.297   4.834
10059SOL     OW31075   6.917   1.453   6.580
10059SOL    HW131076   6.865   1.451   6.494
10059SOL    HW231077   6.973   1.536   6.583
10060SOL     OW31078   2.426   1.941   2.720
10060SOL    HW131079   2.446   1.899   2.809
10060SOL    HW231080   2.397   2.036   2.734
10061SOL     OW31081   3.904   0.596   3.157
10061SOL    HW131082   3.965   0.516   3.152
10061SOL    HW231083   3.812   0.569   3.128
10062SOL     OW31084   0.301   0.272   4.383
10062SOL    HW131085   0.225   0.214   4.354
10062SOL    HW231086   0.280   0.314   4.471
10063SOL     OW31087   1.564   3.266   4.946
10063SOL    HW131088   1.479   3.255   4.894
10063SOL    HW231089   1.545   3.255   5.044
10064SOL     OW31090   2.701   6.517   0.459
10064SOL    HW131091   2.774   6.528   0.526
10064SOL    HW231092   2.621   6.477   0.502
10065SOL     OW31093   0.685   0.970   2.195
10065SOL    HW131094   0.762   1.026   2.227
10065SOL    HW231095   0.716   0.876   2.182
10066SOL     OW31096   6.665   3.365   4.834
10066SOL    HW131097   6.684   3.371   4.736
10066SOL    HW231098   6.568   3.382   4.851
10067SOL     OW31099   6.669   2.209   5.177
10067SOL    HW131100   6.598   2.272   5.210
10067SOL    HW231101   6.717   2.170   5.256
10068SOL     OW31102   2.695   2.396   2.663
10068SOL    HW131103   2.658   2.484   2.693
10068SOL    HW231104   2.678   2.384   2.565
10069SOL     OW31105   3.354   5.244   1.051
10069SOL    HW131106   3.344   5.146   1.035
10069SOL    HW231107   3.329   5.294   0.968
10070SOL     OW31108   3.575   5.880   5.311
10070SOL    HW131109   3.566   5.930   5.226
10070SOL    HW231110   3.586   5.782   5.292
10071SOL     OW31111   6.529   0.077   3.433
10071SOL    HW131112   6.519   0.081   3.533
10071SOL    HW231113   6.612   0.125   3.406
10072SOL     OW31114   6.612   2.126   2.613
10072SOL    HW131115   6.653   2.035   2.609
10072SOL    HW231116   6.680   2.192   2.645
10073SOL     OW31117   6.273   3.905   4.546
10073SOL    HW131118   6.252   3.860   4.633
10073SOL    HW231119   6.327   3.843   4.490
10074SOL     OW31120   1.474   4.868   0.549
10074SOL    HW131121   1.477   4.967   0.562
10074SOL    HW231122   1.487   4.847   0.452
10075SOL     OW31123   1.877   3.236   1.875
10075SOL    HW131124   1.805   3.298   1.906
10075SOL    HW231125   1.946   3.287   1.824
10076SOL     OW31126   5.212   5.395   4.009
10076SOL    HW131127   5.197   5.306   4.050
10076SOL    HW231128   5.309   5.405   3.985
10077SOL     OW31129   6.188   2.782   6.522
10077SOL    HW131130   6.194   2.766   6.423
10077SOL    HW231131   6.158   2.698   6.567
10078SOL     OW31132   6.861   6.730   5.342
10078SOL    HW131133   6.932   6.694   5.281
10078SOL    HW231134   6.890   6.720   5.437
10079SOL     OW31135   4.419   2.362   3.068
10079SOL    HW131136   4.500   2.305   3.072
10079SOL    HW231137   4.383   2.362   2.974
10080SOL     OW31138   5.396   0.214   6.097
10080SOL    HW131139   5.337   0.135   6.112
10080SOL    HW231140   5.475   0.208   6.158
10081SOL     OW31141   2.258   3.178   0.994
10081SOL    HW131142   2.355   3.198   0.977
10081SOL    HW231143   2.250   3.086   1.033
10082SOL     OW31144   1.488   4.214   1.603
10082SOL    HW131145   1.554   4.172   1.542
10082SOL    HW231146   1.428   4.144   1.643
10083SOL     OW31147   3.386   5.215   3.561
10083SOL    HW131148   3.363   5.213   3.658
10083SOL    HW231149   3.335   5.289   3.516
10084SOL     OW31150   1.166   0.535   4.829
10084SOL    HW131151   1.120   0.545   4.917
10084SOL    HW231152   1.169   0.438   4.805
10085SOL     OW31153   4.665   0.133   0.676
10085SOL    HW131154   4.761   0.107   0.680
10085SOL    HW231155   4.614   0.065   0.622
10086SOL     OW31156   6.967   6.299   2.008
10086SOL    HW131157   6.993   6.205   2.027
10086SOL    HW231158   0.003   6.333   1.931
10087SOL     OW31159   1.567   6.141   4.883
10087SOL    HW131160   1.581   6.232   4.844
10087SOL    HW231161   1.629   6.128   4.961
10088SOL     OW31162   0.536   2.800   0.307
10088SOL    HW131163   0.483   2.882   0.286
10088SOL    HW231164   0.476   2.729   0.341
10089SOL     OW31165   3.957   1.657   2.302
10089SOL    HW131166   3.943   1.751   2.269
10089SOL    HW231167   3.918   1.649   2.394
10090SOL     OW31168   2.163   6.273   1.556
10090SOL    HW131169   2.195   6.179   1.568
10090SOL    HW231170   2.225   6.322   1.494
10091SOL     OW31171   6.190   4.400   5.509
10091SOL    HW131172   6.194   4.468   5.581
10091SOL    HW231173   6.166   4.311   5.548
10092SOL     OW31174   0.475   2.187   4.826
10092SOL    HW131175   0.384   2.146   4.837
10092SOL    HW231176   0.543   2.125   4.865
10093SOL     OW31177   5.713   4.179   5.548
10093SOL    HW131178   5.745   4.170   5.643
10093SOL    HW231179   5.792   4.188   5.487
10094SOL     OW31180   3.317   0.668   1.050
10094SOL    HW131181   3.322   0.688   1.148
10094SOL    HW231182   3.244   0.722   1.009
10095SOL     OW31183   4.958   2.842   5.293
10095SOL    HW131184   4.932   2.938   5.290
10095SOL    HW231185   4.881   2.787   5.323
10096SOL     OW31186   5.376   1.484   3.083
10096SOL    HW131187   5.306   1.442   3.026
10096SOL    HW231188   5.467   1.452   3.054
10097SOL     OW31189   1.004   1.947   0.131
10097SOL    HW131190   0.948   1.971   0.210
10097SOL    HW231191   0.970   1.862   0.091
10098SOL     OW31192   3.516   6.104   3.923
10098SOL    HW131193   3.472   6.104   3.833
10098SOL    HW231194   3.614   6.088   3.912
10099SOL     OW31195   6.905   4.708   1.326
10099SOL    HW131196   6.865   4.791   1.287
10099SOL    HW231197   6.836   4.635   1.324
10100SOL     OW31198   4.467   5.249   4.399
10100SOL    HW131199   4.390   5.185   4.392
10100SOL    HW231200   4.511   5.239   4.489
10101SOL     OW31201   0.972   1.791   1.842
10101SOL    HW131202   1.000   1.885   1.859
10101SOL    HW231203   1.047   1.729   1.865
10102SOL     OW31204   6.239   6.654   1.648
10102SOL    HW131205   6.303   6.621   1.578
10102SOL    HW231206   6.289   6.672   1.732
10103SOL     OW31207   6.821   6.278   6.694
10103SOL    HW131208   6.851   6.186   6.668
10103SOL    HW231209   6.722   6.286   6.683
10104SOL     OW31210   1.988   0.404   4.641
10104SOL    HW131211   1.979   0.461   4.560
10104SOL    HW231212   1.982   0.308   4.615
10105SOL     OW31213   2.542   0.715   6.069
10105SOL    HW131214   2.486   0.643   6.109
10105SOL    HW231215   2.548   0.701   5.970
10106SOL     OW31216   5.235   5.941   1.310
10106SOL    HW131217   5.188   5.918   1.396
10106SOL    HW231218   5.182   5.906   1.233
10107SOL     OW31219   5.193   4.457   6.962
10107SOL    HW131220   5.150   4.390   0.004
10107SOL    HW231221   5.163   4.549   6.987
10108SOL     OW31222   2.108   2.819   0.150
10108SOL    HW131223   2.043   2.752   0.115
10108SOL    HW231224   2.089   2.837   0.247
10109SOL     OW31225   1.188   1.965   1.265
10109SOL    HW131226   1.180   2.064   1.282
10109SOL    HW231227   1.225   1.921   1.346
10110SOL     OW31228   4.685   6.011   2.755
10110SOL    HW131229   4.596   6.056   2.763
10110SOL    HW231230   4.687   5.930   2.815
10111SOL     OW31231   1.537   1.503   1.883
10111SOL    HW131232   1.633   1.484   1.901
10111SOL    HW231233   1.523   1.514   1.785
10112SOL     OW31234   6.893   1.962   3.531
10112SOL    HW131235   6.959   2.008   3.472
10112SOL    HW231236   6.809   1.944   3.479
10113SOL     OW31237   6.326   1.034   6.387
10113SOL    HW131238   6.324   0.959   6.321
10113SOL    HW231239   6.421   1.054   6.412
10114SOL     OW31240   5.204   1.752   2.214
10114SOL    HW131241   5.197   1.692   2.293
10114SOL    HW231242   5.131   1.732   2.150
10115SOL     OW31243   3.612   2.786   5.856
10115SOL    HW131244   3.517   2.816   5.865
10115SOL    HW231245   3.666   2.828   5.929
10116SOL     OW31246   6.240   0.267   5.075
10116SOL    HW131247   6.263   0.176   5.110
10116SOL    HW231248   6.161   0.302   5.125
10117SOL     OW31249   6.055   4.369   3.939
10117SOL    HW131250   6.088   4.321   4.020
10117SOL    HW231251   6.026   4.302   3.870
10118SOL     OW31252   3.811   5.380   4.876
10118SOL    HW131253   3.808   5.480   4.872
10118SOL    HW231254   3.889   5.352   4.932
10119SOL     OW31255   6.998   5.367   5.350
10119SOL    HW131256   6.920   5.417   5.388
10119SOL    HW231257   6.978   5.269   5.353
10120SOL     OW31258   1.996   3.018   2.524
10120SOL    HW131259   1.984   2.945   2.456
10120SOL    HW231260   1.974   3.106   2.483
10121SOL     OW31261   6.651   3.831   0.607
10121SOL    HW131262   6.601   3.882   0.676
10121SOL    HW231263   6.711   3.892   0.556
10122SOL     OW31264   1.248   0.520   3.708
10122SOL    HW131265   1.248   0.539   3.807
10122SOL    HW231266   1.158   0.483   3.682
10123SOL     OW31267   5.573   5.638   6.712
10123SOL    HW131268   5.659   5.654   6.761
10123SOL    HW231269   5.586   5.566   6.644
10124SOL     OW31270   1.124   4.921   3.003
10124SOL    HW131271   1.201   4.952   2.946
10124SOL    HW231272   1.151   4.839   3.052
10125SOL     OW31273   1.304   1.375   6.028
10125SOL    HW131274   1.341   1.364   6.120
10125SOL    HW231275   1.302   1.285   5.982
10126SOL     OW31276   6.263   0.248   6.654
10126SOL    HW131277   6.337   0.281   6.596
10126SOL    HW231278   6.263   0.299   6.740
10127SOL     OW31279   1.867   5.456   5.951
10127SOL    HW131280   1.955   5.504   5.956
10127SOL    HW231281   1.874   5.380   5.886
10128SOL     OW31282   2.743   1.522   6.699
10128SOL    HW131283   2.838   1.535   6.671
10128SOL    HW231284   2.740   1.487   6.793
10129SOL     OW31285   5.913   1.283   4.102
10129SOL    HW131286   5.918   1.341   4.184
10129SOL    HW231287   5.825   1.236   4.100
10130SOL     OW31288   1.101   1.834   2.590
10130SOL    HW131289   1.078   1.860   2.497
10130SOL    HW231290   1.158   1.905   2.632
10131SOL     OW31291   1.722   6.890   4.484
10131SOL    HW131292   1.820   6.869   4.473
10131SOL    HW231293   1.676   6.881   4.395
10132SOL     OW31294   6.635   0.963   1.852
10132SOL    HW131295   6.649   1.019   1.934
10132SOL    HW231296   6.686   0.878   1.861
10133SOL     OW31297   5.719   6.995   0.296
10133SOL    HW131298   5.775   6.998   0.213
10133SOL    HW231299   5.757   0.041   0.363
10134SOL     OW31300   5.926   6.924   1.989
10134SOL    HW131301   5.891   6.867   1.914
10134SOL    HW231302   5.921   6.872   2.075
10135SOL     OW31303   6.499   6.827   2.794
10135SOL    HW131304   6.555   6.776   2.728
10135SOL    HW231305   6.550   6.908   2.825
10136SOL     OW31306   5.678   1.714   2.772
10136SOL    HW131307   5.733   1.790   2.738
10136SOL    HW231308   5.602   1.698   2.710
10137SOL     OW31309   6.518   5.014   5.397
10137SOL    HW131310   6.482   5.062   5.316
10137SOL    HW231311   6.581   4.942   5.367
10138SOL     OW31312   0.159   1.742   0.316
10138SOL    HW131313   0.128   1.810   0.383
10138SOL    HW231314   0.107   1.753   0.232
10139SOL     OW31315   3.748   2.895   6.055
10139SOL    HW131316   3.684   2.967   6.082
10139SOL    HW231317   3.839   2.935   6.042
10140SOL     OW31318   0.213   6.466   5.817
10140SOL    HW131319   0.283   6.398   5.840
10140SOL    HW231320   0.182   6.451   5.723
10141SOL     OW31321   1.944   2.625   4.556
10141SOL    HW131322   2.016   2.571   4.513
10141SOL    HW231323   1.983   2.679   4.631
10142SOL     OW31324   4.750   6.179   4.280
10142SOL    HW131325   4.685   6.212   4.212
10142SOL    HW231326   4.798   6.256   4.320
10143SOL     OW31327   5.137   3.310   6.649
10143SOL    HW131328   5.217   3.251   6.641
10143SOL    HW231329   5.153   3.395   6.598
10144SOL     OW31330   3.609   0.016   6.280
10144SOL    HW131331   3.580   6.939   6.276
10144SOL    HW231332   3.660   0.032   6.365
10145SOL     OW31333   5.391   5.853   6.462
10145SOL    HW131334   5.371   5.843   6.560
10145SOL    HW231335   5.490   5.844   6.448
10146SOL     OW31336   6.974   2.404   4.318
10146SOL    HW131337   6.937   2.407   4.225
10146SOL    HW231338   0.049   2.439   4.318
10147SOL     OW31339   4.931   5.160   6.028
10147SOL    HW131340   4.960   5.161   6.124
10147SOL    HW231341   4.977   5.085   5.980
10148SOL     OW31342   1.121   4.592   0.654
10148SOL    HW131343   1.045   4.600   0.590
10148SOL    HW231344   1.207   4.586   0.603
10149SOL     OW31345   3.549   4.544   0.062
10149SOL    HW131346   3.566   4.457   0.015
10149SOL    HW231347   3.451   4.559   0.071
10150SOL     OW31348   3.986   4.428   0.512
10150SOL    HW131349   3.906   4.439   0.453
10150SOL    HW231350   3.958   4.439   0.608
10151SOL     OW31351   5.403   7.014   5.922
10151SOL    HW131352   5.449   0.033   5.841
10151SOL    HW231353   5.468   7.011   5.998
10152SOL     OW31354   4.323   6.804   2.811
10152SOL    HW131355   4.224   6.819   2.815
10152SOL    HW231356   4.344   6.741   2.736
10153SOL     OW31357   4.499   4.410   3.265
10153SOL    HW131358   4.485   4.497   3.312
10153SOL    HW231359   4.596   4.399   3.243
10154SOL     OW31360   5.309   5.443   5.517
10154SOL    HW131361   5.239   5.455   5.446
10154SOL    HW231362   5.391   5.404   5.476
10155SOL     OW31363   4.134   1.366   4.717
10155SOL    HW131364   4.111   1.289   4.658
10155SOL    HW231365   4.116   1.342   4.812
10156SOL     OW31366   5.185   1.981   6.963
10156SOL    HW131367   5.130   1.984   6.880
10156SOL    HW231368   5.125   1.984   0.024
10157SOL     OW31369   0.793   3.252   0.988
10157SOL    HW131370   0.780   3.155   0.966
10157SOL    HW231371   0.887   3.267   1.019
10158SOL     OW31372   6.065   4.903   0.637
10158SOL    HW131373   5.998   4.857   0.580
10158SOL    HW231374   6.098   4.985   0.590
10159SOL     OW31375   3.303   3.592   2.500
10159SOL    HW131376   3.213   3.591   2.458
10159SOL    HW231377   3.296   3.568   2.597
10160SOL     OW31378   0.962   5.040   2.788
10160SOL    HW131379   0.984   5.111   2.721
10160SOL    HW231380   0.972   4.950   2.746
10161SOL     OW31381   5.413   3.132   5.638
10161SOL    HW131382   5.320   3.098   5.648
10161SOL    HW231383   5.472   3.088   5.705
10162SOL     OW31384   1.475   2.620   2.881
10162SOL    HW131385   1.441   2.542   2.829
10162SOL    HW231386   1.460   2.704   2.829
10163SOL     OW31387   1.578   5.882   5.277
10163SOL    HW131388   1.617   5.806   5.225
10163SOL    HW231389   1.603   5.873   5.374
10164SOL     OW31390   1.184   2.379   3.194
10164SOL    HW131391   1.223   2.397   3.285
10164SOL    HW231392   1.114   2.308   3.202
10165SOL     OW31393   7.018   3.475   4.512
10165SOL    HW131394   7.002   3.484   4.610
10165SOL    HW231395   6.971   3.549   4.463
10166SOL     OW31396   2.414   0.505   1.678
10166SOL    HW131397   2.341   0.452   1.634
10166SOL    HW231398   2.401   0.602   1.658
10167SOL     OW31399   2.159   0.420   6.783
10167SOL    HW131400   2.171   0.519   6.797
10167SOL    HW231401   2.241   0.383   6.740
10168SOL     OW31402   7.003   1.111   0.117
10168SOL    HW131403   6.939   1.081   0.046
10168SOL    HW231404   0.030   1.031   0.156
10169SOL     OW31405   6.187   2.674   3.635
10169SOL    HW131406   6.177   2.676   3.735
10169SOL    HW231407   6.102   2.643   3.593
10170SOL     OW31408   5.626   5.623   6.273
10170SOL    HW131409   5.614   5.634   6.372
10170SOL    HW231410   5.668   5.706   6.235
10171SOL     OW31411   2.099   3.496   5.933
10171SOL    HW131412   2.030   3.516   5.863
10171SOL    HW231413   2.132   3.581   5.973
10172SOL     OW31414   6.301   6.901   3.079
10172SOL    HW131415   6.372   6.919   3.011
10172SOL    HW231416   6.261   6.811   3.062
10173SOL     OW31417   3.000   4.006   5.226
10173SOL    HW131418   2.999   4.106   5.228
10173SOL    HW231419   3.091   3.974   5.202
10174SOL     OW31420   4.259   5.706   3.419
10174SOL    HW131421   4.217   5.790   3.451
10174SOL    HW231422   4.187   5.639   3.397
10175SOL     OW31423   0.262   1.218   3.808
10175SOL    HW131424   0.194   1.261   3.867
10175SOL    HW231425   0.353   1.230   3.848
10176SOL     OW31426   6.711   1.769   6.046
10176SOL    HW131427   6.693   1.867   6.047
10176SOL    HW231428   6.725   1.738   5.952
10177SOL     OW31429   2.371   0.723   3.007
10177SOL    HW131430   2.465   0.754   3.017
10177SOL    HW231431   2.341   0.680   3.092
10178SOL     OW31432   2.004   2.256   0.852
10178SOL    HW131433   1.996   2.157   0.863
10178SOL    HW231434   1.985   2.301   0.940
10179SOL     OW31435   0.204   4.377   1.207
10179SOL    HW131436   0.166   4.332   1.126
10179SOL    HW231437   0.190   4.476   1.199
10180SOL     OW31438   4.144   0.334   5.848
10180SOL    HW131439   4.049   0.337   5.878
10180SOL    HW231440   4.188   0.422   5.864
10181SOL     OW31441   6.403   3.121   1.877
10181SOL    HW131442   6.319   3.165   1.908
10181SOL    HW231443   6.471   3.123   1.950
10182SOL     OW31444   6.054   1.977   0.296
10182SOL    HW131445   6.104   2.007   0.376
10182SOL    HW231446   6.002   2.053   0.257
10183SOL     OW31447   6.227   1.908   6.468
10183SOL    HW131448   6.301   1.840   6.469
10183SOL    HW231449   6.140   1.863   6.486
10184SOL     OW31450   5.642   2.792   6.215
10184SOL    HW131451   5.555   2.840   6.219
10184SOL    HW231452   5.649   2.742   6.129
10185SOL     OW31453   3.722   5.412   1.840
10185SOL    HW131454   3.705   5.344   1.769
10185SOL    HW231455   3.636   5.453   1.869
10186SOL     OW31456   3.961   3.350   5.836
10186SOL    HW131457   3.866   3.348   5.866
10186SOL    HW231458   3.979   3.435   5.787
10187SOL     OW31459   1.811   4.996   5.964
10187SOL    HW131460   1.715   4.992   5.936
10187SOL    HW231461   1.864   5.045   5.894
10188SOL     OW31462   2.923   0.605   6.407
10188SOL    HW131463   3.016   0.628   6.436
10188SOL    HW231464   2.858   0.661   6.457
10189SOL     OW31465   1.086   2.129   6.419
10189SOL    HW131466   0.995   2.089   6.410
10189SOL    HW231467   1.146   2.064   6.465
10190SOL     OW31468   3.310   5.372   2.153
10190SOL    HW131469   3.332   5.464   2.119
10190SOL    HW231470   3.313   5.373   2.253
10191SOL     OW31471   5.741   5.905   6.556
10191SOL    HW131472   5.738   5.884   6.458
10191SOL    HW231473   5.833   5.886   6.592
10192SOL     OW31474   1.738   1.937   3.967
10192SOL    HW131475   1.719   1.856   3.912
10192SOL    HW231476   1.818   1.985   3.929
10193SOL     OW31477   3.464   3.744   3.554
10193SOL    HW131478   3.487   3.723   3.459
10193SOL    HW231479   3.543   3.786   3.599
10194SOL     OW31480   3.032   0.307   2.845
10194SOL    HW131481   3.050   0.316   2.747
10194SOL    HW231482   2.966   0.376   2.873
10195SOL     OW31483   3.873   6.260   1.999
10195SOL    HW131484   3.808   6.188   2.023
10195SOL    HW231485   3.966   6.224   2.007
10196SOL     OW31486   6.040   1.594   3.596
10196SOL    HW131487   6.068   1.545   3.679
10196SOL    HW231488   5.953   1.641   3.612
10197SOL     OW31489   6.029   0.242   1.565
10197SOL    HW131490   6.091   0.191   1.625
10197SOL    HW231491   5.935   0.211   1.580
10198SOL     OW31492   2.703   6.818   1.048
10198SOL    HW131493   2.709   6.842   1.145
10198SOL    HW231494   2.789   6.842   1.002
10199SOL     OW31495   1.297   1.602   0.612
10199SOL    HW131496   1.346   1.530   0.563
10199SOL    HW231497   1.299   1.687   0.558
10200SOL     OW31498   4.708   4.664   4.542
10200SOL    HW131499   4.684   4.685   4.637
10200SOL    HW231500   4.794   4.613   4.540
10201SOL     OW31501   1.557   4.624   2.471
10201SOL    HW131502   1.535   4.589   2.380
10201SOL    HW231503   1.566   4.548   2.534
10202SOL     OW31504   1.356   3.525   2.465
10202SOL    HW131505   1.379   3.545   2.370
10202SOL    HW231506   1.289   3.592   2.498
10203SOL     OW31507   1.791   3.095   2.748
10203SOL    HW131508   1.799   3.032   2.826
10203SOL    HW231509   1.863   3.074   2.681
10204SOL     OW31510   3.057   4.596   5.398
10204SOL    HW131511   3.064   4.527   5.470
10204SOL    HW231512   3.016   4.556   5.316
10205SOL     OW31513   4.827   2.037   2.744
10205SOL    HW131514   4.727   2.037   2.748
10205SOL    HW231515   4.864   2.015   2.833
10206SOL     OW31516   5.182   0.115   6.255
10206SOL    HW131517   5.110   0.051   6.227
10206SOL    HW231518   5.222   0.085   6.342
10207SOL     OW31519   3.985   1.058   2.626
10207SOL    HW131520   3.911   1.012   2.578
10207SOL    HW231521   3.981   1.157   2.607
10208SOL     OW31522   6.332   4.349   5.262
10208SOL    HW131523   6.277   4.397   5.330
10208SOL    HW231524   6.346   4.255   5.291
10209SOL     OW31525   5.838   6.967   6.330
10209SOL    HW131526   5.917   6.906   6.336
10209SOL    HW231527   5.870   0.044   6.333
10210SOL     OW31528   4.933   6.296   2.292
10210SOL    HW131529   4.935   6.270   2.388
10210SOL    HW231530   4.889   6.385   2.282
10211SOL     OW31531   3.902   5.654   5.185
10211SOL    HW131532   3.929   5.718   5.257
10211SOL    HW231533   3.984   5.616   5.143
10212SOL     OW31534   0.045   0.351   5.560
10212SOL    HW131535   0.004   0.279   5.504
10212SOL    HW231536   7.004   0.372   5.637
10213SOL     OW31537   6.245   1.480   2.985
10213SOL    HW131538   6.299   1.407   3.026
10213SOL    HW231539   6.222   1.548   3.054
10214SOL     OW31540   6.951   1.138   1.827
10214SOL    HW131541   6.998   1.053   1.804
10214SOL    HW231542   6.950   1.198   1.747
10215SOL     OW31543   3.394   3.489   6.616
10215SOL    HW131544   3.330   3.500   6.540
10215SOL    HW231545   3.344   3.464   6.699
10216SOL     OW31546   4.979   0.654   1.551
10216SOL    HW131547   4.948   0.563   1.581
10216SOL    HW231548   5.035   0.644   1.468
10217SOL     OW31549   2.099   2.080   4.624
10217SOL    HW131550   2.028   2.009   4.625
10217SOL    HW231551   2.147   2.079   4.712
10218SOL     OW31552   2.601   1.240   0.693
10218SOL    HW131553   2.569   1.213   0.602
10218SOL    HW231554   2.683   1.295   0.683
10219SOL     OW31555   1.147   3.486   1.307
10219SOL    HW131556   1.104   3.407   1.264
10219SOL    HW231557   1.175   3.551   1.237
10220SOL     OW31558   4.591   2.124   0.896
10220SOL    HW131559   4.546   2.049   0.847
10220SOL    HW231560   4.532   2.205   0.894
10221SOL     OW31561   2.784   0.176   4.914
10221SOL    HW131562   2.788   0.225   4.827
10221SOL    HW231563   2.870   0.128   4.930
10222SOL     OW31564   1.878   5.410   5.531
10222SOL    HW131565   1.897   5.357   5.448
10222SOL    HW231566   1.963   5.445   5.568
10223SOL     OW31567   1.088   4.629   0.100
10223SOL    HW131568   1.164   4.669   0.050
10223SOL    HW231569   1.092   4.530   0.095
10224SOL     OW31570   1.812   0.166   3.854
10224SOL    HW131571   1.761   0.106   3.916
10224SOL    HW231572   1.907   0.134   3.848
10225SOL     OW31573   6.584   5.553   4.533
10225SOL    HW131574   6.626   5.600   4.456
10225SOL    HW231575   6.489   5.530   4.510
10226SOL     OW31576   1.810   1.375   0.060
10226SOL    HW131577   1.730   1.316   0.064
10226SOL    HW231578   1.781   1.468   0.037
10227SOL     OW31579   5.174   4.743   6.936
10227SOL    HW131580   5.123   4.817   6.981
10227SOL    HW231581   5.197   4.771   6.843
10228SOL     OW31582   1.051   5.219   2.999
10228SOL    HW131583   1.146   5.242   3.016
10228SOL    HW231584   1.045   5.148   2.928
10229SOL     OW31585   1.389   0.259   2.943
10229SOL    HW131586   1.390   0.351   2.981
10229SOL    HW231587   1.342   0.197   3.007
10230SOL     OW31588   6.310   0.523   3.980
10230SOL    HW131589   6.309   0.596   4.049
10230SOL    HW231590   6.290   0.563   3.890
10231SOL     OW31591   5.470   6.780   4.672
10231SOL    HW131592   5.432   6.852   4.614
10231SOL    HW231593   5.414   6.698   4.664
10232SOL     OW31594   2.938   2.017   4.941
10232SOL    HW131595   2.847   2.018   4.899
10232SOL    HW231596   2.977   2.109   4.939
10233SOL     OW31597   5.022   1.656   5.775
10233SOL    HW131598   5.071   1.576   5.741
10233SOL    HW231599   4.932   1.628   5.810
10234SOL     OW31600   5.171   6.925   1.672
10234SOL    HW131601   5.138   7.018   1.655
10234SOL    HW231602   5.270   6.928   1.689
10235SOL     OW31603   5.672   0.842   6.832
10235SOL    HW131604   5.724   0.927   6.837
10235SOL    HW231605   5.647   0.824   6.736
10236SOL     OW31606   2.401   5.116   2.166
10236SOL    HW131607   2.406   5.181   2.242
10236SOL    HW231608   2.378   5.165   2.082
10237SOL     OW31609   5.735   3.532   2.288
10237SOL    HW131610   5.760   3.535   2.191
10237SOL    HW231611   5.663   3.464   2.302
10238SOL     OW31612   4.335   5.004   4.567
10238SOL    HW131613   4.303   4.910   4.581
10238SOL    HW231614   4.311   5.034   4.475
10239SOL     OW31615   0.267   3.761   4.429
10239SOL    HW131616   0.208   3.799   4.358
10239SOL    HW231617   0.218   3.690   4.479
10240SOL     OW31618   0.245   3.987   3.754
10240SOL    HW131619   0.286   4.078   3.747
10240SOL    HW231620   0.258   3.938   3.667
10241SOL     OW31621   1.943   1.041   2.002
10241SOL    HW131622   1.874   1.087   1.947
10241SOL    HW231623   1.899   0.999   2.082
10242SOL     OW31624   0.164   0.293   6.191
10242SOL    HW131625   0.119   0.204   6.196
10242SOL    HW231626   0.169   0.333   6.282
10243SOL     OW31627   1.304   5.910   1.507
10243SOL    HW131628   1.375   5.903   1.577
10243SOL    HW231629   1.345   5.937   1.420
10244SOL     OW31630   2.026   5.937   6.668
10244SOL    HW131631   2.060   6.030   6.681
10244SOL    HW231632   2.050   5.881   6.748
10245SOL     OW31633   2.506   2.406   6.158
10245SOL    HW131634   2.587   2.399   6.099
10245SOL    HW231635   2.434   2.348   6.121
10246SOL     OW31636   3.185   4.133   4.926
10246SOL    HW131637   3.106   4.076   4.903
10246SOL    HW231638   3.155   4.209   4.984
10247SOL     OW31639   0.281   4.366   5.754
10247SOL    HW131640   0.248   4.336   5.665
10247SOL    HW231641   0.214   4.344   5.825
10248SOL     OW31642   3.455   0.306   1.850
10248SOL    HW131643   3.388   0.238   1.821
10248SOL    HW231644   3.524   0.318   1.779
10249SOL     OW31645   5.376   1.049   5.703
10249SOL    HW131646   5.412   1.017   5.791
10249SOL    HW231647   5.356   0.970   5.645
10250SOL     OW31648   6.753   1.662   0.288
10250SOL    HW131649   6.777   1.747   0.241
10250SOL    HW231650   6.686   1.612   0.234
10251SOL     OW31651   2.709   3.674   6.651
10251SOL    HW131652   2.736   3.580   6.670
10251SOL    HW231653   2.617   3.675   6.611
10252SOL     OW31654   6.148   5.878   1.456
10252SOL    HW131655   6.173   5.790   1.414
10252SOL    HW231656   6.231   5.925   1.485
10253SOL     OW31657   4.455   5.510   6.812
10253SOL    HW131658   4.429   5.471   6.723
10253SOL    HW231659   4.395   5.473   6.883
10254SOL     OW31660   2.176   2.030   5.274
10254SOL    HW131661   2.106   2.045   5.204
10254SOL    HW231662   2.202   2.117   5.315
10255SOL     OW31663   2.821   6.052   2.440
10255SOL    HW131664   2.917   6.058   2.467
10255SOL    HW231665   2.800   6.127   2.377
10256SOL     OW31666   5.734   0.334   6.743
10256SOL    HW131667   5.698   0.371   6.657
10256SOL    HW231668   5.707   0.393   6.819
10257SOL     OW31669   1.084   5.345   5.723
10257SOL    HW131670   1.167   5.290   5.736
10257SOL    HW231671   1.109   5.440   5.703
10258SOL     OW31672   3.741   0.163   3.249
10258SOL    HW131673   3.816   0.224   3.276
10258SOL    HW231674   3.767   0.068   3.265
10259SOL     OW31675   0.032   3.473   3.341
10259SOL    HW131676   0.098   3.406   3.376
10259SOL    HW231677   0.056   3.496   3.247
10260SOL     OW31678   1.037   6.863   2.080
10260SOL    HW131679   1.000   6.953   2.058
10260SOL    HW231680   1.110   6.872   2.147
10261SOL     OW31681   0.996   5.604   2.207
10261SOL    HW131682   1.071   5.649   2.256
10261SOL    HW231683   1.033   5.533   2.148
10262SOL     OW31684   2.662   4.770   4.650
10262SOL    HW131685   2.571   4.761   4.691
10262SOL    HW231686   2.676   4.696   4.583
10263SOL     OW31687   5.868   1.758   6.204
10263SOL    HW131688   5.875   1.792   6.298
10263SOL    HW231689   5.773   1.759   6.175
10264SOL     OW31690   6.600   0.635   6.060
10264SOL    HW131691   6.550   0.677   5.984
10264SOL    HW231692   6.607   0.537   6.045
10265SOL     OW31693   3.715   1.731   2.464
10265SOL    HW131694   3.653   1.682   2.526
10265SOL    HW231695   3.735   1.821   2.501
10266SOL     OW31696   3.010   4.088   6.376
10266SOL    HW131697   2.988   4.065   6.471
10266SOL    HW231698   3.045   4.182   6.371
10267SOL     OW31699   0.477   2.141   6.599
10267SOL    HW131700   0.480   2.145   6.699
10267SOL    HW231701   0.471   2.045   6.569
10268SOL     OW31702   5.302   6.108   1.624
10268SOL    HW131703   5.242   6.166   1.679
10268SOL    HW231704   5.251   6.030   1.590
10269SOL     OW31705   2.559   2.640   6.467
10269SOL    HW131706   2.591   2.549   6.439
10269SOL    HW231707   2.634   2.688   6.512
10270SOL     OW31708   1.687   5.778   0.613
10270SOL    HW131709   1.695   5.732   0.701
10270SOL    HW231710   1.621   5.730   0.556
10271SOL     OW31711   4.037   4.399   1.404
10271SOL    HW131712   4.041   4.299   1.394
10271SOL    HW231713   4.017   4.422   1.499
10272SOL     OW31714   0.546   0.891   5.511
10272SOL    HW131715   0.640   0.882   5.478
10272SOL    HW231716   0.491   0.817   5.473
10273SOL     OW31717   3.744   5.674   4.779
10273SOL    HW131718   3.661   5.624   4.805
10273SOL    HW231719   3.758   5.665   4.680
10274SOL     OW31720   0.918   4.789   5.325
10274SOL    HW131721   0.930   4.732   5.245
10274SOL    HW231722   1.001   4.787   5.381
10275SOL     OW31723   0.569   6.535   3.017
10275SOL    HW131724   0.558   6.633   2.997
10275SOL    HW231725   0.623   6.492   2.944
10276SOL     OW31726   6.800   5.506   5.446
10276SOL    HW131727   6.718   5.525   5.392
10276SOL    HW231728   6.820   5.585   5.504
10277SOL     OW31729   3.054   6.519   4.670
10277SOL    HW131730   3.116   6.585   4.630
10277SOL    HW231731   3.106   6.453   4.725
10278SOL     OW31732   6.011   0.463   6.111
10278SOL    HW131733   6.080   0.518   6.065
10278SOL    HW231734   6.051   0.420   6.192
10279SOL     OW31735   3.623   0.051   4.413
10279SOL    HW131736   3.567   0.105   4.350
10279SOL    HW231737   3.640   6.980   4.372
10280SOL     OW31738   1.524   4.013   0.454
10280SOL    HW131739   1.467   3.941   0.494
10280SOL    HW231740   1.526   4.003   0.355
10281SOL     OW31741   4.801   0.355   3.499
10281SOL    HW131742   4.840   0.278   3.548
10281SOL    HW231743   4.827   0.440   3.545
10282SOL     OW31744   0.956   2.255   4.345
10282SOL    HW131745   1.054   2.270   4.335
10282SOL    HW231746   0.926   2.186   4.279
10283SOL     OW31747   1.086   3.256   0.730
10283SOL    HW131748   1.061   3.177   0.786
10283SOL    HW231749   1.127   3.225   0.644
10284SOL     OW31750   5.549   3.255   5.435
10284SOL    HW131751   5.621   3.191   5.406
10284SOL    HW231752   5.482   3.206   5.491
10285SOL     OW31753   5.687   0.615   0.802
10285SOL    HW131754   5.758   0.668   0.847
10285SOL    HW231755   5.729   0.545   0.745
10286SOL     OW31756   3.953   0.282   3.353
10286SOL    HW131757   3.917   0.362   3.400
10286SOL    HW231758   3.999   0.223   3.419
10287SOL     OW31759   1.946   6.845   1.825
10287SOL    HW131760   1.917   6.753   1.850
10287SOL    HW231761   1.896   6.875   1.743
10288SOL     OW31762   6.306   6.232   3.385
10288SOL    HW131763   6.379   6.166   3.403
10288SOL    HW231764   6.235   6.222   3.455
10289SOL     OW31765   3.209   1.279   1.816
10289SOL    HW131766   3.218   1.274   1.916
10289SOL    HW231767   3.171   1.368   1.791
10290SOL     OW31768   3.948   3.019   2.671
10290SOL    HW131769   3.966   2.984   2.763
10290SOL    HW231770   3.881   3.093   2.676
10291SOL     OW31771   3.364   0.845   4.812
10291SOL    HW131772   3.307   0.769   4.841
10291SOL    HW231773   3.309   0.928   4.805
10292SOL     OW31774   0.783   1.228   4.688
10292SOL    HW131775   0.869   1.244   4.640
10292SOL    HW231776   0.789   1.143   4.740
10293SOL     OW31777   2.507   6.307   3.378
10293SOL    HW131778   2.518   6.323   3.476
10293SOL    HW231779   2.534   6.389   3.328
10294SOL     OW31780   5.386   1.498   3.350
10294SOL    HW131781   5.431   1.417   3.386
10294SOL    HW231782   5.385   1.494   3.250
10295SOL     OW31783   0.645   5.655   6.059
10295SOL    HW131784   0.573   5.724   6.070
10295SOL    HW231785   0.603   5.566   6.044
10296SOL     OW31786   6.717   3.208   0.364
10296SOL    HW131787   6.695   3.138   0.296
10296SOL    HW231788   6.774   3.279   0.322
10297SOL     OW31789   0.986   5.182   4.381
10297SOL    HW131790   1.081   5.166   4.355
10297SOL    HW231791   0.935   5.096   4.379
10298SOL     OW31792   4.958   4.207   3.867
10298SOL    HW131793   4.877   4.265   3.860
10298SOL    HW231794   5.012   4.217   3.783
10299SOL     OW31795   4.566   5.026   3.216
10299SOL    HW131796   4.562   4.979   3.304
10299SOL    HW231797   4.594   4.962   3.145
10300SOL     OW31798   0.864   4.030   2.853
10300SOL    HW131799   0.860   3.990   2.945
10300SOL    HW231800   0.839   3.960   2.785
10301SOL     OW31801   6.055   0.868   1.902
10301SOL    HW131802   6.037   0.868   2.000
10301SOL    HW231803   6.025   0.955   1.862
10302SOL     OW31804   1.405   5.761   2.643
10302SOL    HW131805   1.453   5.777   2.730
10302SOL    HW231806   1.461   5.794   2.568
10303SOL     OW31807   3.861   3.985   1.260
10303SOL    HW131808   3.842   3.972   1.162
10303SOL    HW231809   3.775   3.993   1.309
10304SOL     OW31810   6.923   6.684   2.443
10304SOL    HW131811   6.991   6.751   2.412
10304SOL    HW231812   6.832   6.714   2.415
10305SOL     OW31813   1.080   5.607   0.376
10305SOL    HW131814   1.120   5.612   0.467
10305SOL    HW231815   0.986   5.642   0.378
10306SOL     OW31816   3.876   6.094   0.627
10306SOL    HW131817   3.950   6.133   0.681
10306SOL    HW231818   3.853   6.154   0.551
10307SOL     OW31819   1.462   1.262   6.545
10307SOL    HW131820   1.552   1.217   6.552
10307SOL    HW231821   1.465   1.349   6.593
10308SOL     OW31822   2.912   6.187   3.410
10308SOL    HW131823   2.848   6.118   3.443
10308SOL    HW231824   2.921   6.180   3.311
10309SOL     OW31825   6.843   6.440   2.868
10309SOL    HW131826   6.913   6.495   2.824
10309SOL    HW231827   6.880   6.400   2.952
10310SOL     OW31828   4.092   3.772   3.015
10310SOL    HW131829   4.017   3.832   2.990
10310SOL    HW231830   4.158   3.767   2.940
10311SOL     OW31831   0.379   5.519   0.130
10311SOL    HW131832   0.286   5.516   0.167
10311SOL    HW231833   0.394   5.441   0.070
10312SOL     OW31834   2.361   4.704   0.443
10312SOL    HW131835   2.438   4.640   0.439
10312SOL    HW231836   2.338   4.722   0.539
10313SOL     OW31837   5.363   0.314   2.838
10313SOL    HW131838   5.347   0.280   2.930
10313SOL    HW231839   5.338   0.244   2.772
10314SOL     OW31840   6.285   6.870   0.834
10314SOL    HW131841   6.279   6.770   0.836
10314SOL    HW231842   6.376   6.898   0.867
10315SOL     OW31843   6.389   5.292   4.734
10315SOL    HW131844   6.400   5.217   4.800
10315SOL    HW231845   6.478   5.332   4.714
10316SOL     OW31846   0.620   3.683   3.552
10316SOL    HW131847   0.653   3.775   3.571
10316SOL    HW231848   0.529   3.689   3.510
10317SOL     OW31849   4.271   5.376   0.026
10317SOL    HW131850   4.184   5.389   6.996
10317SOL    HW231851   4.330   5.315   6.993
10318SOL     OW31852   5.887   5.852   2.023
10318SOL    HW131853   5.824   5.802   1.964
10318SOL    HW231854   5.979   5.816   2.012
10319SOL     OW31855   5.857   5.961   3.259
10319SOL    HW131856   5.917   6.040   3.273
10319SOL    HW231857   5.902   5.879   3.295
10320SOL     OW31858   6.807   0.149   1.376
10320SOL    HW131859   6.888   0.093   1.391
10320SOL    HW231860   6.829   0.224   1.314
10321SOL     OW31861   4.317   5.690   3.994
10321SOL    HW131862   4.343   5.727   3.904
10321SOL    HW231863   4.230   5.729   4.022
10322SOL     OW31864   6.180   3.891   0.762
10322SOL    HW131865   6.169   3.821   0.692
10322SOL    HW231866   6.172   3.850   0.853
10323SOL     OW31867   5.000   3.028   5.983
10323SOL    HW131868   4.941   3.086   6.040
10323SOL    HW231869   4.946   2.989   5.908
10324SOL     OW31870   3.411   2.895   3.247
10324SOL    HW131871   3.487   2.948   3.286
10324SOL    HW231872   3.354   2.859   3.320
10325SOL     OW31873   0.273   2.601   2.574
10325SOL    HW131874   0.343   2.655   2.527
10325SOL    HW231875   0.182   2.632   2.547
10326SOL     OW31876   5.356   1.962   0.398
10326SOL    HW131877   5.453   1.979   0.417
10326SOL    HW231878   5.300   2.016   0.460
10327SOL     OW31879   0.259   0.866   3.288
10327SOL    HW131880   0.354   0.842   3.269
10327SOL    HW231881   0.206   0.860   3.203
10328SOL     OW31882   5.704   3.109   2.289
10328SOL    HW131883   5.632   3.177   2.273
10328SOL    HW231884   5.684   3.058   2.373
10329SOL     OW31885   3.261   7.014   2.411
10329SOL    HW131886   3.300   0.010   2.320
10329SOL    HW231887   3.296   6.929   2.449
10330SOL     OW31888   4.347   5.113   1.969
10330SOL    HW131889   4.335   5.160   2.057
10330SOL    HW231890   4.385   5.021   1.985
10331SOL     OW31891   5.866   0.840   3.110
10331SOL    HW131892   5.904   0.928   3.140
10331SOL    HW231893   5.838   0.787   3.190
10332SOL     OW31894   6.934   2.437   6.109
10332SOL    HW131895   7.007   2.446   6.041
10332SOL    HW231896   6.889   2.525   6.121
10333SOL     OW31897   5.397   4.945   4.564
10333SOL    HW131898   5.396   4.922   4.467
10333SOL    HW231899   5.462   4.885   4.612
10334SOL     OW31900   2.364   4.721   4.162
10334SOL    HW131901   2.349   4.728   4.261
10334SOL    HW231902   2.292   4.665   4.122
10335SOL     OW31903   1.735   5.311   1.350
10335SOL    HW131904   1.673   5.291   1.426
10335SOL    HW231905   1.682   5.324   1.267
10336SOL     OW31906   4.227   6.312   2.373
10336SOL    HW131907   4.177   6.384   2.324
10336SOL    HW231908   4.227   6.332   2.471
10337SOL     OW31909   0.681   4.503   5.040
10337SOL    HW131910   0.617   4.480   5.114
10337SOL    HW231911   0.721   4.593   5.058
10338SOL     OW31912   2.839   6.043   3.130
10338SOL    HW131913   2.742   6.066   3.128
10338SOL    HW231914   2.866   6.004   3.041
10339SOL     OW31915   2.592   6.263   1.317
10339SOL    HW131916   2.610   6.339   1.255
10339SOL    HW231917   2.658   6.266   1.393
10340SOL     OW31918   1.508   6.793   0.502
10340SOL    HW131919   1.491   6.874   0.445
10340SOL    HW231920   1.499   6.818   0.598
10341SOL     OW31921   2.021   1.826   2.659
10341SOL    HW131922   2.027   1.746   2.717
10341SOL    HW231923   1.988   1.904   2.712
10342SOL     OW31924   2.642   6.881   4.773
10342SOL    HW131925   2.559   6.904   4.722
10342SOL    HW231926   2.714   6.947   4.751
10343SOL     OW31927   2.254   3.528   5.607
10343SOL    HW131928   2.274   3.489   5.517
10343SOL    HW231929   2.292   3.468   5.678
10344SOL     OW31930   3.754   4.031   4.820
10344SOL    HW131931   3.698   3.952   4.848
10344SOL    HW231932   3.847   4.000   4.801
10345SOL     OW31933   2.289   1.614   6.424
10345SOL    HW131934   2.265   1.659   6.337
10345SOL    HW231935   2.205   1.594   6.474
10346SOL     OW31936   5.076   6.279   0.111
10346SOL    HW131937   5.175   6.284   0.127
10346SOL    HW231938   5.045   6.185   0.122
10347SOL     OW31939   5.863   1.419   1.702
10347SOL    HW131940   5.815   1.496   1.659
10347SOL    HW231941   5.944   1.396   1.649
10348SOL     OW31942   0.205   6.836   5.611
10348SOL    HW131943   0.259   6.898   5.554
10348SOL    HW231944   0.201   6.746   5.567
10349SOL     OW31945   0.099   1.658   1.314
10349SOL    HW131946   0.083   1.700   1.225
10349SOL    HW231947   0.172   1.707   1.361
10350SOL     OW31948   2.628   5.208   4.448
10350SOL    HW131949   2.602   5.121   4.407
10350SOL    HW231950   2.550   5.270   4.445
10351SOL     OW31951   5.688   4.493   4.854
10351SOL    HW131952   5.589   4.493   4.863
10351SOL    HW231953   5.729   4.536   4.934
10352SOL     OW31954   5.982   2.237   0.156
10352SOL    HW131955   6.014   2.331   0.157
10352SOL    HW231956   5.962   2.210   0.062
10353SOL     OW31957   6.441   2.383   3.943
10353SOL    HW131958   6.420   2.454   3.877
10353SOL    HW231959   6.536   2.392   3.973
10354SOL     OW31960   0.153   3.068   0.424
10354SOL    HW131961   0.056   3.050   0.410
10354SOL    HW231962   0.168   3.095   0.519
10355SOL     OW31963   1.034   0.929   0.774
10355SOL    HW131964   1.108   0.992   0.796
10355SOL    HW231965   0.989   0.901   0.859
10356SOL     OW31966   6.513   4.154   6.709
10356SOL    HW131967   6.495   4.112   6.620
10356SOL    HW231968   6.569   4.093   6.764
10357SOL     OW31969   1.252   2.924   6.049
10357SOL    HW131970   1.267   2.996   5.981
10357SOL    HW231971   1.193   2.958   6.122
10358SOL     OW31972   0.769   2.631   2.232
10358SOL    HW131973   0.689   2.611   2.290
10358SOL    HW231974   0.750   2.710   2.175
10359SOL     OW31975   5.976   2.002   2.467
10359SOL    HW131976   5.970   1.990   2.566
10359SOL    HW231977   5.917   2.077   2.438
10360SOL     OW31978   5.880   4.493   2.356
10360SOL    HW131979   5.784   4.523   2.361
10360SOL    HW231980   5.933   4.562   2.306
10361SOL     OW31981   0.411   1.651   1.820
10361SOL    HW131982   0.318   1.620   1.801
10361SOL    HW231983   0.416   1.684   1.914
10362SOL     OW31984   1.230   4.874   2.610
10362SOL    HW131985   1.158   4.805   2.615
10362SOL    HW231986   1.195   4.957   2.568
10363SOL     OW31987   5.268   4.391   0.409
10363SOL    HW131988   5.339   4.353   0.469
10363SOL    HW231989   5.197   4.434   0.464
10364SOL     OW31990   6.015   4.669   2.209
10364SOL    HW131991   5.972   4.759   2.198
10364SOL    HW231992   6.105   4.679   2.251
10365SOL     OW31993   6.232   6.106   0.625
10365SOL    HW131994   6.185   6.139   0.543
10365SOL    HW231995   6.285   6.024   0.603
10366SOL     OW31996   2.795   6.429   3.324
10366SOL    HW131997   2.831   6.347   3.370
10366SOL    HW231998   2.769   6.406   3.230
10367SOL     OW31999   6.263   1.759   0.745
10367SOL    HW132000   6.362   1.769   0.736
10367SOL    HW232001   6.218   1.842   0.712
10368SOL     OW32002   1.734   5.796   1.861
10368SOL    HW132003   1.691   5.829   1.777
10368SOL    HW232004   1.663   5.764   1.924
10369SOL     OW32005   3.525   6.986   5.774
10369SOL    HW132006   3.537   0.025   5.694
10369SOL    HW232007   3.518   0.024   5.856
10370SOL     OW32008   0.337   0.979   4.946
10370SOL    HW132009   0.385   0.934   5.021
10370SOL    HW232010   0.329   0.916   4.869
10371SOL     OW32011   3.101   5.584   3.650
10371SOL    HW132012   3.156   5.659   3.614
10371SOL    HW232013   3.036   5.619   3.717
10372SOL     OW32014   2.492   6.564   1.577
10372SOL    HW132015   2.589   6.584   1.559
10372SOL    HW232016   2.486   6.497   1.652
10373SOL     OW32017   0.791   1.868   5.175
10373SOL    HW132018   0.858   1.827   5.236
10373SOL    HW232019   0.705   1.817   5.180
10374SOL     OW32020   3.332   6.827   4.719
10374SOL    HW132021   3.287   6.793   4.636
10374SOL    HW232022   3.410   6.768   4.741
10375SOL     OW32023   2.771   3.638   0.309
10375SOL    HW132024   2.688   3.671   0.352
10375SOL    HW232025   2.780   3.679   0.218
10376SOL     OW32026   1.903   4.830   2.824
10376SOL    HW132027   1.974   4.900   2.812
10376SOL    HW232028   1.922   4.776   2.905
10377SOL     OW32029   1.328   0.944   3.091
10377SOL    HW132030   1.246   0.893   3.067
10377SOL    HW232031   1.398   0.931   3.020
10378SOL     OW32032   7.008   4.367   5.144
10378SOL    HW132033   0.001   4.383   5.046
10378SOL    HW232034   0.036   4.438   5.195
10379SOL     OW32035   1.816   6.393   4.683
10379SOL    HW132036   1.739   6.365   4.624
10379SOL    HW232037   1.789   6.473   4.737
10380SOL     OW32038   1.664   2.684   4.595
10380SOL    HW132039   1.753   2.640   4.582
10380SOL    HW232040   1.645   2.745   4.519
10381SOL     OW32041   4.469   4.530   1.551
10381SOL    HW132042   4.475   4.445   1.498
10381SOL    HW232043   4.412   4.515   1.631
10382SOL     OW32044   3.383   5.307   1.618
10382SOL    HW132045   3.301   5.345   1.574
10382SOL    HW232046   3.355   5.238   1.685
10383SOL     OW32047   2.125   4.574   0.357
10383SOL    HW132048   2.081   4.532   0.436
10383SOL    HW232049   2.185   4.648   0.387
10384SOL     OW32050   5.580   6.660   1.641
10384SOL    HW132051   5.488   6.656   1.604
10384SOL    HW232052   5.599   6.579   1.695
10385SOL     OW32053   4.192   4.545   6.629
10385SOL    HW132054   4.172   4.636   6.594
10385SOL    HW232055   4.218   4.485   6.553
10386SOL     OW32056   0.146   0.779   6.910
10386SOL    HW132057   0.057   0.760   6.870
10386SOL    HW232058   0.218   0.753   6.845
10387SOL     OW32059   4.880   2.932   2.478
10387SOL    HW132060   4.867   2.966   2.385
10387SOL    HW232061   4.799   2.951   2.533
10388SOL     OW32062   2.849   0.479   5.546
10388SOL    HW132063   2.775   0.414   5.564
10388SOL    HW232064   2.919   0.471   5.617
10389SOL     OW32065   0.577   3.149   0.552
10389SOL    HW132066   0.629   3.065   0.564
10389SOL    HW232067   0.640   3.225   0.536
10390SOL     OW32068   2.930   2.377   0.920
10390SOL    HW132069   2.960   2.334   0.835
10390SOL    HW232070   2.831   2.390   0.918
10391SOL     OW32071   6.699   6.611   4.142
10391SOL    HW132072   6.687   6.521   4.183
10391SOL    HW232073   6.796   6.635   4.140
10392SOL     OW32074   6.732   4.972   4.252
10392SOL    HW132075   6.824   4.974   4.290
10392SOL    HW232076   6.706   5.064   4.222
10393SOL     OW32077   1.737   3.601   3.986
10393SOL    HW132078   1.791   3.639   4.061
10393SOL    HW232079   1.796   3.586   3.907
10394SOL     OW32080   3.202   6.145   4.288
10394SOL    HW132081   3.145   6.062   4.293
10394SOL    HW232082   3.166   6.213   4.352
10395SOL     OW32083   7.018   0.089   0.865
10395SOL    HW132084   6.998   7.010   0.874
10395SOL    HW232085   0.050   0.120   0.945
10396SOL     OW32086   2.904   1.764   4.308
10396SOL    HW132087   2.978   1.730   4.366
10396SOL    HW232088   2.854   1.837   4.355
10397SOL     OW32089   3.174   2.153   2.579
10397SOL    HW132090   3.243   2.111   2.520
10397SOL    HW232091   3.098   2.186   2.522
10398SOL     OW32092   0.323   3.027   1.626
10398SOL    HW132093   0.400   3.029   1.563
10398SOL    HW232094   0.349   2.979   1.710
10399SOL     OW32095   6.440   2.673   1.775
10399SOL    HW132096   6.439   2.716   1.865
10399SOL    HW232097   6.488   2.585   1.780
10400SOL     OW32098   4.360   0.166   0.589
10400SOL    HW132099   4.312   0.222   0.657
10400SOL    HW232100   4.305   0.086   0.566
10401SOL     OW32101   6.633   0.721   4.215
10401SOL    HW132102   6.560   0.653   4.225
10401SOL    HW232103   6.721   0.677   4.231
10402SOL     OW32104   5.931   2.862   4.930
10402SOL    HW132105   5.872   2.832   5.004
10402SOL    HW232106   5.879   2.917   4.865
10403SOL     OW32107   3.156   0.514   3.253
10403SOL    HW132108   3.234   0.551   3.201
10403SOL    HW232109   3.184   0.430   3.299
10404SOL     OW32110   6.375   6.859   5.965
10404SOL    HW132111   6.307   6.824   5.900
10404SOL    HW232112   6.458   6.804   5.958
10405SOL     OW32113   0.831   1.283   5.546
10405SOL    HW132114   0.747   1.243   5.583
10405SOL    HW232115   0.808   1.365   5.494
10406SOL     OW32116   3.352   4.879   2.106
10406SOL    HW132117   3.418   4.808   2.078
10406SOL    HW232118   3.392   4.969   2.090
10407SOL     OW32119   3.364   5.776   6.099
10407SOL    HW132120   3.463   5.788   6.114
10407SOL    HW232121   3.329   5.852   6.045
10408SOL     OW32122   5.021   1.177   0.727
10408SOL    HW132123   4.929   1.140   0.732
10408SOL    HW232124   5.028   1.242   0.651
10409SOL     OW32125   6.523   5.011   0.228
10409SOL    HW132126   6.547   4.935   0.288
10409SOL    HW232127   6.547   5.097   0.272
10410SOL     OW32128   5.376   1.383   0.116
10410SOL    HW132129   5.315   1.311   0.083
10410SOL    HW232130   5.357   1.468   0.066
10411SOL     OW32131   3.186   5.884   2.995
10411SOL    HW132132   3.262   5.821   2.982
10411SOL    HW232133   3.169   5.896   3.093
10412SOL     OW32134   6.172   1.264   0.569
10412SOL    HW132135   6.267   1.235   0.554
10412SOL    HW232136   6.169   1.364   0.579
10413SOL     OW32137   7.008   2.138   1.441
10413SOL    HW132138   6.965   2.072   1.380
10413SOL    HW232139   6.989   2.231   1.409
10414SOL     OW32140   4.595   3.797   5.480
10414SOL    HW132141   4.518   3.748   5.520
10414SOL    HW232142   4.562   3.857   5.407
10415SOL     OW32143   0.561   5.387   6.032
10415SOL    HW132144   0.489   5.329   6.071
10415SOL    HW232145   0.600   5.343   5.952
10416SOL     OW32146   5.984   1.825   3.344
10416SOL    HW132147   5.993   1.918   3.307
10416SOL    HW232148   5.899   1.784   3.313
10417SOL     OW32149   3.176   5.217   4.398
10417SOL    HW132150   3.249   5.214   4.466
10417SOL    HW232151   3.117   5.137   4.409
10418SOL     OW32152   0.162   4.742   5.736
10418SOL    HW132153   0.118   4.798   5.665
10418SOL    HW232154   0.092   4.708   5.799
10419SOL     OW32155   1.376   0.583   0.086
10419SOL    HW132156   1.325   0.644   0.146
10419SOL    HW232157   1.416   0.636   0.010
10420SOL     OW32158   6.939   2.976   2.448
10420SOL    HW132159   6.916   3.009   2.539
10420SOL    HW232160   7.018   3.027   2.413
10421SOL     OW32161   0.972   1.581   3.404
10421SOL    HW132162   0.948   1.563   3.308
10421SOL    HW232163   1.072   1.591   3.411
10422SOL     OW32164   6.547   2.403   5.468
10422SOL    HW132165   6.619   2.346   5.508
10422SOL    HW232166   6.586   2.487   5.433
10423SOL     OW32167   4.713   5.201   4.256
10423SOL    HW132168   4.786   5.223   4.321
10423SOL    HW232169   4.627   5.190   4.307
10424SOL     OW32170   5.758   2.533   6.997
10424SOL    HW132171   5.830   2.469   6.968
10424SOL    HW232172   5.781   2.570   0.068
10425SOL     OW32173   1.926   6.752   2.278
10425SOL    HW132174   1.925   6.848   2.250
10425SOL    HW232175   2.018   6.727   2.310
10426SOL     OW32176   6.940   4.013   0.779
10426SOL    HW132177   6.977   3.947   0.845
10426SOL    HW232178   7.002   4.019   0.701
10427SOL     OW32179   4.474   1.452   0.493
10427SOL    HW132180   4.443   1.453   0.397
10427SOL    HW232181   4.445   1.366   0.536
10428SOL     OW32182   3.086   1.672   4.470
10428SOL    HW132183   3.080   1.579   4.505
10428SOL    HW232184   3.122   1.732   4.542
10429SOL     OW32185   6.792   5.923   1.250
10429SOL    HW132186   6.795   5.829   1.284
10429SOL    HW232187   6.864   5.976   1.295
10430SOL     OW32188   4.509   0.225   3.774
10430SOL    HW132189   4.464   0.189   3.855
10430SOL    HW232190   4.569   0.300   3.799
10431SOL     OW32191   3.132   7.003   5.528
10431SOL    HW132192   3.150   6.993   5.430
10431SOL    HW232193   3.197   6.947   5.580
10432SOL     OW32194   6.270   0.718   4.156
10432SOL    HW132195   6.305   0.806   4.124
10432SOL    HW232196   6.211   0.731   4.236
10433SOL     OW32197   1.456   6.218   1.496
10433SOL    HW132198   1.544   6.236   1.540
10433SOL    HW232199   1.382   6.238   1.560
10434SOL     OW32200   3.190   6.926   3.003
10434SOL    HW132201   3.151   6.982   2.930
10434SOL    HW232202   3.116   6.888   3.058
10435SOL     OW32203   6.007   0.201   4.830
10435SOL    HW132204   5.965   0.132   4.889
10435SOL    HW232205   6.100   0.221   4.863
10436SOL     OW32206   0.864   4.808   4.628
10436SOL    HW132207   0.862   4.829   4.726
10436SOL    HW232208   0.814   4.722   4.611
10437SOL     OW32209   6.239   4.960   5.558
10437SOL    HW132210   6.157   4.921   5.515
10437SOL    HW232211   6.259   5.049   5.516
10438SOL     OW32212   5.454   6.537   0.367
10438SOL    HW132213   5.503   6.470   0.422
10438SOL    HW232214   5.518   6.585   0.308
10439SOL     OW32215   3.225   1.556   5.938
10439SOL    HW132216   3.194   1.478   5.885
10439SOL    HW232217   3.146   1.605   5.975
10440SOL     OW32218   0.200   5.992   0.986
10440SOL    HW132219   0.138   5.981   0.908
10440SOL    HW232220   0.286   5.944   0.967
10441SOL     OW32221   4.994   1.578   6.776
10441SOL    HW132222   5.044   1.606   6.858
10441SOL    HW232223   4.985   1.478   6.775
10442SOL     OW32224   3.329   5.375   5.449
10442SOL    HW132225   3.321   5.279   5.422
10442SOL    HW232226   3.285   5.388   5.538
10443SOL     OW32227   5.102   3.567   4.324
10443SOL    HW132228   5.111   3.602   4.417
10443SOL    HW232229   5.099   3.467   4.326
10444SOL     OW32230   3.917   5.449   4.309
10444SOL    HW132231   3.968   5.366   4.286
10444SOL    HW232232   3.874   5.437   4.398
10445SOL     OW32233   0.917   4.653   4.238
10445SOL    HW132234   0.937   4.576   4.177
10445SOL    HW232235   0.852   4.624   4.308
10446SOL     OW32236   1.159   4.399   6.773
10446SOL    HW132237   1.134   4.480   6.719
10446SOL    HW232238   1.231   4.424   6.837
10447SOL     OW32239   0.221   1.419   1.858
10447SOL    HW132240   0.312   1.420   1.899
10447SOL    HW232241   0.155   1.458   1.922
10448SOL     OW32242   4.188   3.312   1.222
10448SOL    HW132243   4.262   3.246   1.237
10448SOL    HW232244   4.159   3.308   1.126
10449SOL     OW32245   2.675   5.280   3.961
10449SOL    HW132246   2.735   5.288   4.040
10449SOL    HW232247   2.727   5.297   3.877
10450SOL     OW32248   0.657   2.539   6.474
10450SOL    HW132249   0.591   2.519   6.402
10450SOL    HW232250   0.706   2.455   6.498
10451SOL     OW32251   2.587   4.531   2.828
10451SOL    HW132252   2.578   4.585   2.744
10451SOL    HW232253   2.620   4.440   2.805
10452SOL     OW32254   6.801   3.014   3.267
10452SOL    HW132255   6.769   3.087   3.207
10452SOL    HW232256   6.792   3.042   3.362
10453SOL     OW32257   5.454   5.878   1.790
10453SOL    HW132258   5.400   5.819   1.729
10453SOL    HW232259   5.471   5.965   1.744
10454SOL     OW32260   5.683   2.963   1.447
10454SOL    HW132261   5.719   2.968   1.540
10454SOL    HW232262   5.665   2.868   1.422
10455SOL     OW32263   0.267   5.305   3.562
10455SOL    HW132264   0.245   5.332   3.468
10455SOL    HW232265   0.295   5.386   3.614
10456SOL     OW32266   2.990   6.183   1.057
10456SOL    HW132267   3.055   6.140   1.120
10456SOL    HW232268   2.979   6.279   1.081
10457SOL     OW32269   3.862   3.600   3.637
10457SOL    HW132270   3.928   3.652   3.690
10457SOL    HW232271   3.906   3.518   3.600
10458SOL     OW32272   0.382   6.895   0.024
10458SOL    HW132273   0.426   6.985   0.033
10458SOL    HW232274   0.444   6.824   0.059
10459SOL     OW32275   5.939   5.634   2.440
10459SOL    HW132276   5.988   5.621   2.526
10459SOL    HW232277   5.844   5.606   2.451
10460SOL     OW32278   2.513   6.342   1.736
10460SOL    HW132279   2.482   6.266   1.793
10460SOL    HW232280   2.568   6.306   1.661
10461SOL     OW32281   1.453   6.463   6.470
10461SOL    HW132282   1.518   6.519   6.419
10461SOL    HW232283   1.497   6.377   6.497
10462SOL     OW32284   6.241   0.795   1.386
10462SOL    HW132285   6.185   0.733   1.442
10462SOL    HW232286   6.300   0.848   1.446
10463SOL     OW32287   3.087   4.138   6.071
10463SOL    HW132288   2.996   4.125   6.109
10463SOL    HW232289   3.107   4.236   6.065
10464SOL     OW32290   4.440   6.968   1.082
10464SOL    HW132291   4.364   6.904   1.067
10464SOL    HW232292   4.428   0.029   1.023
10465SOL     OW32293   0.720   6.775   6.386
10465SOL    HW132294   0.816   6.805   6.388
10465SOL    HW232295   0.717   6.675   6.385
10466SOL     OW32296   4.906   5.598   4.957
10466SOL    HW132297   4.856   5.672   4.912
10466SOL    HW232298   4.953   5.633   5.038
10467SOL     OW32299   1.638   1.775   5.191
10467SOL    HW132300   1.640   1.696   5.129
10467SOL    HW232301   1.731   1.794   5.222
10468SOL     OW32302   3.658   6.570   4.223
10468SOL    HW132303   3.689   6.549   4.130
10468SOL    HW232304   3.568   6.614   4.219
10469SOL     OW32305   2.097   3.766   1.024
10469SOL    HW132306   2.103   3.684   0.968
10469SOL    HW232307   2.010   3.766   1.074
10470SOL     OW32308   2.431   2.033   4.274
10470SOL    HW132309   2.527   2.006   4.272
10470SOL    HW232310   2.419   2.120   4.226
10471SOL     OW32311   2.483   3.971   1.730
10471SOL    HW132312   2.477   3.981   1.830
10471SOL    HW232313   2.403   3.922   1.697
10472SOL     OW32314   3.939   7.007   2.178
10472SOL    HW132315   3.866   0.036   2.129
10472SOL    HW232316   3.906   6.979   2.268
10473SOL     OW32317   5.932   6.850   0.598
10473SOL    HW132318   5.959   6.943   0.619
10473SOL    HW232319   5.944   6.833   0.500
10474SOL     OW32320   4.124   0.861   4.447
10474SOL    HW132321   4.159   0.829   4.358
10474SOL    HW232322   4.088   0.783   4.498
10475SOL     OW32323   4.188   5.796   1.158
10475SOL    HW132324   4.136   5.831   1.080
10475SOL    HW232325   4.246   5.868   1.196
10476SOL     OW32326   6.213   5.677   6.836
10476SOL    HW132327   6.260   5.608   6.891
10476SOL    HW232328   6.223   5.655   6.739
10477SOL     OW32329   5.151   3.396   4.586
10477SOL    HW132330   5.201   3.482   4.594
10477SOL    HW232331   5.189   3.329   4.651
10478SOL     OW32332   0.914   6.868   0.074
10478SOL    HW132333   0.995   6.812   0.055
10478SOL    HW232334   0.944   6.956   0.114
10479SOL     OW32335   1.212   3.329   2.057
10479SOL    HW132336   1.187   3.281   2.141
10479SOL    HW232337   1.176   3.423   2.061
10480SOL     OW32338   5.519   6.459   1.828
10480SOL    HW132339   5.425   6.490   1.839
10480SOL    HW232340   5.571   6.478   1.911
10481SOL     OW32341   2.450   1.064   5.087
10481SOL    HW132342   2.523   1.006   5.051
10481SOL    HW232343   2.479   1.105   5.173
10482SOL     OW32344   1.083   6.138   4.830
10482SOL    HW132345   1.170   6.185   4.845
10482SOL    HW232346   1.027   6.145   4.912
10483SOL     OW32347   6.239   5.931   0.260
10483SOL    HW132348   6.205   5.895   0.173
10483SOL    HW232349   6.195   6.019   0.280
10484SOL     OW32350   7.006   0.702   1.363
10484SOL    HW132351   6.996   0.706   1.264
10484SOL    HW232352   6.945   0.769   1.406
10485SOL     OW32353   2.974   3.818   3.056
10485SOL    HW132354   2.952   3.880   2.981
10485SOL    HW232355   2.950   3.724   3.030
10486SOL     OW32356   6.851   0.002   5.597
10486SOL    HW132357   6.897   0.014   5.509
10486SOL    HW232358   6.910   6.969   5.659
10487SOL     OW32359   4.773   1.527   1.676
10487SOL    HW132360   4.797   1.590   1.602
10487SOL    HW232361   4.708   1.459   1.642
10488SOL     OW32362   0.700   1.961   5.740
10488SOL    HW132363   0.690   1.867   5.708
10488SOL    HW232364   0.724   2.020   5.663
10489SOL     OW32365   5.993   4.981   3.794
10489SOL    HW132366   6.078   4.961   3.843
10489SOL    HW232367   6.015   5.009   3.700
10490SOL     OW32368   6.139   0.329   0.734
10490SOL    HW132369   6.092   0.391   0.798
10490SOL    HW232370   6.207   0.275   0.784
10491SOL     OW32371   1.628   3.346   6.740
10491SOL    HW132372   1.536   3.378   6.716
10491SOL    HW232373   1.688   3.355   6.660
10492SOL     OW32374   4.998   0.206   0.428
10492SOL    HW132375   4.942   0.189   0.510
10492SOL    HW232376   5.095   0.196   0.451
10493SOL     OW32377   4.527   5.559   1.227
10493SOL    HW132378   4.490   5.626   1.291
10493SOL    HW232379   4.626   5.553   1.239
10494SOL     OW32380   0.610   4.579   6.142
10494SOL    HW132381   0.567   4.529   6.067
10494SOL    HW232382   0.702   4.543   6.158
10495SOL     OW32383   0.404   6.282   5.802
10495SOL    HW132384   0.501   6.304   5.816
10495SOL    HW232385   0.395   6.219   5.725
10496SOL     OW32386   6.384   3.537   5.668
10496SOL    HW132387   6.360   3.629   5.640
10496SOL    HW232388   6.339   3.470   5.609
10497SOL     OW32389   2.610   0.085   1.615
10497SOL    HW132390   2.569   0.058   1.702
10497SOL    HW232391   2.611   0.185   1.607
10498SOL     OW32392   4.683   5.626   0.703
10498SOL    HW132393   4.732   5.540   0.690
10498SOL    HW232394   4.676   5.645   0.801
10499SOL     OW32395   5.659   5.493   2.103
10499SOL    HW132396   5.705   5.555   2.040
10499SOL    HW232397   5.724   5.425   2.136
10500SOL     OW32398   5.604   4.175   5.098
10500SOL    HW132399   5.597   4.095   5.157
10500SOL    HW232400   5.696   4.180   5.059
10501SOL     OW32401   2.462   5.742   2.055
10501SOL    HW132402   2.496   5.654   2.022
10501SOL    HW232403   2.515   5.816   2.013
10502SOL     OW32404   2.999   3.484   2.702
10502SOL    HW132405   2.997   3.527   2.612
10502SOL    HW232406   3.072   3.527   2.757
10503SOL     OW32407   6.965   3.419   6.389
10503SOL    HW132408   7.015   3.360   6.453
10503SOL    HW232409   6.913   3.361   6.325
10504SOL     OW32410   1.916   2.793   6.093
10504SOL    HW132411   1.866   2.712   6.062
10504SOL    HW232412   1.897   2.810   6.190
10505SOL     OW32413   5.826   6.315   1.879
10505SOL    HW132414   5.854   6.233   1.929
10505SOL    HW232415   5.806   6.291   1.785
10506SOL     OW32416   0.815   2.895   6.745
10506SOL    HW132417   0.905   2.933   6.766
10506SOL    HW232418   0.794   2.821   6.809
10507SOL     OW32419   2.448   4.733   0.030
10507SOL    HW132420   2.500   4.648   0.038
10507SOL    HW232421   2.425   4.767   0.121
10508SOL     OW32422   1.036   5.131   5.163
10508SOL    HW132423   0.955   5.138   5.222
10508SOL    HW232424   1.116   5.163   5.212
10509SOL     OW32425   4.920   3.423   3.701
10509SOL    HW132426   5.014   3.395   3.680
10509SOL    HW232427   4.921   3.487   3.778
10510SOL     OW32428   4.674   5.693   4.600
10510SOL    HW132429   4.639   5.759   4.533
10510SOL    HW232430   4.680   5.603   4.557
10511SOL     OW32431   2.982   1.754   1.967
10511SOL    HW132432   3.030   1.822   1.911
10511SOL    HW232433   2.991   1.778   2.063
10512SOL     OW32434   4.249   0.911   5.032
10512SOL    HW132435   4.293   0.910   4.942
10512SOL    HW232436   4.180   0.983   5.034
10513SOL     OW32437   5.489   3.116   1.598
10513SOL    HW132438   5.453   3.043   1.655
10513SOL    HW232439   5.529   3.077   1.515
10514SOL     OW32440   0.973   3.097   1.666
10514SOL    HW132441   1.055   3.059   1.709
10514SOL    HW232442   0.986   3.100   1.567
10515SOL     OW32443   2.129   3.449   5.002
10515SOL    HW132444   2.041   3.497   4.992
10515SOL    HW232445   2.174   3.444   4.912
10516SOL     OW32446   3.678   2.779   0.139
10516SOL    HW132447   3.699   2.726   0.221
10516SOL    HW232448   3.579   2.776   0.122
10517SOL     OW32449   0.935   3.185   3.307
10517SOL    HW132450   1.030   3.154   3.307
10517SOL    HW232451   0.932   3.285   3.311
10518SOL     OW32452   0.985   5.160   2.201
10518SOL    HW132453   0.996   5.063   2.180
10518SOL    HW232454   0.915   5.171   2.272
10519SOL     OW32455   2.237   6.258   1.193
10519SOL    HW132456   2.234   6.313   1.110
10519SOL    HW232457   2.240   6.318   1.273
10520SOL     OW32458   6.936   0.978   6.308
10520SOL    HW132459   0.005   0.948   6.269
10520SOL    HW232460   6.912   1.067   6.269
10521SOL     OW32461   6.135   3.474   1.169
10521SOL    HW132462   6.153   3.389   1.217
10521SOL    HW232463   6.167   3.551   1.225
10522SOL     OW32464   5.439   2.398   2.777
10522SOL    HW132465   5.517   2.441   2.732
10522SOL    HW232466   5.371   2.373   2.709
10523SOL     OW32467   0.309   4.219   3.929
10523SOL    HW132468   0.328   4.122   3.943
10523SOL    HW232469   0.352   4.272   4.002
10524SOL     OW32470   6.733   6.306   3.918
10524SOL    HW132471   6.725   6.214   3.880
10524SOL    HW232472   6.730   6.373   3.844
10525SOL     OW32473   4.436   1.291   4.853
10525SOL    HW132474   4.392   1.380   4.865
10525SOL    HW232475   4.405   1.250   4.767
10526SOL     OW32476   0.804   5.432   0.548
10526SOL    HW132477   0.838   5.429   0.642
10526SOL    HW232478   0.733   5.362   0.536
10527SOL     OW32479   0.882   0.998   4.832
10527SOL    HW132480   0.939   1.044   4.899
10527SOL    HW232481   0.907   0.901   4.827
10528SOL     OW32482   0.957   4.786   6.496
10528SOL    HW132483   0.925   4.872   6.534
10528SOL    HW232484   0.878   4.726   6.478
10529SOL     OW32485   1.208   6.472   6.374
10529SOL    HW132486   1.306   6.460   6.392
10529SOL    HW232487   1.155   6.411   6.432
10530SOL     OW32488   1.188   6.984   0.029
10530SOL    HW132489   1.211   6.908   0.089
10530SOL    HW232490   1.178   6.951   6.954
10531SOL     OW32491   2.957   2.761   5.345
10531SOL    HW132492   2.944   2.664   5.323
10531SOL    HW232493   2.868   2.806   5.348
10532SOL     OW32494   6.017   6.313   6.610
10532SOL    HW132495   6.021   6.386   6.542
10532SOL    HW232496   6.073   6.236   6.579
10533SOL     OW32497   3.260   5.785   3.461
10533SOL    HW132498   3.254   5.831   3.549
10533SOL    HW232499   3.207   5.836   3.393
10534SOL     OW32500   0.936   5.983   2.763
10534SOL    HW132501   0.986   5.932   2.832
10534SOL    HW232502   0.955   5.945   2.672
10535SOL     OW32503   2.623   1.308   2.773
10535SOL    HW132504   2.675   1.259   2.843
10535SOL    HW232505   2.610   1.249   2.693
10536SOL     OW32506   5.050   1.217   4.275
10536SOL    HW132507   5.133   1.266   4.249
10536SOL    HW232508   4.983   1.223   4.201
10537SOL     OW32509   4.849   6.864   3.035
10537SOL    HW132510   4.929   6.853   2.977
10537SOL    HW232511   4.766   6.856   2.979
10538SOL     OW32512   6.548   3.272   2.281
10538SOL    HW132513   6.499   3.359   2.272
10538SOL    HW232514   6.487   3.204   2.322
10539SOL     OW32515   6.006   6.565   2.851
10539SOL    HW132516   5.909   6.587   2.866
10539SOL    HW232517   6.022   6.469   2.873
10540SOL     OW32518   2.593   3.710   6.258
10540SOL    HW132519   2.517   3.759   6.216
10540SOL    HW232520   2.675   3.768   6.256
10541SOL     OW32521   3.143   3.071   5.029
10541SOL    HW132522   3.163   2.987   5.080
10541SOL    HW232523   3.062   3.114   5.068
10542SOL     OW32524   6.156   6.908   4.546
10542SOL    HW132525   6.196   6.827   4.590
10542SOL    HW232526   6.216   6.939   4.473
10543SOL     OW32527   0.079   3.198   5.587
10543SOL    HW132528   0.159   3.225   5.641
10543SOL    HW232529   0.026   3.279   5.563
10544SOL     OW32530   1.316   1.407   3.654
10544SOL    HW132531   1.298   1.463   3.574
10544SOL    HW232532   1.258   1.325   3.652
10545SOL     OW32533   2.546   2.185   2.937
10545SOL    HW132534   2.630   2.235   2.913
10545SOL    HW232535   2.529   2.194   3.035
10546SOL     OW32536   3.400   6.741   0.967
10546SOL    HW132537   3.385   6.675   1.040
10546SOL    HW232538   3.434   6.827   1.005
10547SOL     OW32539   4.250   6.674   5.359
10547SOL    HW132540   4.336   6.689   5.407
10547SOL    HW232541   4.267   6.671   5.260
10548SOL     OW32542   1.271   4.730   4.251
10548SOL    HW132543   1.202   4.677   4.300
10548SOL    HW232544   1.228   4.782   4.177
10549SOL     OW32545   0.328   1.259   0.906
10549SOL    HW132546   0.298   1.348   0.872
10549SOL    HW232547   0.364   1.205   0.829
10550SOL     OW32548   3.809   6.124   3.066
10550SOL    HW132549   3.859   6.209   3.045
10550SOL    HW232550   3.766   6.090   2.983
10551SOL     OW32551   3.284   2.032   5.912
10551SOL    HW132552   3.226   1.989   5.981
10551SOL    HW232553   3.274   2.131   5.918
10552SOL     OW32554   3.530   1.163   4.685
10552SOL    HW132555   3.492   1.159   4.777
10552SOL    HW232556   3.587   1.244   4.676
10553SOL     OW32557   0.466   5.141   0.206
10553SOL    HW132558   0.438   5.048   0.229
10553SOL    HW232559   0.512   5.182   0.285
10554SOL     OW32560   6.300   4.996   2.744
10554SOL    HW132561   6.231   5.014   2.674
10554SOL    HW232562   6.255   4.965   2.828
10555SOL     OW32563   3.416   2.415   0.550
10555SOL    HW132564   3.508   2.448   0.571
10555SOL    HW232565   3.361   2.491   0.514
10556SOL     OW32566   1.894   1.953   3.125
10556SOL    HW132567   1.980   1.915   3.159
10556SOL    HW232568   1.906   1.983   3.030
10557SOL     OW32569   2.050   3.691   3.465
10557SOL    HW132570   2.056   3.790   3.448
10557SOL    HW232571   2.051   3.674   3.564
10558SOL     OW32572   2.846   5.589   5.731
10558SOL    HW132573   2.827   5.655   5.659
10558SOL    HW232574   2.916   5.626   5.793
10559SOL     OW32575   3.480   0.354   6.421
10559SOL    HW132576   3.531   0.396   6.497
10559SOL    HW232577   3.430   0.274   6.455
10560SOL     OW32578   5.302   6.615   1.599
10560SOL    HW132579   5.291   6.612   1.698
10560SOL    HW232580   5.224   6.664   1.559
10561SOL     OW32581   5.749   3.813   0.587
10561SOL    HW132582   5.660   3.810   0.543
10561SOL    HW232583   5.790   3.722   0.587
10562SOL     OW32584   3.084   6.764   1.596
10562SOL    HW132585   3.164   6.706   1.610
10562SOL    HW232586   3.033   6.732   1.516
10563SOL     OW32587   0.322   0.262   0.616
10563SOL    HW132588   0.375   0.250   0.533
10563SOL    HW232589   0.241   0.202   0.612
10564SOL     OW32590   6.196   6.054   3.838
10564SOL    HW132591   6.269   6.117   3.866
10564SOL    HW232592   6.232   5.960   3.837
10565SOL     OW32593   6.572   7.002   5.271
10565SOL    HW132594   6.656   0.034   5.291
10565SOL    HW232595   6.498   0.048   5.254
10566SOL     OW32596   2.920   2.827   0.392
10566SOL    HW132597   2.993   2.881   0.434
10566SOL    HW232598   2.831   2.867   0.415
10567SOL     OW32599   1.554   2.083   6.543
10567SOL    HW132600   1.499   2.021   6.488
10567SOL    HW232601   1.608   2.031   6.609
10568SOL     OW32602   4.885   2.630   6.112
10568SOL    HW132603   4.877   2.628   6.013
10568SOL    HW232604   4.815   2.690   6.151
10569SOL     OW32605   5.427   6.946   1.733
10569SOL    HW132606   5.439   0.022   1.704
10569SOL    HW232607   5.492   6.888   1.684
10570SOL     OW32608   0.545   4.997   4.278
10570SOL    HW132609   0.514   5.046   4.196
10570SOL    HW232610   0.624   5.043   4.317
10571SOL     OW32611   6.935   4.314   5.528
10571SOL    HW132612   6.913   4.249   5.601
10571SOL    HW232613   0.015   4.331   5.527
10572SOL     OW32614   6.092   4.756   1.350
10572SOL    HW132615   6.100   4.801   1.439
10572SOL    HW232616   6.004   4.780   1.308
10573SOL     OW32617   5.962   0.977   3.436
10573SOL    HW132618   5.903   0.897   3.427
10573SOL    HW232619   6.023   0.965   3.513
10574SOL     OW32620   0.042   1.434   3.531
10574SOL    HW132621   7.001   1.405   3.605
10574SOL    HW232622   0.020   1.529   3.506
10575SOL     OW32623   6.245   1.074   2.048
10575SOL    HW132624   6.225   1.079   1.951
10575SOL    HW232625   6.247   1.166   2.087
10576SOL     OW32626   2.247   5.143   3.859
10576SOL    HW132627   2.213   5.093   3.778
10576SOL    HW232628   2.304   5.082   3.914
10577SOL     OW32629   4.257   6.056   1.296
10577SOL    HW132630   4.234   6.081   1.202
10577SOL    HW232631   4.179   6.072   1.355
10578SOL     OW32632   6.403   2.161   4.076
10578SOL    HW132633   6.472   2.169   4.148
10578SOL    HW232634   6.397   2.247   4.025
10579SOL     OW32635   2.470   3.252   1.284
10579SOL    HW132636   2.453   3.155   1.296
10579SOL    HW232637   2.542   3.282   1.348
10580SOL     OW32638   6.337   7.005   6.474
10580SOL    HW132639   6.330   6.905   6.471
10580SOL    HW232640   6.393   0.014   6.552
10581SOL     OW32641   5.258   6.995   3.556
10581SOL    HW132642   5.197   6.960   3.627
10581SOL    HW232643   5.299   0.062   3.586
10582SOL     OW32644   5.714   4.883   6.641
10582SOL    HW132645   5.680   4.957   6.699
10582SOL    HW232646   5.814   4.891   6.632
10583SOL     OW32647   2.825   0.608   3.750
10583SOL    HW132648   2.769   0.690   3.736
10583SOL    HW232649   2.801   0.539   3.682
10584SOL     OW32650   6.875   6.991   5.308
10584SOL    HW132651   6.902   7.004   5.213
10584SOL    HW232652   6.853   6.895   5.324
10585SOL     OW32653   0.679   1.194   5.792
10585SOL    HW132654   0.774   1.210   5.766
10585SOL    HW232655   0.672   1.194   5.892
10586SOL     OW32656   4.834   4.656   5.606
10586SOL    HW132657   4.886   4.593   5.663
10586SOL    HW232658   4.840   4.627   5.511
10587SOL     OW32659   1.094   5.649   5.466
10587SOL    HW132660   1.126   5.610   5.552
10587SOL    HW232661   1.080   5.575   5.400
10588SOL     OW32662   0.949   3.831   3.963
10588SOL    HW132663   0.930   3.862   4.057
10588SOL    HW232664   1.043   3.798   3.958
10589SOL     OW32665   5.476   6.249   4.076
10589SOL    HW132666   5.469   6.294   3.987
10589SOL    HW232667   5.512   6.314   4.143
10590SOL     OW32668   0.517   5.337   1.911
10590SOL    HW132669   0.466   5.414   1.875
10590SOL    HW232670   0.615   5.360   1.914
10591SOL     OW32671   1.333   1.707   1.350
10591SOL    HW132672   1.422   1.752   1.341
10591SOL    HW232673   1.271   1.766   1.401
10592SOL     OW32674   5.610   2.238   5.500
10592SOL    HW132675   5.633   2.235   5.597
10592SOL    HW232676   5.566   2.152   5.474
10593SOL     OW32677   2.753   6.559   1.547
10593SOL    HW132678   2.793   6.562   1.639
10593SOL    HW232679   2.753   6.465   1.514
10594SOL     OW32680   3.582   0.015   3.452
10594SOL    HW132681   3.493   6.997   3.423
10594SOL    HW232682   3.614   0.082   3.385
10595SOL     OW32683   5.936   0.489   0.853
10595SOL    HW132684   5.864   0.421   0.862
10595SOL    HW232685   5.977   0.507   0.943
10596SOL     OW32686   4.647   1.590   6.926
10596SOL    HW132687   4.673   1.673   6.975
10596SOL    HW232688   4.707   1.577   6.848
10597SOL     OW32689   2.425   0.273   5.898
10597SOL    HW132690   2.328   0.299   5.889
10597SOL    HW232691   2.445   0.256   5.995
10598SOL     OW32692   2.616   1.647   6.056
10598SOL    HW132693   2.525   1.677   6.030
10598SOL    HW232694   2.685   1.706   6.014
10599SOL     OW32695   0.003   3.640   6.205
10599SOL    HW132696   7.010   3.553   6.252
10599SOL    HW232697   6.933   3.688   6.202
10600SOL     OW32698   2.613   1.974   1.924
10600SOL    HW132699   2.551   2.052   1.915
10600SOL    HW232700   2.705   2.007   1.946
10601SOL     OW32701   0.249   6.965   6.459
10601SOL    HW132702   0.173   7.014   6.417
10601SOL    HW232703   0.230   6.867   6.459
10602SOL     OW32704   0.233   6.973   0.477
10602SOL    HW132705   0.163   0.023   0.499
10602SOL    HW232706   0.204   6.884   0.511
10603SOL     OW32707   4.478   6.687   2.023
10603SOL    HW132708   4.548   6.757   2.008
10603SOL    HW232709   4.389   6.723   1.996
10604SOL     OW32710   0.225   0.055   5.119
10604SOL    HW132711   0.136   0.090   5.089
10604SOL    HW232712   0.290   0.131   5.126
10605SOL     OW32713   2.572   1.397   1.023
10605SOL    HW132714   2.594   1.410   1.119
10605SOL    HW232715   2.579   1.300   0.999
10606SOL     OW32716   6.522   0.905   1.244
10606SOL    HW132717   6.514   0.817   1.291
10606SOL    HW232718   6.459   0.907   1.166
10607SOL     OW32719   3.912   4.133   6.064
10607SOL    HW132720   3.930   4.035   6.067
10607SOL    HW232721   3.874   4.158   5.975
10608SOL     OW32722   6.352   2.878   2.561
10608SOL    HW132723   6.325   2.830   2.645
10608SOL    HW232724   6.293   2.848   2.486
10609SOL     OW32725   3.920   0.401   0.242
10609SOL    HW132726   3.827   0.408   0.278
10609SOL    HW232727   3.967   0.325   0.286
10610SOL     OW32728   0.195   1.380   4.708
10610SOL    HW132729   0.258   1.451   4.678
10610SOL    HW232730   0.230   1.338   4.792
10611SOL     OW32731   2.473   5.698   4.817
10611SOL    HW132732   2.427   5.656   4.895
10611SOL    HW232733   2.541   5.635   4.779
10612SOL     OW32734   4.928   1.392   3.999
10612SOL    HW132735   4.952   1.401   3.902
10612SOL    HW232736   4.898   1.480   4.034
10613SOL     OW32737   6.102   6.380   4.278
10613SOL    HW132738   6.186   6.333   4.251
10613SOL    HW232739   6.113   6.478   4.263
10614SOL     OW32740   5.236   0.325   6.758
10614SOL    HW132741   5.149   0.278   6.740
10614SOL    HW232742   5.225   0.389   6.833
10615SOL     OW32743   2.688   2.415   6.376
10615SOL    HW132744   2.628   2.399   6.297
10615SOL    HW232745   2.712   2.327   6.418
10616SOL     OW32746   2.578   6.074   6.873
10616SOL    HW132747   2.553   6.041   6.964
10616SOL    HW232748   2.560   6.003   6.805
10617SOL     OW32749   2.877   3.242   1.353
10617SOL    HW132750   2.784   3.262   1.385
10617SOL    HW232751   2.932   3.208   1.430
10618SOL     OW32752   0.733   5.318   4.973
10618SOL    HW132753   0.649   5.371   4.957
10618SOL    HW232754   0.776   5.297   4.885
10619SOL     OW32755   1.202   1.898   3.077
10619SOL    HW132756   1.162   1.903   3.169
10619SOL    HW232757   1.171   1.815   3.032
10620SOL     OW32758   2.504   6.920   6.266
10620SOL    HW132759   2.493   6.977   6.184
10620SOL    HW232760   2.587   6.947   6.314
10621SOL     OW32761   1.302   3.495   2.998
10621SOL    HW132762   1.351   3.563   2.943
10621SOL    HW232763   1.289   3.412   2.944
10622SOL     OW32764   4.258   3.470   0.873
10622SOL    HW132765   4.219   3.482   0.782
10622SOL    HW232766   4.353   3.441   0.865
10623SOL     OW32767   5.791   5.879   6.305
10623SOL    HW132768   5.886   5.889   6.335
10623SOL    HW232769   5.777   5.929   6.220
10624SOL     OW32770   0.646   2.541   5.393
10624SOL    HW132771   0.740   2.570   5.408
10624SOL    HW232772   0.590   2.565   5.472
10625SOL     OW32773   6.672   3.817   6.517
10625SOL    HW132774   6.681   3.717   6.519
10625SOL    HW232775   6.745   3.857   6.573
10626SOL     OW32776   3.973   3.220   1.514
10626SOL    HW132777   3.971   3.219   1.614
10626SOL    HW232778   4.036   3.291   1.483
10627SOL     OW32779   5.809   6.337   5.875
10627SOL    HW132780   5.733   6.396   5.849
10627SOL    HW232781   5.811   6.326   5.974
10628SOL     OW32782   4.253   0.539   0.241
10628SOL    HW132783   4.296   0.454   0.274
10628SOL    HW232784   4.323   0.602   0.210
10629SOL     OW32785   3.781   5.435   4.549
10629SOL    HW132786   3.757   5.374   4.624
10629SOL    HW232787   3.700   5.487   4.522
10630SOL     OW32788   4.533   0.434   3.170
10630SOL    HW132789   4.508   0.337   3.176
10630SOL    HW232790   4.620   0.448   3.217
10631SOL     OW32791   4.438   5.940   0.102
10631SOL    HW132792   4.501   5.863   0.107
10631SOL    HW232793   4.344   5.905   0.092
10632SOL     OW32794   4.497   5.815   3.021
10632SOL    HW132795   4.528   5.761   2.943
10632SOL    HW232796   4.486   5.755   3.100
10633SOL     OW32797   2.034   2.729   2.015
10633SOL    HW132798   2.133   2.741   2.019
10633SOL    HW232799   1.993   2.751   2.104
10634SOL     OW32800   0.897   4.796   6.937
10634SOL    HW132801   0.859   4.744   6.860
10634SOL    HW232802   0.921   4.733   7.011
10635SOL     OW32803   2.254   3.765   0.360
10635SOL    HW132804   2.311   3.684   0.374
10635SOL    HW232805   2.193   3.777   0.439
10636SOL     OW32806   6.648   2.348   6.656
10636SOL    HW132807   6.707   2.283   6.608
10636SOL    HW232808   6.563   2.359   6.605
10637SOL     OW32809   3.081   6.676   6.350
10637SOL    HW132810   3.142   6.733   6.295
10637SOL    HW232811   3.066   6.719   6.439
10638SOL     OW32812   6.945   5.309   1.767
10638SOL    HW132813   6.868   5.261   1.810
10638SOL    HW232814   7.000   5.243   1.715
10639SOL     OW32815   2.137   3.341   1.537
10639SOL    HW132816   2.077   3.375   1.609
10639SOL    HW232817   2.230   3.334   1.571
10640SOL     OW32818   4.062   0.091   3.538
10640SOL    HW132819   3.990   0.065   3.603
10640SOL    HW232820   4.150   0.092   3.584
10641SOL     OW32821   0.773   0.276   3.236
10641SOL    HW132822   0.871   0.266   3.218
10641SOL    HW232823   0.721   0.256   3.153
10642SOL     OW32824   6.229   2.319   6.979
10642SOL    HW132825   6.319   2.313   6.934
10642SOL    HW232826   6.235   2.279   0.052
10643SOL     OW32827   1.684   4.893   5.256
10643SOL    HW132828   1.739   4.812   5.238
10643SOL    HW232829   1.682   4.950   5.174
10644SOL     OW32830   0.159   2.517   2.257
10644SOL    HW132831   0.116   2.465   2.183
10644SOL    HW232832   0.183   2.608   2.224
10645SOL     OW32833   2.239   2.812   3.028
10645SOL    HW132834   2.206   2.905   3.010
10645SOL    HW232835   2.252   2.763   2.942
10646SOL     OW32836   5.047   1.532   4.653
10646SOL    HW132837   4.964   1.534   4.598
10646SOL    HW232838   5.094   1.444   4.641
10647SOL     OW32839   3.910   5.149   4.767
10647SOL    HW132840   3.845   5.086   4.812
10647SOL    HW232841   3.874   5.242   4.773
10648SOL     OW32842   5.671   4.928   4.935
10648SOL    HW132843   5.636   5.011   4.979
10648SOL    HW232844   5.654   4.849   4.996
10649SOL     OW32845   0.296   3.257   3.462
10649SOL    HW132846   0.385   3.254   3.415
10649SOL    HW232847   0.228   3.209   3.408
10650SOL     OW32848   0.075   0.092   4.289
10650SOL    HW132849   0.117   0.104   4.199
10650SOL    HW232850   6.998   0.067   4.278
10651SOL     OW32851   4.742   6.238   5.451
10651SOL    HW132852   4.719   6.141   5.459
10651SOL    HW232853   4.658   6.292   5.438
10652SOL     OW32854   1.382   6.758   6.011
10652SOL    HW132855   1.370   6.767   6.110
10652SOL    HW232856   1.445   6.683   5.991
10653SOL     OW32857   3.907   6.422   4.758
10653SOL    HW132858   3.894   6.434   4.660
10653SOL    HW232859   3.866   6.336   4.787
10654SOL     OW32860   5.129   1.735   4.303
10654SOL    HW132861   5.154   1.815   4.248
10654SOL    HW232862   5.030   1.735   4.319
10655SOL     OW32863   1.321   4.763   1.355
10655SOL    HW132864   1.375   4.683   1.383
10655SOL    HW232865   1.231   4.759   1.397
10656SOL     OW32866   6.586   1.378   1.841
10656SOL    HW132867   6.595   1.306   1.772
10656SOL    HW232868   6.633   1.460   1.810
10657SOL     OW32869   6.108   0.757   4.376
10657SOL    HW132870   6.058   0.843   4.372
10657SOL    HW232871   6.046   0.683   4.403
10658SOL     OW32872   5.497   3.261   4.633
10658SOL    HW132873   5.428   3.205   4.679
10658SOL    HW232874   5.540   3.322   4.699
10659SOL     OW32875   0.930   4.570   1.008
10659SOL    HW132876   0.902   4.664   1.023
10659SOL    HW232877   0.895   4.538   0.920
10660SOL     OW32878   6.123   3.383   5.616
10660SOL    HW132879   6.074   3.443   5.553
10660SOL    HW232880   6.099   3.407   5.710
10661SOL     OW32881   1.198   4.409   0.369
10661SOL    HW132882   1.249   4.495   0.365
10661SOL    HW232883   1.260   4.335   0.396
10662SOL     OW32884   2.985   1.358   2.770
10662SOL    HW132885   2.933   1.441   2.792
10662SOL    HW232886   2.984   1.297   2.849
10663SOL     OW32887   1.380   0.947   3.618
10663SOL    HW132888   1.406   0.852   3.602
10663SOL    HW232889   1.372   0.994   3.530
10664SOL     OW32890   1.303   5.132   4.392
10664SOL    HW132891   1.326   5.189   4.313
10664SOL    HW232892   1.371   5.059   4.401
10665SOL     OW32893   2.262   3.454   6.418
10665SOL    HW132894   2.322   3.421   6.346
10665SOL    HW232895   2.168   3.460   6.383
10666SOL     OW32896   3.957   3.337   2.066
10666SOL    HW132897   3.996   3.254   2.106
10666SOL    HW232898   3.864   3.319   2.036
10667SOL     OW32899   5.427   2.190   2.497
10667SOL    HW132900   5.408   2.123   2.568
10667SOL    HW232901   5.341   2.229   2.465
10668SOL     OW32902   3.192   2.037   5.450
10668SOL    HW132903   3.165   2.133   5.440
10668SOL    HW232904   3.263   2.015   5.383
10669SOL     OW32905   6.026   1.034   0.479
10669SOL    HW132906   6.095   1.099   0.510
10669SOL    HW232907   5.941   1.083   0.457
10670SOL     OW32908   4.741   4.141   4.412
10670SOL    HW132909   4.730   4.165   4.316
10670SOL    HW232910   4.738   4.224   4.468
10671SOL     OW32911   1.148   1.606   4.396
10671SOL    HW132912   1.107   1.518   4.422
10671SOL    HW232913   1.226   1.625   4.456
10672SOL     OW32914   6.260   4.019   1.603
10672SOL    HW132915   6.278   3.961   1.682
10672SOL    HW232916   6.345   4.037   1.554
10673SOL     OW32917   1.944   0.624   0.851
10673SOL    HW132918   1.862   0.625   0.908
10673SOL    HW232919   1.951   0.536   0.804
10674SOL     OW32920   4.090   3.241   4.676
10674SOL    HW132921   4.140   3.172   4.623
10674SOL    HW232922   3.996   3.209   4.692
10675SOL     OW32923   3.476   1.155   6.539
10675SOL    HW132924   3.406   1.226   6.550
10675SOL    HW232925   3.479   1.126   6.443
10676SOL     OW32926   0.780   5.774   4.739
10676SOL    HW132927   0.816   5.851   4.686
10676SOL    HW232928   0.685   5.792   4.763
10677SOL     OW32929   1.466   1.816   0.765
10677SOL    HW132930   1.479   1.736   0.706
10677SOL    HW232931   1.402   1.792   0.839
10678SOL     OW32932   3.822   4.953   3.611
10678SOL    HW132933   3.727   4.981   3.619
10678SOL    HW232934   3.865   4.954   3.701
10679SOL     OW32935   4.009   4.874   0.513
10679SOL    HW132936   3.957   4.899   0.431
10679SOL    HW232937   4.034   4.957   0.563
10680SOL     OW32938   3.395   1.792   4.115
10680SOL    HW132939   3.475   1.746   4.077
10680SOL    HW232940   3.344   1.727   4.172
10681SOL     OW32941   6.839   3.553   0.074
10681SOL    HW132942   6.804   3.626   0.133
10681SOL    HW232943   6.765   3.489   0.054
10682SOL     OW32944   6.119   3.063   4.707
10682SOL    HW132945   6.164   3.111   4.782
10682SOL    HW232946   6.023   3.049   4.730
10683SOL     OW32947   4.495   0.180   3.478
10683SOL    HW132948   4.588   0.216   3.469
10683SOL    HW232949   4.453   0.217   3.561
10684SOL     OW32950   5.140   5.366   1.231
10684SOL    HW132951   5.167   5.370   1.328
10684SOL    HW232952   5.187   5.439   1.181
10685SOL     OW32953   6.670   5.802   1.999
10685SOL    HW132954   6.593   5.784   1.938
10685SOL    HW232955   6.754   5.807   1.946
10686SOL     OW32956   1.836   3.905   6.419
10686SOL    HW132957   1.762   3.959   6.378
10686SOL    HW232958   1.896   3.871   6.348
10687SOL     OW32959   6.539   4.738   3.036
10687SOL    HW132960   6.442   4.713   3.030
10687SOL    HW232961   6.555   4.790   3.120
10688SOL     OW32962   5.321   1.438   2.143
10688SOL    HW132963   5.316   1.339   2.145
10688SOL    HW232964   5.371   1.468   2.061
10689SOL     OW32965   0.584   0.087   1.670
10689SOL    HW132966   0.625   0.160   1.615
10689SOL    HW232967   0.485   0.086   1.655
10690SOL     OW32968   0.063   5.216   3.881
10690SOL    HW132969   0.115   5.299   3.902
10690SOL    HW232970   6.988   5.242   3.855
10691SOL     OW32971   2.148   1.766   2.007
10691SOL    HW132972   2.059   1.730   1.981
10691SOL    HW232973   2.200   1.695   2.055
10692SOL     OW32974   3.160   0.902   4.531
10692SOL    HW132975   3.183   0.806   4.546
10692SOL    HW232976   3.199   0.957   4.605
10693SOL     OW32977   0.718   5.897   1.832
10693SOL    HW132978   0.731   5.802   1.861
10693SOL    HW232979   0.678   5.950   1.908
10694SOL     OW32980   5.022   6.473   6.035
10694SOL    HW132981   4.981   6.399   5.982
10694SOL    HW232982   4.952   6.540   6.060
10695SOL     OW32983   1.466   2.895   1.257
10695SOL    HW132984   1.521   2.905   1.174
10695SOL    HW232985   1.486   2.806   1.299
10696SOL     OW32986   5.915   3.576   5.077
10696SOL    HW132987   5.973   3.495   5.068
10696SOL    HW232988   5.821   3.547   5.097
10697SOL     OW32989   0.162   6.323   5.597
10697SOL    HW132990   0.221   6.243   5.589
10697SOL    HW232991   0.066   6.294   5.603
10698SOL     OW32992   4.859   4.255   0.557
10698SOL    HW132993   4.884   4.202   0.476
10698SOL    HW232994   4.763   4.282   0.551
10699SOL     OW32995   3.982   4.414   0.830
10699SOL    HW132996   4.063   4.387   0.882
10699SOL    HW232997   3.921   4.467   0.889
10700SOL     OW32998   5.859   6.988   0.922
10700SOL    HW132999   5.921   6.998   0.845
10700SOL    HW233000   5.883   6.906   0.974
10701SOL     OW33001   3.076   0.325   6.182
10701SOL    HW133002   3.166   0.289   6.156
10701SOL    HW233003   3.030   0.361   6.101
10702SOL     OW33004   4.871   3.160   2.737
10702SOL    HW133005   4.902   3.114   2.653
10702SOL    HW233006   4.883   3.258   2.726
10703SOL     OW33007   2.216   3.040   5.480
10703SOL    HW133008   2.195   3.028   5.383
10703SOL    HW233009   2.195   3.134   5.508
10704SOL     OW33010   6.950   5.061   2.538
10704SOL    HW133011   0.024   5.036   2.511
10704SOL    HW233012   6.894   5.074   2.456
10705SOL     OW33013   5.851   5.064   0.829
10705SOL    HW133014   5.910   4.996   0.872
10705SOL    HW233015   5.848   5.049   0.730
10706SOL     OW33016   4.603   6.983   1.725
10706SOL    HW133017   4.541   6.905   1.713
10706SOL    HW233018   4.606   0.018   1.641
10707SOL     OW33019   0.143   6.636   4.235
10707SOL    HW133020   0.228   6.639   4.184
10707SOL    HW233021   0.139   6.713   4.299
10708SOL     OW33022   4.485   1.153   1.646
10708SOL    HW133023   4.540   1.094   1.705
10708SOL    HW233024   4.400   1.176   1.692
10709SOL     OW33025   5.879   5.522   4.644
10709SOL    HW133026   5.824   5.459   4.698
10709SOL    HW233027   5.832   5.541   4.557
10710SOL     OW33028   5.507   0.955   3.988
10710SOL    HW133029   5.426   0.991   3.940
10710SOL    HW233030   5.558   0.894   3.927
10711SOL     OW33031   2.334   6.715   3.851
10711SOL    HW133032   2.370   6.622   3.856
10711SOL    HW233033   2.235   6.713   3.863
10712SOL     OW33034   3.841   0.442   2.691
10712SOL    HW133035   3.928   0.477   2.726
10712SOL    HW233036   3.766   0.494   2.732
10713SOL     OW33037   1.239   2.735   0.273
10713SOL    HW133038   1.321   2.763   0.224
10713SOL    HW233039   1.213   2.643   0.244
10714SOL     OW33040   4.445   3.428   5.496
10714SOL    HW133041   4.403   3.344   5.463
10714SOL    HW233042   4.455   3.493   5.421
10715SOL     OW33043   4.196   0.339   2.223
10715SOL    HW133044   4.185   0.346   2.322
10715SOL    HW233045   4.273   0.395   2.193
10716SOL     OW33046   6.310   2.566   2.687
10716SOL    HW133047   6.319   2.505   2.609
10716SOL    HW233048   6.240   2.530   2.749
10717SOL     OW33049   1.748   2.903   0.871
10717SOL    HW133050   1.808   2.936   0.943
10717SOL    HW233051   1.789   2.922   0.782
10718SOL     OW33052   0.821   4.123   6.984
10718SOL    HW133053   0.747   4.056   6.996
10718SOL    HW233054   0.791   4.212   7.018
10719SOL     OW33055   6.220   5.834   3.251
10719SOL    HW133056   6.215   5.917   3.196
10719SOL    HW233057   6.150   5.838   3.322
10720SOL     OW33058   5.979   5.199   4.438
10720SOL    HW133059   5.976   5.195   4.538
10720SOL    HW233060   6.047   5.133   4.405
10721SOL     OW33061   5.158   3.991   5.103
10721SOL    HW133062   5.210   3.987   5.018
10721SOL    HW233063   5.151   4.085   5.134
10722SOL     OW33064   6.714   4.479   0.276
10722SOL    HW133065   6.754   4.558   0.231
10722SOL    HW233066   6.673   4.508   0.363
10723SOL     OW33067   0.376   1.843   6.379
10723SOL    HW133068   0.302   1.907   6.361
10723SOL    HW233069   0.425   1.824   6.293
10724SOL     OW33070   6.020   6.776   6.305
10724SOL    HW133071   6.070   6.740   6.384
10724SOL    HW233072   5.968   6.702   6.263
10725SOL     OW33073   1.993   5.845   5.344
10725SOL    HW133074   1.918   5.822   5.282
10725SOL    HW233075   1.969   5.815   5.437
10726SOL     OW33076   5.162   0.920   4.113
10726SOL    HW133077   5.080   0.970   4.086
10726SOL    HW233078   5.193   0.952   4.202
10727SOL     OW33079   0.214   5.654   5.867
10727SOL    HW133080   0.260   5.743   5.871
10727SOL    HW233081   0.251   5.601   5.790
10728SOL     OW33082   1.143   4.884   6.290
10728SOL    HW133083   1.071   4.852   6.351
10728SOL    HW233084   1.108   4.962   6.236
10729SOL     OW33085   6.123   1.363   2.389
10729SOL    HW133086   6.042   1.418   2.367
10729SOL    HW233087   6.127   1.349   2.488
10730SOL     OW33088   2.996   0.572   0.867
10730SOL    HW133089   2.993   0.667   0.896
10730SOL    HW233090   2.930   0.557   0.793
10731SOL     OW33091   3.352   0.849   0.573
10731SOL    HW133092   3.306   0.938   0.572
10731SOL    HW233093   3.307   0.788   0.509
10732SOL     OW33094   0.511   4.665   5.329
10732SOL    HW133095   0.451   4.649   5.407
10732SOL    HW233096   0.554   4.578   5.302
10733SOL     OW33097   6.430   1.750   6.438
10733SOL    HW133098   6.432   1.713   6.345
10733SOL    HW233099   6.484   1.691   6.498
10734SOL     OW33100   1.411   1.407   0.468
10734SOL    HW133101   1.456   1.353   0.397
10734SOL    HW233102   1.411   1.356   0.554
10735SOL     OW33103   0.514   2.689   2.359
10735SOL    HW133104   0.534   2.774   2.310
10735SOL    HW233105   0.482   2.620   2.294
10736SOL     OW33106   1.305   0.365   3.228
10736SOL    HW133107   1.246   0.435   3.269
10736SOL    HW233108   1.394   0.366   3.273
10737SOL     OW33109   1.111   2.075   0.770
10737SOL    HW133110   1.189   2.134   0.749
10737SOL    HW233111   1.131   2.023   0.853
10738SOL     OW33112   3.013   6.941   2.539
10738SOL    HW133113   3.091   6.967   2.483
10738SOL    HW233114   2.961   6.870   2.492
10739SOL     OW33115   2.194   1.171   1.585
10739SOL    HW133116   2.245   1.244   1.630
10739SOL    HW233117   2.141   1.209   1.509
10740SOL     OW33118   0.207   5.146   5.603
10740SOL    HW133119   0.179   5.237   5.572
10740SOL    HW233120   0.177   5.132   5.697
10741SOL     OW33121   4.410   0.991   1.441
10741SOL    HW133122   4.468   1.022   1.516
10741SOL    HW233123   4.334   0.937   1.477
10742SOL     OW33124   6.040   0.202   1.304
10742SOL    HW133125   6.131   0.234   1.280
10742SOL    HW233126   6.016   0.233   1.396
10743SOL     OW33127   1.257   2.637   5.706
10743SOL    HW133128   1.329   2.668   5.643
10743SOL    HW233129   1.299   2.582   5.779
10744SOL     OW33130   3.461   1.237   0.812
10744SOL    HW133131   3.549   1.226   0.765
10744SOL    HW233132   3.443   1.157   0.869
10745SOL     OW33133   6.616   5.858   6.014
10745SOL    HW133134   6.522   5.826   6.022
10745SOL    HW233135   6.643   5.902   6.100
10746SOL     OW33136   1.865   4.614   0.956
10746SOL    HW133137   1.853   4.602   1.054
10746SOL    HW233138   1.800   4.683   0.923
10747SOL     OW33139   3.647   1.366   4.983
10747SOL    HW133140   3.562   1.417   4.972
10747SOL    HW233141   3.713   1.420   5.035
10748SOL     OW33142   5.600   1.175   1.041
10748SOL    HW133143   5.567   1.092   1.085
10748SOL    HW233144   5.528   1.245   1.044
10749SOL     OW33145   0.062   5.680   4.013
10749SOL    HW133146   6.989   5.719   4.007
10749SOL    HW233147   0.130   5.753   4.018
10750SOL     OW33148   4.378   6.336   4.894
10750SOL    HW133149   4.290   6.301   4.928
10750SOL    HW233150   4.384   6.321   4.796
10751SOL     OW33151   1.545   4.981   4.115
10751SOL    HW133152   1.632   5.029   4.107
10751SOL    HW233153   1.477   5.024   4.055
10752SOL     OW33154   6.100   4.791   4.959
10752SOL    HW133155   6.164   4.759   4.889
10752SOL    HW233156   6.082   4.716   5.024
10753SOL     OW33157   6.224   4.806   4.263
10753SOL    HW133158   6.185   4.716   4.286
10753SOL    HW233159   6.318   4.794   4.232
10754SOL     OW33160   0.219   6.711   2.998
10754SOL    HW133161   0.121   6.726   2.989
10754SOL    HW233162   0.263   6.797   3.024
10755SOL     OW33163   0.064   0.524   0.864
10755SOL    HW133164   6.986   0.506   0.885
10755SOL    HW233165   0.122   0.472   0.927
10756SOL     OW33166   6.726   5.216   6.036
10756SOL    HW133167   6.776   5.303   6.029
10756SOL    HW233168   6.654   5.214   5.967
10757SOL     OW33169   1.653   2.493   0.016
10757SOL    HW133170   1.623   2.514   0.109
10757SOL    HW233171   1.573   2.487   6.975
10758SOL     OW33172   1.107   5.927   4.255
10758SOL    HW133173   1.085   6.022   4.279
10758SOL    HW233174   1.060   5.866   4.318
10759SOL     OW33175   1.814   4.150   0.997
10759SOL    HW133176   1.814   4.083   1.072
10759SOL    HW233177   1.909   4.171   0.972
10760SOL     OW33178   5.565   0.505   3.115
10760SOL    HW133179   5.579   0.588   3.169
10760SOL    HW233180   5.651   0.454   3.111
10761SOL     OW33181   0.308   5.972   5.842
10761SOL    HW133182   0.330   5.973   5.744
10761SOL    HW233183   0.345   6.054   5.886
10762SOL     OW33184   2.765   1.211   4.276
10762SOL    HW133185   2.714   1.268   4.212
10762SOL    HW233186   2.854   1.187   4.237
10763SOL     OW33187   3.753   6.687   2.407
10763SOL    HW133188   3.828   6.620   2.407
10763SOL    HW233189   3.791   6.779   2.418
10764SOL     OW33190   5.350   2.204   5.696
10764SOL    HW133191   5.389   2.145   5.766
10764SOL    HW233192   5.250   2.205   5.706
10765SOL     OW33193   4.616   2.794   0.558
10765SOL    HW133194   4.548   2.852   0.511
10765SOL    HW233195   4.648   2.841   0.640
10766SOL     OW33196   4.273   5.065   0.771
10766SOL    HW133197   4.357   5.104   0.810
10766SOL    HW233198   4.225   5.012   0.841
10767SOL     OW33199   2.728   0.254   1.327
10767SOL    HW133200   2.736   0.354   1.322
10767SOL    HW233201   2.816   0.213   1.305
10768SOL     OW33202   5.221   5.130   1.092
10768SOL    HW133203   5.166   5.050   1.115
10768SOL    HW233204   5.176   5.212   1.128
10769SOL     OW33205   2.090   4.026   5.284
10769SOL    HW133206   2.120   4.045   5.190
10769SOL    HW233207   2.165   3.985   5.335
10770SOL     OW33208   5.045   6.429   3.917
10770SOL    HW133209   4.949   6.450   3.937
10770SOL    HW233210   5.092   6.407   4.002
10771SOL     OW33211   4.560   0.016   4.409
10771SOL    HW133212   4.541   0.039   4.313
10771SOL    HW233213   4.631   0.076   4.445
10772SOL     OW33214   6.202   6.769   4.942
10772SOL    HW133215   6.118   6.734   4.901
10772SOL    HW233216   6.279   6.754   4.880
10773SOL     OW33217   5.320   5.153   6.663
10773SOL    HW133218   5.315   5.252   6.675
10773SOL    HW233219   5.231   5.112   6.683
10774SOL     OW33220   1.824   1.260   5.944
10774SOL    HW133221   1.806   1.327   5.872
10774SOL    HW233222   1.923   1.250   5.956
10775SOL     OW33223   0.309   4.931   2.665
10775SOL    HW133224   0.408   4.915   2.658
10775SOL    HW233225   0.288   4.970   2.754
10776SOL     OW33226   0.448   0.905   6.443
10776SOL    HW133227   0.484   0.974   6.505
10776SOL    HW233228   0.363   0.868   6.480
10777SOL     OW33229   3.918   5.198   1.517
10777SOL    HW133230   3.819   5.211   1.532
10777SOL    HW233231   3.944   5.235   1.428
10778SOL     OW33232   5.069   0.112   3.785
10778SOL    HW133233   5.014   0.125   3.703
10778SOL    HW233234   5.092   0.202   3.824
10779SOL     OW33235   5.999   2.964   3.147
10779SOL    HW133236   6.012   2.978   3.245
10779SOL    HW233237   5.953   3.045   3.108
10780SOL     OW33238   1.558   0.528   3.988
10780SOL    HW133239   1.592   0.477   3.909
10780SOL    HW233240   1.481   0.479   4.029
10781SOL     OW33241   4.067   0.719   3.757
10781SOL    HW133242   4.089   0.698   3.662
10781SOL    HW233243   4.008   0.800   3.760
10782SOL     OW33244   6.966   0.838   3.211
10782SOL    HW133245   6.968   0.897   3.292
10782SOL    HW233246   6.881   0.853   3.160
10783SOL     OW33247   0.448   2.242   2.596
10783SOL    HW133248   0.518   2.193   2.649
10783SOL    HW233249   0.362   2.191   2.601
10784SOL     OW33250   3.767   1.002   4.022
10784SOL    HW133251   3.731   1.066   4.089
10784SOL    HW233252   3.833   0.941   4.066
10785SOL     OW33253   1.062   3.937   0.893
10785SOL    HW133254   0.992   3.999   0.928
10785SOL    HW233255   1.027   3.844   0.892
10786SOL     OW33256   6.001   5.183   3.273
10786SOL    HW133257   6.088   5.148   3.305
10786SOL    HW233258   5.993   5.167   3.174
10787SOL     OW33259   1.373   1.125   5.919
10787SOL    HW133260   1.467   1.114   5.887
10787SOL    HW233261   1.322   1.041   5.905
10788SOL     OW33262   0.861   4.375   0.053
10788SOL    HW133263   0.838   4.436   0.128
10788SOL    HW233264   0.956   4.346   0.061
10789SOL     OW33265   6.496   3.505   6.778
10789SOL    HW133266   6.462   3.468   6.691
10789SOL    HW233267   6.593   3.484   6.787
10790SOL     OW33268   1.111   6.556   2.162
10790SOL    HW133269   1.094   6.489   2.090
10790SOL    HW233270   1.157   6.636   2.124
10791SOL     OW33271   0.170   5.757   1.964
10791SOL    HW133272   0.177   5.816   1.884
10791SOL    HW233273   0.166   5.661   1.934
10792SOL     OW33274   3.575   2.895   4.808
10792SOL    HW133275   3.648   2.862   4.748
10792SOL    HW233276   3.587   2.858   4.900
10793SOL     OW33277   6.278   4.069   6.245
10793SOL    HW133278   6.225   4.110   6.171
10793SOL    HW233279   6.232   3.987   6.277
10794SOL     OW33280   4.047   3.739   4.170
10794SOL    HW133281   4.084   3.698   4.253
10794SOL    HW233282   4.019   3.833   4.190
10795SOL     OW33283   0.139   5.306   2.816
10795SOL    HW133284   0.094   5.328   2.729
10795SOL    HW233285   0.088   5.234   2.863
10796SOL     OW33286   6.570   6.948   5.535
10796SOL    HW133287   6.652   6.901   5.567
10796SOL    HW233288   6.561   6.937   5.436
10797SOL     OW33289   3.123   2.568   0.950
10797SOL    HW133290   3.167   2.533   1.032
10797SOL    HW233291   3.041   2.514   0.930
10798SOL     OW33292   2.540   1.197   0.430
10798SOL    HW133293   2.549   1.098   0.433
10798SOL    HW233294   2.595   1.233   0.355
10799SOL     OW33295   4.201   1.073   2.408
10799SOL    HW133296   4.296   1.097   2.393
10799SOL    HW233297   4.190   1.036   2.500
10800SOL     OW33298   0.675   6.338   5.787
10800SOL    HW133299   0.727   6.303   5.709
10800SOL    HW233300   0.674   6.269   5.859
10801SOL     OW33301   1.189   0.191   6.854
10801SOL    HW133302   1.182   0.119   6.924
10801SOL    HW233303   1.136   0.163   6.774
10802SOL     OW33304   0.615   0.382   2.893
10802SOL    HW133305   0.624   0.292   2.934
10802SOL    HW233306   0.618   0.374   2.793
10803SOL     OW33307   1.454   5.752   5.531
10803SOL    HW133308   1.537   5.807   5.540
10803SOL    HW233309   1.377   5.810   5.503
10804SOL     OW33310   6.611   3.097   2.853
10804SOL    HW133311   6.652   3.006   2.860
10804SOL    HW233312   6.548   3.099   2.775
10805SOL     OW33313   5.221   0.788   5.062
10805SOL    HW133314   5.122   0.804   5.065
10805SOL    HW233315   5.246   0.750   4.973
10806SOL     OW33316   3.797   4.480   6.501
10806SOL    HW133317   3.793   4.579   6.488
10806SOL    HW233318   3.773   4.434   6.415
10807SOL     OW33319   1.421   6.085   3.417
10807SOL    HW133320   1.436   5.986   3.415
10807SOL    HW233321   1.361   6.108   3.493
10808SOL     OW33322   0.035   2.254   5.863
10808SOL    HW133323   6.970   2.238   5.916
10808SOL    HW233324   0.100   2.180   5.880
10809SOL     OW33325   2.402   4.557   3.775
10809SOL    HW133326   2.477   4.575   3.839
10809SOL    HW233327   2.375   4.461   3.783
10810SOL     OW33328   0.126   7.004   3.825
10810SOL    HW133329   0.171   6.987   3.737
10810SOL    HW233330   0.027   7.009   3.811
10811SOL     OW33331   4.284   4.927   5.296
10811SOL    HW133332   4.295   5.014   5.343
10811SOL    HW233333   4.299   4.940   5.198
10812SOL     OW33334   6.838   4.262   6.598
10812SOL    HW133335   6.850   4.184   6.535
10812SOL    HW233336   6.903   4.334   6.574
10813SOL     OW33337   0.589   4.020   5.820
10813SOL    HW133338   0.671   4.062   5.780
10813SOL    HW233339   0.605   4.000   5.917
10814SOL     OW33340   2.059   6.998   6.832
10814SOL    HW133341   2.081   6.967   6.924
10814SOL    HW233342   2.016   0.070   6.837
10815SOL     OW33343   5.201   2.619   2.630
10815SOL    HW133344   5.116   2.631   2.681
10815SOL    HW233345   5.187   2.649   2.535
10816SOL     OW33346   3.704   3.637   2.599
10816SOL    HW133347   3.657   3.602   2.680
10816SOL    HW233348   3.642   3.696   2.547
10817SOL     OW33349   3.352   0.722   3.893
10817SOL    HW133350   3.382   0.703   3.800
10817SOL    HW233351   3.421   0.688   3.958
10818SOL     OW33352   4.366   4.537   5.831
10818SOL    HW133353   4.443   4.477   5.847
10818SOL    HW233354   4.301   4.530   5.907
10819SOL     OW33355   5.913   5.518   6.148
10819SOL    HW133356   5.883   5.609   6.179
10819SOL    HW233357   5.832   5.460   6.134
10820SOL     OW33358   0.184   5.405   4.460
10820SOL    HW133359   0.283   5.414   4.452
10820SOL    HW233360   0.142   5.423   4.371
10821SOL     OW33361   4.321   6.777   2.503
10821SOL    HW133362   4.403   6.763   2.447
10821SOL    HW233363   4.248   6.716   2.471
10822SOL     OW33364   6.734   1.826   1.574
10822SOL    HW133365   6.788   1.791   1.651
10822SOL    HW233366   6.769   1.787   1.489
10823SOL     OW33367   0.272   0.527   3.305
10823SOL    HW133368   0.263   0.595   3.377
10823SOL    HW233369   0.195   0.535   3.242
10824SOL     OW33370   0.652   1.286   2.494
10824SOL    HW133371   0.657   1.188   2.511
10824SOL    HW233372   0.658   1.302   2.395
10825SOL     OW33373   1.505   2.464   0.546
10825SOL    HW133374   1.512   2.463   0.646
10825SOL    HW233375   1.560   2.390   0.508
10826SOL     OW33376   0.525   1.860   2.488
10826SOL    HW133377   0.552   1.916   2.410
10826SOL    HW233378   0.425   1.858   2.494
10827SOL     OW33379   6.500   2.858   5.155
10827SOL    HW133380   6.518   2.861   5.057
10827SOL    HW233381   6.582   2.886   5.205
10828SOL     OW33382   0.380   4.235   0.804
10828SOL    HW133383   0.338   4.265   0.718
10828SOL    HW233384   0.477   4.261   0.804
10829SOL     OW33385   4.393   3.552   0.187
10829SOL    HW133386   4.438   3.629   0.233
10829SOL    HW233387   4.456   3.475   0.184
10830SOL     OW33388   4.777   1.542   3.453
10830SOL    HW133389   4.800   1.574   3.361
10830SOL    HW233390   4.737   1.616   3.506
10831SOL     OW33391   3.134   6.736   2.247
10831SOL    HW133392   3.080   6.819   2.234
10831SOL    HW233393   3.190   6.745   2.329
10832SOL     OW33394   6.536   3.786   6.774
10832SOL    HW133395   6.522   3.689   6.754
10832SOL    HW233396   6.582   3.829   6.697
10833SOL     OW33397   0.624   2.405   0.299
10833SOL    HW133398   0.710   2.450   0.274
10833SOL    HW233399   0.563   2.471   0.341
10834SOL     OW33400   0.227   1.489   6.881
10834SOL    HW133401   0.313   1.523   6.843
10834SOL    HW233402   0.233   1.485   6.981
10835SOL     OW33403   5.628   3.123   0.132
10835SOL    HW133404   5.555   3.062   0.164
10835SOL    HW233405   5.662   3.092   0.043
10836SOL     OW33406   0.371   1.424   2.758
10836SOL    HW133407   0.372   1.405   2.660
10836SOL    HW233408   0.284   1.394   2.797
10837SOL     OW33409   6.502   4.707   1.962
10837SOL    HW133410   6.459   4.791   1.994
10837SOL    HW233411   6.478   4.632   2.023
10838SOL     OW33412   5.515   6.489   4.256
10838SOL    HW133413   5.561   6.478   4.344
10838SOL    HW233414   5.583   6.512   4.186
10839SOL     OW33415   4.505   3.368   0.823
10839SOL    HW133416   4.535   3.284   0.866
10839SOL    HW233417   4.583   3.429   0.809
10840SOL     OW33418   3.735   0.348   2.423
10840SOL    HW133419   3.743   0.394   2.334
10840SOL    HW233420   3.770   0.408   2.495
10841SOL     OW33421   6.211   4.930   5.152
10841SOL    HW133422   6.161   4.892   5.073
10841SOL    HW233423   6.213   5.030   5.145
10842SOL     OW33424   4.878   2.108   1.257
10842SOL    HW133425   4.874   2.178   1.328
10842SOL    HW233426   4.842   2.022   1.294
10843SOL     OW33427   2.175   1.272   1.306
10843SOL    HW133428   2.267   1.237   1.286
10843SOL    HW233429   2.125   1.284   1.220
10844SOL     OW33430   6.951   4.489   3.588
10844SOL    HW133431   6.909   4.443   3.666
10844SOL    HW233432   6.884   4.547   3.543
10845SOL     OW33433   4.562   5.723   4.998
10845SOL    HW133434   4.558   5.665   5.080
10845SOL    HW233435   4.480   5.780   4.994
10846SOL     OW33436   5.713   6.937   6.923
10846SOL    HW133437   5.676   7.017   6.971
10846SOL    HW233438   5.647   6.907   6.854
10847SOL     OW33439   3.147   1.787   0.117
10847SOL    HW133440   3.063   1.764   0.165
10847SOL    HW233441   3.205   1.706   0.110
10848SOL     OW33442   0.580   4.102   1.125
10848SOL    HW133443   0.660   4.096   1.185
10848SOL    HW233444   0.608   4.132   1.034
10849SOL     OW33445   2.576   4.553   4.277
10849SOL    HW133446   2.535   4.494   4.347
10849SOL    HW233447   2.503   4.592   4.220
10850SOL     OW33448   3.944   6.689   0.279
10850SOL    HW133449   3.912   6.771   0.326
10850SOL    HW233450   3.866   6.645   0.233
10851SOL     OW33451   3.303   3.936   0.855
10851SOL    HW133452   3.299   4.023   0.806
10851SOL    HW233453   3.234   3.874   0.818
10852SOL     OW33454   2.183   1.600   6.878
10852SOL    HW133455   2.130   1.550   6.947
10852SOL    HW233456   2.240   1.536   6.827
10853SOL     OW33457   2.500   3.520   5.993
10853SOL    HW133458   2.528   3.607   5.952
10853SOL    HW233459   2.474   3.456   5.921
10854SOL     OW33460   4.336   5.177   5.452
10854SOL    HW133461   4.311   5.195   5.547
10854SOL    HW233462   4.371   5.261   5.410
10855SOL     OW33463   3.984   0.622   0.794
10855SOL    HW133464   3.940   0.658   0.876
10855SOL    HW233465   3.963   0.681   0.716
10856SOL     OW33466   6.718   1.249   6.641
10856SOL    HW133467   6.633   1.299   6.659
10856SOL    HW233468   6.782   1.308   6.592
10857SOL     OW33469   0.553   2.231   3.011
10857SOL    HW133470   0.555   2.330   3.022
10857SOL    HW233471   0.458   2.201   2.997
10858SOL     OW33472   1.424   0.144   0.747
10858SOL    HW133473   1.405   0.136   0.845
10858SOL    HW233474   1.342   0.121   0.694
10859SOL     OW33475   6.681   4.350   4.679
10859SOL    HW133476   6.755   4.286   4.694
10859SOL    HW233477   6.693   4.429   4.740
10860SOL     OW33478   0.358   3.141   4.349
10860SOL    HW133479   0.329   3.220   4.402
10860SOL    HW233480   0.434   3.095   4.396
10861SOL     OW33481   3.166   2.972   2.641
10861SOL    HW133482   3.158   2.986   2.542
10861SOL    HW233483   3.113   2.892   2.667
10862SOL     OW33484   1.923   0.786   5.240
10862SOL    HW133485   1.928   0.885   5.249
10862SOL    HW233486   1.833   0.760   5.204
10863SOL     OW33487   2.265   0.683   4.471
10863SOL    HW133488   2.319   0.651   4.549
10863SOL    HW233489   2.183   0.627   4.463
10864SOL     OW33490   3.227   6.433   0.903
10864SOL    HW133491   3.210   6.467   0.995
10864SOL    HW233492   3.196   6.338   0.896
10865SOL     OW33493   6.971   1.590   0.120
10865SOL    HW133494   6.902   1.630   0.181
10865SOL    HW233495   7.014   1.512   0.165
10866SOL     OW33496   5.985   4.835   0.297
10866SOL    HW133497   5.909   4.888   0.334
10866SOL    HW233498   6.031   4.787   0.372
10867SOL     OW33499   2.860   4.371   0.672
10867SOL    HW133500   2.804   4.447   0.706
10867SOL    HW233501   2.820   4.335   0.588
10868SOL     OW33502   5.468   1.718   3.989
10868SOL    HW133503   5.432   1.625   3.992
10868SOL    HW233504   5.482   1.753   4.082
10869NA      NA33505   6.233   2.926   5.733
10870NA      NA33506   4.468   4.557   5.217
10871NA      NA33507   1.799   3.034   1.791
10872NA      NA33508   4.970   3.862   5.199
10873NA      NA33509   4.004   2.234   5.039
10874NA      NA33510   3.666   4.862   1.764
10875NA      NA33511   6.749   5.036   6.186
10876NA      NA33512   3.313   3.332   4.720
10877NA      NA33513   4.547   6.152   0.060
10878NA      NA33514   3.797   6.443   5.636
10879NA      NA33515   6.556   5.089   2.774
10880NA      NA33516   2.446   0.502   3.395
10881NA      NA33517   4.333   5.244   1.762
10882NA      NA33518   4.013   3.513   2.224
   7.01862   7.01862   7.01862
